<event>
 4    0  0.2190908E-002  0.1671890E+03  0.7546771E-02  0.1180811E+00
         21   -1    0    0  502  501  0.00000000000E+00  0.00000000000E+00  0.66752041122E+03  0.66752041122E+03  0.00000000000E+00 0.  1.
         21   -1    0    0  501  502 -0.00000000000E+00 -0.00000000000E+00 -0.41874616722E+02  0.41874616722E+02  0.00000000000E+00 0.  1.
         25    1    1    2    0    0  0.66677400918E+02 -0.36420348057E+02  0.14105910439E+03  0.20321168391E+03  0.12500000000E+03 0.  0.
         25    1    1    2    0    0 -0.66677400918E+02  0.36420348057E+02  0.48458669011E+03  0.50618334404E+03  0.12500000000E+03 0.  0.
</event>
<event>
 4    0  0.2190908E-002  0.2233025E+03  0.7546771E-02  0.1131445E+00
         21   -1    0    0  502  501  0.00000000000E+00  0.00000000000E+00  0.17832754397E+04  0.17832754397E+04  0.00000000000E+00 0.  1.
         21   -1    0    0  501  502 -0.00000000000E+00 -0.00000000000E+00 -0.27962031581E+02  0.27962031581E+02  0.00000000000E+00 0.  1.
         25    1    1    2    0    0  0.88727991465E+01  0.11720647240E+03  0.14572331751E+04  0.14673001092E+04  0.12500000000E+03 0.  0.
         25    1    1    2    0    0 -0.88727991465E+01 -0.11720647240E+03  0.29808023295E+03  0.34393736205E+03  0.12500000000E+03 0.  0.
</event>
<event>
 4    0  0.2190908E-002  0.2696478E+03  0.7546771E-02  0.1101481E+00
         21   -1    0    0  502  501  0.00000000000E+00  0.00000000000E+00  0.36754027803E+03  0.36754027803E+03  0.00000000000E+00 0.  1.
         21   -1    0    0  501  502 -0.00000000000E+00 -0.00000000000E+00 -0.19782853914E+03  0.19782853914E+03  0.00000000000E+00 0.  1.
         25    1    1    2    0    0 -0.16253104454E+03 -0.15746805449E+03  0.45192132255E+01  0.25856904670E+03  0.12500000000E+03 0.  0.
         25    1    1    2    0    0  0.16253104454E+03  0.15746805449E+03  0.16519252566E+03  0.30679977047E+03  0.12500000000E+03 0.  0.
</event>
<event>
 4    0  0.2190908E-002  0.3818241E+03  0.7546771E-02  0.1050262E+00
         21   -1    0    0  502  501  0.00000000000E+00  0.00000000000E+00  0.12898017068E+04  0.12898017068E+04  0.00000000000E+00 0. -1.
         21   -1    0    0  501  502 -0.00000000000E+00 -0.00000000000E+00 -0.11303260145E+03  0.11303260145E+03  0.00000000000E+00 0. -1.
         25    1    1    2    0    0  0.26120920089E+02  0.14866049499E+03 -0.13592026802E+02  0.19644843707E+03  0.12500000000E+03 0.  0.
         25    1    1    2    0    0 -0.26120920089E+02 -0.14866049499E+03  0.11903611322E+04  0.12063858712E+04  0.12500000000E+03 0.  0.
</event>
<event>
 4    0  0.2190908E-002  0.5051179E+03  0.7546771E-02  0.1012452E+00
         21   -1    0    0  502  501  0.00000000000E+00  0.00000000000E+00  0.27595979751E+03  0.27595979751E+03  0.00000000000E+00 0.  1.
         21   -1    0    0  501  502 -0.00000000000E+00 -0.00000000000E+00 -0.92456987394E+03  0.92456987394E+03  0.00000000000E+00 0.  1.
         25    1    1    2    0    0 -0.36339082733E+03 -0.31709573847E+03 -0.22547390638E+03  0.54686934747E+03  0.12500000000E+03 0.  0.
         25    1    1    2    0    0  0.36339082733E+03  0.31709573847E+03 -0.42313617005E+03  0.65366032398E+03  0.12500000000E+03 0.  0.
</event>
<event>
 4    0  0.2190908E-002  0.3891767E+03  0.7546771E-02  0.1047593E+00
         21   -1    0    0  502  501  0.00000000000E+00  0.00000000000E+00  0.48746407724E+03  0.48746407724E+03  0.00000000000E+00 0.  1.
         21   -1    0    0  501  502 -0.00000000000E+00 -0.00000000000E+00 -0.31070700244E+03  0.31070700244E+03  0.00000000000E+00 0.  1.
         25    1    1    2    0    0  0.35844506971E+03  0.78058519753E+02  0.12474268894E+03  0.40713847638E+03  0.12500000000E+03 0.  0.
         25    1    1    2    0    0 -0.35844506971E+03 -0.78058519753E+02  0.52014385860E+02  0.39103260330E+03  0.12500000000E+03 0.  0.
</event>
<event>
 4    0  0.2190908E-002  0.1617404E+03  0.7546771E-02  0.1186746E+00
         21   -1    0    0  502  501  0.00000000000E+00  0.00000000000E+00  0.92175920329E+02  0.92175920329E+02  0.00000000000E+00 0.  1.
         21   -1    0    0  501  502 -0.00000000000E+00 -0.00000000000E+00 -0.28380458790E+03  0.28380458790E+03  0.00000000000E+00 0.  1.
         25    1    1    2    0    0 -0.13002331060E+02  0.87773833550E+02 -0.35850173226E+02  0.15742789267E+03  0.12500000000E+03 0.  0.
         25    1    1    2    0    0  0.13002331060E+02 -0.87773833550E+02 -0.15577849434E+03  0.21855261556E+03  0.12500000000E+03 0.  0.
</event>
<event>
 4    0  0.2190908E-002  0.1985696E+03  0.7546771E-02  0.1150951E+00
         21   -1    0    0  502  501  0.00000000000E+00  0.00000000000E+00  0.32630130480E+03  0.32630130480E+03  0.00000000000E+00 0. -1.
         21   -1    0    0  501  502 -0.00000000000E+00 -0.00000000000E+00 -0.12083893236E+03  0.12083893236E+03  0.00000000000E+00 0. -1.
         25    1    1    2    0    0 -0.13285432319E+03  0.77834759584E+02  0.91677807016E+02  0.21849105540E+03  0.12500000000E+03 0.  0.
         25    1    1    2    0    0  0.13285432319E+03 -0.77834759584E+02  0.11378456542E+03  0.22864918176E+03  0.12500000000E+03 0.  0.
</event>
<event>
 4    0  0.2190908E-002  0.1758729E+03  0.7546771E-02  0.1171858E+00
         21   -1    0    0  502  501  0.00000000000E+00  0.00000000000E+00  0.77285316868E+02  0.77285316868E+02  0.00000000000E+00 0.  1.
         21   -1    0    0  501  502 -0.00000000000E+00 -0.00000000000E+00 -0.40022193645E+03  0.40022193645E+03  0.00000000000E+00 0.  1.
         25    1    1    2    0    0 -0.80937458044E+02 -0.60207331265E+02 -0.25870501155E+03  0.30451449531E+03  0.12500000000E+03 0.  0.
         25    1    1    2    0    0  0.80937458044E+02  0.60207331265E+02 -0.64231608031E+02  0.17299275801E+03  0.12500000000E+03 0.  0.
</event>
<event>
 4    0  0.2190908E-002  0.1822365E+03  0.7546771E-02  0.1165656E+00
         21   -1    0    0  502  501  0.00000000000E+00  0.00000000000E+00  0.99471947952E+02  0.99471947952E+02  0.00000000000E+00 0. -1.
         21   -1    0    0  501  502 -0.00000000000E+00 -0.00000000000E+00 -0.33386448667E+03  0.33386448667E+03  0.00000000000E+00 0. -1.
         25    1    1    2    0    0 -0.30419291337E+02 -0.87694507282E+02 -0.45948969151E+01  0.15576191117E+03  0.12500000000E+03 0.  0.
         25    1    1    2    0    0  0.30419291337E+02  0.87694507282E+02 -0.22979764180E+03  0.27757452346E+03  0.12500000000E+03 0.  0.
</event>
<event>
 4    0  0.2190908E-002  0.2661380E+03  0.7546771E-02  0.1103510E+00
         21   -1    0    0  502  501  0.00000000000E+00  0.00000000000E+00  0.26778270130E+03  0.26778270130E+03  0.00000000000E+00 0. -1.
         21   -1    0    0  501  502 -0.00000000000E+00 -0.00000000000E+00 -0.26450345926E+03  0.26450345926E+03  0.00000000000E+00 0.  1.
         25    1    1    2    0    0  0.13555354412E+03 -0.14899378632E+03 -0.11931944002E+03  0.26539789082E+03  0.12500000000E+03 0.  0.
         25    1    1    2    0    0 -0.13555354412E+03  0.14899378632E+03  0.12259868205E+03  0.26688826974E+03  0.12500000000E+03 0.  0.
</event>
<event>
 4    0  0.2190908E-002  0.1735953E+03  0.7546771E-02  0.1174150E+00
         21   -1    0    0  502  501  0.00000000000E+00  0.00000000000E+00  0.29594015472E+02  0.29594015472E+02  0.00000000000E+00 0. -1.
         21   -1    0    0  501  502 -0.00000000000E+00 -0.00000000000E+00 -0.10182910841E+04  0.10182910841E+04  0.00000000000E+00 0. -1.
         25    1    1    2    0    0 -0.11427074434E+03 -0.33448827922E+02 -0.54948267348E+03  0.57596252964E+03  0.12500000000E+03 0.  0.
         25    1    1    2    0    0  0.11427074434E+03  0.33448827922E+02 -0.43921439518E+03  0.47192256996E+03  0.12500000000E+03 0.  0.
</event>
<event>
 4    0  0.2190908E-002  0.2228663E+03  0.7546771E-02  0.1131764E+00
         21   -1    0    0  502  501  0.00000000000E+00  0.00000000000E+00  0.35213977088E+02  0.35213977088E+02  0.00000000000E+00 0.  1.
         21   -1    0    0  501  502 -0.00000000000E+00 -0.00000000000E+00 -0.14105017402E+04  0.14105017402E+04  0.00000000000E+00 0.  1.
         25    1    1    2    0    0 -0.10589523260E+03  0.14984131749E+03 -0.62457086257E+03  0.66285743798E+03  0.12500000000E+03 0.  0.
         25    1    1    2    0    0  0.10589523260E+03 -0.14984131749E+03 -0.75071690051E+03  0.78285827927E+03  0.12500000000E+03 0.  0.
</event>
<event>
 4    0  0.2190908E-002  0.3049309E+03  0.7546771E-02  0.1082801E+00
         21   -1    0    0  502  501  0.00000000000E+00  0.00000000000E+00  0.15892070617E+03  0.15892070617E+03  0.00000000000E+00 0. -1.
         21   -1    0    0  501  502 -0.00000000000E+00 -0.00000000000E+00 -0.58508978516E+03  0.58508978516E+03  0.00000000000E+00 0. -1.
         25    1    1    2    0    0 -0.86016860618E+02 -0.26449586267E+03 -0.21191429520E+03  0.37133492993E+03  0.12500000000E+03 0.  0.
         25    1    1    2    0    0  0.86016860618E+02  0.26449586267E+03 -0.21425478380E+03  0.37267556139E+03  0.12500000000E+03 0.  0.
</event>
<event>
 4    0  0.2190908E-002  0.2055958E+03  0.7546771E-02  0.1145102E+00
         21   -1    0    0  502  501  0.00000000000E+00  0.00000000000E+00  0.46974129909E+03  0.46974129909E+03  0.00000000000E+00 0. -1.
         21   -1    0    0  501  502 -0.00000000000E+00 -0.00000000000E+00 -0.89984900350E+02  0.89984900350E+02  0.00000000000E+00 0. -1.
         25    1    1    2    0    0  0.48784118784E+02 -0.10916538943E+03  0.34113803682E+03  0.38248808172E+03  0.12500000000E+03 0.  0.
         25    1    1    2    0    0 -0.48784118784E+02  0.10916538943E+03  0.38618361927E+02  0.17723811772E+03  0.12500000000E+03 0.  0.
</event>
<event>
 4    0  0.2190908E-002  0.2320082E+03  0.7546771E-02  0.1125234E+00
         21   -1    0    0  502  501  0.00000000000E+00  0.00000000000E+00  0.13274830858E+03  0.13274830858E+03  0.00000000000E+00 0.  1.
         21   -1    0    0  501  502 -0.00000000000E+00 -0.00000000000E+00 -0.40548756333E+03  0.40548756333E+03  0.00000000000E+00 0.  1.
         25    1    1    2    0    0 -0.13055288578E+03  0.88771604422E+02 -0.27003261907E+03  0.33684873326E+03  0.12500000000E+03 0.  0.
         25    1    1    2    0    0  0.13055288578E+03 -0.88771604422E+02 -0.27066356932E+01  0.20138713865E+03  0.12500000000E+03 0.  0.
</event>
<event>
 4    0  0.2190908E-002  0.1978622E+03  0.7546771E-02  0.1151555E+00
         21   -1    0    0  502  501  0.00000000000E+00  0.00000000000E+00  0.36480962979E+03  0.36480962979E+03  0.00000000000E+00 0.  1.
         21   -1    0    0  501  502 -0.00000000000E+00 -0.00000000000E+00 -0.10731471745E+03  0.10731471745E+03  0.00000000000E+00 0.  1.
         25    1    1    2    0    0 -0.10344464566E+03 -0.85704357573E+01 -0.59694279526E+01  0.16258807199E+03  0.12500000000E+03 0.  0.
         25    1    1    2    0    0  0.10344464566E+03  0.85704357573E+01  0.26346434029E+03  0.30953627524E+03  0.12500000000E+03 0.  0.
</event>
<event>
 4    0  0.2190908E-002  0.3969689E+03  0.7546771E-02  0.1044834E+00
         21   -1    0    0  502  501  0.00000000000E+00  0.00000000000E+00  0.73354863574E+03  0.73354863574E+03  0.00000000000E+00 0.  1.
         21   -1    0    0  501  502 -0.00000000000E+00 -0.00000000000E+00 -0.21482461360E+03  0.21482461360E+03  0.00000000000E+00 0. -1.
         25    1    1    2    0    0 -0.12826322512E+03  0.35080276029E+03  0.20029346329E+03  0.44187838031E+03  0.12500000000E+03 0.  0.
         25    1    1    2    0    0  0.12826322512E+03 -0.35080276029E+03  0.31843055885E+03  0.50649486903E+03  0.12500000000E+03 0.  0.
</event>
<event>
 4    0  0.2190908E-002  0.2294957E+03  0.7546771E-02  0.1126995E+00
         21   -1    0    0  502  501  0.00000000000E+00  0.00000000000E+00  0.67529619269E+02  0.67529619269E+02  0.00000000000E+00 0. -1.
         21   -1    0    0  501  502 -0.00000000000E+00 -0.00000000000E+00 -0.77992822668E+03  0.77992822668E+03  0.00000000000E+00 0. -1.
         25    1    1    2    0    0 -0.22259538921E+02  0.10885459230E+03 -0.66032008533E+02  0.17980554910E+03  0.12500000000E+03 0.  0.
         25    1    1    2    0    0  0.22259538921E+02 -0.10885459230E+03 -0.64636659888E+03  0.66765229685E+03  0.12500000000E+03 0.  0.
</event>
<event>
 4    0  0.2190908E-002  0.3540443E+03  0.7546771E-02  0.1060967E+00
         21   -1    0    0  502  501  0.00000000000E+00  0.00000000000E+00  0.80633264499E+03  0.80633264499E+03  0.00000000000E+00 0. -1.
         21   -1    0    0  501  502 -0.00000000000E+00 -0.00000000000E+00 -0.15545367158E+03  0.15545367158E+03  0.00000000000E+00 0. -1.
         25    1    1    2    0    0  0.90221596506E+02 -0.19767042578E+03  0.66503480357E+03  0.71071078763E+03  0.12500000000E+03 0.  0.
         25    1    1    2    0    0 -0.90221596506E+02  0.19767042578E+03 -0.14155830151E+02  0.25107552894E+03  0.12500000000E+03 0.  0.
</event>
<event>
 4    0  0.2190908E-002  0.3575124E+03  0.7546771E-02  0.1059573E+00
         21   -1    0    0  502  501  0.00000000000E+00  0.00000000000E+00  0.58934436307E+03  0.58934436307E+03  0.00000000000E+00 0.  1.
         21   -1    0    0  501  502 -0.00000000000E+00 -0.00000000000E+00 -0.21687679386E+03  0.21687679386E+03  0.00000000000E+00 0.  1.
         25    1    1    2    0    0 -0.10943172003E+03 -0.71274142768E+02 -0.16154478441E+03  0.24243972890E+03  0.12500000000E+03 0.  0.
         25    1    1    2    0    0  0.10943172003E+03  0.71274142768E+02  0.53401235362E+03  0.56378142803E+03  0.12500000000E+03 0.  0.
</event>
<event>
 4    0  0.2190908E-002  0.1868929E+03  0.7546771E-02  0.1161294E+00
         21   -1    0    0  502  501  0.00000000000E+00  0.00000000000E+00  0.85908933074E+02  0.85908933074E+02  0.00000000000E+00 0. -1.
         21   -1    0    0  501  502 -0.00000000000E+00 -0.00000000000E+00 -0.40658135117E+03  0.40658135117E+03  0.00000000000E+00 0. -1.
         25    1    1    2    0    0 -0.37807388343E+02  0.12367758657E+02 -0.33573490860E+03  0.36045150703E+03  0.12500000000E+03 0.  0.
         25    1    1    2    0    0  0.37807388343E+02 -0.12367758657E+02  0.15062490506E+02  0.13203877721E+03  0.12500000000E+03 0.  0.
</event>
<event>
 4    0  0.2190908E-002  0.1651594E+03  0.7546771E-02  0.1182992E+00
         21   -1    0    0  502  501  0.00000000000E+00  0.00000000000E+00  0.28503089185E+03  0.28503089185E+03  0.00000000000E+00 0. -1.
         21   -1    0    0  501  502 -0.00000000000E+00 -0.00000000000E+00 -0.95700545000E+02  0.95700545000E+02  0.00000000000E+00 0. -1.
         25    1    1    2    0    0  0.67706071708E+02  0.50768579778E+02  0.17190824890E+03  0.22877719921E+03  0.12500000000E+03 0.  0.
         25    1    1    2    0    0 -0.67706071708E+02 -0.50768579778E+02  0.17422097948E+02  0.15195423764E+03  0.12500000000E+03 0.  0.
</event>
<event>
 4    0  0.2190908E-002  0.1852236E+03  0.7546771E-02  0.1162841E+00
         21   -1    0    0  502  501  0.00000000000E+00  0.00000000000E+00  0.25879422076E+03  0.25879422076E+03  0.00000000000E+00 0. -1.
         21   -1    0    0  501  502 -0.00000000000E+00 -0.00000000000E+00 -0.13256784773E+03  0.13256784773E+03  0.00000000000E+00 0. -1.
         25    1    1    2    0    0 -0.11108123254E+03  0.65810715415E+00 -0.21028388955E+02  0.16854277342E+03  0.12500000000E+03 0.  0.
         25    1    1    2    0    0  0.11108123254E+03 -0.65810715415E+00  0.14725476199E+03  0.22281929508E+03  0.12500000000E+03 0.  0.
</event>
<event>
 4    0  0.2190908E-002  0.2037755E+03  0.7546771E-02  0.1146592E+00
         21   -1    0    0  502  501  0.00000000000E+00  0.00000000000E+00  0.21772261956E+02  0.21772261956E+02  0.00000000000E+00 0.  1.
         21   -1    0    0  501  502 -0.00000000000E+00 -0.00000000000E+00 -0.19072175545E+04  0.19072175545E+04  0.00000000000E+00 0.  1.
         25    1    1    2    0    0  0.89518592106E+02 -0.60531338505E+02 -0.15071728298E+04  0.15162033373E+04  0.12500000000E+03 0.  0.
         25    1    1    2    0    0 -0.89518592106E+02  0.60531338505E+02 -0.37827246278E+03  0.41278647915E+03  0.12500000000E+03 0.  0.
</event>
<event>
 4    0  0.2190908E-002  0.2570136E+03  0.7546771E-02  0.1108951E+00
         21   -1    0    0  502  501  0.00000000000E+00  0.00000000000E+00  0.44808473777E+03  0.44808473777E+03  0.00000000000E+00 0.  1.
         21   -1    0    0  501  502 -0.00000000000E+00 -0.00000000000E+00 -0.14741852324E+03  0.14741852324E+03  0.00000000000E+00 0.  1.
         25    1    1    2    0    0 -0.16916403425E+03  0.67251678898E+02  0.30267427717E+03  0.37466782202E+03  0.12500000000E+03 0.  0.
         25    1    1    2    0    0  0.16916403425E+03 -0.67251678898E+02 -0.20080626396E+01  0.22083543899E+03  0.12500000000E+03 0.  0.
</event>
<event>
 4    0  0.2190908E-002  0.1825349E+03  0.7546771E-02  0.1165372E+00
         21   -1    0    0  502  501  0.00000000000E+00  0.00000000000E+00  0.44385213381E+02  0.44385213381E+02  0.00000000000E+00 0. -1.
         21   -1    0    0  501  502 -0.00000000000E+00 -0.00000000000E+00 -0.75067806130E+03  0.75067806130E+03  0.00000000000E+00 0. -1.
         25    1    1    2    0    0  0.10419474786E+03  0.82210207301E+02 -0.37249640176E+03  0.41472115089E+03  0.12500000000E+03 0.  0.
         25    1    1    2    0    0 -0.10419474786E+03 -0.82210207301E+02 -0.33379644616E+03  0.38034212379E+03  0.12500000000E+03 0.  0.
</event>
<event>
 4    0  0.2190908E-002  0.2081322E+03  0.7546771E-02  0.1143054E+00
         21   -1    0    0  502  501  0.00000000000E+00  0.00000000000E+00  0.83860688330E+02  0.83860688330E+02  0.00000000000E+00 0.  1.
         21   -1    0    0  501  502 -0.00000000000E+00 -0.00000000000E+00 -0.51655939869E+03  0.51655939869E+03  0.00000000000E+00 0.  1.
         25    1    1    2    0    0  0.46161342815E+02 -0.14547866664E+03 -0.31201775632E+03  0.36915442877E+03  0.12500000000E+03 0.  0.
         25    1    1    2    0    0 -0.46161342815E+02  0.14547866664E+03 -0.12068095403E+03  0.23126565825E+03  0.12500000000E+03 0.  0.
</event>
<event>
 4    0  0.2190908E-002  0.3512595E+03  0.7546771E-02  0.1062099E+00
         21   -1    0    0  502  501  0.00000000000E+00  0.00000000000E+00  0.52735738732E+02  0.52735738732E+02  0.00000000000E+00 0.  1.
         21   -1    0    0  501  502 -0.00000000000E+00 -0.00000000000E+00 -0.23396507623E+04  0.23396507623E+04  0.00000000000E+00 0.  1.
         25    1    1    2    0    0 -0.29237675144E+03  0.55430694418E+02 -0.16153474504E+04  0.16472793060E+04  0.12500000000E+03 0.  0.
         25    1    1    2    0    0  0.29237675144E+03 -0.55430694418E+02 -0.67156757320E+03  0.74510719500E+03  0.12500000000E+03 0.  0.
</event>
<event>
 4    0  0.2190908E-002  0.2503866E+03  0.7546771E-02  0.1113061E+00
         21   -1    0    0  502  501  0.00000000000E+00  0.00000000000E+00  0.88615486714E+02  0.88615486714E+02  0.00000000000E+00 0. -1.
         21   -1    0    0  501  502 -0.00000000000E+00 -0.00000000000E+00 -0.70747732925E+03  0.70747732925E+03  0.00000000000E+00 0. -1.
         25    1    1    2    0    0 -0.10141954248E+02  0.99776880650E+02 -0.61526306506E+03  0.63579235948E+03  0.12500000000E+03 0.  0.
         25    1    1    2    0    0  0.10141954248E+02 -0.99776880650E+02 -0.35987774723E+01  0.16030045648E+03  0.12500000000E+03 0.  0.
</event>
<event>
 4    0  0.2190908E-002  0.1795246E+03  0.7546771E-02  0.1168264E+00
         21   -1    0    0  502  501  0.00000000000E+00  0.00000000000E+00  0.27137048571E+02  0.27137048571E+02  0.00000000000E+00 0. -1.
         21   -1    0    0  501  502 -0.00000000000E+00 -0.00000000000E+00 -0.11876410732E+04  0.11876410732E+04  0.00000000000E+00 0. -1.
         25    1    1    2    0    0  0.28428332756E+02  0.11694362701E+03 -0.73603511762E+03  0.75621205780E+03  0.12500000000E+03 0.  0.
         25    1    1    2    0    0 -0.28428332756E+02 -0.11694362701E+03 -0.42446890699E+03  0.45856606394E+03  0.12500000000E+03 0.  0.
</event>
<event>
 4    0  0.2190908E-002  0.1701597E+03  0.7546771E-02  0.1177681E+00
         21   -1    0    0  502  501  0.00000000000E+00  0.00000000000E+00  0.24826355013E+02  0.24826355013E+02  0.00000000000E+00 0.  1.
         21   -1    0    0  501  502 -0.00000000000E+00 -0.00000000000E+00 -0.11662734977E+04  0.11662734977E+04  0.00000000000E+00 0.  1.
         25    1    1    2    0    0 -0.79024307247E+02 -0.80497840977E+02 -0.65678074360E+03  0.67801968165E+03  0.12500000000E+03 0.  0.
         25    1    1    2    0    0  0.79024307247E+02  0.80497840977E+02 -0.48466639909E+03  0.51308017107E+03  0.12500000000E+03 0.  0.
</event>
<event>
 4    0  0.2190908E-002  0.1765523E+03  0.7546771E-02  0.1171182E+00
         21   -1    0    0  502  501  0.00000000000E+00  0.00000000000E+00  0.55343326539E+02  0.55343326539E+02  0.00000000000E+00 0.  1.
         21   -1    0    0  501  502 -0.00000000000E+00 -0.00000000000E+00 -0.56322441272E+03  0.56322441272E+03  0.00000000000E+00 0.  1.
         25    1    1    2    0    0 -0.52275448436E+01  0.50237097030E+02 -0.45363485187E+03  0.47324483301E+03  0.12500000000E+03 0.  0.
         25    1    1    2    0    0  0.52275448436E+01 -0.50237097030E+02 -0.54246234315E+02  0.14532290625E+03  0.12500000000E+03 0.  0.
</event>
<event>
 4    0  0.2190908E-002  0.1792596E+03  0.7546771E-02  0.1168521E+00
         21   -1    0    0  502  501  0.00000000000E+00  0.00000000000E+00  0.22710756421E+03  0.22710756421E+03  0.00000000000E+00 0.  1.
         21   -1    0    0  501  502 -0.00000000000E+00 -0.00000000000E+00 -0.14149251220E+03  0.14149251220E+03  0.00000000000E+00 0.  1.
         25    1    1    2    0    0  0.15173217361E+02  0.84776430435E+02  0.14083925045E+03  0.20706994989E+03  0.12500000000E+03 0.  0.
         25    1    1    2    0    0 -0.15173217361E+02 -0.84776430435E+02 -0.55224198434E+02  0.16153012652E+03  0.12500000000E+03 0.  0.
</event>
<event>
 4    0  0.2190908E-002  0.2499691E+03  0.7546771E-02  0.1113324E+00
         21   -1    0    0  502  501  0.00000000000E+00  0.00000000000E+00  0.31650494094E+03  0.31650494094E+03  0.00000000000E+00 0.  1.
         21   -1    0    0  501  502 -0.00000000000E+00 -0.00000000000E+00 -0.19742046041E+03  0.19742046041E+03  0.00000000000E+00 0.  1.
         25    1    1    2    0    0  0.16926457780E+03 -0.13492004956E+03  0.57102207371E+02  0.25639730724E+03  0.12500000000E+03 0.  0.
         25    1    1    2    0    0 -0.16926457780E+03  0.13492004956E+03  0.61982273152E+02  0.25752809411E+03  0.12500000000E+03 0.  0.
</event>
<event>
 4    0  0.2190908E-002  0.1604835E+03  0.7546771E-02  0.1188152E+00
         21   -1    0    0  502  501  0.00000000000E+00  0.00000000000E+00  0.80254616373E+02  0.80254616373E+02  0.00000000000E+00 0. -1.
         21   -1    0    0  501  502 -0.00000000000E+00 -0.00000000000E+00 -0.32091535657E+03  0.32091535657E+03  0.00000000000E+00 0. -1.
         25    1    1    2    0    0 -0.47019288970E+02 -0.71986977973E+02 -0.54941236294E+02  0.16135822873E+03  0.12500000000E+03 0.  0.
         25    1    1    2    0    0  0.47019288970E+02  0.71986977973E+02 -0.18571950390E+03  0.23981174422E+03  0.12500000000E+03 0.  0.
</event>
<event>
 4    0  0.2190908E-002  0.1622028E+03  0.7546771E-02  0.1186232E+00
         21   -1    0    0  502  501  0.00000000000E+00  0.00000000000E+00  0.14832257682E+03  0.14832257682E+03  0.00000000000E+00 0. -1.
         21   -1    0    0  501  502 -0.00000000000E+00 -0.00000000000E+00 -0.17738186872E+03  0.17738186872E+03  0.00000000000E+00 0. -1.
         25    1    1    2    0    0 -0.60554770692E+01 -0.60906965192E+02  0.69100987010E+02  0.15539071278E+03  0.12500000000E+03 0.  0.
         25    1    1    2    0    0  0.60554770692E+01  0.60906965192E+02 -0.98160278905E+02  0.17031373276E+03  0.12500000000E+03 0.  0.
</event>
<event>
 4    0  0.2190908E-002  0.1680997E+03  0.7546771E-02  0.1179844E+00
         21   -1    0    0  502  501  0.00000000000E+00  0.00000000000E+00  0.10752094360E+03  0.10752094360E+03  0.00000000000E+00 0. -1.
         21   -1    0    0  501  502 -0.00000000000E+00 -0.00000000000E+00 -0.26280928115E+03  0.26280928115E+03  0.00000000000E+00 0. -1.
         25    1    1    2    0    0  0.49512486043E+01 -0.76033548228E+02 -0.16865720947E+03  0.22332906131E+03  0.12500000000E+03 0.  0.
         25    1    1    2    0    0 -0.49512486043E+01  0.76033548228E+02  0.13368871919E+02  0.14700116345E+03  0.12500000000E+03 0.  0.
</event>
<event>
 4    0  0.2190908E-002  0.2276676E+03  0.7546771E-02  0.1128292E+00
         21   -1    0    0  502  501  0.00000000000E+00  0.00000000000E+00  0.36530337373E+03  0.36530337373E+03  0.00000000000E+00 0. -1.
         21   -1    0    0  501  502 -0.00000000000E+00 -0.00000000000E+00 -0.14188899488E+03  0.14188899488E+03  0.00000000000E+00 0. -1.
         25    1    1    2    0    0  0.16053536769E+02  0.16485072983E+03  0.21604496020E+03  0.29955617836E+03  0.12500000000E+03 0.  0.
         25    1    1    2    0    0 -0.16053536769E+02 -0.16485072983E+03  0.73694186430E+01  0.20763619025E+03  0.12500000000E+03 0.  0.
</event>
<event>
 4    0  0.2190908E-002  0.1942277E+03  0.7546771E-02  0.1154703E+00
         21   -1    0    0  502  501  0.00000000000E+00  0.00000000000E+00  0.78781529640E+02  0.78781529640E+02  0.00000000000E+00 0.  1.
         21   -1    0    0  501  502 -0.00000000000E+00 -0.00000000000E+00 -0.47884824167E+03  0.47884824167E+03  0.00000000000E+00 0.  1.
         25    1    1    2    0    0 -0.13516790276E+03  0.22706998840E+02 -0.28266445347E+03  0.33809786008E+03  0.12500000000E+03 0.  0.
         25    1    1    2    0    0  0.13516790276E+03 -0.22706998840E+02 -0.11740225856E+03  0.21953191123E+03  0.12500000000E+03 0.  0.
</event>
<event>
 4    0  0.2190908E-002  0.1778780E+03  0.7546771E-02  0.1169873E+00
         21   -1    0    0  502  501  0.00000000000E+00  0.00000000000E+00  0.21819199379E+03  0.21819199379E+03  0.00000000000E+00 0. -1.
         21   -1    0    0  501  502 -0.00000000000E+00 -0.00000000000E+00 -0.14501253715E+03  0.14501253715E+03  0.00000000000E+00 0. -1.
         25    1    1    2    0    0  0.56035351668E+02 -0.10664973889E+03 -0.29700735531E+01  0.17363164682E+03  0.12500000000E+03 0.  0.
         25    1    1    2    0    0 -0.56035351668E+02  0.10664973889E+03  0.76149530197E+02  0.18957288411E+03  0.12500000000E+03 0.  0.
</event>
<event>
 4    0  0.2190908E-002  0.2140806E+03  0.7546771E-02  0.1138375E+00
         21   -1    0    0  502  501  0.00000000000E+00  0.00000000000E+00  0.14260693446E+03  0.14260693446E+03  0.00000000000E+00 0. -1.
         21   -1    0    0  501  502 -0.00000000000E+00 -0.00000000000E+00 -0.32137639463E+03  0.32137639463E+03  0.00000000000E+00 0. -1.
         25    1    1    2    0    0 -0.93552590367E+02  0.74910227355E+02 -0.22577969457E+03  0.28454366942E+03  0.12500000000E+03 0.  0.
         25    1    1    2    0    0  0.93552590367E+02 -0.74910227355E+02  0.47010234396E+02  0.17943965968E+03  0.12500000000E+03 0.  0.
</event>
<event>
 4    0  0.2190908E-002  0.2144951E+03  0.7546771E-02  0.1138055E+00
         21   -1    0    0  502  501  0.00000000000E+00  0.00000000000E+00  0.15718494010E+03  0.15718494010E+03  0.00000000000E+00 0. -1.
         21   -1    0    0  501  502 -0.00000000000E+00 -0.00000000000E+00 -0.29270072060E+03  0.29270072060E+03  0.00000000000E+00 0. -1.
         25    1    1    2    0    0 -0.95409985844E+01  0.11393266817E+03  0.70223864047E+02  0.18337959159E+03  0.12500000000E+03 0.  0.
         25    1    1    2    0    0  0.95409985844E+01 -0.11393266817E+03 -0.20573964455E+03  0.26650606910E+03  0.12500000000E+03 0.  0.
</event>
<event>
 4    0  0.2190908E-002  0.4152694E+03  0.7546771E-02  0.1038617E+00
         21   -1    0    0  502  501  0.00000000000E+00  0.00000000000E+00  0.21842481499E+03  0.21842481499E+03  0.00000000000E+00 0.  1.
         21   -1    0    0  501  502 -0.00000000000E+00 -0.00000000000E+00 -0.78951049712E+03  0.78951049712E+03  0.00000000000E+00 0.  1.
         25    1    1    2    0    0 -0.19005150247E+02  0.32761770027E+03 -0.55453663697E+03  0.65637674776E+03  0.12500000000E+03 0.  0.
         25    1    1    2    0    0  0.19005150247E+02 -0.32761770027E+03 -0.16549045158E+02  0.35155856434E+03  0.12500000000E+03 0.  0.
</event>
<event>
 4    0  0.2190908E-002  0.1788323E+03  0.7546771E-02  0.1168938E+00
         21   -1    0    0  502  501  0.00000000000E+00  0.00000000000E+00  0.21987437269E+03  0.21987437269E+03  0.00000000000E+00 0. -1.
         21   -1    0    0  501  502 -0.00000000000E+00 -0.00000000000E+00 -0.14545118219E+03  0.14545118219E+03  0.00000000000E+00 0. -1.
         25    1    1    2    0    0  0.62265353325E+02 -0.10405264644E+03 -0.43045505617E+01  0.17420521408E+03  0.12500000000E+03 0.  0.
         25    1    1    2    0    0 -0.62265353325E+02  0.10405264644E+03  0.78727741060E+02  0.19112034080E+03  0.12500000000E+03 0.  0.
</event>
<event>
 4    0  0.2190908E-002  0.2615146E+03  0.7546771E-02  0.1106237E+00
         21   -1    0    0  502  501  0.00000000000E+00  0.00000000000E+00  0.34969034996E+03  0.34969034996E+03  0.00000000000E+00 0. -1.
         21   -1    0    0  501  502 -0.00000000000E+00 -0.00000000000E+00 -0.19557267381E+03  0.19557267381E+03  0.00000000000E+00 0. -1.
         25    1    1    2    0    0 -0.12797266402E+02  0.46731753370E+02  0.31114175357E+03  0.33879465406E+03  0.12500000000E+03 0.  0.
         25    1    1    2    0    0  0.12797266402E+02 -0.46731753370E+02 -0.15702407742E+03  0.20646836971E+03  0.12500000000E+03 0.  0.
</event>
<event>
 4    0  0.2190908E-002  0.2817658E+03  0.7546771E-02  0.1094728E+00
         21   -1    0    0  502  501  0.00000000000E+00  0.00000000000E+00  0.81344176420E+03  0.81344176420E+03  0.00000000000E+00 0.  1.
         21   -1    0    0  501  502 -0.00000000000E+00 -0.00000000000E+00 -0.97600043728E+02  0.97600043728E+02  0.00000000000E+00 0.  1.
         25    1    1    2    0    0 -0.12589601265E+03 -0.16894486455E+03  0.58294983699E+03  0.63233510554E+03  0.12500000000E+03 0.  0.
         25    1    1    2    0    0  0.12589601265E+03  0.16894486455E+03  0.13289188349E+03  0.27870670239E+03  0.12500000000E+03 0.  0.
</event>
<event>
 4    0  0.2190908E-002  0.1981928E+03  0.7546771E-02  0.1151273E+00
         21   -1    0    0  502  501  0.00000000000E+00  0.00000000000E+00  0.29854659556E+03  0.29854659556E+03  0.00000000000E+00 0. -1.
         21   -1    0    0  501  502 -0.00000000000E+00 -0.00000000000E+00 -0.13157205303E+03  0.13157205303E+03  0.00000000000E+00 0. -1.
         25    1    1    2    0    0 -0.59194021611E+02  0.12763167431E+03  0.15091751175E+03  0.24123613294E+03  0.12500000000E+03 0.  0.
         25    1    1    2    0    0  0.59194021611E+02 -0.12763167431E+03  0.16057030783E+02  0.18888251565E+03  0.12500000000E+03 0.  0.
</event>
<event>
 4    0  0.2190908E-002  0.1971656E+03  0.7546771E-02  0.1152153E+00
         21   -1    0    0  502  501  0.00000000000E+00  0.00000000000E+00  0.17945931875E+03  0.17945931875E+03  0.00000000000E+00 0. -1.
         21   -1    0    0  501  502 -0.00000000000E+00 -0.00000000000E+00 -0.21661881229E+03  0.21661881229E+03  0.00000000000E+00 0. -1.
         25    1    1    2    0    0  0.23401735842E+01  0.12815254333E+03 -0.10153324136E+03  0.20582164579E+03  0.12500000000E+03 0.  0.
         25    1    1    2    0    0 -0.23401735842E+01 -0.12815254333E+03  0.64373747816E+02  0.19025648526E+03  0.12500000000E+03 0.  0.
</event>
<event>
 4    0  0.2190908E-002  0.1727980E+03  0.7546771E-02  0.1174961E+00
         21   -1    0    0  502  501  0.00000000000E+00  0.00000000000E+00  0.67634381433E+02  0.67634381433E+02  0.00000000000E+00 0. -1.
         21   -1    0    0  501  502 -0.00000000000E+00 -0.00000000000E+00 -0.44147876233E+03  0.44147876233E+03  0.00000000000E+00 0.  1.
         25    1    1    2    0    0  0.86346706837E+02 -0.35478061854E+02 -0.77475347704E+02  0.17418919644E+03  0.12500000000E+03 0.  0.
         25    1    1    2    0    0 -0.86346706837E+02  0.35478061854E+02 -0.29636903319E+03  0.33492394732E+03  0.12500000000E+03 0.  0.
</event>
<event>
 4    0  0.2190908E-002  0.2047856E+03  0.7546771E-02  0.1145763E+00
         21   -1    0    0  502  501  0.00000000000E+00  0.00000000000E+00  0.26100460380E+02  0.26100460380E+02  0.00000000000E+00 0.  1.
         21   -1    0    0  501  502 -0.00000000000E+00 -0.00000000000E+00 -0.16067585226E+04  0.16067585226E+04  0.00000000000E+00 0.  1.
         25    1    1    2    0    0 -0.11296759044E+03 -0.99313911591E+02 -0.54824391374E+03  0.58208360093E+03  0.12500000000E+03 0.  0.
         25    1    1    2    0    0  0.11296759044E+03  0.99313911591E+02 -0.10324141485E+04  0.10507753821E+04  0.12500000000E+03 0.  0.
</event>
<event>
 4    0  0.2190908E-002  0.1914659E+03  0.7546771E-02  0.1157146E+00
         21   -1    0    0  502  501  0.00000000000E+00  0.00000000000E+00  0.15654260767E+03  0.15654260767E+03  0.00000000000E+00 0. -1.
         21   -1    0    0  501  502 -0.00000000000E+00 -0.00000000000E+00 -0.23418038151E+03  0.23418038151E+03  0.00000000000E+00 0. -1.
         25    1    1    2    0    0  0.26349880298E+02 -0.22541513792E+02 -0.18250943061E+03  0.22391321599E+03  0.12500000000E+03 0.  0.
         25    1    1    2    0    0 -0.26349880298E+02  0.22541513792E+02  0.10487165677E+03  0.16680977318E+03  0.12500000000E+03 0.  0.
</event>
<event>
 4    0  0.2190908E-002  0.2494427E+03  0.7546771E-02  0.1113658E+00
         21   -1    0    0  502  501  0.00000000000E+00  0.00000000000E+00  0.59750016645E+03  0.59750016645E+03  0.00000000000E+00 0. -1.
         21   -1    0    0  501  502 -0.00000000000E+00 -0.00000000000E+00 -0.10413660989E+03  0.10413660989E+03  0.00000000000E+00 0. -1.
         25    1    1    2    0    0  0.19192593854E+03 -0.51590811700E+02  0.12818012848E+03  0.26749265985E+03  0.12500000000E+03 0.  0.
         25    1    1    2    0    0 -0.19192593854E+03  0.51590811700E+02  0.36518342808E+03  0.43414411649E+03  0.12500000000E+03 0.  0.
</event>
<event>
 4    0  0.2190908E-002  0.3786132E+03  0.7546771E-02  0.1051448E+00
         21   -1    0    0  502  501  0.00000000000E+00  0.00000000000E+00  0.10183531549E+03  0.10183531549E+03  0.00000000000E+00 0.  1.
         21   -1    0    0  501  502 -0.00000000000E+00 -0.00000000000E+00 -0.14076448420E+04  0.14076448420E+04  0.00000000000E+00 0.  1.
         25    1    1    2    0    0 -0.99422641290E+02  0.85442438474E+02  0.98560793253E+01  0.18140400821E+03  0.12500000000E+03 0.  0.
         25    1    1    2    0    0  0.99422641290E+02 -0.85442438474E+02 -0.13156656058E+04  0.13280761493E+04  0.12500000000E+03 0.  0.
</event>
<event>
 4    0  0.2190908E-002  0.2515886E+03  0.7546771E-02  0.1112305E+00
         21   -1    0    0  502  501  0.00000000000E+00  0.00000000000E+00  0.79372763232E+03  0.79372763232E+03  0.00000000000E+00 0.  1.
         21   -1    0    0  501  502 -0.00000000000E+00 -0.00000000000E+00 -0.79746281644E+02  0.79746281644E+02  0.00000000000E+00 0.  1.
         25    1    1    2    0    0 -0.10575813294E+03 -0.16155110709E+03  0.18006091518E+03  0.29211380669E+03  0.12500000000E+03 0.  0.
         25    1    1    2    0    0  0.10575813294E+03  0.16155110709E+03  0.53392043549E+03  0.58136010727E+03  0.12500000000E+03 0.  0.
</event>
<event>
 4    0  0.2190908E-002  0.3351533E+03  0.7546771E-02  0.1068879E+00
         21   -1    0    0  502  501  0.00000000000E+00  0.00000000000E+00  0.13585278581E+04  0.13585278581E+04  0.00000000000E+00 0. -1.
         21   -1    0    0  501  502 -0.00000000000E+00 -0.00000000000E+00 -0.82683441132E+02  0.82683441132E+02  0.00000000000E+00 0. -1.
         25    1    1    2    0    0  0.28034567486E+03  0.78320757564E+02  0.87320513961E+03  0.92889184210E+03  0.12500000000E+03 0.  0.
         25    1    1    2    0    0 -0.28034567486E+03 -0.78320757564E+02  0.40263927733E+03  0.51231945711E+03  0.12500000000E+03 0.  0.
</event>
<event>
 4    0  0.2190908E-002  0.1725583E+03  0.7546771E-02  0.1175206E+00
         21   -1    0    0  502  501  0.00000000000E+00  0.00000000000E+00  0.30535826234E+02  0.30535826234E+02  0.00000000000E+00 0. -1.
         21   -1    0    0  501  502 -0.00000000000E+00 -0.00000000000E+00 -0.97512922049E+03  0.97512922049E+03  0.00000000000E+00 0. -1.
         25    1    1    2    0    0 -0.11015225505E+03 -0.96725303279E+01 -0.34446935829E+03  0.38276783555E+03  0.12500000000E+03 0.  0.
         25    1    1    2    0    0  0.11015225505E+03  0.96725303279E+01 -0.60012403597E+03  0.62289721117E+03  0.12500000000E+03 0.  0.
</event>
<event>
 4    0  0.2190908E-002  0.2554626E+03  0.7546771E-02  0.1109900E+00
         21   -1    0    0  502  501  0.00000000000E+00  0.00000000000E+00  0.35649588865E+03  0.35649588865E+03  0.00000000000E+00 0.  1.
         21   -1    0    0  501  502 -0.00000000000E+00 -0.00000000000E+00 -0.18306276697E+03  0.18306276697E+03  0.00000000000E+00 0.  1.
         25    1    1    2    0    0  0.21187027899E+03  0.37318250103E+02  0.14788008503E+03  0.28943943487E+03  0.12500000000E+03 0.  0.
         25    1    1    2    0    0 -0.21187027899E+03 -0.37318250103E+02  0.25553036648E+02  0.25011922075E+03  0.12500000000E+03 0.  0.
</event>
<event>
 4    0  0.2190908E-002  0.2061569E+03  0.7546771E-02  0.1144646E+00
         21   -1    0    0  502  501  0.00000000000E+00  0.00000000000E+00  0.83666479737E+02  0.83666479737E+02  0.00000000000E+00 0. -1.
         21   -1    0    0  501  502 -0.00000000000E+00 -0.00000000000E+00 -0.50797740632E+03  0.50797740632E+03  0.00000000000E+00 0. -1.
         25    1    1    2    0    0  0.35299855181E+02  0.87745228339E+02 -0.20011323523E+02  0.15802138444E+03  0.12500000000E+03 0.  0.
         25    1    1    2    0    0 -0.35299855181E+02 -0.87745228339E+02 -0.40429960306E+03  0.43362250162E+03  0.12500000000E+03 0.  0.
</event>
<event>
 4    0  0.2190908E-002  0.2884315E+03  0.7546771E-02  0.1091171E+00
         21   -1    0    0  502  501  0.00000000000E+00  0.00000000000E+00  0.76600708309E+02  0.76600708309E+02  0.00000000000E+00 0. -1.
         21   -1    0    0  501  502 -0.00000000000E+00 -0.00000000000E+00 -0.10860571927E+04  0.10860571927E+04  0.00000000000E+00 0. -1.
         25    1    1    2    0    0  0.19659476820E+03 -0.15205603977E+03 -0.35127055225E+03  0.44809211440E+03  0.12500000000E+03 0.  0.
         25    1    1    2    0    0 -0.19659476820E+03  0.15205603977E+03 -0.65818593215E+03  0.71456578661E+03  0.12500000000E+03 0.  0.
</event>
<event>
 4    0  0.2190908E-002  0.1860528E+03  0.7546771E-02  0.1162070E+00
         21   -1    0    0  502  501  0.00000000000E+00  0.00000000000E+00  0.30711148574E+03  0.30711148574E+03  0.00000000000E+00 0. -1.
         21   -1    0    0  501  502 -0.00000000000E+00 -0.00000000000E+00 -0.11271361441E+03  0.11271361441E+03  0.00000000000E+00 0. -1.
         25    1    1    2    0    0 -0.10624701418E+03 -0.35512680956E+02  0.18774740161E+03  0.25184055540E+03  0.12500000000E+03 0.  0.
         25    1    1    2    0    0  0.10624701418E+03  0.35512680956E+02  0.66504697121E+01  0.16798454476E+03  0.12500000000E+03 0.  0.
</event>
<event>
 4    0  0.2190908E-002  0.2010765E+03  0.7546771E-02  0.1148834E+00
         21   -1    0    0  502  501  0.00000000000E+00  0.00000000000E+00  0.33487169583E+03  0.33487169583E+03  0.00000000000E+00 0.  1.
         21   -1    0    0  501  502 -0.00000000000E+00 -0.00000000000E+00 -0.12073806413E+03  0.12073806413E+03  0.00000000000E+00 0.  1.
         25    1    1    2    0    0  0.10190494828E+03  0.18969165960E+01 -0.28971859527E+02  0.16386758502E+03  0.12500000000E+03 0.  0.
         25    1    1    2    0    0 -0.10190494828E+03 -0.18969165960E+01  0.24310549123E+03  0.29174217495E+03  0.12500000000E+03 0.  0.
</event>
<event>
 4    0  0.2190908E-002  0.3084604E+03  0.7546771E-02  0.1081086E+00
         21   -1    0    0  502  501  0.00000000000E+00  0.00000000000E+00  0.18453797991E+03  0.18453797991E+03  0.00000000000E+00 0. -1.
         21   -1    0    0  501  502 -0.00000000000E+00 -0.00000000000E+00 -0.51560031306E+03  0.51560031306E+03  0.00000000000E+00 0. -1.
         25    1    1    2    0    0  0.24759200546E+03 -0.11384913959E+03 -0.24783555341E+03  0.38898700401E+03  0.12500000000E+03 0.  0.
         25    1    1    2    0    0 -0.24759200546E+03  0.11384913959E+03 -0.83226779740E+02  0.31115128896E+03  0.12500000000E+03 0.  0.
</event>
<event>
 4    0  0.2190908E-002  0.3177688E+03  0.7546771E-02  0.1076681E+00
         21   -1    0    0  502  501  0.00000000000E+00  0.00000000000E+00  0.11100233334E+04  0.11100233334E+04  0.00000000000E+00 0. -1.
         21   -1    0    0  501  502 -0.00000000000E+00 -0.00000000000E+00 -0.90968391335E+02  0.90968391335E+02  0.00000000000E+00 0. -1.
         25    1    1    2    0    0  0.72726686559E+02 -0.16251056066E+03  0.71807404374E+02  0.22908547878E+03  0.12500000000E+03 0.  0.
         25    1    1    2    0    0 -0.72726686559E+02  0.16251056066E+03  0.94724753767E+03  0.97190624593E+03  0.12500000000E+03 0.  0.
</event>
<event>
 4    0  0.2190908E-002  0.2105226E+03  0.7546771E-02  0.1141153E+00
         21   -1    0    0  502  501  0.00000000000E+00  0.00000000000E+00  0.34303575815E+03  0.34303575815E+03  0.00000000000E+00 0.  1.
         21   -1    0    0  501  502 -0.00000000000E+00 -0.00000000000E+00 -0.12919861482E+03  0.12919861482E+03  0.00000000000E+00 0.  1.
         25    1    1    2    0    0  0.46874902788E+02  0.47472339191E+02  0.28155301544E+03  0.31519514591E+03  0.12500000000E+03 0.  0.
         25    1    1    2    0    0 -0.46874902788E+02 -0.47472339191E+02 -0.67715872118E+02  0.15703922706E+03  0.12500000000E+03 0.  0.
</event>
<event>
 4    0  0.2190908E-002  0.2580742E+03  0.7546771E-02  0.1108306E+00
         21   -1    0    0  502  501  0.00000000000E+00  0.00000000000E+00  0.21316618889E+03  0.21316618889E+03  0.00000000000E+00 0. -1.
         21   -1    0    0  501  502 -0.00000000000E+00 -0.00000000000E+00 -0.31244300032E+03  0.31244300032E+03  0.00000000000E+00 0. -1.
         25    1    1    2    0    0 -0.11138149024E+03  0.19539501219E+03 -0.69806384595E+02  0.26661391278E+03  0.12500000000E+03 0.  0.
         25    1    1    2    0    0  0.11138149024E+03 -0.19539501219E+03 -0.29470426830E+02  0.25899527643E+03  0.12500000000E+03 0.  0.
</event>
<event>
 4    0  0.2190908E-002  0.2134521E+03  0.7546771E-02  0.1138861E+00
         21   -1    0    0  502  501  0.00000000000E+00  0.00000000000E+00  0.59295673685E+02  0.59295673685E+02  0.00000000000E+00 0. -1.
         21   -1    0    0  501  502 -0.00000000000E+00 -0.00000000000E+00 -0.76838309143E+03  0.76838309143E+03  0.00000000000E+00 0. -1.
         25    1    1    2    0    0 -0.23802929730E+02  0.33865723380E+02 -0.68025702399E+03  0.69288389026E+03  0.12500000000E+03 0.  0.
         25    1    1    2    0    0  0.23802929730E+02 -0.33865723380E+02 -0.28830393748E+02  0.13479487486E+03  0.12500000000E+03 0.  0.
</event>
<event>
 4    0  0.2190908E-002  0.1638709E+03  0.7546771E-02  0.1184395E+00
         21   -1    0    0  502  501  0.00000000000E+00  0.00000000000E+00  0.30583850613E+02  0.30583850613E+02  0.00000000000E+00 0.  1.
         21   -1    0    0  501  502 -0.00000000000E+00 -0.00000000000E+00 -0.87803461179E+03  0.87803461179E+03  0.00000000000E+00 0.  1.
         25    1    1    2    0    0 -0.50036578247E+02 -0.84957564553E+02 -0.53135697686E+03  0.55469512689E+03  0.12500000000E+03 0.  0.
         25    1    1    2    0    0  0.50036578247E+02  0.84957564553E+02 -0.31609378432E+03  0.35392333552E+03  0.12500000000E+03 0.  0.
</event>
<event>
 4    0  0.2190908E-002  0.2456130E+03  0.7546771E-02  0.1116109E+00
         21   -1    0    0  502  501  0.00000000000E+00  0.00000000000E+00  0.28210072760E+03  0.28210072760E+03  0.00000000000E+00 0.  1.
         21   -1    0    0  501  502 -0.00000000000E+00 -0.00000000000E+00 -0.21384475957E+03  0.21384475957E+03  0.00000000000E+00 0.  1.
         25    1    1    2    0    0  0.16947060721E+03 -0.12557774779E+03  0.19472850671E+02  0.24595578741E+03  0.12500000000E+03 0.  0.
         25    1    1    2    0    0 -0.16947060721E+03  0.12557774779E+03  0.48783117358E+02  0.24998969976E+03  0.12500000000E+03 0.  0.
</event>
<event>
 4    0  0.2190908E-002  0.2499920E+03  0.7546771E-02  0.1113310E+00
         21   -1    0    0  502  501  0.00000000000E+00  0.00000000000E+00  0.88399774339E+02  0.88399774339E+02  0.00000000000E+00 0. -1.
         21   -1    0    0  501  502 -0.00000000000E+00 -0.00000000000E+00 -0.70697013995E+03  0.70697013995E+03  0.00000000000E+00 0. -1.
         25    1    1    2    0    0 -0.47416818744E+02 -0.21118381783E+03 -0.31708512425E+03  0.40375108127E+03  0.12500000000E+03 0.  0.
         25    1    1    2    0    0  0.47416818744E+02  0.21118381783E+03 -0.30148524136E+03  0.39161883302E+03  0.12500000000E+03 0.  0.
</event>
<event>
 4    0  0.2190908E-002  0.2096658E+03  0.7546771E-02  0.1141831E+00
         21   -1    0    0  502  501  0.00000000000E+00  0.00000000000E+00  0.86998010124E+02  0.86998010124E+02  0.00000000000E+00 0. -1.
         21   -1    0    0  501  502 -0.00000000000E+00 -0.00000000000E+00 -0.50529615479E+03  0.50529615479E+03  0.00000000000E+00 0. -1.
         25    1    1    2    0    0 -0.80450979254E+02  0.69312512350E+02 -0.24670430739E+02  0.16586203479E+03  0.12500000000E+03 0.  0.
         25    1    1    2    0    0  0.80450979254E+02 -0.69312512350E+02 -0.39362771393E+03  0.42643213012E+03  0.12500000000E+03 0.  0.
</event>
<event>
 4    0  0.2190908E-002  0.2136590E+03  0.7546771E-02  0.1138701E+00
         21   -1    0    0  502  501  0.00000000000E+00  0.00000000000E+00  0.15782360223E+03  0.15782360223E+03  0.00000000000E+00 0. -1.
         21   -1    0    0  501  502 -0.00000000000E+00 -0.00000000000E+00 -0.28924799652E+03  0.28924799652E+03  0.00000000000E+00 0. -1.
         25    1    1    2    0    0 -0.12119717575E+03 -0.11964796184E+03 -0.99138627411E+02  0.23336207410E+03  0.12500000000E+03 0.  0.
         25    1    1    2    0    0  0.12119717575E+03  0.11964796184E+03 -0.32285766880E+02  0.21370952465E+03  0.12500000000E+03 0.  0.
</event>
<event>
 4    0  0.2190908E-002  0.1851188E+03  0.7546771E-02  0.1162939E+00
         21   -1    0    0  502  501  0.00000000000E+00  0.00000000000E+00  0.54081127183E+03  0.54081127183E+03  0.00000000000E+00 0.  1.
         21   -1    0    0  501  502 -0.00000000000E+00 -0.00000000000E+00 -0.63365844434E+02  0.63365844434E+02  0.00000000000E+00 0.  1.
         25    1    1    2    0    0 -0.10290923799E+03 -0.52278008644E+01  0.92524495973E+02  0.18655675683E+03  0.12500000000E+03 0.  0.
         25    1    1    2    0    0  0.10290923799E+03  0.52278008644E+01  0.38492093142E+03  0.41762035943E+03  0.12500000000E+03 0.  0.
</event>
<event>
 4    0  0.2190908E-002  0.2574294E+03  0.7546771E-02  0.1108698E+00
         21   -1    0    0  502  501  0.00000000000E+00  0.00000000000E+00  0.21611447140E+03  0.21611447140E+03  0.00000000000E+00 0. -1.
         21   -1    0    0  501  502 -0.00000000000E+00 -0.00000000000E+00 -0.30664264102E+03  0.30664264102E+03  0.00000000000E+00 0. -1.
         25    1    1    2    0    0 -0.74084641367E+02  0.66671171133E+02 -0.25012986352E+03  0.29685607249E+03  0.12500000000E+03 0.  0.
         25    1    1    2    0    0  0.74084641367E+02 -0.66671171133E+02  0.15960169390E+03  0.22590103993E+03  0.12500000000E+03 0.  0.
</event>
<event>
 4    0  0.2190908E-002  0.2428395E+03  0.7546771E-02  0.1117916E+00
         21   -1    0    0  502  501  0.00000000000E+00  0.00000000000E+00  0.24725432019E+02  0.24725432019E+02  0.00000000000E+00 0.  1.
         21   -1    0    0  501  502 -0.00000000000E+00 -0.00000000000E+00 -0.23850345815E+04  0.23850345815E+04  0.00000000000E+00 0.  1.
         25    1    1    2    0    0  0.18644871810E+03  0.74619525066E+02 -0.90772474415E+03  0.93804072894E+03  0.12500000000E+03 0.  0.
         25    1    1    2    0    0 -0.18644871810E+03 -0.74619525066E+02 -0.14525844053E+04  0.14717192846E+04  0.12500000000E+03 0.  0.
</event>
<event>
 4    0  0.2190908E-002  0.3807507E+03  0.7546771E-02  0.1050657E+00
         21   -1    0    0  502  501  0.00000000000E+00  0.00000000000E+00  0.65249530392E+03  0.65249530392E+03  0.00000000000E+00 0.  1.
         21   -1    0    0  501  502 -0.00000000000E+00 -0.00000000000E+00 -0.22217954214E+03  0.22217954214E+03  0.00000000000E+00 0.  1.
         25    1    1    2    0    0  0.96162534777E+02  0.23546731554E+03  0.50721895150E+03  0.58102336833E+03  0.12500000000E+03 0.  0.
         25    1    1    2    0    0 -0.96162534777E+02 -0.23546731554E+03 -0.76903189718E+02  0.29365147773E+03  0.12500000000E+03 0.  0.
</event>
<event>
 4    0  0.2190908E-002  0.3026181E+03  0.7546771E-02  0.1083939E+00
         21   -1    0    0  502  501  0.00000000000E+00  0.00000000000E+00  0.57341694519E+03  0.57341694519E+03  0.00000000000E+00 0.  1.
         21   -1    0    0  501  502 -0.00000000000E+00 -0.00000000000E+00 -0.15970525193E+03  0.15970525193E+03  0.00000000000E+00 0.  1.
         25    1    1    2    0    0 -0.21179135616E+03  0.13362184272E+03  0.34624647946E+03  0.44522129322E+03  0.12500000000E+03 0.  0.
         25    1    1    2    0    0  0.21179135616E+03 -0.13362184272E+03  0.67465213804E+02  0.28790090391E+03  0.12500000000E+03 0.  0.
</event>
<event>
 4    0  0.2190908E-002  0.2202169E+03  0.7546771E-02  0.1133721E+00
         21   -1    0    0  502  501  0.00000000000E+00  0.00000000000E+00  0.29013157211E+02  0.29013157211E+02  0.00000000000E+00 0. -1.
         21   -1    0    0  501  502 -0.00000000000E+00 -0.00000000000E+00 -0.16714994769E+04  0.16714994769E+04  0.00000000000E+00 0. -1.
         25    1    1    2    0    0 -0.95617273988E+02  0.13836924605E+03 -0.10825890594E+04  0.11026843532E+04  0.12500000000E+03 0.  0.
         25    1    1    2    0    0  0.95617273988E+02 -0.13836924605E+03 -0.55989726031E+03  0.59782828089E+03  0.12500000000E+03 0.  0.
</event>
<event>
 4    0  0.2190908E-002  0.1374875E+03  0.7546771E-02  0.1216750E+00
         21   -1    0    0  502  501  0.00000000000E+00  0.00000000000E+00  0.64492905521E+01  0.64492905521E+01  0.00000000000E+00 0.  1.
         21   -1    0    0  501  502 -0.00000000000E+00 -0.00000000000E+00 -0.29309900658E+04  0.29309900658E+04  0.00000000000E+00 0.  1.
         25    1    1    2    0    0 -0.45568896759E+02 -0.34057735331E+02 -0.15309659215E+04  0.15371135633E+04  0.12500000000E+03 0.  0.
         25    1    1    2    0    0  0.45568896759E+02  0.34057735331E+02 -0.13935748537E+04  0.14003257930E+04  0.12500000000E+03 0.  0.
</event>
<event>
 4    0  0.2190908E-002  0.2898777E+03  0.7546771E-02  0.1090413E+00
         21   -1    0    0  502  501  0.00000000000E+00  0.00000000000E+00  0.44713634838E+03  0.44713634838E+03  0.00000000000E+00 0.  1.
         21   -1    0    0  501  502 -0.00000000000E+00 -0.00000000000E+00 -0.18792721255E+03  0.18792721255E+03  0.00000000000E+00 0.  1.
         25    1    1    2    0    0 -0.16112464630E+03  0.42170075099E+02 -0.91287813617E+02  0.22737179199E+03  0.12500000000E+03 0.  0.
         25    1    1    2    0    0  0.16112464630E+03 -0.42170075099E+02  0.35049694945E+03  0.40769176893E+03  0.12500000000E+03 0.  0.
</event>
<event>
 4    0  0.2190908E-002  0.2231035E+03  0.7546771E-02  0.1131590E+00
         21   -1    0    0  502  501  0.00000000000E+00  0.00000000000E+00  0.73143818004E+03  0.73143818004E+03  0.00000000000E+00 0.  1.
         21   -1    0    0  501  502 -0.00000000000E+00 -0.00000000000E+00 -0.68051104655E+02  0.68051104655E+02  0.00000000000E+00 0.  1.
         25    1    1    2    0    0 -0.85102841284E+01 -0.36656981571E+02  0.65586583606E+03  0.66873100283E+03  0.12500000000E+03 0.  0.
         25    1    1    2    0    0  0.85102841284E+01  0.36656981571E+02  0.75212393183E+01  0.13075828186E+03  0.12500000000E+03 0.  0.
</event>
<event>
 4    0  0.2190908E-002  0.4906144E+03  0.7546771E-02  0.1016258E+00
         21   -1    0    0  502  501  0.00000000000E+00  0.00000000000E+00  0.31160419684E+03  0.31160419684E+03  0.00000000000E+00 0. -1.
         21   -1    0    0  501  502 -0.00000000000E+00 -0.00000000000E+00 -0.77246222911E+03  0.77246222911E+03  0.00000000000E+00 0. -1.
         25    1    1    2    0    0  0.39950174786E+03 -0.22484432590E+03 -0.36538199606E+03  0.59940438811E+03  0.12500000000E+03 0.  0.
         25    1    1    2    0    0 -0.39950174786E+03  0.22484432590E+03 -0.95476036200E+02  0.48466203784E+03  0.12500000000E+03 0.  0.
</event>
<event>
 4    0  0.2190908E-002  0.2356117E+03  0.7546771E-02  0.1122751E+00
         21   -1    0    0  502  501  0.00000000000E+00  0.00000000000E+00  0.13498047502E+03  0.13498047502E+03  0.00000000000E+00 0.  1.
         21   -1    0    0  501  502 -0.00000000000E+00 -0.00000000000E+00 -0.41126587014E+03  0.41126587014E+03  0.00000000000E+00 0.  1.
         25    1    1    2    0    0 -0.12166791939E+03 -0.67477069601E+02  0.27958742990E+02  0.18911089032E+03  0.12500000000E+03 0.  0.
         25    1    1    2    0    0  0.12166791939E+03  0.67477069601E+02 -0.30424413811E+03  0.35713545484E+03  0.12500000000E+03 0.  0.
</event>
<event>
 4    0  0.2190908E-002  0.3042369E+03  0.7546771E-02  0.1083142E+00
         21   -1    0    0  502  501  0.00000000000E+00  0.00000000000E+00  0.63877086890E+03  0.63877086890E+03  0.00000000000E+00 0. -1.
         21   -1    0    0  501  502 -0.00000000000E+00 -0.00000000000E+00 -0.14490346824E+03  0.14490346824E+03  0.00000000000E+00 0. -1.
         25    1    1    2    0    0 -0.49852743330E+02  0.58641002421E+02 -0.96273712170E+02  0.17554968196E+03  0.12500000000E+03 0.  0.
         25    1    1    2    0    0  0.49852743330E+02 -0.58641002421E+02  0.59014111283E+03  0.60812465518E+03  0.12500000000E+03 0.  0.
</event>
<event>
 4    0  0.2190908E-002  0.3785195E+03  0.7546771E-02  0.1051482E+00
         21   -1    0    0  502  501  0.00000000000E+00  0.00000000000E+00  0.10093392299E+04  0.10093392299E+04  0.00000000000E+00 0. -1.
         21   -1    0    0  501  502 -0.00000000000E+00 -0.00000000000E+00 -0.14195127411E+03  0.14195127411E+03  0.00000000000E+00 0. -1.
         25    1    1    2    0    0  0.12774538304E+03  0.71623458701E+02 -0.61910791890E+02  0.20225416900E+03  0.12500000000E+03 0.  0.
         25    1    1    2    0    0 -0.12774538304E+03 -0.71623458701E+02  0.92929874771E+03  0.94903633504E+03  0.12500000000E+03 0.  0.
</event>
<event>
 4    0  0.2190908E-002  0.2256365E+03  0.7546771E-02  0.1129749E+00
         21   -1    0    0  502  501  0.00000000000E+00  0.00000000000E+00  0.50451021461E+03  0.50451021461E+03  0.00000000000E+00 0.  1.
         21   -1    0    0  501  502 -0.00000000000E+00 -0.00000000000E+00 -0.10091338181E+03  0.10091338181E+03  0.00000000000E+00 0.  1.
         25    1    1    2    0    0  0.10060742109E+03  0.29129106270E+02  0.41100256151E+03  0.44217469803E+03  0.12500000000E+03 0.  0.
         25    1    1    2    0    0 -0.10060742109E+03 -0.29129106270E+02 -0.74057287120E+01  0.16324889840E+03  0.12500000000E+03 0.  0.
</event>
<event>
 4    0  0.2190908E-002  0.2338469E+03  0.7546771E-02  0.1123961E+00
         21   -1    0    0  502  501  0.00000000000E+00  0.00000000000E+00  0.57083955386E+03  0.57083955386E+03  0.00000000000E+00 0.  1.
         21   -1    0    0  501  502 -0.00000000000E+00 -0.00000000000E+00 -0.95796391316E+02  0.95796391316E+02  0.00000000000E+00 0.  1.
         25    1    1    2    0    0  0.56995536718E+02 -0.17486134694E+03  0.13439750778E+03  0.25983200718E+03  0.12500000000E+03 0.  0.
         25    1    1    2    0    0 -0.56995536718E+02  0.17486134694E+03  0.34064565477E+03  0.40680393800E+03  0.12500000000E+03 0.  0.
</event>
<event>
 4    0  0.2190908E-002  0.2082625E+03  0.7546771E-02  0.1142949E+00
         21   -1    0    0  502  501  0.00000000000E+00  0.00000000000E+00  0.37886294714E+02  0.37886294714E+02  0.00000000000E+00 0. -1.
         21   -1    0    0  501  502 -0.00000000000E+00 -0.00000000000E+00 -0.11448273615E+04  0.11448273615E+04  0.00000000000E+00 0. -1.
         25    1    1    2    0    0 -0.54116544011E+02 -0.14852547237E+03 -0.40430058823E+03  0.45174371266E+03  0.12500000000E+03 0.  0.
         25    1    1    2    0    0  0.54116544011E+02  0.14852547237E+03 -0.70264047851E+03  0.73096994352E+03  0.12500000000E+03 0.  0.
</event>
<event>
 4    0  0.2190908E-002  0.1991562E+03  0.7546771E-02  0.1150453E+00
         21   -1    0    0  502  501  0.00000000000E+00  0.00000000000E+00  0.10234426055E+03  0.10234426055E+03  0.00000000000E+00 0.  1.
         21   -1    0    0  501  502 -0.00000000000E+00 -0.00000000000E+00 -0.38754677286E+03  0.38754677286E+03  0.00000000000E+00 0.  1.
         25    1    1    2    0    0 -0.68238372853E+02  0.20294694564E+02  0.26796437946E+02  0.14632634501E+03  0.12500000000E+03 0.  0.
         25    1    1    2    0    0  0.68238372853E+02 -0.20294694564E+02 -0.31199895025E+03  0.34356468840E+03  0.12500000000E+03 0.  0.
</event>
<event>
 4    0  0.2190908E-002  0.1400738E+03  0.7546771E-02  0.1213230E+00
         21   -1    0    0  502  501  0.00000000000E+00  0.00000000000E+00  0.12908291943E+04  0.12908291943E+04  0.00000000000E+00 0. -1.
         21   -1    0    0  501  502 -0.00000000000E+00 -0.00000000000E+00 -0.15200043513E+02  0.15200043513E+02  0.00000000000E+00 0. -1.
         25    1    1    2    0    0  0.13996139489E+02 -0.61468310125E+02  0.61624092579E+03  0.63194313327E+03  0.12500000000E+03 0.  0.
         25    1    1    2    0    0 -0.13996139489E+02  0.61468310125E+02  0.65938822495E+03  0.67408610450E+03  0.12500000000E+03 0.  0.
</event>
<event>
 4    0  0.2190908E-002  0.2052441E+03  0.7546771E-02  0.1145388E+00
         21   -1    0    0  502  501  0.00000000000E+00  0.00000000000E+00  0.56436265419E+02  0.56436265419E+02  0.00000000000E+00 0. -1.
         21   -1    0    0  501  502 -0.00000000000E+00 -0.00000000000E+00 -0.74641972758E+03  0.74641972758E+03  0.00000000000E+00 0. -1.
         25    1    1    2    0    0 -0.87601133295E+02  0.13593856969E+03 -0.38141944921E+03  0.43273438680E+03  0.12500000000E+03 0.  0.
         25    1    1    2    0    0  0.87601133295E+02 -0.13593856969E+03 -0.30856401295E+03  0.37012160620E+03  0.12500000000E+03 0.  0.
</event>
<event>
 4    0  0.2190908E-002  0.2119704E+03  0.7546771E-02  0.1140015E+00
         21   -1    0    0  502  501  0.00000000000E+00  0.00000000000E+00  0.15334236139E+03  0.15334236139E+03  0.00000000000E+00 0. -1.
         21   -1    0    0  501  502 -0.00000000000E+00 -0.00000000000E+00 -0.29301384713E+03  0.29301384713E+03  0.00000000000E+00 0. -1.
         25    1    1    2    0    0  0.10233924941E+03 -0.52521711006E+02  0.63653508718E+02  0.18140733521E+03  0.12500000000E+03 0.  0.
         25    1    1    2    0    0 -0.10233924941E+03  0.52521711006E+02 -0.20332499446E+03  0.26494887331E+03  0.12500000000E+03 0.  0.
</event>
<event>
 4    0  0.2190908E-002  0.1958381E+03  0.7546771E-02  0.1153299E+00
         21   -1    0    0  502  501  0.00000000000E+00  0.00000000000E+00  0.79086652087E+02  0.79086652087E+02  0.00000000000E+00 0.  1.
         21   -1    0    0  501  502 -0.00000000000E+00 -0.00000000000E+00 -0.48494371627E+03  0.48494371627E+03  0.00000000000E+00 0.  1.
         25    1    1    2    0    0  0.88308431435E+02 -0.39834170335E+02 -0.36590035216E+02  0.16232366083E+03  0.12500000000E+03 0.  0.
         25    1    1    2    0    0 -0.88308431435E+02  0.39834170335E+02 -0.36926702897E+03  0.40170670753E+03  0.12500000000E+03 0.  0.
</event>
<event>
 4    0  0.2190908E-002  0.2002535E+03  0.7546771E-02  0.1149525E+00
         21   -1    0    0  502  501  0.00000000000E+00  0.00000000000E+00  0.30733413015E+03  0.30733413015E+03  0.00000000000E+00 0. -1.
         21   -1    0    0  501  502 -0.00000000000E+00 -0.00000000000E+00 -0.13048170671E+03  0.13048170671E+03  0.00000000000E+00 0. -1.
         25    1    1    2    0    0 -0.98229971467E+02 -0.10210414651E+03  0.15897309443E+02  0.18961041236E+03  0.12500000000E+03 0.  0.
         25    1    1    2    0    0  0.98229971467E+02  0.10210414651E+03  0.16095511400E+03  0.24820542450E+03  0.12500000000E+03 0.  0.
</event>
<event>
 4    0  0.2190908E-002  0.1837922E+03  0.7546771E-02  0.1164183E+00
         21   -1    0    0  502  501  0.00000000000E+00  0.00000000000E+00  0.61713276595E+02  0.61713276595E+02  0.00000000000E+00 0. -1.
         21   -1    0    0  501  502 -0.00000000000E+00 -0.00000000000E+00 -0.54736325622E+03  0.54736325622E+03  0.00000000000E+00 0. -1.
         25    1    1    2    0    0 -0.46167443932E+02 -0.38011465199E+02 -0.42761505912E+02  0.14501672577E+03  0.12500000000E+03 0.  0.
         25    1    1    2    0    0  0.46167443932E+02  0.38011465199E+02 -0.44288847372E+03  0.46405980705E+03  0.12500000000E+03 0.  0.
</event>
<event>
 4    0  0.2190908E-002  0.1988983E+03  0.7546771E-02  0.1150672E+00
         21   -1    0    0  502  501  0.00000000000E+00  0.00000000000E+00  0.15810739124E+02  0.15810739124E+02  0.00000000000E+00 0. -1.
         21   -1    0    0  501  502 -0.00000000000E+00 -0.00000000000E+00 -0.25021301436E+04  0.25021301436E+04  0.00000000000E+00 0. -1.
         25    1    1    2    0    0  0.62606212604E+02  0.25440358726E+01 -0.21385302452E+04  0.21430965027E+04  0.12500000000E+03 0.  0.
         25    1    1    2    0    0 -0.62606212604E+02 -0.25440358726E+01 -0.34778915929E+03  0.37484438010E+03  0.12500000000E+03 0.  0.
</event>
<event>
 4    0  0.2190908E-002  0.2527675E+03  0.7546771E-02  0.1111568E+00
         21   -1    0    0  502  501  0.00000000000E+00  0.00000000000E+00  0.43077598382E+02  0.43077598382E+02  0.00000000000E+00 0. -1.
         21   -1    0    0  501  502 -0.00000000000E+00 -0.00000000000E+00 -0.14831696116E+04  0.14831696116E+04  0.00000000000E+00 0. -1.
         25    1    1    2    0    0  0.19559018486E+03 -0.47893072792E+02 -0.45482903743E+03  0.51287788032E+03  0.12500000000E+03 0.  0.
         25    1    1    2    0    0 -0.19559018486E+03  0.47893072792E+02 -0.98526297579E+03  0.10133693297E+04  0.12500000000E+03 0.  0.
</event>
<event>
 4    0  0.2190908E-002  0.2066988E+03  0.7546771E-02  0.1144207E+00
         21   -1    0    0  502  501  0.00000000000E+00  0.00000000000E+00  0.15111973385E+03  0.15111973385E+03  0.00000000000E+00 0.  1.
         21   -1    0    0  501  502 -0.00000000000E+00 -0.00000000000E+00 -0.28271882636E+03  0.28271882636E+03  0.00000000000E+00 0. -1.
         25    1    1    2    0    0  0.58416223103E+02 -0.15380201533E+03 -0.59874239205E+02  0.21512191790E+03  0.12500000000E+03 0.  0.
         25    1    1    2    0    0 -0.58416223103E+02  0.15380201533E+03 -0.71724853311E+02  0.21871664231E+03  0.12500000000E+03 0.  0.
</event>
<event>
 4    0  0.2190908E-002  0.2271687E+03  0.7546771E-02  0.1128649E+00
         21   -1    0    0  502  501  0.00000000000E+00  0.00000000000E+00  0.47275551188E+03  0.47275551188E+03  0.00000000000E+00 0. -1.
         21   -1    0    0  501  502 -0.00000000000E+00 -0.00000000000E+00 -0.10915916352E+03  0.10915916352E+03  0.00000000000E+00 0. -1.
         25    1    1    2    0    0 -0.94998173411E+02  0.15844797810E+03  0.23689011631E+03  0.32538030352E+03  0.12500000000E+03 0.  0.
         25    1    1    2    0    0  0.94998173411E+02 -0.15844797810E+03  0.12670623206E+03  0.25653437188E+03  0.12500000000E+03 0.  0.
</event>
<event>
 4    0  0.2190908E-002  0.2260899E+03  0.7546771E-02  0.1129423E+00
         21   -1    0    0  502  501  0.00000000000E+00  0.00000000000E+00  0.83701928145E+02  0.83701928145E+02  0.00000000000E+00 0. -1.
         21   -1    0    0  501  502 -0.00000000000E+00 -0.00000000000E+00 -0.61069850746E+03  0.61069850746E+03  0.00000000000E+00 0. -1.
         25    1    1    2    0    0 -0.82292725641E+02 -0.15527530497E+03 -0.15924055445E+03  0.26807660698E+03  0.12500000000E+03 0.  0.
         25    1    1    2    0    0  0.82292725641E+02  0.15527530497E+03 -0.36775602487E+03  0.42632382863E+03  0.12500000000E+03 0.  0.
</event>
<event>
 4    0  0.2190908E-002  0.2304790E+03  0.7546771E-02  0.1126303E+00
         21   -1    0    0  502  501  0.00000000000E+00  0.00000000000E+00  0.47334278919E+02  0.47334278919E+02  0.00000000000E+00 0. -1.
         21   -1    0    0  501  502 -0.00000000000E+00 -0.00000000000E+00 -0.11222432902E+04  0.11222432902E+04  0.00000000000E+00 0.  1.
         25    1    1    2    0    0  0.91899591647E+02 -0.15804744289E+03 -0.37556423757E+03  0.43600232303E+03  0.12500000000E+03 0.  0.
         25    1    1    2    0    0 -0.91899591647E+02  0.15804744289E+03 -0.69934477371E+03  0.73357524609E+03  0.12500000000E+03 0.  0.
</event>
<event>
 4    0  0.2190908E-002  0.1638114E+03  0.7546771E-02  0.1184460E+00
         21   -1    0    0  502  501  0.00000000000E+00  0.00000000000E+00  0.10582368052E+03  0.10582368052E+03  0.00000000000E+00 0. -1.
         21   -1    0    0  501  502 -0.00000000000E+00 -0.00000000000E+00 -0.25357442957E+03  0.25357442957E+03  0.00000000000E+00 0. -1.
         25    1    1    2    0    0  0.24080118179E+02  0.53326882088E+02  0.22918275672E+02  0.13990659672E+03  0.12500000000E+03 0.  0.
         25    1    1    2    0    0 -0.24080118179E+02 -0.53326882088E+02 -0.17066902472E+03  0.21949151337E+03  0.12500000000E+03 0.  0.
</event>
<event>
 4    0  0.2190908E-002  0.1844011E+03  0.7546771E-02  0.1163610E+00
         21   -1    0    0  502  501  0.00000000000E+00  0.00000000000E+00  0.37432095948E+03  0.37432095948E+03  0.00000000000E+00 0.  1.
         21   -1    0    0  501  502 -0.00000000000E+00 -0.00000000000E+00 -0.90841221487E+02  0.90841221487E+02  0.00000000000E+00 0.  1.
         25    1    1    2    0    0 -0.12517461655E+03  0.48962857160E+02  0.16404442899E+03  0.24617396429E+03  0.12500000000E+03 0.  0.
         25    1    1    2    0    0  0.12517461655E+03 -0.48962857160E+02  0.11943530901E+03  0.21898821668E+03  0.12500000000E+03 0.  0.
</event>
<event>
 4    0  0.2190908E-002  0.2548511E+03  0.7546771E-02  0.1110277E+00
         21   -1    0    0  502  501  0.00000000000E+00  0.00000000000E+00  0.13608322413E+03  0.13608322413E+03  0.00000000000E+00 0.  1.
         21   -1    0    0  501  502 -0.00000000000E+00 -0.00000000000E+00 -0.47727481130E+03  0.47727481130E+03  0.00000000000E+00 0.  1.
         25    1    1    2    0    0  0.96777880242E+02  0.74765080947E+02 -0.39368402517E+03  0.43077591287E+03  0.12500000000E+03 0.  0.
         25    1    1    2    0    0 -0.96777880242E+02 -0.74765080947E+02  0.52492437992E+02  0.18258212256E+03  0.12500000000E+03 0.  0.
</event>
<event>
 4    0  0.2190908E-002  0.1918458E+03  0.7546771E-02  0.1156807E+00
         21   -1    0    0  502  501  0.00000000000E+00  0.00000000000E+00  0.45882681286E+02  0.45882681286E+02  0.00000000000E+00 0.  1.
         21   -1    0    0  501  502 -0.00000000000E+00 -0.00000000000E+00 -0.80215010989E+03  0.80215010989E+03  0.00000000000E+00 0.  1.
         25    1    1    2    0    0  0.10192071894E+03  0.35254207195E+02 -0.59411284228E+03  0.61662448981E+03  0.12500000000E+03 0.  0.
         25    1    1    2    0    0 -0.10192071894E+03 -0.35254207195E+02 -0.16215458633E+03  0.23140830137E+03  0.12500000000E+03 0.  0.
</event>
<event>
 4    0  0.2190908E-002  0.2317257E+03  0.7546771E-02  0.1125431E+00
         21   -1    0    0  502  501  0.00000000000E+00  0.00000000000E+00  0.65277899863E+03  0.65277899863E+03  0.00000000000E+00 0.  1.
         21   -1    0    0  501  502 -0.00000000000E+00 -0.00000000000E+00 -0.82258786375E+02  0.82258786375E+02  0.00000000000E+00 0.  1.
         25    1    1    2    0    0  0.21265995498E+02  0.12613638593E+03  0.51894310695E+03  0.54889851400E+03  0.12500000000E+03 0.  0.
         25    1    1    2    0    0 -0.21265995498E+02 -0.12613638593E+03  0.51577105307E+02  0.18613927101E+03  0.12500000000E+03 0.  0.
</event>
<event>
 4    0  0.2190908E-002  0.5119654E+03  0.7546771E-02  0.1010702E+00
         21   -1    0    0  502  501  0.00000000000E+00  0.00000000000E+00  0.11254648806E+04  0.11254648806E+04  0.00000000000E+00 0.  1.
         21   -1    0    0  501  502 -0.00000000000E+00 -0.00000000000E+00 -0.23288919709E+03  0.23288919709E+03  0.00000000000E+00 0.  1.
         25    1    1    2    0    0 -0.34718312526E+02 -0.47516087706E+03  0.63154031779E+03  0.80090660710E+03  0.12500000000E+03 0.  0.
         25    1    1    2    0    0  0.34718312526E+02  0.47516087706E+03  0.26103536574E+03  0.55744747060E+03  0.12500000000E+03 0.  0.
</event>
<event>
 4    0  0.2190908E-002  0.1558049E+03  0.7546771E-02  0.1193516E+00
         21   -1    0    0  502  501  0.00000000000E+00  0.00000000000E+00  0.17225798561E+02  0.17225798561E+02  0.00000000000E+00 0. -1.
         21   -1    0    0  501  502 -0.00000000000E+00 -0.00000000000E+00 -0.14092340252E+04  0.14092340252E+04  0.00000000000E+00 0. -1.
         25    1    1    2    0    0 -0.72759285471E+02  0.30176822636E+02 -0.46962130982E+03  0.49231466450E+03  0.12500000000E+03 0.  0.
         25    1    1    2    0    0  0.72759285471E+02 -0.30176822636E+02 -0.92238691679E+03  0.93414515923E+03  0.12500000000E+03 0.  0.
</event>
<event>
 4    0  0.2190908E-002  0.1791289E+03  0.7546771E-02  0.1168649E+00
         21   -1    0    0  502  501  0.00000000000E+00  0.00000000000E+00  0.61376278908E+02  0.61376278908E+02  0.00000000000E+00 0.  1.
         21   -1    0    0  501  502 -0.00000000000E+00 -0.00000000000E+00 -0.52279442316E+03  0.52279442316E+03  0.00000000000E+00 0.  1.
         25    1    1    2    0    0 -0.14639715822E+01 -0.87991270638E+02 -0.38295361439E+03  0.41233854743E+03  0.12500000000E+03 0.  0.
         25    1    1    2    0    0  0.14639715822E+01  0.87991270638E+02 -0.78464529861E+02  0.17183215464E+03  0.12500000000E+03 0.  0.
</event>
<event>
 4    0  0.2190908E-002  0.1944257E+03  0.7546771E-02  0.1154529E+00
         21   -1    0    0  502  501  0.00000000000E+00  0.00000000000E+00  0.59147788360E+03  0.59147788360E+03  0.00000000000E+00 0. -1.
         21   -1    0    0  501  502 -0.00000000000E+00 -0.00000000000E+00 -0.63909992031E+02  0.63909992031E+02  0.00000000000E+00 0. -1.
         25    1    1    2    0    0 -0.21071792477E+02 -0.14027122284E+03  0.18735478168E+03  0.26617071705E+03  0.12500000000E+03 0.  0.
         25    1    1    2    0    0  0.21071792477E+02  0.14027122284E+03  0.34021310989E+03  0.38921715859E+03  0.12500000000E+03 0.  0.
</event>
<event>
 4    0  0.2190908E-002  0.3163510E+03  0.7546771E-02  0.1077341E+00
         21   -1    0    0  502  501  0.00000000000E+00  0.00000000000E+00  0.11493279031E+03  0.11493279031E+03  0.00000000000E+00 0.  1.
         21   -1    0    0  501  502 -0.00000000000E+00 -0.00000000000E+00 -0.87075179401E+03  0.87075179401E+03  0.00000000000E+00 0.  1.
         25    1    1    2    0    0 -0.60350746186E+02 -0.23806111928E+03 -0.61994890088E+03  0.67843713694E+03  0.12500000000E+03 0.  0.
         25    1    1    2    0    0  0.60350746186E+02  0.23806111928E+03 -0.13587010283E+03  0.30724744738E+03  0.12500000000E+03 0.  0.
</event>
<event>
 4    0  0.2190908E-002  0.2139713E+03  0.7546771E-02  0.1138459E+00
         21   -1    0    0  502  501  0.00000000000E+00  0.00000000000E+00  0.81734173418E+03  0.81734173418E+03  0.00000000000E+00 0.  1.
         21   -1    0    0  501  502 -0.00000000000E+00 -0.00000000000E+00 -0.56015377423E+02  0.56015377423E+02  0.00000000000E+00 0.  1.
         25    1    1    2    0    0 -0.58981059611E+02  0.16181201371E+03  0.33517456767E+03  0.39702504201E+03  0.12500000000E+03 0.  0.
         25    1    1    2    0    0  0.58981059611E+02 -0.16181201371E+03  0.42615178909E+03  0.47633206959E+03  0.12500000000E+03 0.  0.
</event>
<event>
 4    0  0.2190908E-002  0.2718311E+03  0.7546771E-02  0.1100236E+00
         21   -1    0    0  502  501  0.00000000000E+00  0.00000000000E+00  0.13661067206E+03  0.13661067206E+03  0.00000000000E+00 0.  1.
         21   -1    0    0  501  502 -0.00000000000E+00 -0.00000000000E+00 -0.54089601519E+03  0.54089601519E+03  0.00000000000E+00 0.  1.
         25    1    1    2    0    0  0.14821032678E+03 -0.18165395175E+03 -0.13052510828E+03  0.29601733572E+03  0.12500000000E+03 0.  0.
         25    1    1    2    0    0 -0.14821032678E+03  0.18165395175E+03 -0.27376023485E+03  0.38148935154E+03  0.12500000000E+03 0.  0.
</event>
<event>
 4    0  0.2190908E-002  0.2842316E+03  0.7546771E-02  0.1093400E+00
         21   -1    0    0  502  501  0.00000000000E+00  0.00000000000E+00  0.17066762357E+03  0.17066762357E+03  0.00000000000E+00 0. -1.
         21   -1    0    0  501  502 -0.00000000000E+00 -0.00000000000E+00 -0.47336222400E+03  0.47336222400E+03  0.00000000000E+00 0. -1.
         25    1    1    2    0    0 -0.23864142457E+03 -0.66528679393E+02 -0.22106458338E+03  0.35478210880E+03  0.12500000000E+03 0.  0.
         25    1    1    2    0    0  0.23864142457E+03  0.66528679393E+02 -0.81630017051E+02  0.28924773877E+03  0.12500000000E+03 0.  0.
</event>
<event>
 4    0  0.2190908E-002  0.1757971E+03  0.7546771E-02  0.1171934E+00
         21   -1    0    0  502  501  0.00000000000E+00  0.00000000000E+00  0.26437826379E+03  0.26437826379E+03  0.00000000000E+00 0.  1.
         21   -1    0    0  501  502 -0.00000000000E+00 -0.00000000000E+00 -0.11689541518E+03  0.11689541518E+03  0.00000000000E+00 0.  1.
         25    1    1    2    0    0 -0.43382751333E+02  0.23327770317E+02  0.19668434749E+03  0.23819315803E+03  0.12500000000E+03 0.  0.
         25    1    1    2    0    0  0.43382751333E+02 -0.23327770317E+02 -0.49201498889E+02  0.14308052095E+03  0.12500000000E+03 0.  0.
</event>
<event>
 4    0  0.2190908E-002  0.2237548E+03  0.7546771E-02  0.1131114E+00
         21   -1    0    0  502  501  0.00000000000E+00  0.00000000000E+00  0.62113446671E+03  0.62113446671E+03  0.00000000000E+00 0.  1.
         21   -1    0    0  501  502 -0.00000000000E+00 -0.00000000000E+00 -0.80604498262E+02  0.80604498262E+02  0.00000000000E+00 0.  1.
         25    1    1    2    0    0 -0.13258605462E+03 -0.58691316538E+02  0.45190391498E+03  0.49078088888E+03  0.12500000000E+03 0.  0.
         25    1    1    2    0    0  0.13258605462E+03  0.58691316538E+02  0.88626053475E+02  0.21095807610E+03  0.12500000000E+03 0.  0.
</event>
<event>
 4    0  0.2190908E-002  0.2530597E+03  0.7546771E-02  0.1111386E+00
         21   -1    0    0  502  501  0.00000000000E+00  0.00000000000E+00  0.86758352573E+03  0.86758352573E+03  0.00000000000E+00 0. -1.
         21   -1    0    0  501  502 -0.00000000000E+00 -0.00000000000E+00 -0.73813291694E+02  0.73813291694E+02  0.00000000000E+00 0. -1.
         25    1    1    2    0    0 -0.34524381032E+02  0.21006844970E+03  0.29343153898E+03  0.38346806192E+03  0.12500000000E+03 0.  0.
         25    1    1    2    0    0  0.34524381032E+02 -0.21006844970E+03  0.50033869505E+03  0.55792875549E+03  0.12500000000E+03 0.  0.
</event>
<event>
 4    0  0.2190908E-002  0.2649815E+03  0.7546771E-02  0.1104187E+00
         21   -1    0    0  502  501  0.00000000000E+00  0.00000000000E+00  0.11068146885E+03  0.11068146885E+03  0.00000000000E+00 0.  1.
         21   -1    0    0  501  502 -0.00000000000E+00 -0.00000000000E+00 -0.63438962241E+03  0.63438962241E+03  0.00000000000E+00 0.  1.
         25    1    1    2    0    0 -0.11223424548E+03  0.15604819844E+03 -0.75115677491E+02  0.24127770535E+03  0.12500000000E+03 0.  0.
         25    1    1    2    0    0  0.11223424548E+03 -0.15604819844E+03 -0.44859247607E+03  0.50379338590E+03  0.12500000000E+03 0.  0.
</event>
<event>
 4    0  0.2190908E-002  0.1924117E+03  0.7546771E-02  0.1156304E+00
         21   -1    0    0  502  501  0.00000000000E+00  0.00000000000E+00  0.33548457024E+03  0.33548457024E+03  0.00000000000E+00 0.  1.
         21   -1    0    0  501  502 -0.00000000000E+00 -0.00000000000E+00 -0.11035456938E+03  0.11035456938E+03  0.00000000000E+00 0.  1.
         25    1    1    2    0    0  0.28305594909E+01 -0.12527279038E+03  0.20000308862E+03  0.26707212422E+03  0.12500000000E+03 0.  0.
         25    1    1    2    0    0 -0.28305594909E+01  0.12527279038E+03  0.25126912234E+02  0.17876701540E+03  0.12500000000E+03 0.  0.
</event>
<event>
 4    0  0.2190908E-002  0.1939675E+03  0.7546771E-02  0.1154931E+00
         21   -1    0    0  502  501  0.00000000000E+00  0.00000000000E+00  0.46116130716E+03  0.46116130716E+03  0.00000000000E+00 0. -1.
         21   -1    0    0  501  502 -0.00000000000E+00 -0.00000000000E+00 -0.81584052252E+02  0.81584052252E+02  0.00000000000E+00 0. -1.
         25    1    1    2    0    0  0.42553684513E+02 -0.11653392323E+03  0.30351300451E+03  0.35090755939E+03  0.12500000000E+03 0.  0.
         25    1    1    2    0    0 -0.42553684513E+02  0.11653392323E+03  0.76064250404E+02  0.19183780003E+03  0.12500000000E+03 0.  0.
</event>
<event>
 4    0  0.2190908E-002  0.2223703E+03  0.7546771E-02  0.1132128E+00
         21   -1    0    0  502  501  0.00000000000E+00  0.00000000000E+00  0.93337341826E+03  0.93337341826E+03  0.00000000000E+00 0.  1.
         21   -1    0    0  501  502 -0.00000000000E+00 -0.00000000000E+00 -0.52978329015E+02  0.52978329015E+02  0.00000000000E+00 0.  1.
         25    1    1    2    0    0 -0.11602093609E+03 -0.13653433209E+03  0.34818949246E+03  0.41105158328E+03  0.12500000000E+03 0.  0.
         25    1    1    2    0    0  0.11602093609E+03  0.13653433209E+03  0.53220559678E+03  0.57530016400E+03  0.12500000000E+03 0.  0.
</event>
<event>
 4    0  0.2190908E-002  0.2221538E+03  0.7546771E-02  0.1132287E+00
         21   -1    0    0  502  501  0.00000000000E+00  0.00000000000E+00  0.16390053355E+03  0.16390053355E+03  0.00000000000E+00 0. -1.
         21   -1    0    0  501  502 -0.00000000000E+00 -0.00000000000E+00 -0.30111132478E+03  0.30111132478E+03  0.00000000000E+00 0. -1.
         25    1    1    2    0    0 -0.14183170277E+03  0.23615475783E+02  0.50970010343E+02  0.19722288042E+03  0.12500000000E+03 0.  0.
         25    1    1    2    0    0  0.14183170277E+03 -0.23615475783E+02 -0.18818080158E+03  0.26778897791E+03  0.12500000000E+03 0.  0.
</event>
<event>
 4    0  0.2190908E-002  0.1933345E+03  0.7546771E-02  0.1155488E+00
         21   -1    0    0  502  501  0.00000000000E+00  0.00000000000E+00  0.31723262882E+03  0.31723262882E+03  0.00000000000E+00 0.  1.
         21   -1    0    0  501  502 -0.00000000000E+00 -0.00000000000E+00 -0.11782594340E+03  0.11782594340E+03  0.00000000000E+00 0.  1.
         25    1    1    2    0    0 -0.67565580389E+02  0.11324117487E+03  0.17403583621E+03  0.25159917255E+03  0.12500000000E+03 0.  0.
         25    1    1    2    0    0  0.67565580389E+02 -0.11324117487E+03  0.25370849207E+02  0.18345939968E+03  0.12500000000E+03 0.  0.
</event>
<event>
 4    0  0.2190908E-002  0.2783308E+03  0.7546771E-02  0.1096604E+00
         21   -1    0    0  502  501  0.00000000000E+00  0.00000000000E+00  0.11826841021E+04  0.11826841021E+04  0.00000000000E+00 0.  1.
         21   -1    0    0  501  502 -0.00000000000E+00 -0.00000000000E+00 -0.65501879238E+02  0.65501879238E+02  0.00000000000E+00 0.  1.
         25    1    1    2    0    0 -0.17357696085E+03  0.17700381467E+03  0.60251441286E+03  0.66340630796E+03  0.12500000000E+03 0.  0.
         25    1    1    2    0    0  0.17357696085E+03 -0.17700381467E+03  0.51466781005E+03  0.58477967342E+03  0.12500000000E+03 0.  0.
</event>
<event>
 4    0  0.2190908E-002  0.2223526E+03  0.7546771E-02  0.1132141E+00
         21   -1    0    0  502  501  0.00000000000E+00  0.00000000000E+00  0.12682631946E+03  0.12682631946E+03  0.00000000000E+00 0.  1.
         21   -1    0    0  501  502 -0.00000000000E+00 -0.00000000000E+00 -0.38982964301E+03  0.38982964301E+03  0.00000000000E+00 0.  1.
         25    1    1    2    0    0  0.74928730953E+02 -0.10213961066E+03  0.23365348104E+02  0.17949304800E+03  0.12500000000E+03 0.  0.
         25    1    1    2    0    0 -0.74928730953E+02  0.10213961066E+03 -0.28636867166E+03  0.33716291447E+03  0.12500000000E+03 0.  0.
</event>
<event>
 4    0  0.2190908E-002  0.2202995E+03  0.7546771E-02  0.1133660E+00
         21   -1    0    0  502  501  0.00000000000E+00  0.00000000000E+00  0.35286019917E+03  0.35286019917E+03  0.00000000000E+00 0. -1.
         21   -1    0    0  501  502 -0.00000000000E+00 -0.00000000000E+00 -0.13753856934E+03  0.13753856934E+03  0.00000000000E+00 0. -1.
         25    1    1    2    0    0  0.25484640709E+02 -0.13956460743E+03  0.23348282166E+03  0.30044462813E+03  0.12500000000E+03 0.  0.
         25    1    1    2    0    0 -0.25484640709E+02  0.13956460743E+03 -0.18161191827E+02  0.18995414038E+03  0.12500000000E+03 0.  0.
</event>
<event>
 4    0  0.2190908E-002  0.1775722E+03  0.7546771E-02  0.1170174E+00
         21   -1    0    0  502  501  0.00000000000E+00  0.00000000000E+00  0.26798707159E+03  0.26798707159E+03  0.00000000000E+00 0. -1.
         21   -1    0    0  501  502 -0.00000000000E+00 -0.00000000000E+00 -0.11766195241E+03  0.11766195241E+03  0.00000000000E+00 0. -1.
         25    1    1    2    0    0  0.10889385958E+03 -0.48852198049E+02  0.11943816256E+03  0.21008304211E+03  0.12500000000E+03 0.  0.
         25    1    1    2    0    0 -0.10889385958E+03  0.48852198049E+02  0.30886956617E+02  0.17556598189E+03  0.12500000000E+03 0.  0.
</event>
<event>
 4    0  0.2190908E-002  0.1809645E+03  0.7546771E-02  0.1166873E+00
         21   -1    0    0  502  501  0.00000000000E+00  0.00000000000E+00  0.10948690912E+02  0.10948690912E+02  0.00000000000E+00 0.  1.
         21   -1    0    0  501  502 -0.00000000000E+00 -0.00000000000E+00 -0.29910573412E+04  0.29910573412E+04  0.00000000000E+00 0.  1.
         25    1    1    2    0    0 -0.69047896376E+02 -0.68873685024E+02 -0.22137175666E+04  0.22193876771E+04  0.12500000000E+03 0.  0.
         25    1    1    2    0    0  0.69047896376E+02  0.68873685024E+02 -0.76639108364E+03  0.78261835499E+03  0.12500000000E+03 0.  0.
</event>
<event>
 4    0  0.2190908E-002  0.2449654E+03  0.7546771E-02  0.1116529E+00
         21   -1    0    0  502  501  0.00000000000E+00  0.00000000000E+00  0.39566141256E+03  0.39566141256E+03  0.00000000000E+00 0.  1.
         21   -1    0    0  501  502 -0.00000000000E+00 -0.00000000000E+00 -0.15166515905E+03  0.15166515905E+03  0.00000000000E+00 0.  1.
         25    1    1    2    0    0  0.36280730412E+02  0.82730268270E+02 -0.90620231848E+02  0.17887877210E+03  0.12500000000E+03 0.  0.
         25    1    1    2    0    0 -0.36280730412E+02 -0.82730268270E+02  0.33461648537E+03  0.36844779951E+03  0.12500000000E+03 0.  0.
</event>
<event>
 4    0  0.2190908E-002  0.2100114E+03  0.7546771E-02  0.1141557E+00
         21   -1    0    0  502  501  0.00000000000E+00  0.00000000000E+00  0.30270137851E+03  0.30270137851E+03  0.00000000000E+00 0.  1.
         21   -1    0    0  501  502 -0.00000000000E+00 -0.00000000000E+00 -0.14570396173E+03  0.14570396173E+03  0.00000000000E+00 0.  1.
         25    1    1    2    0    0  0.12336340962E+03 -0.10655229839E+03  0.12512940921E+03  0.24052919194E+03  0.12500000000E+03 0.  0.
         25    1    1    2    0    0 -0.12336340962E+03  0.10655229839E+03  0.31868007571E+02  0.20787614830E+03  0.12500000000E+03 0.  0.
</event>
<event>
 4    0  0.2190908E-002  0.2106316E+03  0.7546771E-02  0.1141067E+00
         21   -1    0    0  502  501  0.00000000000E+00  0.00000000000E+00  0.34132552690E+03  0.34132552690E+03  0.00000000000E+00 0. -1.
         21   -1    0    0  501  502 -0.00000000000E+00 -0.00000000000E+00 -0.12998052422E+03  0.12998052422E+03  0.00000000000E+00 0. -1.
         25    1    1    2    0    0 -0.49359660889E+02 -0.16214852098E+03  0.10957257008E+03  0.23740191047E+03  0.12500000000E+03 0.  0.
         25    1    1    2    0    0  0.49359660889E+02  0.16214852098E+03  0.10177243260E+03  0.23390414066E+03  0.12500000000E+03 0.  0.
</event>
<event>
 4    0  0.2190908E-002  0.2512421E+03  0.7546771E-02  0.1112522E+00
         21   -1    0    0  502  501  0.00000000000E+00  0.00000000000E+00  0.16534645251E+04  0.16534645251E+04  0.00000000000E+00 0. -1.
         21   -1    0    0  501  502 -0.00000000000E+00 -0.00000000000E+00 -0.38175951406E+02  0.38175951406E+02  0.00000000000E+00 0. -1.
         25    1    1    2    0    0  0.74550220478E+02  0.53146190359E+02  0.14734678916E+04  0.14815920087E+04  0.12500000000E+03 0.  0.
         25    1    1    2    0    0 -0.74550220478E+02 -0.53146190359E+02  0.14182068211E+03  0.21004846773E+03  0.12500000000E+03 0.  0.
</event>
<event>
 4    0  0.2190908E-002  0.1792498E+03  0.7546771E-02  0.1168531E+00
         21   -1    0    0  502  501  0.00000000000E+00  0.00000000000E+00  0.39287942098E+03  0.39287942098E+03  0.00000000000E+00 0.  1.
         21   -1    0    0  501  502 -0.00000000000E+00 -0.00000000000E+00 -0.81782098235E+02  0.81782098235E+02  0.00000000000E+00 0.  1.
         25    1    1    2    0    0  0.69948763796E+02  0.98706055055E+02  0.98296549516E+02  0.19980722336E+03  0.12500000000E+03 0.  0.
         25    1    1    2    0    0 -0.69948763796E+02 -0.98706055055E+02  0.21280077323E+03  0.27485429585E+03  0.12500000000E+03 0.  0.
</event>
<event>
 4    0  0.2190908E-002  0.2082378E+03  0.7546771E-02  0.1142969E+00
         21   -1    0    0  502  501  0.00000000000E+00  0.00000000000E+00  0.29621725493E+03  0.29621725493E+03  0.00000000000E+00 0.  1.
         21   -1    0    0  501  502 -0.00000000000E+00 -0.00000000000E+00 -0.14638908047E+03  0.14638908047E+03  0.00000000000E+00 0.  1.
         25    1    1    2    0    0  0.18393083087E+02  0.16101831972E+03  0.34129591023E+02  0.20749706931E+03  0.12500000000E+03 0.  0.
         25    1    1    2    0    0 -0.18393083087E+02 -0.16101831972E+03  0.11569858343E+03  0.23510926608E+03  0.12500000000E+03 0.  0.
</event>
<event>
 4    0  0.2190908E-002  0.3887618E+03  0.7546771E-02  0.1047742E+00
         21   -1    0    0  502  501  0.00000000000E+00  0.00000000000E+00  0.17466171440E+03  0.17466171440E+03  0.00000000000E+00 0. -1.
         21   -1    0    0  501  502 -0.00000000000E+00 -0.00000000000E+00 -0.86530567330E+03  0.86530567330E+03  0.00000000000E+00 0. -1.
         25    1    1    2    0    0  0.20168970072E+03  0.14983001915E+03  0.14530406441E+02  0.28100516495E+03  0.12500000000E+03 0.  0.
         25    1    1    2    0    0 -0.20168970072E+03 -0.14983001915E+03 -0.70517436535E+03  0.75896222275E+03  0.12500000000E+03 0.  0.
</event>
<event>
 4    0  0.2190908E-002  0.1424159E+03  0.7546771E-02  0.1210115E+00
         21   -1    0    0  502  501  0.00000000000E+00  0.00000000000E+00  0.67906762724E+03  0.67906762724E+03  0.00000000000E+00 0.  1.
         21   -1    0    0  501  502 -0.00000000000E+00 -0.00000000000E+00 -0.29867854511E+02  0.29867854511E+02  0.00000000000E+00 0.  1.
         25    1    1    2    0    0  0.10298126423E+02 -0.65942510638E+01  0.15749141580E+03  0.20144001987E+03  0.12500000000E+03 0.  0.
         25    1    1    2    0    0 -0.10298126423E+02  0.65942510638E+01  0.49170835693E+03  0.50749546188E+03  0.12500000000E+03 0.  0.
</event>
<event>
 4    0  0.2190908E-002  0.2078927E+03  0.7546771E-02  0.1143246E+00
         21   -1    0    0  502  501  0.00000000000E+00  0.00000000000E+00  0.15270278562E+03  0.15270278562E+03  0.00000000000E+00 0. -1.
         21   -1    0    0  501  502 -0.00000000000E+00 -0.00000000000E+00 -0.28302945889E+03  0.28302945889E+03  0.00000000000E+00 0. -1.
         25    1    1    2    0    0 -0.11724253687E+03 -0.51033387379E+02 -0.17628892169E+03  0.25110357024E+03  0.12500000000E+03 0.  0.
         25    1    1    2    0    0  0.11724253687E+03  0.51033387379E+02  0.45962248421E+02  0.18462867426E+03  0.12500000000E+03 0.  0.
</event>
<event>
 4    0  0.2190908E-002  0.1898742E+03  0.7546771E-02  0.1158575E+00
         21   -1    0    0  502  501  0.00000000000E+00  0.00000000000E+00  0.46261914046E+02  0.46261914046E+02  0.00000000000E+00 0. -1.
         21   -1    0    0  501  502 -0.00000000000E+00 -0.00000000000E+00 -0.77930656860E+03  0.77930656860E+03  0.00000000000E+00 0. -1.
         25    1    1    2    0    0  0.54480487107E+02  0.13202191166E+03 -0.37829098565E+03  0.42323395240E+03  0.12500000000E+03 0.  0.
         25    1    1    2    0    0 -0.54480487107E+02 -0.13202191166E+03 -0.35475366890E+03  0.40233453025E+03  0.12500000000E+03 0.  0.
</event>
<event>
 4    0  0.2190908E-002  0.2258106E+03  0.7546771E-02  0.1129624E+00
         21   -1    0    0  502  501  0.00000000000E+00  0.00000000000E+00  0.82540510328E+02  0.82540510328E+02  0.00000000000E+00 0.  1.
         21   -1    0    0  501  502 -0.00000000000E+00 -0.00000000000E+00 -0.61776231063E+03  0.61776231063E+03  0.00000000000E+00 0.  1.
         25    1    1    2    0    0 -0.71397343992E+02 -0.17231860836E+03 -0.30476594631E+03  0.37854796994E+03  0.12500000000E+03 0.  0.
         25    1    1    2    0    0  0.71397343992E+02  0.17231860836E+03 -0.23045585400E+03  0.32175485102E+03  0.12500000000E+03 0.  0.
</event>
<event>
 4    0  0.2190908E-002  0.1904482E+03  0.7546771E-02  0.1158058E+00
         21   -1    0    0  502  501  0.00000000000E+00  0.00000000000E+00  0.21562879287E+03  0.21562879287E+03  0.00000000000E+00 0. -1.
         21   -1    0    0  501  502 -0.00000000000E+00 -0.00000000000E+00 -0.16820821678E+03  0.16820821678E+03  0.00000000000E+00 0. -1.
         25    1    1    2    0    0 -0.37595282425E+02 -0.86934155449E+02 -0.85172828716E+02  0.17846670108E+03  0.12500000000E+03 0.  0.
         25    1    1    2    0    0  0.37595282425E+02  0.86934155449E+02  0.13259340481E+03  0.20537030857E+03  0.12500000000E+03 0.  0.
</event>
<event>
 4    0  0.2190908E-002  0.2637183E+03  0.7546771E-02  0.1104930E+00
         21   -1    0    0  502  501  0.00000000000E+00  0.00000000000E+00  0.34216367996E+02  0.34216367996E+02  0.00000000000E+00 0.  1.
         21   -1    0    0  501  502 -0.00000000000E+00 -0.00000000000E+00 -0.20325757309E+04  0.20325757309E+04  0.00000000000E+00 0.  1.
         25    1    1    2    0    0 -0.73051894894E+01  0.23026536905E+03 -0.88514668293E+03  0.92313875245E+03  0.12500000000E+03 0.  0.
         25    1    1    2    0    0  0.73051894894E+01 -0.23026536905E+03 -0.11132126800E+04  0.11436533464E+04  0.12500000000E+03 0.  0.
</event>
<event>
 4    0  0.2190908E-002  0.2426410E+03  0.7546771E-02  0.1118046E+00
         21   -1    0    0  502  501  0.00000000000E+00  0.00000000000E+00  0.41012272848E+03  0.41012272848E+03  0.00000000000E+00 0. -1.
         21   -1    0    0  501  502 -0.00000000000E+00 -0.00000000000E+00 -0.14355378730E+03  0.14355378730E+03  0.00000000000E+00 0. -1.
         25    1    1    2    0    0  0.36385539505E+02 -0.21228806358E+02 -0.99072437379E+02  0.16496944430E+03  0.12500000000E+03 0.  0.
         25    1    1    2    0    0 -0.36385539505E+02  0.21228806358E+02  0.36564137855E+03  0.38870707148E+03  0.12500000000E+03 0.  0.
</event>
<event>
 4    0  0.2190908E-002  0.1905145E+03  0.7546771E-02  0.1157998E+00
         21   -1    0    0  502  501  0.00000000000E+00  0.00000000000E+00  0.92832057330E+02  0.92832057330E+02  0.00000000000E+00 0.  1.
         21   -1    0    0  501  502 -0.00000000000E+00 -0.00000000000E+00 -0.39098303578E+03  0.39098303578E+03  0.00000000000E+00 0.  1.
         25    1    1    2    0    0  0.12018717139E+02 -0.13472097714E+03 -0.87174637240E+02  0.20376115582E+03  0.12500000000E+03 0.  0.
         25    1    1    2    0    0 -0.12018717139E+02  0.13472097714E+03 -0.21097634121E+03  0.28005393729E+03  0.12500000000E+03 0.  0.
</event>
<event>
 4    0  0.2190908E-002  0.2065535E+03  0.7546771E-02  0.1144325E+00
         21   -1    0    0  502  501  0.00000000000E+00  0.00000000000E+00  0.27498504786E+03  0.27498504786E+03  0.00000000000E+00 0. -1.
         21   -1    0    0  501  502 -0.00000000000E+00 -0.00000000000E+00 -0.15515153792E+03  0.15515153792E+03  0.00000000000E+00 0. -1.
         25    1    1    2    0    0 -0.24907269116E+02 -0.44238600517E+02 -0.10293376163E+03  0.16969910169E+03  0.12500000000E+03 0.  0.
         25    1    1    2    0    0  0.24907269116E+02  0.44238600517E+02  0.22276727158E+03  0.26043748408E+03  0.12500000000E+03 0.  0.
</event>
<event>
 4    0  0.2190908E-002  0.2005136E+03  0.7546771E-02  0.1149306E+00
         21   -1    0    0  502  501  0.00000000000E+00  0.00000000000E+00  0.56781612049E+03  0.56781612049E+03  0.00000000000E+00 0. -1.
         21   -1    0    0  501  502 -0.00000000000E+00 -0.00000000000E+00 -0.70807604082E+02  0.70807604082E+02  0.00000000000E+00 0. -1.
         25    1    1    2    0    0  0.76445731844E+02 -0.22275427515E+02  0.33429094722E+02  0.15192975009E+03  0.12500000000E+03 0.  0.
         25    1    1    2    0    0 -0.76445731844E+02  0.22275427515E+02  0.46357942168E+03  0.48669397448E+03  0.12500000000E+03 0.  0.
</event>
<event>
 4    0  0.2190908E-002  0.2589923E+03  0.7546771E-02  0.1107750E+00
         21   -1    0    0  502  501  0.00000000000E+00  0.00000000000E+00  0.36298085291E+03  0.36298085291E+03  0.00000000000E+00 0. -1.
         21   -1    0    0  501  502 -0.00000000000E+00 -0.00000000000E+00 -0.18479491534E+03  0.18479491534E+03  0.00000000000E+00 0. -1.
         25    1    1    2    0    0  0.52809659141E+02  0.21584942233E+03  0.13723229226E+03  0.28954712096E+03  0.12500000000E+03 0.  0.
         25    1    1    2    0    0 -0.52809659141E+02 -0.21584942233E+03  0.40953645315E+02  0.25822864729E+03  0.12500000000E+03 0.  0.
</event>
<event>
 4    0  0.2190908E-002  0.2244053E+03  0.7546771E-02  0.1130641E+00
         21   -1    0    0  502  501  0.00000000000E+00  0.00000000000E+00  0.54326547696E+03  0.54326547696E+03  0.00000000000E+00 0.  1.
         21   -1    0    0  501  502 -0.00000000000E+00 -0.00000000000E+00 -0.92694521426E+02  0.92694521426E+02  0.00000000000E+00 0.  1.
         25    1    1    2    0    0 -0.98950750070E+02  0.14628255961E+03  0.14094309419E+03  0.25822430944E+03  0.12500000000E+03 0.  0.
         25    1    1    2    0    0  0.98950750070E+02 -0.14628255961E+03  0.30962786134E+03  0.37773568895E+03  0.12500000000E+03 0.  0.
</event>
<event>
 4    0  0.2190908E-002  0.2571405E+03  0.7546771E-02  0.1108874E+00
         21   -1    0    0  502  501  0.00000000000E+00  0.00000000000E+00  0.52593881561E+02  0.52593881561E+02  0.00000000000E+00 0.  1.
         21   -1    0    0  501  502 -0.00000000000E+00 -0.00000000000E+00 -0.12572036865E+04  0.12572036865E+04  0.00000000000E+00 0.  1.
         25    1    1    2    0    0  0.18362552846E+02  0.14096218848E+03 -0.15905967825E+03  0.24724988003E+03  0.12500000000E+03 0.  0.
         25    1    1    2    0    0 -0.18362552846E+02 -0.14096218848E+03 -0.10455501267E+04  0.10625476881E+04  0.12500000000E+03 0.  0.
</event>
<event>
 4    0  0.2190908E-002  0.2151243E+03  0.7546771E-02  0.1137571E+00
         21   -1    0    0  502  501  0.00000000000E+00  0.00000000000E+00  0.49219455133E+03  0.49219455133E+03  0.00000000000E+00 0. -1.
         21   -1    0    0  501  502 -0.00000000000E+00 -0.00000000000E+00 -0.94024760239E+02  0.94024760239E+02  0.00000000000E+00 0. -1.
         25    1    1    2    0    0  0.12752781929E+03 -0.10309425642E+03  0.28265153408E+03  0.34986949012E+03  0.12500000000E+03 0.  0.
         25    1    1    2    0    0 -0.12752781929E+03  0.10309425642E+03  0.11551825701E+03  0.23634982145E+03  0.12500000000E+03 0.  0.
</event>
<event>
 4    0  0.2190908E-002  0.2133730E+03  0.7546771E-02  0.1138922E+00
         21   -1    0    0  502  501  0.00000000000E+00  0.00000000000E+00  0.25304995064E+03  0.25304995064E+03  0.00000000000E+00 0.  1.
         21   -1    0    0  501  502 -0.00000000000E+00 -0.00000000000E+00 -0.17991726912E+03  0.17991726912E+03  0.00000000000E+00 0.  1.
         25    1    1    2    0    0  0.10200141373E+03  0.17929601157E+02  0.17706725991E+03  0.24021568128E+03  0.12500000000E+03 0.  0.
         25    1    1    2    0    0 -0.10200141373E+03 -0.17929601157E+02 -0.10393457839E+03  0.19275153848E+03  0.12500000000E+03 0.  0.
</event>
<event>
 4    0  0.2190908E-002  0.2022546E+03  0.7546771E-02  0.1147851E+00
         21   -1    0    0  502  501  0.00000000000E+00  0.00000000000E+00  0.42068532430E+02  0.42068532430E+02  0.00000000000E+00 0.  1.
         21   -1    0    0  501  502 -0.00000000000E+00 -0.00000000000E+00 -0.97238804616E+03  0.97238804616E+03  0.00000000000E+00 0.  1.
         25    1    1    2    0    0 -0.74051478159E+02 -0.13703655898E+03 -0.54522713301E+03  0.58065503225E+03  0.12500000000E+03 0.  0.
         25    1    1    2    0    0  0.74051478159E+02  0.13703655898E+03 -0.38509238073E+03  0.43380154634E+03  0.12500000000E+03 0.  0.
</event>
<event>
 4    0  0.2190908E-002  0.1452421E+03  0.7546771E-02  0.1206444E+00
         21   -1    0    0  502  501  0.00000000000E+00  0.00000000000E+00  0.19489924202E+03  0.19489924202E+03  0.00000000000E+00 0. -1.
         21   -1    0    0  501  502 -0.00000000000E+00 -0.00000000000E+00 -0.10823671630E+03  0.10823671630E+03  0.00000000000E+00 0. -1.
         25    1    1    2    0    0 -0.27277706210E+02 -0.54031281680E+02  0.87689091552E+02  0.16424929051E+03  0.12500000000E+03 0.  0.
         25    1    1    2    0    0  0.27277706210E+02  0.54031281680E+02 -0.10265658320E+01  0.13888666780E+03  0.12500000000E+03 0.  0.
</event>
<event>
 4    0  0.2190908E-002  0.2314230E+03  0.7546771E-02  0.1125642E+00
         21   -1    0    0  502  501  0.00000000000E+00  0.00000000000E+00  0.10002090583E+03  0.10002090583E+03  0.00000000000E+00 0. -1.
         21   -1    0    0  501  502 -0.00000000000E+00 -0.00000000000E+00 -0.53545396205E+03  0.53545396205E+03  0.00000000000E+00 0. -1.
         25    1    1    2    0    0 -0.22809667108E+02  0.19189351865E+03 -0.18441841694E+03  0.29492127071E+03  0.12500000000E+03 0.  0.
         25    1    1    2    0    0  0.22809667108E+02 -0.19189351865E+03 -0.25101463929E+03  0.34055359718E+03  0.12500000000E+03 0.  0.
</event>
<event>
 4    0  0.2190908E-002  0.2311935E+03  0.7546771E-02  0.1125803E+00
         21   -1    0    0  502  501  0.00000000000E+00  0.00000000000E+00  0.13519029041E+03  0.13519029041E+03  0.00000000000E+00 0.  1.
         21   -1    0    0  501  502 -0.00000000000E+00 -0.00000000000E+00 -0.39537175085E+03  0.39537175085E+03  0.00000000000E+00 0.  1.
         25    1    1    2    0    0 -0.93848690309E+02 -0.62770737055E+02  0.51617369668E+02  0.17617347971E+03  0.12500000000E+03 0.  0.
         25    1    1    2    0    0  0.93848690309E+02  0.62770737055E+02 -0.31179883011E+03  0.35438856155E+03  0.12500000000E+03 0.  0.
</event>
<event>
 4    0  0.2190908E-002  0.2175244E+03  0.7546771E-02  0.1135742E+00
         21   -1    0    0  502  501  0.00000000000E+00  0.00000000000E+00  0.49013978492E+03  0.49013978492E+03  0.00000000000E+00 0.  1.
         21   -1    0    0  501  502 -0.00000000000E+00 -0.00000000000E+00 -0.96537466740E+02  0.96537466740E+02  0.00000000000E+00 0.  1.
         25    1    1    2    0    0 -0.80925865885E+02 -0.10349852830E+03  0.35879862317E+03  0.40202287636E+03  0.12500000000E+03 0.  0.
         25    1    1    2    0    0  0.80925865885E+02  0.10349852830E+03  0.34803695002E+02  0.18465437529E+03  0.12500000000E+03 0.  0.
</event>
<event>
 4    0  0.2190908E-002  0.2007473E+03  0.7546771E-02  0.1149110E+00
         21   -1    0    0  502  501  0.00000000000E+00  0.00000000000E+00  0.30171769355E+03  0.30171769355E+03  0.00000000000E+00 0. -1.
         21   -1    0    0  501  502 -0.00000000000E+00 -0.00000000000E+00 -0.13356685272E+03  0.13356685272E+03  0.00000000000E+00 0. -1.
         25    1    1    2    0    0  0.14895219907E+02 -0.12961593878E+03 -0.10764281481E+02  0.18100560466E+03  0.12500000000E+03 0.  0.
         25    1    1    2    0    0 -0.14895219907E+02  0.12961593878E+03  0.17891512231E+03  0.25427894162E+03  0.12500000000E+03 0.  0.
</event>
<event>
 4    0  0.2190908E-002  0.2347712E+03  0.7546771E-02  0.1123326E+00
         21   -1    0    0  502  501  0.00000000000E+00  0.00000000000E+00  0.14983254569E+04  0.14983254569E+04  0.00000000000E+00 0.  1.
         21   -1    0    0  501  502 -0.00000000000E+00 -0.00000000000E+00 -0.36786072633E+02  0.36786072633E+02  0.00000000000E+00 0.  1.
         25    1    1    2    0    0  0.11373530875E+03  0.32638379659E+01  0.12634489722E+04  0.12747057223E+04  0.12500000000E+03 0.  0.
         25    1    1    2    0    0 -0.11373530875E+03 -0.32638379659E+01  0.19809041210E+03  0.26040580727E+03  0.12500000000E+03 0.  0.
</event>
<event>
 4    0  0.2190908E-002  0.2394290E+03  0.7546771E-02  0.1120174E+00
         21   -1    0    0  502  501  0.00000000000E+00  0.00000000000E+00  0.44615210197E+02  0.44615210197E+02  0.00000000000E+00 0. -1.
         21   -1    0    0  501  502 -0.00000000000E+00 -0.00000000000E+00 -0.12849033989E+04  0.12849033989E+04  0.00000000000E+00 0. -1.
         25    1    1    2    0    0  0.90738635159E+02 -0.18031105293E+03 -0.53431405612E+03  0.58468973506E+03  0.12500000000E+03 0.  0.
         25    1    1    2    0    0 -0.90738635159E+02  0.18031105293E+03 -0.70597413257E+03  0.74482887403E+03  0.12500000000E+03 0.  0.
</event>
<event>
 4    0  0.2190908E-002  0.1988016E+03  0.7546771E-02  0.1150754E+00
         21   -1    0    0  502  501  0.00000000000E+00  0.00000000000E+00  0.16687590805E+03  0.16687590805E+03  0.00000000000E+00 0.  1.
         21   -1    0    0  501  502 -0.00000000000E+00 -0.00000000000E+00 -0.23683512017E+03  0.23683512017E+03  0.00000000000E+00 0.  1.
         25    1    1    2    0    0  0.11748280673E+03 -0.35123303456E+02 -0.13055970807E+03  0.21841862030E+03  0.12500000000E+03 0.  0.
         25    1    1    2    0    0 -0.11748280673E+03  0.35123303456E+02  0.60600495941E+02  0.18529240792E+03  0.12500000000E+03 0.  0.
</event>
<event>
 4    0  0.2190908E-002  0.2843582E+03  0.7546771E-02  0.1093332E+00
         21   -1    0    0  502  501  0.00000000000E+00  0.00000000000E+00  0.14896335274E+03  0.14896335274E+03  0.00000000000E+00 0. -1.
         21   -1    0    0  501  502 -0.00000000000E+00 -0.00000000000E+00 -0.54281526823E+03  0.54281526823E+03  0.00000000000E+00 0. -1.
         25    1    1    2    0    0  0.70401537499E+02  0.12372331697E+03 -0.45487649865E+03  0.49274888602E+03  0.12500000000E+03 0.  0.
         25    1    1    2    0    0 -0.70401537499E+02 -0.12372331697E+03  0.61024583167E+02  0.19902973495E+03  0.12500000000E+03 0.  0.
</event>
<event>
 4    0  0.2190908E-002  0.2056891E+03  0.7546771E-02  0.1145026E+00
         21   -1    0    0  502  501  0.00000000000E+00  0.00000000000E+00  0.21315575247E+03  0.21315575247E+03  0.00000000000E+00 0. -1.
         21   -1    0    0  501  502 -0.00000000000E+00 -0.00000000000E+00 -0.19848408664E+03  0.19848408664E+03  0.00000000000E+00 0. -1.
         25    1    1    2    0    0  0.78817048910E+02 -0.95471979704E+02 -0.99296447370E+02  0.20201933216E+03  0.12500000000E+03 0.  0.
         25    1    1    2    0    0 -0.78817048910E+02  0.95471979704E+02  0.11396811320E+03  0.20962050695E+03  0.12500000000E+03 0.  0.
</event>
<event>
 4    0  0.2190908E-002  0.2539648E+03  0.7546771E-02  0.1110825E+00
         21   -1    0    0  502  501  0.00000000000E+00  0.00000000000E+00  0.93150377297E+03  0.93150377297E+03  0.00000000000E+00 0. -1.
         21   -1    0    0  501  502 -0.00000000000E+00 -0.00000000000E+00 -0.69240838463E+02  0.69240838463E+02  0.00000000000E+00 0. -1.
         25    1    1    2    0    0  0.15783155355E+03  0.11994203375E+03  0.62393574322E+03  0.66649658846E+03  0.12500000000E+03 0.  0.
         25    1    1    2    0    0 -0.15783155355E+03 -0.11994203375E+03  0.23832719128E+03  0.33424802297E+03  0.12500000000E+03 0.  0.
</event>
<event>
 4    0  0.2190908E-002  0.1636435E+03  0.7546771E-02  0.1184644E+00
         21   -1    0    0  502  501  0.00000000000E+00  0.00000000000E+00  0.10930348749E+03  0.10930348749E+03  0.00000000000E+00 0.  1.
         21   -1    0    0  501  502 -0.00000000000E+00 -0.00000000000E+00 -0.24499842561E+03  0.24499842561E+03  0.00000000000E+00 0.  1.
         25    1    1    2    0    0 -0.38108880144E+01  0.77452203194E+02 -0.14546518575E+03  0.20687795173E+03  0.12500000000E+03 0.  0.
         25    1    1    2    0    0  0.38108880144E+01 -0.77452203194E+02  0.97702476367E+01  0.14742396137E+03  0.12500000000E+03 0.  0.
</event>
<event>
 4    0  0.2190908E-002  0.2471632E+03  0.7546771E-02  0.1115111E+00
         21   -1    0    0  502  501  0.00000000000E+00  0.00000000000E+00  0.16074104405E+03  0.16074104405E+03  0.00000000000E+00 0. -1.
         21   -1    0    0  501  502 -0.00000000000E+00 -0.00000000000E+00 -0.38005011957E+03  0.38005011957E+03  0.00000000000E+00 0.  1.
         25    1    1    2    0    0 -0.12012204512E+02 -0.21274098224E+03 -0.10106583729E+03  0.26691257379E+03  0.12500000000E+03 0.  0.
         25    1    1    2    0    0  0.12012204512E+02  0.21274098224E+03 -0.11824323823E+03  0.27387858983E+03  0.12500000000E+03 0.  0.
</event>
<event>
 4    0  0.2190908E-002  0.2223813E+03  0.7546771E-02  0.1132120E+00
         21   -1    0    0  502  501  0.00000000000E+00  0.00000000000E+00  0.16329437441E+03  0.16329437441E+03  0.00000000000E+00 0.  1.
         21   -1    0    0  501  502 -0.00000000000E+00 -0.00000000000E+00 -0.30284829253E+03  0.30284829253E+03  0.00000000000E+00 0.  1.
         25    1    1    2    0    0 -0.12063204399E+03  0.13514924346E+03 -0.36452020231E+02  0.22309450424E+03  0.12500000000E+03 0.  0.
         25    1    1    2    0    0  0.12063204399E+03 -0.13514924346E+03 -0.10310189789E+03  0.24304816270E+03  0.12500000000E+03 0.  0.
</event>
<event>
 4    0  0.2190908E-002  0.3331826E+03  0.7546771E-02  0.1069737E+00
         21   -1    0    0  502  501  0.00000000000E+00  0.00000000000E+00  0.41130375141E+03  0.41130375141E+03  0.00000000000E+00 0. -1.
         21   -1    0    0  501  502 -0.00000000000E+00 -0.00000000000E+00 -0.26989949383E+03  0.26989949383E+03  0.00000000000E+00 0. -1.
         25    1    1    2    0    0  0.10690179073E+03 -0.10565347653E+03  0.34651541964E+03  0.39785498114E+03  0.12500000000E+03 0.  0.
         25    1    1    2    0    0 -0.10690179073E+03  0.10565347653E+03 -0.20511116207E+03  0.28334826410E+03  0.12500000000E+03 0.  0.
</event>
<event>
 4    0  0.2190908E-002  0.2191834E+03  0.7546771E-02  0.1134493E+00
         21   -1    0    0  502  501  0.00000000000E+00  0.00000000000E+00  0.81892156396E+02  0.81892156396E+02  0.00000000000E+00 0. -1.
         21   -1    0    0  501  502 -0.00000000000E+00 -0.00000000000E+00 -0.58664168442E+03  0.58664168442E+03  0.00000000000E+00 0. -1.
         25    1    1    2    0    0 -0.69377307413E+02  0.16245063428E+03 -0.30548817954E+03  0.37436806381E+03  0.12500000000E+03 0.  0.
         25    1    1    2    0    0  0.69377307413E+02 -0.16245063428E+03 -0.19926134848E+03  0.29416577700E+03  0.12500000000E+03 0.  0.
</event>
<event>
 4    0  0.2190908E-002  0.2001156E+03  0.7546771E-02  0.1149642E+00
         21   -1    0    0  502  501  0.00000000000E+00  0.00000000000E+00  0.75354397042E+02  0.75354397042E+02  0.00000000000E+00 0.  1.
         21   -1    0    0  501  502 -0.00000000000E+00 -0.00000000000E+00 -0.53143858838E+03  0.53143858838E+03  0.00000000000E+00 0.  1.
         25    1    1    2    0    0 -0.14743772259E+03 -0.43269790160E+02 -0.18486425497E+03  0.27094270529E+03  0.12500000000E+03 0.  0.
         25    1    1    2    0    0  0.14743772259E+03  0.43269790160E+02 -0.27121993636E+03  0.33585028013E+03  0.12500000000E+03 0.  0.
</event>
<event>
 4    0  0.2190908E-002  0.2193558E+03  0.7546771E-02  0.1134364E+00
         21   -1    0    0  502  501  0.00000000000E+00  0.00000000000E+00  0.31444268229E+03  0.31444268229E+03  0.00000000000E+00 0. -1.
         21   -1    0    0  501  502 -0.00000000000E+00 -0.00000000000E+00 -0.15302296793E+03  0.15302296793E+03  0.00000000000E+00 0. -1.
         25    1    1    2    0    0 -0.13891454541E+03  0.49929040236E+02 -0.29519916262E+02  0.19566958231E+03  0.12500000000E+03 0.  0.
         25    1    1    2    0    0  0.13891454541E+03 -0.49929040236E+02  0.19093963062E+03  0.27179606790E+03  0.12500000000E+03 0.  0.
</event>
<event>
 4    0  0.2190908E-002  0.2168635E+03  0.7546771E-02  0.1136243E+00
         21   -1    0    0  502  501  0.00000000000E+00  0.00000000000E+00  0.33545845120E+03  0.33545845120E+03  0.00000000000E+00 0. -1.
         21   -1    0    0  501  502 -0.00000000000E+00 -0.00000000000E+00 -0.14019553889E+03  0.14019553889E+03  0.00000000000E+00 0. -1.
         25    1    1    2    0    0 -0.83754735355E+02 -0.12750871209E+03  0.19652289755E+03  0.27842337656E+03  0.12500000000E+03 0.  0.
         25    1    1    2    0    0  0.83754735355E+02  0.12750871209E+03 -0.12599852424E+01  0.19723061353E+03  0.12500000000E+03 0.  0.
</event>
<event>
 4    0  0.2190908E-002  0.3145080E+03  0.7546771E-02  0.1078205E+00
         21   -1    0    0  502  501  0.00000000000E+00  0.00000000000E+00  0.13035312807E+03  0.13035312807E+03  0.00000000000E+00 0.  1.
         21   -1    0    0  501  502 -0.00000000000E+00 -0.00000000000E+00 -0.75882561794E+03  0.75882561794E+03  0.00000000000E+00 0.  1.
         25    1    1    2    0    0  0.16572366331E+03 -0.16229936038E+03 -0.55696823936E+03  0.61615260660E+03  0.12500000000E+03 0.  0.
         25    1    1    2    0    0 -0.16572366331E+03  0.16229936038E+03 -0.71504250515E+02  0.27302613941E+03  0.12500000000E+03 0.  0.
</event>
<event>
 4    0  0.2190908E-002  0.2892241E+03  0.7546771E-02  0.1090755E+00
         21   -1    0    0  502  501  0.00000000000E+00  0.00000000000E+00  0.11203048145E+03  0.11203048145E+03  0.00000000000E+00 0.  1.
         21   -1    0    0  501  502 -0.00000000000E+00 -0.00000000000E+00 -0.74667705807E+03  0.74667705807E+03  0.00000000000E+00 0.  1.
         25    1    1    2    0    0 -0.40932437014E+02  0.19402162402E+03 -0.56883899631E+03  0.61524195136E+03  0.12500000000E+03 0.  0.
         25    1    1    2    0    0  0.40932437014E+02 -0.19402162402E+03 -0.65807580305E+02  0.24346558815E+03  0.12500000000E+03 0.  0.
</event>
<event>
 4    0  0.2190908E-002  0.1929587E+03  0.7546771E-02  0.1155820E+00
         21   -1    0    0  502  501  0.00000000000E+00  0.00000000000E+00  0.29512027860E+03  0.29512027860E+03  0.00000000000E+00 0. -1.
         21   -1    0    0  501  502 -0.00000000000E+00 -0.00000000000E+00 -0.12616228338E+03  0.12616228338E+03  0.00000000000E+00 0. -1.
         25    1    1    2    0    0 -0.26503918991E+02 -0.13139926023E+03  0.15033865047E+03  0.23705470494E+03  0.12500000000E+03 0.  0.
         25    1    1    2    0    0  0.26503918991E+02  0.13139926023E+03  0.18619344752E+02  0.18422785704E+03  0.12500000000E+03 0.  0.
</event>
<event>
 4    0  0.2190908E-002  0.2675290E+03  0.7546771E-02  0.1102702E+00
         21   -1    0    0  502  501  0.00000000000E+00  0.00000000000E+00  0.57188294051E+02  0.57188294051E+02  0.00000000000E+00 0. -1.
         21   -1    0    0  501  502 -0.00000000000E+00 -0.00000000000E+00 -0.12515111561E+04  0.12515111561E+04  0.00000000000E+00 0. -1.
         25    1    1    2    0    0  0.22102327681E+03  0.63628122681E+02 -0.73217345475E+03  0.77756208416E+03  0.12500000000E+03 0.  0.
         25    1    1    2    0    0 -0.22102327681E+03 -0.63628122681E+02 -0.46214940734E+03  0.53113736603E+03  0.12500000000E+03 0.  0.
</event>
<event>
 4    0  0.2190908E-002  0.2251770E+03  0.7546771E-02  0.1130081E+00
         21   -1    0    0  502  501  0.00000000000E+00  0.00000000000E+00  0.14412123166E+03  0.14412123166E+03  0.00000000000E+00 0.  1.
         21   -1    0    0  501  502 -0.00000000000E+00 -0.00000000000E+00 -0.35181976449E+03  0.35181976449E+03  0.00000000000E+00 0.  1.
         25    1    1    2    0    0 -0.15137771968E+03  0.85852689718E+02 -0.18009505228E+03  0.27990199392E+03  0.12500000000E+03 0.  0.
         25    1    1    2    0    0  0.15137771968E+03 -0.85852689718E+02 -0.27603480549E+02  0.21603900223E+03  0.12500000000E+03 0.  0.
</event>
<event>
 4    0  0.2190908E-002  0.2524871E+03  0.7546771E-02  0.1111743E+00
         21   -1    0    0  502  501  0.00000000000E+00  0.00000000000E+00  0.14800176070E+03  0.14800176070E+03  0.00000000000E+00 0. -1.
         21   -1    0    0  501  502 -0.00000000000E+00 -0.00000000000E+00 -0.43073636705E+03  0.43073636705E+03  0.00000000000E+00 0. -1.
         25    1    1    2    0    0 -0.14801637864E+03 -0.27506601684E+02 -0.32423455581E+03  0.37870636206E+03  0.12500000000E+03 0.  0.
         25    1    1    2    0    0  0.14801637864E+03  0.27506601684E+02  0.41499949457E+02  0.20003176570E+03  0.12500000000E+03 0.  0.
</event>
<event>
 4    0  0.2190908E-002  0.2011679E+03  0.7546771E-02  0.1148757E+00
         21   -1    0    0  502  501  0.00000000000E+00  0.00000000000E+00  0.18028803409E+03  0.18028803409E+03  0.00000000000E+00 0.  1.
         21   -1    0    0  501  502 -0.00000000000E+00 -0.00000000000E+00 -0.22446602617E+03  0.22446602617E+03  0.00000000000E+00 0.  1.
         25    1    1    2    0    0  0.30783751519E+02 -0.12447736493E+03 -0.11429842076E+03  0.21244148071E+03  0.12500000000E+03 0.  0.
         25    1    1    2    0    0 -0.30783751519E+02  0.12447736493E+03  0.70120428683E+02  0.19231257956E+03  0.12500000000E+03 0.  0.
</event>
<event>
 4    0  0.2190908E-002  0.1831282E+03  0.7546771E-02  0.1164809E+00
         21   -1    0    0  502  501  0.00000000000E+00  0.00000000000E+00  0.11014546442E+03  0.11014546442E+03  0.00000000000E+00 0.  1.
         21   -1    0    0  501  502 -0.00000000000E+00 -0.00000000000E+00 -0.30446948616E+03  0.30446948616E+03  0.00000000000E+00 0.  1.
         25    1    1    2    0    0  0.46393735685E+02 -0.12171285078E+03 -0.13195318374E+03  0.22361359407E+03  0.12500000000E+03 0.  0.
         25    1    1    2    0    0 -0.46393735685E+02  0.12171285078E+03 -0.62370837998E+02  0.19100135651E+03  0.12500000000E+03 0.  0.
</event>
<event>
 4    0  0.2190908E-002  0.2293171E+03  0.7546771E-02  0.1127121E+00
         21   -1    0    0  502  501  0.00000000000E+00  0.00000000000E+00  0.52760794397E+03  0.52760794397E+03  0.00000000000E+00 0. -1.
         21   -1    0    0  501  502 -0.00000000000E+00 -0.00000000000E+00 -0.99669320713E+02  0.99669320713E+02  0.00000000000E+00 0. -1.
         25    1    1    2    0    0  0.14743528893E+03  0.55907498767E+02  0.63530765143E+02  0.21100704007E+03  0.12500000000E+03 0.  0.
         25    1    1    2    0    0 -0.14743528893E+03 -0.55907498767E+02  0.36440785811E+03  0.41627022461E+03  0.12500000000E+03 0.  0.
</event>
<event>
 4    0  0.2190908E-002  0.3472247E+03  0.7546771E-02  0.1063760E+00
         21   -1    0    0  502  501  0.00000000000E+00  0.00000000000E+00  0.30665109258E+03  0.30665109258E+03  0.00000000000E+00 0.  1.
         21   -1    0    0  501  502 -0.00000000000E+00 -0.00000000000E+00 -0.39316657767E+03  0.39316657767E+03  0.00000000000E+00 0.  1.
         25    1    1    2    0    0  0.23459455128E+03 -0.21126020645E+03  0.29929312726E+02  0.34086103045E+03  0.12500000000E+03 0.  0.
         25    1    1    2    0    0 -0.23459455128E+03  0.21126020645E+03 -0.11644479781E+03  0.35895663980E+03  0.12500000000E+03 0.  0.
</event>
<event>
 4    0  0.2190908E-002  0.3101684E+03  0.7546771E-02  0.1080265E+00
         21   -1    0    0  502  501  0.00000000000E+00  0.00000000000E+00  0.12607574409E+04  0.12607574409E+04  0.00000000000E+00 0.  1.
         21   -1    0    0  501  502 -0.00000000000E+00 -0.00000000000E+00 -0.76306858286E+02  0.76306858286E+02  0.00000000000E+00 0.  1.
         25    1    1    2    0    0 -0.27597186742E+03  0.50225045512E+02  0.49836299957E+03  0.58538338390E+03  0.12500000000E+03 0.  0.
         25    1    1    2    0    0  0.27597186742E+03 -0.50225045512E+02  0.68608758304E+03  0.75168091529E+03  0.12500000000E+03 0.  0.
</event>
<event>
 4    0  0.2190908E-002  0.3140947E+03  0.7546771E-02  0.1078400E+00
         21   -1    0    0  502  501  0.00000000000E+00  0.00000000000E+00  0.14280352624E+04  0.14280352624E+04  0.00000000000E+00 0. -1.
         21   -1    0    0  501  502 -0.00000000000E+00 -0.00000000000E+00 -0.69084779479E+02  0.69084779479E+02  0.00000000000E+00 0. -1.
         25    1    1    2    0    0  0.13023955491E+03 -0.62794198049E+02  0.85457598185E+02  0.20936440495E+03  0.12500000000E+03 0.  0.
         25    1    1    2    0    0 -0.13023955491E+03  0.62794198049E+02  0.12734928847E+04  0.12877556369E+04  0.12500000000E+03 0.  0.
</event>
<event>
 4    0  0.2190908E-002  0.2651903E+03  0.7546771E-02  0.1104064E+00
         21   -1    0    0  502  501  0.00000000000E+00  0.00000000000E+00  0.45797526292E+02  0.45797526292E+02  0.00000000000E+00 0. -1.
         21   -1    0    0  501  502 -0.00000000000E+00 -0.00000000000E+00 -0.15355826654E+04  0.15355826654E+04  0.00000000000E+00 0. -1.
         25    1    1    2    0    0  0.68825838431E+02  0.18740352441E+03 -0.11081557564E+04  0.11329127317E+04  0.12500000000E+03 0.  0.
         25    1    1    2    0    0 -0.68825838431E+02 -0.18740352441E+03 -0.38162938263E+03  0.44846746001E+03  0.12500000000E+03 0.  0.
</event>
<event>
 4    0  0.2190908E-002  0.1885994E+03  0.7546771E-02  0.1159731E+00
         21   -1    0    0  502  501  0.00000000000E+00  0.00000000000E+00  0.34347531941E+03  0.34347531941E+03  0.00000000000E+00 0.  1.
         21   -1    0    0  501  502 -0.00000000000E+00 -0.00000000000E+00 -0.10355829111E+03  0.10355829111E+03  0.00000000000E+00 0.  1.
         25    1    1    2    0    0  0.24165612208E+01 -0.13196242858E+03  0.17950868591E+03  0.25547659510E+03  0.12500000000E+03 0.  0.
         25    1    1    2    0    0 -0.24165612208E+01  0.13196242858E+03  0.60408342384E+02  0.19155701541E+03  0.12500000000E+03 0.  0.
</event>
<event>
 4    0  0.2190908E-002  0.1753411E+03  0.7546771E-02  0.1172390E+00
         21   -1    0    0  502  501  0.00000000000E+00  0.00000000000E+00  0.32157368519E+03  0.32157368519E+03  0.00000000000E+00 0. -1.
         21   -1    0    0  501  502 -0.00000000000E+00 -0.00000000000E+00 -0.95606413365E+02  0.95606413365E+02  0.00000000000E+00 0. -1.
         25    1    1    2    0    0  0.68239202868E+02  0.30164423811E+01  0.23461548505E+03  0.27447242768E+03  0.12500000000E+03 0.  0.
         25    1    1    2    0    0 -0.68239202868E+02 -0.30164423811E+01 -0.86482132285E+01  0.14270767087E+03  0.12500000000E+03 0.  0.
</event>
<event>
 4    0  0.2190908E-002  0.1776520E+03  0.7546771E-02  0.1170095E+00
         21   -1    0    0  502  501  0.00000000000E+00  0.00000000000E+00  0.40736274600E+03  0.40736274600E+03  0.00000000000E+00 0. -1.
         21   -1    0    0  501  502 -0.00000000000E+00 -0.00000000000E+00 -0.77474550852E+02  0.77474550852E+02  0.00000000000E+00 0. -1.
         25    1    1    2    0    0  0.12469258896E+03 -0.13699257879E+02  0.18420989247E+03  0.25552728991E+03  0.12500000000E+03 0.  0.
         25    1    1    2    0    0 -0.12469258896E+03  0.13699257879E+02  0.14567830268E+03  0.22931000694E+03  0.12500000000E+03 0.  0.
</event>
<event>
 4    0  0.2190908E-002  0.2915851E+03  0.7546771E-02  0.1089524E+00
         21   -1    0    0  502  501  0.00000000000E+00  0.00000000000E+00  0.56458465819E+03  0.56458465819E+03  0.00000000000E+00 0. -1.
         21   -1    0    0  501  502 -0.00000000000E+00 -0.00000000000E+00 -0.15059184035E+03  0.15059184035E+03  0.00000000000E+00 0. -1.
         25    1    1    2    0    0 -0.10364842086E+03 -0.12788108038E+03 -0.45229436954E+02  0.21158276828E+03  0.12500000000E+03 0.  0.
         25    1    1    2    0    0  0.10364842086E+03  0.12788108038E+03  0.45922225479E+03  0.50359373027E+03  0.12500000000E+03 0.  0.
</event>
<event>
 4    0  0.2190908E-002  0.1612928E+03  0.7546771E-02  0.1187245E+00
         21   -1    0    0  502  501  0.00000000000E+00  0.00000000000E+00  0.20114697649E+02  0.20114697649E+02  0.00000000000E+00 0. -1.
         21   -1    0    0  501  502 -0.00000000000E+00 -0.00000000000E+00 -0.12933515642E+04  0.12933515642E+04  0.00000000000E+00 0. -1.
         25    1    1    2    0    0 -0.85839851654E-01  0.14106302741E+02 -0.10476643933E+04  0.10551894030E+04  0.12500000000E+03 0.  0.
         25    1    1    2    0    0  0.85839851654E-01 -0.14106302741E+02 -0.22557247325E+03  0.25827685888E+03  0.12500000000E+03 0.  0.
</event>
<event>
 4    0  0.2190908E-002  0.1947428E+03  0.7546771E-02  0.1154252E+00
         21   -1    0    0  502  501  0.00000000000E+00  0.00000000000E+00  0.18165429590E+03  0.18165429590E+03  0.00000000000E+00 0. -1.
         21   -1    0    0  501  502 -0.00000000000E+00 -0.00000000000E+00 -0.20877439607E+03  0.20877439607E+03  0.00000000000E+00 0. -1.
         25    1    1    2    0    0  0.13189159701E+03  0.36807898842E+02 -0.73282414698E+02  0.19936280265E+03  0.12500000000E+03 0.  0.
         25    1    1    2    0    0 -0.13189159701E+03 -0.36807898842E+02  0.46162314525E+02  0.19106588932E+03  0.12500000000E+03 0.  0.
</event>
<event>
 4    0  0.2190908E-002  0.2786333E+03  0.7546771E-02  0.1096438E+00
         21   -1    0    0  502  501  0.00000000000E+00  0.00000000000E+00  0.13258232849E+03  0.13258232849E+03  0.00000000000E+00 0.  1.
         21   -1    0    0  501  502 -0.00000000000E+00 -0.00000000000E+00 -0.58557196813E+03  0.58557196813E+03  0.00000000000E+00 0.  1.
         25    1    1    2    0    0 -0.69922904127E+02 -0.23379593009E+03 -0.16255426638E+03  0.31874541403E+03  0.12500000000E+03 0.  0.
         25    1    1    2    0    0  0.69922904127E+02  0.23379593009E+03 -0.29043537327E+03  0.39940888259E+03  0.12500000000E+03 0.  0.
</event>
<event>
 4    0  0.2190908E-002  0.2494175E+03  0.7546771E-02  0.1113673E+00
         21   -1    0    0  502  501  0.00000000000E+00  0.00000000000E+00  0.22981333352E+04  0.22981333352E+04  0.00000000000E+00 0.  1.
         21   -1    0    0  501  502 -0.00000000000E+00 -0.00000000000E+00 -0.27069407857E+02  0.27069407857E+02  0.00000000000E+00 0.  1.
         25    1    1    2    0    0  0.81983982646E+02  0.19943716635E+03  0.11791470215E+04  0.12052009189E+04  0.12500000000E+03 0.  0.
         25    1    1    2    0    0 -0.81983982646E+02 -0.19943716635E+03  0.10919169059E+04  0.11200018241E+04  0.12500000000E+03 0.  0.
</event>
<event>
 4    0  0.2190908E-002  0.2743192E+03  0.7546771E-02  0.1098833E+00
         21   -1    0    0  502  501  0.00000000000E+00  0.00000000000E+00  0.80985342298E+02  0.80985342298E+02  0.00000000000E+00 0.  1.
         21   -1    0    0  501  502 -0.00000000000E+00 -0.00000000000E+00 -0.92919315698E+03  0.92919315698E+03  0.00000000000E+00 0.  1.
         25    1    1    2    0    0  0.42509073246E+02 -0.86012568872E+01 -0.86655899341E+03  0.87660167236E+03  0.12500000000E+03 0.  0.
         25    1    1    2    0    0 -0.42509073246E+02  0.86012568872E+01  0.18351178728E+02  0.13357682692E+03  0.12500000000E+03 0.  0.
</event>
<event>
 4    0  0.2190908E-002  0.2070638E+03  0.7546771E-02  0.1143912E+00
         21   -1    0    0  502  501  0.00000000000E+00  0.00000000000E+00  0.22570250974E+04  0.22570250974E+04  0.00000000000E+00 0.  1.
         21   -1    0    0  501  502 -0.00000000000E+00 -0.00000000000E+00 -0.18996427295E+02  0.18996427295E+02  0.00000000000E+00 0.  1.
         25    1    1    2    0    0  0.30377337109E+01 -0.70535833538E+02  0.19391055454E+04  0.19444124685E+04  0.12500000000E+03 0.  0.
         25    1    1    2    0    0 -0.30377337109E+01  0.70535833538E+02  0.29892312475E+03  0.33160905619E+03  0.12500000000E+03 0.  0.
</event>
<event>
 4    0  0.2190908E-002  0.2381359E+03  0.7546771E-02  0.1121041E+00
         21   -1    0    0  502  501  0.00000000000E+00  0.00000000000E+00  0.12803324386E+03  0.12803324386E+03  0.00000000000E+00 0. -1.
         21   -1    0    0  501  502 -0.00000000000E+00 -0.00000000000E+00 -0.44292180115E+03  0.44292180115E+03  0.00000000000E+00 0. -1.
         25    1    1    2    0    0  0.21346732126E+02 -0.13235453226E+03 -0.33968687734E+03  0.38598650212E+03  0.12500000000E+03 0.  0.
         25    1    1    2    0    0 -0.21346732126E+02  0.13235453226E+03  0.24798320047E+02  0.18496854289E+03  0.12500000000E+03 0.  0.
</event>
<event>
 4    0  0.2190908E-002  0.1997545E+03  0.7546771E-02  0.1149946E+00
         21   -1    0    0  502  501  0.00000000000E+00  0.00000000000E+00  0.35088095793E+02  0.35088095793E+02  0.00000000000E+00 0.  1.
         21   -1    0    0  501  502 -0.00000000000E+00 -0.00000000000E+00 -0.11371908353E+04  0.11371908353E+04  0.00000000000E+00 0.  1.
         25    1    1    2    0    0  0.43920625847E+02 -0.10009381923E+03 -0.87686518372E+03  0.89244907107E+03  0.12500000000E+03 0.  0.
         25    1    1    2    0    0 -0.43920625847E+02  0.10009381923E+03 -0.22523755576E+03  0.27982986000E+03  0.12500000000E+03 0.  0.
</event>
<event>
 4    0  0.2190908E-002  0.2073482E+03  0.7546771E-02  0.1143683E+00
         21   -1    0    0  502  501  0.00000000000E+00  0.00000000000E+00  0.31489087329E+03  0.31489087329E+03  0.00000000000E+00 0.  1.
         21   -1    0    0  501  502 -0.00000000000E+00 -0.00000000000E+00 -0.13653388689E+03  0.13653388689E+03  0.00000000000E+00 0.  1.
         25    1    1    2    0    0 -0.10595597628E+03 -0.38926551412E+02  0.22082907842E+03  0.27772725324E+03  0.12500000000E+03 0.  0.
         25    1    1    2    0    0  0.10595597628E+03  0.38926551412E+02 -0.42472092025E+02  0.17369750694E+03  0.12500000000E+03 0.  0.
</event>
<event>
 4    0  0.2190908E-002  0.2576002E+03  0.7546771E-02  0.1108594E+00
         21   -1    0    0  502  501  0.00000000000E+00  0.00000000000E+00  0.63726032987E+02  0.63726032987E+02  0.00000000000E+00 0. -1.
         21   -1    0    0  501  502 -0.00000000000E+00 -0.00000000000E+00 -0.10412989209E+04  0.10412989209E+04  0.00000000000E+00 0. -1.
         25    1    1    2    0    0 -0.20346728963E+03  0.20661656078E+02 -0.28636251730E+03  0.37343584897E+03  0.12500000000E+03 0.  0.
         25    1    1    2    0    0  0.20346728963E+03 -0.20661656078E+02 -0.69121037059E+03  0.73158910489E+03  0.12500000000E+03 0.  0.
</event>
<event>
 4    0  0.2190908E-002  0.2383596E+03  0.7546771E-02  0.1120890E+00
         21   -1    0    0  502  501  0.00000000000E+00  0.00000000000E+00  0.35875641602E+03  0.35875641602E+03  0.00000000000E+00 0.  1.
         21   -1    0    0  501  502 -0.00000000000E+00 -0.00000000000E+00 -0.15836730351E+03  0.15836730351E+03  0.00000000000E+00 0.  1.
         25    1    1    2    0    0 -0.14332525265E+03  0.11564765172E+03  0.19270950426E+03  0.29441205890E+03  0.12500000000E+03 0.  0.
         25    1    1    2    0    0  0.14332525265E+03 -0.11564765172E+03  0.76796082572E+01  0.22271166063E+03  0.12500000000E+03 0.  0.
</event>
<event>
 4    0  0.2190908E-002  0.1848008E+03  0.7546771E-02  0.1163236E+00
         21   -1    0    0  502  501  0.00000000000E+00  0.00000000000E+00  0.16959281098E+03  0.16959281098E+03  0.00000000000E+00 0. -1.
         21   -1    0    0  501  502 -0.00000000000E+00 -0.00000000000E+00 -0.20137247085E+03  0.20137247085E+03  0.00000000000E+00 0. -1.
         25    1    1    2    0    0  0.13453536259E+03 -0.18834401991E+02 -0.73836019263E+01  0.18475393382E+03  0.12500000000E+03 0.  0.
         25    1    1    2    0    0 -0.13453536259E+03  0.18834401991E+02 -0.24396057946E+02  0.18621134801E+03  0.12500000000E+03 0.  0.
</event>
<event>
 4    0  0.2190908E-002  0.1917195E+03  0.7546771E-02  0.1156920E+00
         21   -1    0    0  502  501  0.00000000000E+00  0.00000000000E+00  0.20943836998E+02  0.20943836998E+02  0.00000000000E+00 0. -1.
         21   -1    0    0  501  502 -0.00000000000E+00 -0.00000000000E+00 -0.17549972581E+04  0.17549972581E+04  0.00000000000E+00 0. -1.
         25    1    1    2    0    0 -0.86614750989E+02 -0.99919228654E+02 -0.58738280698E+03  0.61492237663E+03  0.12500000000E+03 0.  0.
         25    1    1    2    0    0  0.86614750989E+02  0.99919228654E+02 -0.11466706142E+04  0.11610187185E+04  0.12500000000E+03 0.  0.
</event>
<event>
 4    0  0.2190908E-002  0.1890623E+03  0.7546771E-02  0.1159310E+00
         21   -1    0    0  502  501  0.00000000000E+00  0.00000000000E+00  0.21539385895E+04  0.21539385895E+04  0.00000000000E+00 0.  1.
         21   -1    0    0  501  502 -0.00000000000E+00 -0.00000000000E+00 -0.16594975815E+02  0.16594975815E+02  0.00000000000E+00 0.  1.
         25    1    1    2    0    0 -0.14120343338E+03 -0.66437400541E+01  0.10014813574E+04  0.10191037523E+04  0.12500000000E+03 0.  0.
         25    1    1    2    0    0  0.14120343338E+03  0.66437400541E+01  0.11358622563E+04  0.11514298130E+04  0.12500000000E+03 0.  0.
</event>
<event>
 4    0  0.2190908E-002  0.1975791E+03  0.7546771E-02  0.1151798E+00
         21   -1    0    0  502  501  0.00000000000E+00  0.00000000000E+00  0.10669300950E+03  0.10669300950E+03  0.00000000000E+00 0. -1.
         21   -1    0    0  501  502 -0.00000000000E+00 -0.00000000000E+00 -0.36588622376E+03  0.36588622376E+03  0.00000000000E+00 0. -1.
         25    1    1    2    0    0  0.13365456358E+03  0.74391423958E+02 -0.12498399359E+03  0.23375975911E+03  0.12500000000E+03 0.  0.
         25    1    1    2    0    0 -0.13365456358E+03 -0.74391423958E+02 -0.13420922066E+03  0.23881947415E+03  0.12500000000E+03 0.  0.
</event>
<event>
 4    0  0.2190908E-002  0.3687744E+03  0.7546771E-02  0.1055163E+00
         21   -1    0    0  502  501  0.00000000000E+00  0.00000000000E+00  0.65449924785E+03  0.65449924785E+03  0.00000000000E+00 0.  1.
         21   -1    0    0  501  502 -0.00000000000E+00 -0.00000000000E+00 -0.20778411420E+03  0.20778411420E+03  0.00000000000E+00 0.  1.
         25    1    1    2    0    0 -0.19951441366E+02  0.12931835763E+03 -0.15230732666E+03  0.23652445832E+03  0.12500000000E+03 0.  0.
         25    1    1    2    0    0  0.19951441366E+02 -0.12931835763E+03  0.59902246031E+03  0.62575890373E+03  0.12500000000E+03 0.  0.
</event>
<event>
 4    0  0.2190908E-002  0.1394937E+03  0.7546771E-02  0.1214012E+00
         21   -1    0    0  502  501  0.00000000000E+00  0.00000000000E+00  0.38378627067E+03  0.38378627067E+03  0.00000000000E+00 0.  1.
         21   -1    0    0  501  502 -0.00000000000E+00 -0.00000000000E+00 -0.50701343856E+02  0.50701343856E+02  0.00000000000E+00 0.  1.
         25    1    1    2    0    0  0.58848428157E+02 -0.13669938056E+01  0.13664763348E+03  0.19432596816E+03  0.12500000000E+03 0.  0.
         25    1    1    2    0    0 -0.58848428157E+02  0.13669938056E+01  0.19643729334E+03  0.24016164636E+03  0.12500000000E+03 0.  0.
</event>
<event>
 4    0  0.2190908E-002  0.1908052E+03  0.7546771E-02  0.1157737E+00
         21   -1    0    0  502  501  0.00000000000E+00  0.00000000000E+00  0.71184388668E+03  0.71184388668E+03  0.00000000000E+00 0. -1.
         21   -1    0    0  501  502 -0.00000000000E+00 -0.00000000000E+00 -0.51144115660E+02  0.51144115660E+02  0.00000000000E+00 0. -1.
         25    1    1    2    0    0 -0.12795111682E+03 -0.65724313064E+02  0.31133438941E+03  0.36502777381E+03  0.12500000000E+03 0.  0.
         25    1    1    2    0    0  0.12795111682E+03  0.65724313064E+02  0.34936538161E+03  0.39796022853E+03  0.12500000000E+03 0.  0.
</event>
<event>
 4    0  0.2190908E-002  0.2985866E+03  0.7546771E-02  0.1085949E+00
         21   -1    0    0  502  501  0.00000000000E+00  0.00000000000E+00  0.32719589948E+03  0.32719589948E+03  0.00000000000E+00 0.  1.
         21   -1    0    0  501  502 -0.00000000000E+00 -0.00000000000E+00 -0.27247877329E+03  0.27247877329E+03  0.00000000000E+00 0.  1.
         25    1    1    2    0    0  0.17578453814E+03 -0.19051387442E+03  0.10727331398E+03  0.30712913260E+03  0.12500000000E+03 0.  0.
         25    1    1    2    0    0 -0.17578453814E+03  0.19051387442E+03 -0.52556187793E+02  0.29254554017E+03  0.12500000000E+03 0.  0.
</event>
<event>
 4    0  0.2190908E-002  0.1858069E+03  0.7546771E-02  0.1162299E+00
         21   -1    0    0  502  501  0.00000000000E+00  0.00000000000E+00  0.90047470980E+02  0.90047470980E+02  0.00000000000E+00 0.  1.
         21   -1    0    0  501  502 -0.00000000000E+00 -0.00000000000E+00 -0.38340009080E+03  0.38340009080E+03  0.00000000000E+00 0.  1.
         25    1    1    2    0    0  0.62390648238E+02 -0.81238929647E+02 -0.26349080082E+03  0.30910315235E+03  0.12500000000E+03 0.  0.
         25    1    1    2    0    0 -0.62390648238E+02  0.81238929647E+02 -0.29861819007E+02  0.16434440943E+03  0.12500000000E+03 0.  0.
</event>
<event>
 4    0  0.2190908E-002  0.3077860E+03  0.7546771E-02  0.1081412E+00
         21   -1    0    0  502  501  0.00000000000E+00  0.00000000000E+00  0.32174175952E+03  0.32174175952E+03  0.00000000000E+00 0. -1.
         21   -1    0    0  501  502 -0.00000000000E+00 -0.00000000000E+00 -0.29443565884E+03  0.29443565884E+03  0.00000000000E+00 0. -1.
         25    1    1    2    0    0 -0.23165288937E+03 -0.15128180847E+03  0.64279462646E+02  0.31033223494E+03  0.12500000000E+03 0.  0.
         25    1    1    2    0    0  0.23165288937E+03  0.15128180847E+03 -0.36973361972E+02  0.30584518342E+03  0.12500000000E+03 0.  0.
</event>
<event>
 4    0  0.2190908E-002  0.1887524E+03  0.7546771E-02  0.1159591E+00
         21   -1    0    0  502  501  0.00000000000E+00  0.00000000000E+00  0.18982768522E+03  0.18982768522E+03  0.00000000000E+00 0. -1.
         21   -1    0    0  501  502 -0.00000000000E+00 -0.00000000000E+00 -0.18768311313E+03  0.18768311313E+03  0.00000000000E+00 0. -1.
         25    1    1    2    0    0 -0.10415064236E+03  0.77245931701E+02 -0.55392424554E+02  0.18843463314E+03  0.12500000000E+03 0.  0.
         25    1    1    2    0    0  0.10415064236E+03 -0.77245931701E+02  0.57536996637E+02  0.18907616521E+03  0.12500000000E+03 0.  0.
</event>
<event>
 4    0  0.2190908E-002  0.2621718E+03  0.7546771E-02  0.1105845E+00
         21   -1    0    0  502  501  0.00000000000E+00  0.00000000000E+00  0.72930975859E+02  0.72930975859E+02  0.00000000000E+00 0. -1.
         21   -1    0    0  501  502 -0.00000000000E+00 -0.00000000000E+00 -0.94245318233E+03  0.94245318233E+03  0.00000000000E+00 0. -1.
         25    1    1    2    0    0  0.43089934942E+02  0.12119264626E+02 -0.87253304857E+03  0.88257721471E+03  0.12500000000E+03 0.  0.
         25    1    1    2    0    0 -0.43089934942E+02 -0.12119264626E+02  0.30108420972E+01  0.13280694349E+03  0.12500000000E+03 0.  0.
</event>
<event>
 4    0  0.2190908E-002  0.1841825E+03  0.7546771E-02  0.1163815E+00
         21   -1    0    0  502  501  0.00000000000E+00  0.00000000000E+00  0.55908453183E+03  0.55908453183E+03  0.00000000000E+00 0. -1.
         21   -1    0    0  501  502 -0.00000000000E+00 -0.00000000000E+00 -0.60676349201E+02  0.60676349201E+02  0.00000000000E+00 0. -1.
         25    1    1    2    0    0 -0.27670552754E+02 -0.13059322580E+03  0.28598654113E+03  0.33946067787E+03  0.12500000000E+03 0.  0.
         25    1    1    2    0    0  0.27670552754E+02  0.13059322580E+03  0.21242164150E+03  0.28030020316E+03  0.12500000000E+03 0.  0.
</event>
<event>
 4    0  0.2190908E-002  0.2524498E+03  0.7546771E-02  0.1111766E+00
         21   -1    0    0  502  501  0.00000000000E+00  0.00000000000E+00  0.27318122954E+03  0.27318122954E+03  0.00000000000E+00 0. -1.
         21   -1    0    0  501  502 -0.00000000000E+00 -0.00000000000E+00 -0.23329172798E+03  0.23329172798E+03  0.00000000000E+00 0. -1.
         25    1    1    2    0    0 -0.15390405848E+03 -0.99736840586E+02 -0.10072983397E+03  0.24373222199E+03  0.12500000000E+03 0.  0.
         25    1    1    2    0    0  0.15390405848E+03  0.99736840586E+02  0.14061933553E+03  0.26274073554E+03  0.12500000000E+03 0.  0.
</event>
<event>
 4    0  0.2190908E-002  0.1833206E+03  0.7546771E-02  0.1164628E+00
         21   -1    0    0  502  501  0.00000000000E+00  0.00000000000E+00  0.83167025654E+02  0.83167025654E+02  0.00000000000E+00 0. -1.
         21   -1    0    0  501  502 -0.00000000000E+00 -0.00000000000E+00 -0.40408371837E+03  0.40408371837E+03  0.00000000000E+00 0. -1.
         25    1    1    2    0    0  0.38180133215E+02 -0.90350223874E+02 -0.28197304665E+03  0.32365828363E+03  0.12500000000E+03 0.  0.
         25    1    1    2    0    0 -0.38180133215E+02  0.90350223874E+02 -0.38943646058E+02  0.16359246038E+03  0.12500000000E+03 0.  0.
</event>
<event>
 4    0  0.2190908E-002  0.1949376E+03  0.7546771E-02  0.1154082E+00
         21   -1    0    0  502  501  0.00000000000E+00  0.00000000000E+00  0.82089102430E+02  0.82089102430E+02  0.00000000000E+00 0.  1.
         21   -1    0    0  501  502 -0.00000000000E+00 -0.00000000000E+00 -0.46291987567E+03  0.46291987567E+03  0.00000000000E+00 0.  1.
         25    1    1    2    0    0  0.12224712006E+03 -0.64742634812E+02 -0.26998203406E+03  0.32810252337E+03  0.12500000000E+03 0.  0.
         25    1    1    2    0    0 -0.12224712006E+03  0.64742634812E+02 -0.11084873918E+03  0.21690645473E+03  0.12500000000E+03 0.  0.
</event>
<event>
 4    0  0.2190908E-002  0.1889076E+03  0.7546771E-02  0.1159450E+00
         21   -1    0    0  502  501  0.00000000000E+00  0.00000000000E+00  0.18945153448E+03  0.18945153448E+03  0.00000000000E+00 0.  1.
         21   -1    0    0  501  502 -0.00000000000E+00 -0.00000000000E+00 -0.18836518363E+03  0.18836518363E+03  0.00000000000E+00 0.  1.
         25    1    1    2    0    0 -0.45526930326E+02 -0.12953450843E+03 -0.34230274515E+02  0.18880837363E+03  0.12500000000E+03 0.  0.
         25    1    1    2    0    0  0.45526930326E+02  0.12953450843E+03  0.35316625365E+02  0.18900834449E+03  0.12500000000E+03 0.  0.
</event>
<event>
 4    0  0.2190908E-002  0.2043324E+03  0.7546771E-02  0.1146134E+00
         21   -1    0    0  502  501  0.00000000000E+00  0.00000000000E+00  0.13037798248E+03  0.13037798248E+03  0.00000000000E+00 0.  1.
         21   -1    0    0  501  502 -0.00000000000E+00 -0.00000000000E+00 -0.32023619323E+03  0.32023619323E+03  0.00000000000E+00 0.  1.
         25    1    1    2    0    0  0.10612287929E+03  0.11368858490E+03 -0.14349063621E+03  0.24576761895E+03  0.12500000000E+03 0.  0.
         25    1    1    2    0    0 -0.10612287929E+03 -0.11368858490E+03 -0.46367574534E+02  0.20484655675E+03  0.12500000000E+03 0.  0.
</event>
<event>
 4    0  0.2190908E-002  0.1717085E+03  0.7546771E-02  0.1176078E+00
         21   -1    0    0  502  501  0.00000000000E+00  0.00000000000E+00  0.14485193198E+03  0.14485193198E+03  0.00000000000E+00 0. -1.
         21   -1    0    0  501  502 -0.00000000000E+00 -0.00000000000E+00 -0.20354439310E+03  0.20354439310E+03  0.00000000000E+00 0. -1.
         25    1    1    2    0    0 -0.73412959746E+02  0.89655465643E+02 -0.50413490326E+02  0.17774725085E+03  0.12500000000E+03 0.  0.
         25    1    1    2    0    0  0.73412959746E+02 -0.89655465643E+02 -0.82789707911E+01  0.17064907423E+03  0.12500000000E+03 0.  0.
</event>
<event>
 4    0  0.2190908E-002  0.2761466E+03  0.7546771E-02  0.1097812E+00
         21   -1    0    0  502  501  0.00000000000E+00  0.00000000000E+00  0.18870738555E+03  0.18870738555E+03  0.00000000000E+00 0. -1.
         21   -1    0    0  501  502 -0.00000000000E+00 -0.00000000000E+00 -0.40410148015E+03  0.40410148015E+03  0.00000000000E+00 0. -1.
         25    1    1    2    0    0 -0.18729385573E+03  0.69665940459E+02  0.46730944636E+02  0.24029380525E+03  0.12500000000E+03 0.  0.
         25    1    1    2    0    0  0.18729385573E+03 -0.69665940459E+02 -0.26212503923E+03  0.35251506045E+03  0.12500000000E+03 0.  0.
</event>
<event>
 4    0  0.2190908E-002  0.3569235E+03  0.7546771E-02  0.1059809E+00
         21   -1    0    0  502  501  0.00000000000E+00  0.00000000000E+00  0.22449851099E+04  0.22449851099E+04  0.00000000000E+00 0.  1.
         21   -1    0    0  501  502 -0.00000000000E+00 -0.00000000000E+00 -0.56746204935E+02  0.56746204935E+02  0.00000000000E+00 0.  1.
         25    1    1    2    0    0  0.54619457525E+02 -0.30213631629E+03  0.15206649521E+04  0.15563793031E+04  0.12500000000E+03 0.  0.
         25    1    1    2    0    0 -0.54619457525E+02  0.30213631629E+03  0.66757395284E+03  0.74535201165E+03  0.12500000000E+03 0.  0.
</event>
<event>
 4    0  0.2190908E-002  0.1671402E+03  0.7546771E-02  0.1180863E+00
         21   -1    0    0  502  501  0.00000000000E+00  0.00000000000E+00  0.21838012076E+02  0.21838012076E+02  0.00000000000E+00 0. -1.
         21   -1    0    0  501  502 -0.00000000000E+00 -0.00000000000E+00 -0.12792296614E+04  0.12792296614E+04  0.00000000000E+00 0. -1.
         25    1    1    2    0    0 -0.91775747603E+02 -0.59154186009E+02 -0.55194776379E+03  0.57636216004E+03  0.12500000000E+03 0.  0.
         25    1    1    2    0    0  0.91775747603E+02  0.59154186009E+02 -0.70544388551E+03  0.72470551342E+03  0.12500000000E+03 0.  0.
</event>
<event>
 4    0  0.2190908E-002  0.2089021E+03  0.7546771E-02  0.1142438E+00
         21   -1    0    0  502  501  0.00000000000E+00  0.00000000000E+00  0.13176352202E+03  0.13176352202E+03  0.00000000000E+00 0. -1.
         21   -1    0    0  501  502 -0.00000000000E+00 -0.00000000000E+00 -0.33120001405E+03  0.33120001405E+03  0.00000000000E+00 0. -1.
         25    1    1    2    0    0 -0.83584327635E+02 -0.13500143551E+03 -0.15838781643E+03  0.25675557990E+03  0.12500000000E+03 0.  0.
         25    1    1    2    0    0  0.83584327635E+02  0.13500143551E+03 -0.41048675602E+02  0.20620795616E+03  0.12500000000E+03 0.  0.
</event>
<event>
 4    0  0.2190908E-002  0.2231586E+03  0.7546771E-02  0.1131550E+00
         21   -1    0    0  502  501  0.00000000000E+00  0.00000000000E+00  0.25714567988E+03  0.25714567988E+03  0.00000000000E+00 0.  1.
         21   -1    0    0  501  502 -0.00000000000E+00 -0.00000000000E+00 -0.19366358487E+03  0.19366358487E+03  0.00000000000E+00 0.  1.
         25    1    1    2    0    0 -0.13704943063E+03 -0.66200070316E+02 -0.74242422106E+02  0.21048024369E+03  0.12500000000E+03 0.  0.
         25    1    1    2    0    0  0.13704943063E+03  0.66200070316E+02  0.13772451712E+03  0.24032902105E+03  0.12500000000E+03 0.  0.
</event>
<event>
 4    0  0.2190908E-002  0.2610860E+03  0.7546771E-02  0.1106492E+00
         21   -1    0    0  502  501  0.00000000000E+00  0.00000000000E+00  0.19848870854E+03  0.19848870854E+03  0.00000000000E+00 0. -1.
         21   -1    0    0  501  502 -0.00000000000E+00 -0.00000000000E+00 -0.34342462344E+03  0.34342462344E+03  0.00000000000E+00 0. -1.
         25    1    1    2    0    0 -0.17479209913E+03 -0.23968271649E+02  0.79400185531E+02  0.23033919646E+03  0.12500000000E+03 0.  0.
         25    1    1    2    0    0  0.17479209913E+03  0.23968271649E+02 -0.22433610043E+03  0.31157413551E+03  0.12500000000E+03 0.  0.
</event>
<event>
 4    0  0.2190908E-002  0.1857373E+03  0.7546771E-02  0.1162363E+00
         21   -1    0    0  502  501  0.00000000000E+00  0.00000000000E+00  0.33861838977E+03  0.33861838977E+03  0.00000000000E+00 0.  1.
         21   -1    0    0  501  502 -0.00000000000E+00 -0.00000000000E+00 -0.10187976734E+03  0.10187976734E+03  0.00000000000E+00 0.  1.
         25    1    1    2    0    0 -0.68441699695E+02 -0.22630704197E+02  0.25704791212E+03  0.29477965357E+03  0.12500000000E+03 0.  0.
         25    1    1    2    0    0  0.68441699695E+02  0.22630704197E+02 -0.20309289691E+02  0.14571850355E+03  0.12500000000E+03 0.  0.
</event>
<event>
 4    0  0.2190908E-002  0.3262337E+03  0.7546771E-02  0.1072816E+00
         21   -1    0    0  502  501  0.00000000000E+00  0.00000000000E+00  0.43552030477E+03  0.43552030477E+03  0.00000000000E+00 0. -1.
         21   -1    0    0  501  502 -0.00000000000E+00 -0.00000000000E+00 -0.24437077148E+03  0.24437077148E+03  0.00000000000E+00 0. -1.
         25    1    1    2    0    0  0.46992978012E+02  0.59368263131E+01 -0.21452321561E+03  0.25276233091E+03  0.12500000000E+03 0.  0.
         25    1    1    2    0    0 -0.46992978012E+02 -0.59368263131E+01  0.40567274891E+03  0.42712874534E+03  0.12500000000E+03 0.  0.
</event>
<event>
 4    0  0.2190908E-002  0.2118785E+03  0.7546771E-02  0.1140087E+00
         21   -1    0    0  502  501  0.00000000000E+00  0.00000000000E+00  0.43876804929E+02  0.43876804929E+02  0.00000000000E+00 0.  1.
         21   -1    0    0  501  502 -0.00000000000E+00 -0.00000000000E+00 -0.10231487142E+04  0.10231487142E+04  0.00000000000E+00 0. -1.
         25    1    1    2    0    0  0.10481680828E+03  0.12492995459E+03 -0.35944130787E+03  0.41402549517E+03  0.12500000000E+03 0.  0.
         25    1    1    2    0    0 -0.10481680828E+03 -0.12492995459E+03 -0.61983060143E+03  0.65300002398E+03  0.12500000000E+03 0.  0.
</event>
<event>
 4    0  0.2190908E-002  0.1921980E+03  0.7546771E-02  0.1156494E+00
         21   -1    0    0  502  501  0.00000000000E+00  0.00000000000E+00  0.64490791475E+03  0.64490791475E+03  0.00000000000E+00 0. -1.
         21   -1    0    0  501  502 -0.00000000000E+00 -0.00000000000E+00 -0.57279633513E+02  0.57279633513E+02  0.00000000000E+00 0. -1.
         25    1    1    2    0    0 -0.33892985319E+02  0.11564264065E+03  0.44437401966E+03  0.47709037314E+03  0.12500000000E+03 0.  0.
         25    1    1    2    0    0  0.33892985319E+02 -0.11564264065E+03  0.14325426158E+03  0.22509717513E+03  0.12500000000E+03 0.  0.
</event>
<event>
 4    0  0.2190908E-002  0.1795361E+03  0.7546771E-02  0.1168253E+00
         21   -1    0    0  502  501  0.00000000000E+00  0.00000000000E+00  0.74324232578E+02  0.74324232578E+02  0.00000000000E+00 0.  1.
         21   -1    0    0  501  502 -0.00000000000E+00 -0.00000000000E+00 -0.43368365028E+03  0.43368365028E+03  0.00000000000E+00 0.  1.
         25    1    1    2    0    0 -0.10672861873E+03  0.72018273474E+02 -0.17185676976E+03  0.24847007684E+03  0.12500000000E+03 0.  0.
         25    1    1    2    0    0  0.10672861873E+03 -0.72018273474E+02 -0.18750264794E+03  0.25953780603E+03  0.12500000000E+03 0.  0.
</event>
<event>
 4    0  0.2190908E-002  0.2244879E+03  0.7546771E-02  0.1130581E+00
         21   -1    0    0  502  501  0.00000000000E+00  0.00000000000E+00  0.69968511426E+03  0.69968511426E+03  0.00000000000E+00 0. -1.
         21   -1    0    0  501  502 -0.00000000000E+00 -0.00000000000E+00 -0.72025003012E+02  0.72025003012E+02  0.00000000000E+00 0. -1.
         25    1    1    2    0    0 -0.18625477470E+00 -0.38817829992E+01  0.63426371730E+03  0.64647549529E+03  0.12500000000E+03 0.  0.
         25    1    1    2    0    0  0.18625477470E+00  0.38817829992E+01 -0.66036060497E+01  0.12523462198E+03  0.12500000000E+03 0.  0.
</event>
<event>
 4    0  0.2190908E-002  0.2848446E+03  0.7546771E-02  0.1093072E+00
         21   -1    0    0  502  501  0.00000000000E+00  0.00000000000E+00  0.49000535807E+03  0.49000535807E+03  0.00000000000E+00 0.  1.
         21   -1    0    0  501  502 -0.00000000000E+00 -0.00000000000E+00 -0.16558274407E+03  0.16558274407E+03  0.00000000000E+00 0.  1.
         25    1    1    2    0    0 -0.24437061438E+03 -0.20564756962E+02  0.24655292577E+03  0.36953112400E+03  0.12500000000E+03 0.  0.
         25    1    1    2    0    0  0.24437061438E+03  0.20564756962E+02  0.77869688221E+02  0.28605697814E+03  0.12500000000E+03 0.  0.
</event>
<event>
 4    0  0.2190908E-002  0.2809883E+03  0.7546771E-02  0.1095150E+00
         21   -1    0    0  502  501  0.00000000000E+00  0.00000000000E+00  0.23172807476E+03  0.23172807476E+03  0.00000000000E+00 0. -1.
         21   -1    0    0  501  502 -0.00000000000E+00 -0.00000000000E+00 -0.34072022641E+03  0.34072022641E+03  0.00000000000E+00 0. -1.
         25    1    1    2    0    0 -0.23106309840E+03 -0.96737359003E+02 -0.29939398987E+02  0.28154864532E+03  0.12500000000E+03 0.  0.
         25    1    1    2    0    0  0.23106309840E+03  0.96737359003E+02 -0.79052752667E+02  0.29089965585E+03  0.12500000000E+03 0.  0.
</event>
<event>
 4    0  0.2190908E-002  0.1584655E+03  0.7546771E-02  0.1190440E+00
         21   -1    0    0  502  501  0.00000000000E+00  0.00000000000E+00  0.67482216100E+02  0.67482216100E+02  0.00000000000E+00 0.  1.
         21   -1    0    0  501  502 -0.00000000000E+00 -0.00000000000E+00 -0.37211766885E+03  0.37211766885E+03  0.00000000000E+00 0.  1.
         25    1    1    2    0    0 -0.30887600071E+02  0.74737025561E+02 -0.77024200399E+02  0.16762277374E+03  0.12500000000E+03 0.  0.
         25    1    1    2    0    0  0.30887600071E+02 -0.74737025561E+02 -0.22761125235E+03  0.27197711121E+03  0.12500000000E+03 0.  0.
</event>
<event>
 4    0  0.2190908E-002  0.3340145E+03  0.7546771E-02  0.1069374E+00
         21   -1    0    0  502  501  0.00000000000E+00  0.00000000000E+00  0.41539192798E+03  0.41539192798E+03  0.00000000000E+00 0.  1.
         21   -1    0    0  501  502 -0.00000000000E+00 -0.00000000000E+00 -0.26857925445E+03  0.26857925445E+03  0.00000000000E+00 0.  1.
         25    1    1    2    0    0 -0.18736224014E+03  0.22792755366E+03  0.16991651398E+03  0.36270125512E+03  0.12500000000E+03 0.  0.
         25    1    1    2    0    0  0.18736224014E+03 -0.22792755366E+03 -0.23103840448E+02  0.32126992730E+03  0.12500000000E+03 0.  0.
</event>
<event>
 4    0  0.2190908E-002  0.1820640E+03  0.7546771E-02  0.1165820E+00
         21   -1    0    0  502  501  0.00000000000E+00  0.00000000000E+00  0.15327312411E+03  0.15327312411E+03  0.00000000000E+00 0.  1.
         21   -1    0    0  501  502 -0.00000000000E+00 -0.00000000000E+00 -0.21626306906E+03  0.21626306906E+03  0.00000000000E+00 0.  1.
         25    1    1    2    0    0 -0.62682753893E+02  0.76754081006E+02  0.57569509462E+02  0.16958645290E+03  0.12500000000E+03 0.  0.
         25    1    1    2    0    0  0.62682753893E+02 -0.76754081006E+02 -0.12055945441E+03  0.19994974027E+03  0.12500000000E+03 0.  0.
</event>
<event>
 4    0  0.2208050E-002  0.2057988E+03  0.7546771E-02  0.1144937E+00
         21   -1    0    0  502  501  0.00000000000E+00  0.00000000000E+00  0.25391881378E+03  0.25391881378E+03  0.00000000000E+00 0. -1.
         21   -1    0    0  501  502 -0.00000000000E+00 -0.00000000000E+00 -0.16679799195E+03  0.16679799195E+03  0.00000000000E+00 0. -1.
         25    1    1    2    0    0  0.29691047932E+02 -0.10121537708E+03 -0.84115120010E+02  0.18391972243E+03  0.12500000000E+03 0.  0.
         25    1    1    2    0    0 -0.29691047932E+02  0.10121537708E+03  0.17123594184E+03  0.23679708331E+03  0.12500000000E+03 0.  0.
</event>
<event>
 4    0  0.2190908E-002  0.1584911E+03  0.7546771E-02  0.1190411E+00
         21   -1    0    0  502  501  0.00000000000E+00  0.00000000000E+00  0.21178842640E+03  0.21178842640E+03  0.00000000000E+00 0.  1.
         21   -1    0    0  501  502 -0.00000000000E+00 -0.00000000000E+00 -0.11860629397E+03  0.11860629397E+03  0.00000000000E+00 0.  1.
         25    1    1    2    0    0  0.39026536248E+02 -0.53887463778E+02  0.12078962620E+03  0.18612378430E+03  0.12500000000E+03 0.  0.
         25    1    1    2    0    0 -0.39026536248E+02  0.53887463778E+02 -0.27607493769E+02  0.14427093608E+03  0.12500000000E+03 0.  0.
</event>
<event>
 4    0  0.2190908E-002  0.1780528E+03  0.7546771E-02  0.1169701E+00
         21   -1    0    0  502  501  0.00000000000E+00  0.00000000000E+00  0.53462814892E+03  0.53462814892E+03  0.00000000000E+00 0. -1.
         21   -1    0    0  501  502 -0.00000000000E+00 -0.00000000000E+00 -0.59298794262E+02  0.59298794262E+02  0.00000000000E+00 0. -1.
         25    1    1    2    0    0 -0.90814949662E+02  0.73932806619E+02  0.31876334375E+03  0.36186804818E+03  0.12500000000E+03 0.  0.
         25    1    1    2    0    0  0.90814949662E+02 -0.73932806619E+02  0.15656601091E+03  0.23205889500E+03  0.12500000000E+03 0.  0.
</event>
<event>
 4    0  0.2190908E-002  0.2103680E+03  0.7546771E-02  0.1141275E+00
         21   -1    0    0  502  501  0.00000000000E+00  0.00000000000E+00  0.24544076949E+03  0.24544076949E+03  0.00000000000E+00 0. -1.
         21   -1    0    0  501  502 -0.00000000000E+00 -0.00000000000E+00 -0.18030705103E+03  0.18030705103E+03  0.00000000000E+00 0. -1.
         25    1    1    2    0    0 -0.15850633607E+03  0.24620062355E+02 -0.21919646445E+02  0.20453820412E+03  0.12500000000E+03 0.  0.
         25    1    1    2    0    0  0.15850633607E+03 -0.24620062355E+02  0.87053364909E+02  0.22120961640E+03  0.12500000000E+03 0.  0.
</event>
<event>
 4    0  0.2190908E-002  0.2643271E+03  0.7546771E-02  0.1104571E+00
         21   -1    0    0  502  501  0.00000000000E+00  0.00000000000E+00  0.84685630977E+03  0.84685630977E+03  0.00000000000E+00 0.  1.
         21   -1    0    0  501  502 -0.00000000000E+00 -0.00000000000E+00 -0.82503769999E+02  0.82503769999E+02  0.00000000000E+00 0.  1.
         25    1    1    2    0    0  0.10470827161E+03 -0.40126436430E+02  0.74103491149E+03  0.75982346179E+03  0.12500000000E+03 0.  0.
         25    1    1    2    0    0 -0.10470827161E+03  0.40126436430E+02  0.23317628277E+02  0.16953661797E+03  0.12500000000E+03 0.  0.
</event>
<event>
 4    0  0.2190908E-002  0.2433831E+03  0.7546771E-02  0.1117559E+00
         21   -1    0    0  502  501  0.00000000000E+00  0.00000000000E+00  0.60452979540E+03  0.60452979540E+03  0.00000000000E+00 0. -1.
         21   -1    0    0  501  502 -0.00000000000E+00 -0.00000000000E+00 -0.97985822288E+02  0.97985822288E+02  0.00000000000E+00 0. -1.
         25    1    1    2    0    0  0.57748001520E+01  0.24196818388E+02 -0.45973001550E+02  0.13548930293E+03  0.12500000000E+03 0.  0.
         25    1    1    2    0    0 -0.57748001520E+01 -0.24196818388E+02  0.55251697466E+03  0.56702631476E+03  0.12500000000E+03 0.  0.
</event>
<event>
 4    0  0.2190908E-002  0.2835212E+03  0.7546771E-02  0.1093781E+00
         21   -1    0    0  502  501  0.00000000000E+00  0.00000000000E+00  0.12551416896E+03  0.12551416896E+03  0.00000000000E+00 0. -1.
         21   -1    0    0  501  502 -0.00000000000E+00 -0.00000000000E+00 -0.64043969033E+03  0.64043969033E+03  0.00000000000E+00 0.  1.
         25    1    1    2    0    0 -0.20715326255E+03  0.13105862096E+03 -0.34977622453E+03  0.44503622725E+03  0.12500000000E+03 0.  0.
         25    1    1    2    0    0  0.20715326255E+03 -0.13105862096E+03 -0.16514929683E+03  0.32091763204E+03  0.12500000000E+03 0.  0.
</event>
<event>
 4    0  0.2190908E-002  0.1881519E+03  0.7546771E-02  0.1160139E+00
         21   -1    0    0  502  501  0.00000000000E+00  0.00000000000E+00  0.47784138240E+03  0.47784138240E+03  0.00000000000E+00 0.  1.
         21   -1    0    0  501  502 -0.00000000000E+00 -0.00000000000E+00 -0.74085554587E+02  0.74085554587E+02  0.00000000000E+00 0.  1.
         25    1    1    2    0    0  0.91371247181E+02  0.48288371481E+02  0.61996392409E+02  0.17363474394E+03  0.12500000000E+03 0.  0.
         25    1    1    2    0    0 -0.91371247181E+02 -0.48288371481E+02  0.34175943540E+03  0.37829219304E+03  0.12500000000E+03 0.  0.
</event>
<event>
 4    0  0.2190908E-002  0.1765138E+03  0.7546771E-02  0.1171220E+00
         21   -1    0    0  502  501  0.00000000000E+00  0.00000000000E+00  0.37671131087E+04  0.37671131087E+04  0.00000000000E+00 0. -1.
         21   -1    0    0  501  502 -0.00000000000E+00 -0.00000000000E+00 -0.82708238455E+01  0.82708238455E+01  0.00000000000E+00 0. -1.
         25    1    1    2    0    0 -0.59214217739E+02  0.10026997922E+03  0.23542934697E+04  0.23604836652E+04  0.12500000000E+03 0.  0.
         25    1    1    2    0    0  0.59214217739E+02 -0.10026997922E+03  0.14045488151E+04  0.14149002673E+04  0.12500000000E+03 0.  0.
</event>
<event>
 4    0  0.2190908E-002  0.2028824E+03  0.7546771E-02  0.1147330E+00
         21   -1    0    0  502  501  0.00000000000E+00  0.00000000000E+00  0.76024013995E+02  0.76024013995E+02  0.00000000000E+00 0. -1.
         21   -1    0    0  501  502 -0.00000000000E+00 -0.00000000000E+00 -0.54142475588E+03  0.54142475588E+03  0.00000000000E+00 0. -1.
         25    1    1    2    0    0 -0.12925452084E+03 -0.84177840206E+02 -0.29624155468E+03  0.35661842165E+03  0.12500000000E+03 0.  0.
         25    1    1    2    0    0  0.12925452084E+03  0.84177840206E+02 -0.16915918721E+03  0.26083034823E+03  0.12500000000E+03 0.  0.
</event>
<event>
 4    0  0.2190908E-002  0.2202292E+03  0.7546771E-02  0.1133712E+00
         21   -1    0    0  502  501  0.00000000000E+00  0.00000000000E+00  0.20252965644E+03  0.20252965644E+03  0.00000000000E+00 0.  1.
         21   -1    0    0  501  502 -0.00000000000E+00 -0.00000000000E+00 -0.23947563126E+03  0.23947563126E+03  0.00000000000E+00 0.  1.
         25    1    1    2    0    0 -0.90813649285E+02  0.14812824978E+03  0.33543591156E+02  0.21665472482E+03  0.12500000000E+03 0.  0.
         25    1    1    2    0    0  0.90813649285E+02 -0.14812824978E+03 -0.70489565974E+02  0.22535056288E+03  0.12500000000E+03 0.  0.
</event>
<event>
 4    0  0.2190908E-002  0.1936150E+03  0.7546771E-02  0.1155241E+00
         21   -1    0    0  502  501  0.00000000000E+00  0.00000000000E+00  0.90747016611E+02  0.90747016611E+02  0.00000000000E+00 0. -1.
         21   -1    0    0  501  502 -0.00000000000E+00 -0.00000000000E+00 -0.41309072414E+03  0.41309072414E+03  0.00000000000E+00 0. -1.
         25    1    1    2    0    0 -0.16191646074E+02  0.52891442126E+02 -0.33958412059E+03  0.36606290308E+03  0.12500000000E+03 0.  0.
         25    1    1    2    0    0  0.16191646074E+02 -0.52891442126E+02  0.17240413064E+02  0.13777483767E+03  0.12500000000E+03 0.  0.
</event>
<event>
 4    0  0.2190908E-002  0.4112468E+03  0.7546771E-02  0.1039953E+00
         21   -1    0    0  502  501  0.00000000000E+00  0.00000000000E+00  0.25080979158E+03  0.25080979158E+03  0.00000000000E+00 0.  1.
         21   -1    0    0  501  502 -0.00000000000E+00 -0.00000000000E+00 -0.67431137369E+03  0.67431137369E+03  0.00000000000E+00 0.  1.
         25    1    1    2    0    0 -0.31787560577E+03 -0.92769686371E+02 -0.44727737788E+03  0.57037984555E+03  0.12500000000E+03 0.  0.
         25    1    1    2    0    0  0.31787560577E+03  0.92769686371E+02  0.23775795765E+02  0.35474131972E+03  0.12500000000E+03 0.  0.
</event>
<event>
 4    0  0.2190908E-002  0.1911898E+03  0.7546771E-02  0.1157393E+00
         21   -1    0    0  502  501  0.00000000000E+00  0.00000000000E+00  0.14513045518E+03  0.14513045518E+03  0.00000000000E+00 0.  1.
         21   -1    0    0  501  502 -0.00000000000E+00 -0.00000000000E+00 -0.25186684876E+03  0.25186684876E+03  0.00000000000E+00 0.  1.
         25    1    1    2    0    0 -0.11014552840E+02  0.43867349130E+02  0.89299930669E+02  0.16014100759E+03  0.12500000000E+03 0.  0.
         25    1    1    2    0    0  0.11014552840E+02 -0.43867349130E+02 -0.19603632425E+03  0.23685629635E+03  0.12500000000E+03 0.  0.
</event>
<event>
 4    0  0.2190908E-002  0.4065497E+03  0.7546771E-02  0.1041535E+00
         21   -1    0    0  502  501  0.00000000000E+00  0.00000000000E+00  0.12056445373E+03  0.12056445373E+03  0.00000000000E+00 0. -1.
         21   -1    0    0  501  502 -0.00000000000E+00 -0.00000000000E+00 -0.13709072148E+04  0.13709072148E+04  0.00000000000E+00 0. -1.
         25    1    1    2    0    0 -0.75814787112E+02 -0.35410403051E+03 -0.37554332614E+03  0.53646559645E+03  0.12500000000E+03 0.  0.
         25    1    1    2    0    0  0.75814787112E+02  0.35410403051E+03 -0.87479943493E+03  0.95500607209E+03  0.12500000000E+03 0.  0.
</event>
<event>
 4    0  0.2190908E-002  0.2063168E+03  0.7546771E-02  0.1144516E+00
         21   -1    0    0  502  501  0.00000000000E+00  0.00000000000E+00  0.28337783345E+02  0.28337783345E+02  0.00000000000E+00 0. -1.
         21   -1    0    0  501  502 -0.00000000000E+00 -0.00000000000E+00 -0.15021158598E+04  0.15021158598E+04  0.00000000000E+00 0. -1.
         25    1    1    2    0    0 -0.53626536056E+02  0.13890859878E+03 -0.99305721202E+03  0.10119086078E+04  0.12500000000E+03 0.  0.
         25    1    1    2    0    0  0.53626536056E+02 -0.13890859878E+03 -0.48072086444E+03  0.51854503535E+03  0.12500000000E+03 0.  0.
</event>
<event>
 4    0  0.2190908E-002  0.1769400E+03  0.7546771E-02  0.1170798E+00
         21   -1    0    0  502  501  0.00000000000E+00  0.00000000000E+00  0.16564511979E+02  0.16564511979E+02  0.00000000000E+00 0. -1.
         21   -1    0    0  501  502 -0.00000000000E+00 -0.00000000000E+00 -0.18900497904E+04  0.18900497904E+04  0.00000000000E+00 0. -1.
         25    1    1    2    0    0 -0.69708754903E+02 -0.60461361994E+02 -0.13928864979E+04  0.14015251275E+04  0.12500000000E+03 0.  0.
         25    1    1    2    0    0  0.69708754903E+02  0.60461361994E+02 -0.48059878049E+03  0.50508917491E+03  0.12500000000E+03 0.  0.
</event>
<event>
 4    0  0.2190908E-002  0.2068728E+03  0.7546771E-02  0.1144067E+00
         21   -1    0    0  502  501  0.00000000000E+00  0.00000000000E+00  0.81757625577E+02  0.81757625577E+02  0.00000000000E+00 0.  1.
         21   -1    0    0  501  502 -0.00000000000E+00 -0.00000000000E+00 -0.52345378543E+03  0.52345378543E+03  0.00000000000E+00 0.  1.
         25    1    1    2    0    0  0.42021095970E+02 -0.15011791347E+03 -0.29921417943E+03  0.35979895168E+03  0.12500000000E+03 0.  0.
         25    1    1    2    0    0 -0.42021095970E+02  0.15011791347E+03 -0.14248198042E+03  0.24541245934E+03  0.12500000000E+03 0.  0.
</event>
<event>
 4    0  0.2190908E-002  0.2290871E+03  0.7546771E-02  0.1127284E+00
         21   -1    0    0  502  501  0.00000000000E+00  0.00000000000E+00  0.66485147654E+02  0.66485147654E+02  0.00000000000E+00 0.  1.
         21   -1    0    0  501  502 -0.00000000000E+00 -0.00000000000E+00 -0.78936292678E+03  0.78936292678E+03  0.00000000000E+00 0.  1.
         25    1    1    2    0    0  0.84379350648E+02 -0.16811914369E+03 -0.28977203414E+03  0.36739182498E+03  0.12500000000E+03 0.  0.
         25    1    1    2    0    0 -0.84379350648E+02  0.16811914369E+03 -0.43310574499E+03  0.48845624946E+03  0.12500000000E+03 0.  0.
</event>
<event>
 4    0  0.2190908E-002  0.2186570E+03  0.7546771E-02  0.1134888E+00
         21   -1    0    0  502  501  0.00000000000E+00  0.00000000000E+00  0.86604633155E+02  0.86604633155E+02  0.00000000000E+00 0.  1.
         21   -1    0    0  501  502 -0.00000000000E+00 -0.00000000000E+00 -0.55205924708E+03  0.55205924708E+03  0.00000000000E+00 0.  1.
         25    1    1    2    0    0  0.13202353710E+03 -0.12118801318E+03 -0.24487077273E+03  0.32818202910E+03  0.12500000000E+03 0.  0.
         25    1    1    2    0    0 -0.13202353710E+03  0.12118801318E+03 -0.22058384119E+03  0.31048185113E+03  0.12500000000E+03 0.  0.
</event>
<event>
 4    0  0.2190908E-002  0.1748413E+03  0.7546771E-02  0.1172891E+00
         21   -1    0    0  502  501  0.00000000000E+00  0.00000000000E+00  0.20137985574E+02  0.20137985574E+02  0.00000000000E+00 0. -1.
         21   -1    0    0  501  502 -0.00000000000E+00 -0.00000000000E+00 -0.15180016345E+04  0.15180016345E+04  0.00000000000E+00 0. -1.
         25    1    1    2    0    0 -0.77394380334E+02  0.58410725640E+02 -0.42145096361E+03  0.45016398979E+03  0.12500000000E+03 0.  0.
         25    1    1    2    0    0  0.77394380334E+02 -0.58410725640E+02 -0.10764126853E+04  0.10879756302E+04  0.12500000000E+03 0.  0.
</event>
<event>
 4    0  0.2190908E-002  0.2196801E+03  0.7546771E-02  0.1134122E+00
         21   -1    0    0  502  501  0.00000000000E+00  0.00000000000E+00  0.19364045360E+03  0.19364045360E+03  0.00000000000E+00 0. -1.
         21   -1    0    0  501  502 -0.00000000000E+00 -0.00000000000E+00 -0.24922131340E+03  0.24922131340E+03  0.00000000000E+00 0. -1.
         25    1    1    2    0    0 -0.13880132705E+03  0.53506690465E+02 -0.13110392020E+03  0.23439712500E+03  0.12500000000E+03 0.  0.
         25    1    1    2    0    0  0.13880132705E+03 -0.53506690465E+02  0.75523060404E+02  0.20846464201E+03  0.12500000000E+03 0.  0.
</event>
<event>
 4    0  0.2190908E-002  0.1484140E+03  0.7546771E-02  0.1202436E+00
         21   -1    0    0  502  501  0.00000000000E+00  0.00000000000E+00  0.64196614126E+02  0.64196614126E+02  0.00000000000E+00 0. -1.
         21   -1    0    0  501  502 -0.00000000000E+00 -0.00000000000E+00 -0.34311313141E+03  0.34311313141E+03  0.00000000000E+00 0. -1.
         25    1    1    2    0    0 -0.45825298304E+02  0.52015606162E+02 -0.84636514170E+02  0.16611417995E+03  0.12500000000E+03 0.  0.
         25    1    1    2    0    0  0.45825298304E+02 -0.52015606162E+02 -0.19428000312E+03  0.24119556559E+03  0.12500000000E+03 0.  0.
</event>
<event>
 4    0  0.2190908E-002  0.2186881E+03  0.7546771E-02  0.1134865E+00
         21   -1    0    0  502  501  0.00000000000E+00  0.00000000000E+00  0.92319582311E+02  0.92319582311E+02  0.00000000000E+00 0. -1.
         21   -1    0    0  501  502 -0.00000000000E+00 -0.00000000000E+00 -0.51803189717E+03  0.51803189717E+03  0.00000000000E+00 0. -1.
         25    1    1    2    0    0  0.42607702534E+02 -0.69803595118E+02  0.10035130498E+02  0.14971193022E+03  0.12500000000E+03 0.  0.
         25    1    1    2    0    0 -0.42607702534E+02  0.69803595118E+02 -0.43574744536E+03  0.46063954926E+03  0.12500000000E+03 0.  0.
</event>
<event>
 4    0  0.2190908E-002  0.1952210E+03  0.7546771E-02  0.1153835E+00
         21   -1    0    0  502  501  0.00000000000E+00  0.00000000000E+00  0.11027410817E+03  0.11027410817E+03  0.00000000000E+00 0.  1.
         21   -1    0    0  501  502 -0.00000000000E+00 -0.00000000000E+00 -0.34560472416E+03  0.34560472416E+03  0.00000000000E+00 0.  1.
         25    1    1    2    0    0  0.11801155855E+03  0.18862302331E+02 -0.22341977462E+03  0.28253125507E+03  0.12500000000E+03 0.  0.
         25    1    1    2    0    0 -0.11801155855E+03 -0.18862302331E+02 -0.11910841366E+02  0.17334757726E+03  0.12500000000E+03 0.  0.
</event>
<event>
 4    0  0.2190908E-002  0.2699400E+03  0.7546771E-02  0.1101314E+00
         21   -1    0    0  502  501  0.00000000000E+00  0.00000000000E+00  0.75517478983E+03  0.75517478983E+03  0.00000000000E+00 0.  1.
         21   -1    0    0  501  502 -0.00000000000E+00 -0.00000000000E+00 -0.96491029272E+02  0.96491029272E+02  0.00000000000E+00 0.  1.
         25    1    1    2    0    0 -0.15592499067E+03 -0.14389432929E+03  0.50375775104E+03  0.56072725317E+03  0.12500000000E+03 0.  0.
         25    1    1    2    0    0  0.15592499067E+03  0.14389432929E+03  0.15492600952E+03  0.29093856593E+03  0.12500000000E+03 0.  0.
</event>
<event>
 4    0  0.2190908E-002  0.2061933E+03  0.7546771E-02  0.1144616E+00
         21   -1    0    0  502  501  0.00000000000E+00  0.00000000000E+00  0.15491259365E+04  0.15491259365E+04  0.00000000000E+00 0.  1.
         21   -1    0    0  501  502 -0.00000000000E+00 -0.00000000000E+00 -0.27444937154E+02  0.27444937154E+02  0.00000000000E+00 0. -1.
         25    1    1    2    0    0 -0.10624951931E+03 -0.12294209061E+03  0.84520299357E+03  0.86971076706E+03  0.12500000000E+03 0.  0.
         25    1    1    2    0    0  0.10624951931E+03  0.12294209061E+03  0.67647800582E+03  0.70686010663E+03  0.12500000000E+03 0.  0.
</event>
<event>
 4    0  0.2190908E-002  0.1816105E+03  0.7546771E-02  0.1166253E+00
         21   -1    0    0  502  501  0.00000000000E+00  0.00000000000E+00  0.23598998216E+02  0.23598998216E+02  0.00000000000E+00 0. -1.
         21   -1    0    0  501  502 -0.00000000000E+00 -0.00000000000E+00 -0.13976169407E+04  0.13976169407E+04  0.00000000000E+00 0. -1.
         25    1    1    2    0    0  0.68648852307E+02 -0.22185750068E+02 -0.25566692004E+03  0.29359061026E+03  0.12500000000E+03 0.  0.
         25    1    1    2    0    0 -0.68648852307E+02  0.22185750068E+02 -0.11183510224E+04  0.11276253286E+04  0.12500000000E+03 0.  0.
</event>
<event>
 4    0  0.2190908E-002  0.2403177E+03  0.7546771E-02  0.1119581E+00
         21   -1    0    0  502  501  0.00000000000E+00  0.00000000000E+00  0.15954179936E+03  0.15954179936E+03  0.00000000000E+00 0. -1.
         21   -1    0    0  501  502 -0.00000000000E+00 -0.00000000000E+00 -0.36199028402E+03  0.36199028402E+03  0.00000000000E+00 0. -1.
         25    1    1    2    0    0  0.17738485582E+03 -0.59299757178E+02 -0.94990298039E+01  0.22516012046E+03  0.12500000000E+03 0.  0.
         25    1    1    2    0    0 -0.17738485582E+03  0.59299757178E+02 -0.19294945486E+03  0.29637196292E+03  0.12500000000E+03 0.  0.
</event>
<event>
 4    0  0.2190908E-002  0.1976227E+03  0.7546771E-02  0.1151760E+00
         21   -1    0    0  502  501  0.00000000000E+00  0.00000000000E+00  0.13546779320E+04  0.13546779320E+04  0.00000000000E+00 0.  1.
         21   -1    0    0  501  502 -0.00000000000E+00 -0.00000000000E+00 -0.28829530534E+02  0.28829530534E+02  0.00000000000E+00 0.  1.
         25    1    1    2    0    0 -0.95191754092E+02  0.11904718266E+03  0.71193284730E+03  0.73871989333E+03  0.12500000000E+03 0.  0.
         25    1    1    2    0    0  0.95191754092E+02 -0.11904718266E+03  0.61391555419E+03  0.64478756922E+03  0.12500000000E+03 0.  0.
</event>
<event>
 4    0  0.2190908E-002  0.4352602E+03  0.7546771E-02  0.1032211E+00
         21   -1    0    0  502  501  0.00000000000E+00  0.00000000000E+00  0.52743401584E+03  0.52743401584E+03  0.00000000000E+00 0.  1.
         21   -1    0    0  501  502 -0.00000000000E+00 -0.00000000000E+00 -0.35919460331E+03  0.35919460331E+03  0.00000000000E+00 0.  1.
         25    1    1    2    0    0 -0.28733846701E+03 -0.90005449818E+01 -0.22343151166E+03  0.38495589986E+03  0.12500000000E+03 0.  0.
         25    1    1    2    0    0  0.28733846701E+03  0.90005449818E+01  0.39167092419E+03  0.50167271930E+03  0.12500000000E+03 0.  0.
</event>
<event>
 4    0  0.2190908E-002  0.3045103E+03  0.7546771E-02  0.1083007E+00
         21   -1    0    0  502  501  0.00000000000E+00  0.00000000000E+00  0.90169712449E+02  0.90169712449E+02  0.00000000000E+00 0. -1.
         21   -1    0    0  501  502 -0.00000000000E+00 -0.00000000000E+00 -0.10283554074E+04  0.10283554074E+04  0.00000000000E+00 0.  1.
         25    1    1    2    0    0  0.34385392584E+02  0.27193368174E+03 -0.38755066828E+03  0.49086739856E+03  0.12500000000E+03 0.  0.
         25    1    1    2    0    0 -0.34385392584E+02 -0.27193368174E+03 -0.55063502666E+03  0.62765772128E+03  0.12500000000E+03 0.  0.
</event>
<event>
 4    0  0.2190908E-002  0.2175145E+03  0.7546771E-02  0.1135750E+00
         21   -1    0    0  502  501  0.00000000000E+00  0.00000000000E+00  0.42421295558E+02  0.42421295558E+02  0.00000000000E+00 0. -1.
         21   -1    0    0  501  502 -0.00000000000E+00 -0.00000000000E+00 -0.11153020138E+04  0.11153020138E+04  0.00000000000E+00 0. -1.
         25    1    1    2    0    0  0.78736856331E+02  0.11117488462E+03 -0.23151797055E+03  0.29628519741E+03  0.12500000000E+03 0.  0.
         25    1    1    2    0    0 -0.78736856331E+02 -0.11117488462E+03 -0.84136274767E+03  0.86143811193E+03  0.12500000000E+03 0.  0.
</event>
<event>
 4    0  0.2190908E-002  0.2986164E+03  0.7546771E-02  0.1085934E+00
         21   -1    0    0  502  501  0.00000000000E+00  0.00000000000E+00  0.51750167003E+03  0.51750167003E+03  0.00000000000E+00 0.  1.
         21   -1    0    0  501  502 -0.00000000000E+00 -0.00000000000E+00 -0.17231206195E+03  0.17231206195E+03  0.00000000000E+00 0.  1.
         25    1    1    2    0    0  0.25525056736E+03 -0.74298534224E+02  0.23451117220E+03  0.37589042847E+03  0.12500000000E+03 0.  0.
         25    1    1    2    0    0 -0.25525056736E+03  0.74298534224E+02  0.11067843587E+03  0.31392330352E+03  0.12500000000E+03 0.  0.
</event>
<event>
 4    0  0.2190908E-002  0.2000639E+03  0.7546771E-02  0.1149685E+00
         21   -1    0    0  502  501  0.00000000000E+00  0.00000000000E+00  0.13017719294E+03  0.13017719294E+03  0.00000000000E+00 0.  1.
         21   -1    0    0  501  502 -0.00000000000E+00 -0.00000000000E+00 -0.30746974511E+03  0.30746974511E+03  0.00000000000E+00 0.  1.
         25    1    1    2    0    0 -0.86570865340E+02 -0.54283624573E+02 -0.21787451075E+03  0.27117435177E+03  0.12500000000E+03 0.  0.
         25    1    1    2    0    0  0.86570865340E+02  0.54283624573E+02  0.40581958568E+02  0.16647258628E+03  0.12500000000E+03 0.  0.
</event>
<event>
 4    0  0.2190908E-002  0.2403986E+03  0.7546771E-02  0.1119528E+00
         21   -1    0    0  502  501  0.00000000000E+00  0.00000000000E+00  0.53990748175E+03  0.53990748175E+03  0.00000000000E+00 0. -1.
         21   -1    0    0  501  502 -0.00000000000E+00 -0.00000000000E+00 -0.10703957817E+03  0.10703957817E+03  0.00000000000E+00 0. -1.
         25    1    1    2    0    0 -0.13299217683E+03 -0.84992725405E+02  0.39318999113E+03  0.44173980078E+03  0.12500000000E+03 0.  0.
         25    1    1    2    0    0  0.13299217683E+03  0.84992725405E+02  0.39677912455E+02  0.20520725915E+03  0.12500000000E+03 0.  0.
</event>
<event>
 4    0  0.2190908E-002  0.2193923E+03  0.7546771E-02  0.1134337E+00
         21   -1    0    0  502  501  0.00000000000E+00  0.00000000000E+00  0.26765185120E+03  0.26765185120E+03  0.00000000000E+00 0. -1.
         21   -1    0    0  501  502 -0.00000000000E+00 -0.00000000000E+00 -0.17983428766E+03  0.17983428766E+03  0.00000000000E+00 0. -1.
         25    1    1    2    0    0 -0.16902479891E+03 -0.62404791992E+02  0.37125618014E+02  0.22241189766E+03  0.12500000000E+03 0.  0.
         25    1    1    2    0    0  0.16902479891E+03  0.62404791992E+02  0.50691945520E+02  0.22507424119E+03  0.12500000000E+03 0.  0.
</event>
<event>
 4    0  0.2190908E-002  0.2116168E+03  0.7546771E-02  0.1140292E+00
         21   -1    0    0  502  501  0.00000000000E+00  0.00000000000E+00  0.25981731500E+03  0.25981731500E+03  0.00000000000E+00 0. -1.
         21   -1    0    0  501  502 -0.00000000000E+00 -0.00000000000E+00 -0.17235827200E+03  0.17235827200E+03  0.00000000000E+00 0. -1.
         25    1    1    2    0    0 -0.42905920220E+02  0.96204647059E+02  0.18095790350E+03  0.24385859621E+03  0.12500000000E+03 0.  0.
         25    1    1    2    0    0  0.42905920220E+02 -0.96204647059E+02 -0.93498860500E+02  0.18831699079E+03  0.12500000000E+03 0.  0.
</event>
<event>
 4    0  0.2190908E-002  0.1661335E+03  0.7546771E-02  0.1181941E+00
         21   -1    0    0  502  501  0.00000000000E+00  0.00000000000E+00  0.10267449802E+03  0.10267449802E+03  0.00000000000E+00 0.  1.
         21   -1    0    0  501  502 -0.00000000000E+00 -0.00000000000E+00 -0.26881391120E+03  0.26881391120E+03  0.00000000000E+00 0.  1.
         25    1    1    2    0    0  0.42471582761E+02  0.83300486634E+02 -0.14663633651E+03  0.21417287783E+03  0.12500000000E+03 0.  0.
         25    1    1    2    0    0 -0.42471582761E+02 -0.83300486634E+02 -0.19503076670E+02  0.15731553139E+03  0.12500000000E+03 0.  0.
</event>
<event>
 4    0  0.2190908E-002  0.1496876E+03  0.7546771E-02  0.1200857E+00
         21   -1    0    0  502  501  0.00000000000E+00  0.00000000000E+00  0.29422263883E+02  0.29422263883E+02  0.00000000000E+00 0.  1.
         21   -1    0    0  501  502 -0.00000000000E+00 -0.00000000000E+00 -0.76154466334E+03  0.76154466334E+03  0.00000000000E+00 0.  1.
         25    1    1    2    0    0 -0.63689560274E+02 -0.15721999931E+02 -0.49757703824E+03  0.51721509099E+03  0.12500000000E+03 0.  0.
         25    1    1    2    0    0  0.63689560274E+02  0.15721999931E+02 -0.23454536122E+03  0.27375183623E+03  0.12500000000E+03 0.  0.
</event>
<event>
 4    0  0.2190908E-002  0.2238178E+03  0.7546771E-02  0.1131068E+00
         21   -1    0    0  502  501  0.00000000000E+00  0.00000000000E+00  0.65169551169E+03  0.65169551169E+03  0.00000000000E+00 0. -1.
         21   -1    0    0  501  502 -0.00000000000E+00 -0.00000000000E+00 -0.76867791080E+02  0.76867791080E+02  0.00000000000E+00 0.  1.
         25    1    1    2    0    0 -0.63554768027E+02 -0.84794228469E+02  0.39293754122E+02  0.16851785909E+03  0.12500000000E+03 0.  0.
         25    1    1    2    0    0  0.63554768027E+02  0.84794228469E+02  0.53553396649E+03  0.56004544368E+03  0.12500000000E+03 0.  0.
</event>
<event>
 4    0  0.2190908E-002  0.4343023E+03  0.7546771E-02  0.1032509E+00
         21   -1    0    0  502  501  0.00000000000E+00  0.00000000000E+00  0.31868209784E+03  0.31868209784E+03  0.00000000000E+00 0.  1.
         21   -1    0    0  501  502 -0.00000000000E+00 -0.00000000000E+00 -0.59187040257E+03  0.59187040257E+03  0.00000000000E+00 0. -1.
         25    1    1    2    0    0  0.10912202311E+03 -0.31931045110E+03  0.11830873184E+03  0.37879907093E+03  0.12500000000E+03 0.  0.
         25    1    1    2    0    0 -0.10912202311E+03  0.31931045110E+03 -0.39149703658E+03  0.53175342948E+03  0.12500000000E+03 0.  0.
</event>
<event>
 4    0  0.2190908E-002  0.2317110E+03  0.7546771E-02  0.1125441E+00
         21   -1    0    0  502  501  0.00000000000E+00  0.00000000000E+00  0.11852828511E+04  0.11852828511E+04  0.00000000000E+00 0. -1.
         21   -1    0    0  501  502 -0.00000000000E+00 -0.00000000000E+00 -0.45297189892E+02  0.45297189892E+02  0.00000000000E+00 0. -1.
         25    1    1    2    0    0  0.12127270808E+03 -0.94323369997E+01  0.16493076347E+03  0.24004831898E+03  0.12500000000E+03 0.  0.
         25    1    1    2    0    0 -0.12127270808E+03  0.94323369997E+01  0.97505489769E+03  0.99053172196E+03  0.12500000000E+03 0.  0.
</event>
<event>
 4    0  0.2190908E-002  0.1823632E+03  0.7546771E-02  0.1165535E+00
         21   -1    0    0  502  501  0.00000000000E+00  0.00000000000E+00  0.50467990972E+02  0.50467990972E+02  0.00000000000E+00 0. -1.
         21   -1    0    0  501  502 -0.00000000000E+00 -0.00000000000E+00 -0.65895917996E+03  0.65895917996E+03  0.00000000000E+00 0. -1.
         25    1    1    2    0    0  0.32483836929E+02 -0.12706547409E+03 -0.26388728416E+03  0.32009738067E+03  0.12500000000E+03 0.  0.
         25    1    1    2    0    0 -0.32483836929E+02  0.12706547409E+03 -0.34460390483E+03  0.38932979027E+03  0.12500000000E+03 0.  0.
</event>
<event>
 4    0  0.2190908E-002  0.2210927E+03  0.7546771E-02  0.1133071E+00
         21   -1    0    0  502  501  0.00000000000E+00  0.00000000000E+00  0.15884166357E+03  0.15884166357E+03  0.00000000000E+00 0.  1.
         21   -1    0    0  501  502 -0.00000000000E+00 -0.00000000000E+00 -0.30774039945E+03  0.30774039945E+03  0.00000000000E+00 0.  1.
         25    1    1    2    0    0 -0.16603451017E+03  0.34708656679E+02 -0.37854981177E+01  0.21074031274E+03  0.12500000000E+03 0.  0.
         25    1    1    2    0    0  0.16603451017E+03 -0.34708656679E+02 -0.14511323776E+03  0.25584175029E+03  0.12500000000E+03 0.  0.
</event>
<event>
 4    0  0.2190908E-002  0.1673906E+03  0.7546771E-02  0.1180597E+00
         21   -1    0    0  502  501  0.00000000000E+00  0.00000000000E+00  0.16730844184E+03  0.16730844184E+03  0.00000000000E+00 0.  1.
         21   -1    0    0  501  502 -0.00000000000E+00 -0.00000000000E+00 -0.16747272152E+03  0.16747272152E+03  0.00000000000E+00 0.  1.
         25    1    1    2    0    0 -0.28023922449E+02  0.76997129081E+02  0.75288300913E+02  0.16735359683E+03  0.12500000000E+03 0.  0.
         25    1    1    2    0    0  0.28023922449E+02 -0.76997129081E+02 -0.75452580593E+02  0.16742756653E+03  0.12500000000E+03 0.  0.
</event>
<event>
 4    0  0.2190908E-002  0.2266650E+03  0.7546771E-02  0.1129009E+00
         21   -1    0    0  502  501  0.00000000000E+00  0.00000000000E+00  0.15759201085E+03  0.15759201085E+03  0.00000000000E+00 0.  1.
         21   -1    0    0  501  502 -0.00000000000E+00 -0.00000000000E+00 -0.32601287802E+03  0.32601287802E+03  0.00000000000E+00 0.  1.
         25    1    1    2    0    0 -0.76780033910E+02 -0.16619226246E+03 -0.13466582522E+03  0.25937410470E+03  0.12500000000E+03 0.  0.
         25    1    1    2    0    0  0.76780033910E+02  0.16619226246E+03 -0.33755041955E+02  0.22423078417E+03  0.12500000000E+03 0.  0.
</event>
<event>
 4    0  0.2190908E-002  0.3547262E+03  0.7546771E-02  0.1060692E+00
         21   -1    0    0  502  501  0.00000000000E+00  0.00000000000E+00  0.83492152405E+03  0.83492152405E+03  0.00000000000E+00 0.  1.
         21   -1    0    0  501  502 -0.00000000000E+00 -0.00000000000E+00 -0.15070956917E+03  0.15070956917E+03  0.00000000000E+00 0.  1.
         25    1    1    2    0    0 -0.30503458073E+03  0.89058899051E+02  0.47556466143E+03  0.58546078447E+03  0.12500000000E+03 0.  0.
         25    1    1    2    0    0  0.30503458073E+03 -0.89058899051E+02  0.20864729344E+03  0.40017030875E+03  0.12500000000E+03 0.  0.
</event>
<event>
 4    0  0.2190908E-002  0.2543083E+03  0.7546771E-02  0.1110612E+00
         21   -1    0    0  502  501  0.00000000000E+00  0.00000000000E+00  0.13472293355E+04  0.13472293355E+04  0.00000000000E+00 0. -1.
         21   -1    0    0  501  502 -0.00000000000E+00 -0.00000000000E+00 -0.48004236971E+02  0.48004236971E+02  0.00000000000E+00 0. -1.
         25    1    1    2    0    0  0.40733103518E+02 -0.18386784448E+02  0.54583329455E+02  0.14353257268E+03  0.12500000000E+03 0.  0.
         25    1    1    2    0    0 -0.40733103518E+02  0.18386784448E+02  0.12446417691E+04  0.12517009998E+04  0.12500000000E+03 0.  0.
</event>
<event>
 4    0  0.2190908E-002  0.2345408E+03  0.7546771E-02  0.1123484E+00
         21   -1    0    0  502  501  0.00000000000E+00  0.00000000000E+00  0.62192152590E+03  0.62192152590E+03  0.00000000000E+00 0. -1.
         21   -1    0    0  501  502 -0.00000000000E+00 -0.00000000000E+00 -0.88450650915E+02  0.88450650915E+02  0.00000000000E+00 0. -1.
         25    1    1    2    0    0 -0.34991482448E+01  0.19643630721E+03  0.22430827781E+03  0.32332440416E+03  0.12500000000E+03 0.  0.
         25    1    1    2    0    0  0.34991482448E+01 -0.19643630721E+03  0.30916259717E+03  0.38704777265E+03  0.12500000000E+03 0.  0.
</event>
<event>
 4    0  0.2190908E-002  0.2226946E+03  0.7546771E-02  0.1131890E+00
         21   -1    0    0  502  501  0.00000000000E+00  0.00000000000E+00  0.42121346732E+02  0.42121346732E+02  0.00000000000E+00 0.  1.
         21   -1    0    0  501  502 -0.00000000000E+00 -0.00000000000E+00 -0.11773815536E+04  0.11773815536E+04  0.00000000000E+00 0.  1.
         25    1    1    2    0    0  0.12521128874E+02  0.27352146439E+02 -0.69762246380E+02  0.14627607324E+03  0.12500000000E+03 0.  0.
         25    1    1    2    0    0 -0.12521128874E+02 -0.27352146439E+02 -0.10654979604E+04  0.10732268270E+04  0.12500000000E+03 0.  0.
</event>
<event>
 4    0  0.2190908E-002  0.2393872E+03  0.7546771E-02  0.1120202E+00
         21   -1    0    0  502  501  0.00000000000E+00  0.00000000000E+00  0.39483129478E+03  0.39483129478E+03  0.00000000000E+00 0.  1.
         21   -1    0    0  501  502 -0.00000000000E+00 -0.00000000000E+00 -0.14514108477E+03  0.14514108477E+03  0.00000000000E+00 0.  1.
         25    1    1    2    0    0 -0.14235938984E+03 -0.26670913573E+02  0.28712497835E+03  0.34502650145E+03  0.12500000000E+03 0.  0.
         25    1    1    2    0    0  0.14235938984E+03  0.26670913573E+02 -0.37434768346E+02  0.19494587810E+03  0.12500000000E+03 0.  0.
</event>
<event>
 4    0  0.2190908E-002  0.2286764E+03  0.7546771E-02  0.1127575E+00
         21   -1    0    0  502  501  0.00000000000E+00  0.00000000000E+00  0.18064527806E+03  0.18064527806E+03  0.00000000000E+00 0.  1.
         21   -1    0    0  501  502 -0.00000000000E+00 -0.00000000000E+00 -0.28947847011E+03  0.28947847011E+03  0.00000000000E+00 0.  1.
         25    1    1    2    0    0  0.84506850472E+02  0.10637996007E+03 -0.19312843211E+03  0.26717352970E+03  0.12500000000E+03 0.  0.
         25    1    1    2    0    0 -0.84506850472E+02 -0.10637996007E+03  0.84295240061E+02  0.20295021847E+03  0.12500000000E+03 0.  0.
</event>
<event>
 4    0  0.2190908E-002  0.2363019E+03  0.7546771E-02  0.1122281E+00
         21   -1    0    0  502  501  0.00000000000E+00  0.00000000000E+00  0.56602338934E+03  0.56602338934E+03  0.00000000000E+00 0.  1.
         21   -1    0    0  501  502 -0.00000000000E+00 -0.00000000000E+00 -0.98650705935E+02  0.98650705935E+02  0.00000000000E+00 0.  1.
         25    1    1    2    0    0  0.15877637756E+03  0.62344992605E+02  0.85400121571E+02  0.22806800946E+03  0.12500000000E+03 0.  0.
         25    1    1    2    0    0 -0.15877637756E+03 -0.62344992605E+02  0.38197256183E+03  0.43660608581E+03  0.12500000000E+03 0.  0.
</event>
<event>
 4    0  0.2190908E-002  0.3199652E+03  0.7546771E-02  0.1075665E+00
         21   -1    0    0  502  501  0.00000000000E+00  0.00000000000E+00  0.57014254387E+03  0.57014254387E+03  0.00000000000E+00 0.  1.
         21   -1    0    0  501  502 -0.00000000000E+00 -0.00000000000E+00 -0.17956516014E+03  0.17956516014E+03  0.00000000000E+00 0.  1.
         25    1    1    2    0    0  0.20626359570E+03 -0.19444581376E+03  0.28900422882E+03  0.42367710544E+03  0.12500000000E+03 0.  0.
         25    1    1    2    0    0 -0.20626359570E+03  0.19444581376E+03  0.10157315491E+03  0.32603059856E+03  0.12500000000E+03 0.  0.
</event>
<event>
 4    0  0.2190908E-002  0.1826126E+03  0.7546771E-02  0.1165298E+00
         21   -1    0    0  502  501  0.00000000000E+00  0.00000000000E+00  0.18839689139E+02  0.18839689139E+02  0.00000000000E+00 0. -1.
         21   -1    0    0  501  502 -0.00000000000E+00 -0.00000000000E+00 -0.17700592413E+04  0.17700592413E+04  0.00000000000E+00 0. -1.
         25    1    1    2    0    0 -0.70599140141E+01 -0.82811066706E+02 -0.36623749735E+03  0.39580603788E+03  0.12500000000E+03 0.  0.
         25    1    1    2    0    0  0.70599140141E+01  0.82811066706E+02 -0.13849820548E+04  0.13930928926E+04  0.12500000000E+03 0.  0.
</event>
<event>
 4    0  0.2190908E-002  0.3891668E+03  0.7546771E-02  0.1047597E+00
         21   -1    0    0  502  501  0.00000000000E+00  0.00000000000E+00  0.42116486389E+03  0.42116486389E+03  0.00000000000E+00 0. -1.
         21   -1    0    0  501  502 -0.00000000000E+00 -0.00000000000E+00 -0.35959972581E+03  0.35959972581E+03  0.00000000000E+00 0. -1.
         25    1    1    2    0    0 -0.30219567702E+03 -0.16053548095E+03  0.16807459248E+03  0.40120809624E+03  0.12500000000E+03 0.  0.
         25    1    1    2    0    0  0.30219567702E+03  0.16053548095E+03 -0.10650945439E+03  0.37955649346E+03  0.12500000000E+03 0.  0.
</event>
<event>
 4    0  0.2190908E-002  0.2728020E+03  0.7546771E-02  0.1099687E+00
         21   -1    0    0  502  501  0.00000000000E+00  0.00000000000E+00  0.53137572795E+02  0.53137572795E+02  0.00000000000E+00 0. -1.
         21   -1    0    0  501  502 -0.00000000000E+00 -0.00000000000E+00 -0.14005333693E+04  0.14005333693E+04  0.00000000000E+00 0. -1.
         25    1    1    2    0    0 -0.17789214500E+03  0.65684564694E+02 -0.10763196881E+04  0.11000223399E+04  0.12500000000E+03 0.  0.
         25    1    1    2    0    0  0.17789214500E+03 -0.65684564694E+02 -0.27107610844E+03  0.35364860223E+03  0.12500000000E+03 0.  0.
</event>
<event>
 4    0  0.2190908E-002  0.2038007E+03  0.7546771E-02  0.1146571E+00
         21   -1    0    0  502  501  0.00000000000E+00  0.00000000000E+00  0.95880707501E+02  0.95880707501E+02  0.00000000000E+00 0.  1.
         21   -1    0    0  501  502 -0.00000000000E+00 -0.00000000000E+00 -0.43319165729E+03  0.43319165729E+03  0.00000000000E+00 0.  1.
         25    1    1    2    0    0  0.55158338300E+02 -0.48336695383E+02 -0.35464257723E+03  0.38311256308E+03  0.12500000000E+03 0.  0.
         25    1    1    2    0    0 -0.55158338300E+02  0.48336695383E+02  0.17331627445E+02  0.14595980171E+03  0.12500000000E+03 0.  0.
</event>
<event>
 4    0  0.2190908E-002  0.1970816E+03  0.7546771E-02  0.1152225E+00
         21   -1    0    0  502  501  0.00000000000E+00  0.00000000000E+00  0.13639702333E+03  0.13639702333E+03  0.00000000000E+00 0. -1.
         21   -1    0    0  501  502 -0.00000000000E+00 -0.00000000000E+00 -0.28476529953E+03  0.28476529953E+03  0.00000000000E+00 0. -1.
         25    1    1    2    0    0 -0.96400347095E+00  0.14713867240E+03 -0.31908603052E+02  0.19568821417E+03  0.12500000000E+03 0.  0.
         25    1    1    2    0    0  0.96400347095E+00 -0.14713867240E+03 -0.11645967315E+03  0.22547410869E+03  0.12500000000E+03 0.  0.
</event>
<event>
 4    0  0.2190908E-002  0.2725385E+03  0.7546771E-02  0.1099835E+00
         21   -1    0    0  502  501  0.00000000000E+00  0.00000000000E+00  0.12265253742E+03  0.12265253742E+03  0.00000000000E+00 0. -1.
         21   -1    0    0  501  502 -0.00000000000E+00 -0.00000000000E+00 -0.60559061861E+03  0.60559061861E+03  0.00000000000E+00 0. -1.
         25    1    1    2    0    0 -0.59339157322E+02 -0.11590729765E+03 -0.51428441516E+03  0.54504045438E+03  0.12500000000E+03 0.  0.
         25    1    1    2    0    0  0.59339157322E+02  0.11590729765E+03  0.31346333971E+02  0.18320270165E+03  0.12500000000E+03 0.  0.
</event>
<event>
 4    0  0.2190908E-002  0.3812708E+03  0.7546771E-02  0.1050465E+00
         21   -1    0    0  502  501  0.00000000000E+00  0.00000000000E+00  0.77151093733E+03  0.77151093733E+03  0.00000000000E+00 0. -1.
         21   -1    0    0  501  502 -0.00000000000E+00 -0.00000000000E+00 -0.18841908703E+03  0.18841908703E+03  0.00000000000E+00 0.  1.
         25    1    1    2    0    0 -0.47315333604E+02 -0.34023071805E+03  0.42798353543E+03  0.56284153090E+03  0.12500000000E+03 0.  0.
         25    1    1    2    0    0  0.47315333604E+02  0.34023071805E+03  0.15510831487E+03  0.39708849346E+03  0.12500000000E+03 0.  0.
</event>
<event>
 4    0  0.2190908E-002  0.2146860E+03  0.7546771E-02  0.1137908E+00
         21   -1    0    0  502  501  0.00000000000E+00  0.00000000000E+00  0.36747150204E+03  0.36747150204E+03  0.00000000000E+00 0.  1.
         21   -1    0    0  501  502 -0.00000000000E+00 -0.00000000000E+00 -0.12542491354E+03  0.12542491354E+03  0.00000000000E+00 0.  1.
         25    1    1    2    0    0 -0.15554366142E+03 -0.78383487761E+02  0.13397423585E+03  0.25280802525E+03  0.12500000000E+03 0.  0.
         25    1    1    2    0    0  0.15554366142E+03  0.78383487761E+02  0.10807235265E+03  0.24008839032E+03  0.12500000000E+03 0.  0.
</event>
<event>
 4    0  0.2190908E-002  0.2404024E+03  0.7546771E-02  0.1119525E+00
         21   -1    0    0  502  501  0.00000000000E+00  0.00000000000E+00  0.97618605410E+02  0.97618605410E+02  0.00000000000E+00 0. -1.
         21   -1    0    0  501  502 -0.00000000000E+00 -0.00000000000E+00 -0.59203182486E+03  0.59203182486E+03  0.00000000000E+00 0. -1.
         25    1    1    2    0    0 -0.15769840937E+03 -0.45049130827E+02 -0.69958646791E+02  0.21775542420E+03  0.12500000000E+03 0.  0.
         25    1    1    2    0    0  0.15769840937E+03  0.45049130827E+02 -0.42445457266E+03  0.47189500607E+03  0.12500000000E+03 0.  0.
</event>
<event>
 4    0  0.2190908E-002  0.2719290E+03  0.7546771E-02  0.1100181E+00
         21   -1    0    0  502  501  0.00000000000E+00  0.00000000000E+00  0.48076193407E+03  0.48076193407E+03  0.00000000000E+00 0.  1.
         21   -1    0    0  501  502 -0.00000000000E+00 -0.00000000000E+00 -0.15380869653E+03  0.15380869653E+03  0.00000000000E+00 0.  1.
         25    1    1    2    0    0 -0.11535630085E+03 -0.18804362679E+03  0.48840084177E+02  0.25822051728E+03  0.12500000000E+03 0.  0.
         25    1    1    2    0    0  0.11535630085E+03  0.18804362679E+03  0.27811315336E+03  0.37635011332E+03  0.12500000000E+03 0.  0.
</event>
<event>
 4    0  0.2190908E-002  0.1905926E+03  0.7546771E-02  0.1157928E+00
         21   -1    0    0  502  501  0.00000000000E+00  0.00000000000E+00  0.11305532885E+02  0.11305532885E+02  0.00000000000E+00 0. -1.
         21   -1    0    0  501  502 -0.00000000000E+00 -0.00000000000E+00 -0.32130752092E+04  0.32130752092E+04  0.00000000000E+00 0. -1.
         25    1    1    2    0    0  0.46021661023E+02 -0.12685143633E+03 -0.11786843070E+04  0.11929505336E+04  0.12500000000E+03 0.  0.
         25    1    1    2    0    0 -0.46021661023E+02  0.12685143633E+03 -0.20230853694E+04  0.20314302085E+04  0.12500000000E+03 0.  0.
</event>
<event>
 4    0  0.2190908E-002  0.2170472E+03  0.7546771E-02  0.1136104E+00
         21   -1    0    0  502  501  0.00000000000E+00  0.00000000000E+00  0.54230672231E+02  0.54230672231E+02  0.00000000000E+00 0.  1.
         21   -1    0    0  501  502 -0.00000000000E+00 -0.00000000000E+00 -0.86868743617E+03  0.86868743617E+03  0.00000000000E+00 0.  1.
         25    1    1    2    0    0 -0.28368967508E+02  0.81109788027E+02 -0.73729044225E+03  0.75273221817E+03  0.12500000000E+03 0.  0.
         25    1    1    2    0    0  0.28368967508E+02 -0.81109788027E+02 -0.77166321685E+02  0.17018589023E+03  0.12500000000E+03 0.  0.
</event>
<event>
 4    0  0.2190908E-002  0.2668780E+03  0.7546771E-02  0.1103080E+00
         21   -1    0    0  502  501  0.00000000000E+00  0.00000000000E+00  0.87862564752E+02  0.87862564752E+02  0.00000000000E+00 0.  1.
         21   -1    0    0  501  502 -0.00000000000E+00 -0.00000000000E+00 -0.81062829777E+03  0.81062829777E+03  0.00000000000E+00 0.  1.
         25    1    1    2    0    0  0.12640487966E+03 -0.15184063253E+03 -0.57803751574E+03  0.62352717735E+03  0.12500000000E+03 0.  0.
         25    1    1    2    0    0 -0.12640487966E+03  0.15184063253E+03 -0.14472821727E+03  0.27496368517E+03  0.12500000000E+03 0.  0.
</event>
<event>
 4    0  0.2190908E-002  0.1800297E+03  0.7546771E-02  0.1167774E+00
         21   -1    0    0  502  501  0.00000000000E+00  0.00000000000E+00  0.15020562443E+03  0.15020562443E+03  0.00000000000E+00 0.  1.
         21   -1    0    0  501  502 -0.00000000000E+00 -0.00000000000E+00 -0.21577555560E+03  0.21577555560E+03  0.00000000000E+00 0.  1.
         25    1    1    2    0    0 -0.66941267806E+02 -0.85160797531E+02 -0.10503284741E+03  0.19593466719E+03  0.12500000000E+03 0.  0.
         25    1    1    2    0    0  0.66941267806E+02  0.85160797531E+02  0.39462916246E+02  0.17004651284E+03  0.12500000000E+03 0.  0.
</event>
<event>
 4    0  0.2190908E-002  0.2838348E+03  0.7546771E-02  0.1093613E+00
         21   -1    0    0  502  501  0.00000000000E+00  0.00000000000E+00  0.23419063281E+03  0.23419063281E+03  0.00000000000E+00 0.  1.
         21   -1    0    0  501  502 -0.00000000000E+00 -0.00000000000E+00 -0.34400265999E+03  0.34400265999E+03  0.00000000000E+00 0.  1.
         25    1    1    2    0    0 -0.11232883643E+03 -0.21475613083E+03  0.25288845339E+02  0.27386582284E+03  0.12500000000E+03 0.  0.
         25    1    1    2    0    0  0.11232883643E+03  0.21475613083E+03 -0.13510087252E+03  0.30432746997E+03  0.12500000000E+03 0.  0.
</event>
<event>
 4    0  0.2190908E-002  0.2825542E+03  0.7546771E-02  0.1094302E+00
         21   -1    0    0  502  501  0.00000000000E+00  0.00000000000E+00  0.34876701922E+03  0.34876701922E+03  0.00000000000E+00 0.  1.
         21   -1    0    0  501  502 -0.00000000000E+00 -0.00000000000E+00 -0.22891170199E+03  0.22891170199E+03  0.00000000000E+00 0.  1.
         25    1    1    2    0    0  0.22503191221E+03 -0.20140317385E+02  0.17722704763E+03  0.31317634060E+03  0.12500000000E+03 0.  0.
         25    1    1    2    0    0 -0.22503191221E+03  0.20140317385E+02 -0.57371730401E+02  0.26450238061E+03  0.12500000000E+03 0.  0.
</event>
<event>
 4    0  0.2190908E-002  0.2323100E+03  0.7546771E-02  0.1125024E+00
         21   -1    0    0  502  501  0.00000000000E+00  0.00000000000E+00  0.16494524937E+03  0.16494524937E+03  0.00000000000E+00 0.  1.
         21   -1    0    0  501  502 -0.00000000000E+00 -0.00000000000E+00 -0.32718706171E+03  0.32718706171E+03  0.00000000000E+00 0.  1.
         25    1    1    2    0    0 -0.19389361031E+03  0.25891835232E+02 -0.90465569418E+02  0.24914682118E+03  0.12500000000E+03 0.  0.
         25    1    1    2    0    0  0.19389361031E+03 -0.25891835232E+02 -0.71776242924E+02  0.24298548990E+03  0.12500000000E+03 0.  0.
</event>
<event>
 4    0  0.2190908E-002  0.3431945E+03  0.7546771E-02  0.1065443E+00
         21   -1    0    0  502  501  0.00000000000E+00  0.00000000000E+00  0.42656724589E+03  0.42656724589E+03  0.00000000000E+00 0. -1.
         21   -1    0    0  501  502 -0.00000000000E+00 -0.00000000000E+00 -0.27611691803E+03  0.27611691803E+03  0.00000000000E+00 0. -1.
         25    1    1    2    0    0  0.31865606432E+03  0.23902109401E+02  0.82049383928E+02  0.35280320231E+03  0.12500000000E+03 0.  0.
         25    1    1    2    0    0 -0.31865606432E+03 -0.23902109401E+02  0.68400943930E+02  0.34988096160E+03  0.12500000000E+03 0.  0.
</event>
<event>
 4    0  0.2190908E-002  0.3339107E+03  0.7546771E-02  0.1069419E+00
         21   -1    0    0  502  501  0.00000000000E+00  0.00000000000E+00  0.27327734385E+04  0.27327734385E+04  0.00000000000E+00 0.  1.
         21   -1    0    0  501  502 -0.00000000000E+00 -0.00000000000E+00 -0.40799705024E+02  0.40799705024E+02  0.00000000000E+00 0.  1.
         25    1    1    2    0    0 -0.77300902710E+01  0.30870406774E+03  0.14400901745E+04  0.14781213301E+04  0.12500000000E+03 0.  0.
         25    1    1    2    0    0  0.77300902710E+01 -0.30870406774E+03  0.12518835590E+04  0.12954518135E+04  0.12500000000E+03 0.  0.
</event>
<event>
 4    0  0.2190908E-002  0.2688347E+03  0.7546771E-02  0.1101948E+00
         21   -1    0    0  502  501  0.00000000000E+00  0.00000000000E+00  0.14953747317E+03  0.14953747317E+03  0.00000000000E+00 0.  1.
         21   -1    0    0  501  502 -0.00000000000E+00 -0.00000000000E+00 -0.48330411158E+03  0.48330411158E+03  0.00000000000E+00 0.  1.
         25    1    1    2    0    0 -0.10247550948E+03  0.16271430021E+03 -0.18084929137E+01  0.22935876740E+03  0.12500000000E+03 0.  0.
         25    1    1    2    0    0  0.10247550948E+03 -0.16271430021E+03 -0.33195814550E+03  0.40348281735E+03  0.12500000000E+03 0.  0.
</event>
<event>
 4    0  0.2190908E-002  0.2128852E+03  0.7546771E-02  0.1139301E+00
         21   -1    0    0  502  501  0.00000000000E+00  0.00000000000E+00  0.20196956871E+03  0.20196956871E+03  0.00000000000E+00 0.  1.
         21   -1    0    0  501  502 -0.00000000000E+00 -0.00000000000E+00 -0.22439085719E+03  0.22439085719E+03  0.00000000000E+00 0.  1.
         25    1    1    2    0    0  0.14481203244E+03  0.90886638892E+02 -0.32786235044E+02  0.21431482234E+03  0.12500000000E+03 0.  0.
         25    1    1    2    0    0 -0.14481203244E+03 -0.90886638892E+02  0.10364946568E+02  0.21204560355E+03  0.12500000000E+03 0.  0.
</event>
<event>
 4    0  0.2190908E-002  0.1548173E+03  0.7546771E-02  0.1194675E+00
         21   -1    0    0  502  501  0.00000000000E+00  0.00000000000E+00  0.14009403549E+02  0.14009403549E+02  0.00000000000E+00 0. -1.
         21   -1    0    0  501  502 -0.00000000000E+00 -0.00000000000E+00 -0.17108783449E+04  0.17108783449E+04  0.00000000000E+00 0. -1.
         25    1    1    2    0    0 -0.61902232537E+02  0.55037240372E+02 -0.63395076978E+03  0.65144421306E+03  0.12500000000E+03 0.  0.
         25    1    1    2    0    0  0.61902232537E+02 -0.55037240372E+02 -0.10629181716E+04  0.10734435354E+04  0.12500000000E+03 0.  0.
</event>
<event>
 4    0  0.2190908E-002  0.2266247E+03  0.7546771E-02  0.1129038E+00
         21   -1    0    0  502  501  0.00000000000E+00  0.00000000000E+00  0.82408587901E+02  0.82408587901E+02  0.00000000000E+00 0. -1.
         21   -1    0    0  501  502 -0.00000000000E+00 -0.00000000000E+00 -0.62322094934E+03  0.62322094934E+03  0.00000000000E+00 0. -1.
         25    1    1    2    0    0  0.33983465420E+02  0.10966389994E+03 -0.50420315182E+03  0.53200269283E+03  0.12500000000E+03 0.  0.
         25    1    1    2    0    0 -0.33983465420E+02 -0.10966389994E+03 -0.36609209623E+02  0.17362684442E+03  0.12500000000E+03 0.  0.
</event>
<event>
 4    0  0.2190908E-002  0.2149018E+03  0.7546771E-02  0.1137742E+00
         21   -1    0    0  502  501  0.00000000000E+00  0.00000000000E+00  0.46255473388E+03  0.46255473388E+03  0.00000000000E+00 0.  1.
         21   -1    0    0  501  502 -0.00000000000E+00 -0.00000000000E+00 -0.99842862662E+02  0.99842862662E+02  0.00000000000E+00 0.  1.
         25    1    1    2    0    0 -0.14278453837E+03  0.38617798574E+02  0.59454455716E+02  0.20257983875E+03  0.12500000000E+03 0.  0.
         25    1    1    2    0    0  0.14278453837E+03 -0.38617798574E+02  0.30325741550E+03  0.35981775779E+03  0.12500000000E+03 0.  0.
</event>
<event>
 4    0  0.2190908E-002  0.4648664E+03  0.7546771E-02  0.1023379E+00
         21   -1    0    0  502  501  0.00000000000E+00  0.00000000000E+00  0.68771288386E+03  0.68771288386E+03  0.00000000000E+00 0. -1.
         21   -1    0    0  501  502 -0.00000000000E+00 -0.00000000000E+00 -0.31423113935E+03  0.31423113935E+03  0.00000000000E+00 0.  1.
         25    1    1    2    0    0 -0.25121154562E+03  0.28903045818E+03 -0.63292102494E+02  0.40777044602E+03  0.12500000000E+03 0.  0.
         25    1    1    2    0    0  0.25121154562E+03 -0.28903045818E+03  0.43677384701E+03  0.59417357720E+03  0.12500000000E+03 0.  0.
</event>
<event>
 4    0  0.2190908E-002  0.2592412E+03  0.7546771E-02  0.1107600E+00
         21   -1    0    0  502  501  0.00000000000E+00  0.00000000000E+00  0.51651027665E+03  0.51651027665E+03  0.00000000000E+00 0.  1.
         21   -1    0    0  501  502 -0.00000000000E+00 -0.00000000000E+00 -0.13011553991E+03  0.13011553991E+03  0.00000000000E+00 0.  1.
         25    1    1    2    0    0 -0.21594830755E+03  0.21951387126E+02  0.27653726973E+03  0.37311311486E+03  0.12500000000E+03 0.  0.
         25    1    1    2    0    0  0.21594830755E+03 -0.21951387126E+02  0.10985746701E+03  0.27351270170E+03  0.12500000000E+03 0.  0.
</event>
<event>
 4    0  0.2190908E-002  0.3197667E+03  0.7546771E-02  0.1075757E+00
         21   -1    0    0  502  501  0.00000000000E+00  0.00000000000E+00  0.44441849460E+03  0.44441849460E+03  0.00000000000E+00 0. -1.
         21   -1    0    0  501  502 -0.00000000000E+00 -0.00000000000E+00 -0.23007762100E+03  0.23007762100E+03  0.00000000000E+00 0. -1.
         25    1    1    2    0    0  0.10807417698E+03 -0.17042142048E+03  0.33313131214E+03  0.40905373659E+03  0.12500000000E+03 0.  0.
         25    1    1    2    0    0 -0.10807417698E+03  0.17042142048E+03 -0.11879043854E+03  0.26544237901E+03  0.12500000000E+03 0.  0.
</event>
<event>
 4    0  0.2190908E-002  0.2314197E+03  0.7546771E-02  0.1125644E+00
         21   -1    0    0  502  501  0.00000000000E+00  0.00000000000E+00  0.27775515823E+02  0.27775515823E+02  0.00000000000E+00 0. -1.
         21   -1    0    0  501  502 -0.00000000000E+00 -0.00000000000E+00 -0.19281400471E+04  0.19281400471E+04  0.00000000000E+00 0. -1.
         25    1    1    2    0    0  0.20682708082E+02  0.10847302808E+03 -0.27224495622E+03  0.31927494174E+03  0.12500000000E+03 0.  0.
         25    1    1    2    0    0 -0.20682708082E+02 -0.10847302808E+03 -0.16281195751E+04  0.16366406212E+04  0.12500000000E+03 0.  0.
</event>
<event>
 4    0  0.2190908E-002  0.2367856E+03  0.7546771E-02  0.1121953E+00
         21   -1    0    0  502  501  0.00000000000E+00  0.00000000000E+00  0.57311274271E+03  0.57311274271E+03  0.00000000000E+00 0. -1.
         21   -1    0    0  501  502 -0.00000000000E+00 -0.00000000000E+00 -0.97829654276E+02  0.97829654276E+02  0.00000000000E+00 0. -1.
         25    1    1    2    0    0 -0.18289131909E+03  0.54297131155E+02  0.14753430906E+03  0.27164091260E+03  0.12500000000E+03 0.  0.
         25    1    1    2    0    0  0.18289131909E+03 -0.54297131155E+02  0.32774877938E+03  0.39930148439E+03  0.12500000000E+03 0.  0.
</event>
<event>
 4    0  0.2190908E-002  0.2019382E+03  0.7546771E-02  0.1148114E+00
         21   -1    0    0  502  501  0.00000000000E+00  0.00000000000E+00  0.13750261344E+03  0.13750261344E+03  0.00000000000E+00 0.  1.
         21   -1    0    0  501  502 -0.00000000000E+00 -0.00000000000E+00 -0.29656917121E+03  0.29656917121E+03  0.00000000000E+00 0.  1.
         25    1    1    2    0    0  0.44352711266E+02 -0.15026374204E+03 -0.53039074001E+02  0.20732703282E+03  0.12500000000E+03 0.  0.
         25    1    1    2    0    0 -0.44352711266E+02  0.15026374204E+03 -0.10602748378E+03  0.22674475183E+03  0.12500000000E+03 0.  0.
</event>
<event>
 4    0  0.2190908E-002  0.1951337E+03  0.7546771E-02  0.1153911E+00
         21   -1    0    0  502  501  0.00000000000E+00  0.00000000000E+00  0.76792524991E+03  0.76792524991E+03  0.00000000000E+00 0. -1.
         21   -1    0    0  501  502 -0.00000000000E+00 -0.00000000000E+00 -0.49584462794E+02  0.49584462794E+02  0.00000000000E+00 0. -1.
         25    1    1    2    0    0  0.97273928216E+02 -0.27940827568E+01  0.59784363918E+03  0.61847557827E+03  0.12500000000E+03 0.  0.
         25    1    1    2    0    0 -0.97273928216E+02  0.27940827568E+01  0.12049714794E+03  0.19903413443E+03  0.12500000000E+03 0.  0.
</event>
<event>
 4    0  0.2190908E-002  0.1785837E+03  0.7546771E-02  0.1169181E+00
         21   -1    0    0  502  501  0.00000000000E+00  0.00000000000E+00  0.12020380152E+03  0.12020380152E+03  0.00000000000E+00 0.  1.
         21   -1    0    0  501  502 -0.00000000000E+00 -0.00000000000E+00 -0.26531734403E+03  0.26531734403E+03  0.00000000000E+00 0.  1.
         25    1    1    2    0    0  0.10325823333E+03 -0.46594740924E+02 -0.13580743615E+03  0.21656867813E+03  0.12500000000E+03 0.  0.
         25    1    1    2    0    0 -0.10325823333E+03  0.46594740924E+02 -0.93061063539E+01  0.16895246742E+03  0.12500000000E+03 0.  0.
</event>
<event>
 4    0  0.2190908E-002  0.2186179E+03  0.7546771E-02  0.1134918E+00
         21   -1    0    0  502  501  0.00000000000E+00  0.00000000000E+00  0.15405731036E+03  0.15405731036E+03  0.00000000000E+00 0. -1.
         21   -1    0    0  501  502 -0.00000000000E+00 -0.00000000000E+00 -0.31023384564E+03  0.31023384564E+03  0.00000000000E+00 0. -1.
         25    1    1    2    0    0  0.49183138622E+02  0.33989698528E+02 -0.25765091901E+03  0.29254619601E+03  0.12500000000E+03 0.  0.
         25    1    1    2    0    0 -0.49183138622E+02 -0.33989698528E+02  0.10147438373E+03  0.17174496000E+03  0.12500000000E+03 0.  0.
</event>
<event>
 4    0  0.2190908E-002  0.2700167E+03  0.7546771E-02  0.1101270E+00
         21   -1    0    0  502  501  0.00000000000E+00  0.00000000000E+00  0.59399754608E+03  0.59399754608E+03  0.00000000000E+00 0.  1.
         21   -1    0    0  501  502 -0.00000000000E+00 -0.00000000000E+00 -0.12274299962E+03  0.12274299962E+03  0.00000000000E+00 0.  1.
         25    1    1    2    0    0 -0.57096677098E+01 -0.11838145649E+03 -0.40348159676E+02  0.17691733531E+03  0.12500000000E+03 0.  0.
         25    1    1    2    0    0  0.57096677098E+01  0.11838145649E+03  0.51160270614E+03  0.53982321039E+03  0.12500000000E+03 0.  0.
</event>
<event>
 4    0  0.2190908E-002  0.2304508E+03  0.7546771E-02  0.1126323E+00
         21   -1    0    0  502  501  0.00000000000E+00  0.00000000000E+00  0.33187172760E+03  0.33187172760E+03  0.00000000000E+00 0.  1.
         21   -1    0    0  501  502 -0.00000000000E+00 -0.00000000000E+00 -0.16002442258E+03  0.16002442258E+03  0.00000000000E+00 0.  1.
         25    1    1    2    0    0  0.67132342796E+02  0.83312023979E+02  0.25812772949E+03  0.30610875440E+03  0.12500000000E+03 0.  0.
         25    1    1    2    0    0 -0.67132342796E+02 -0.83312023979E+02 -0.86280424467E+02  0.18578739579E+03  0.12500000000E+03 0.  0.
</event>
<event>
 4    0  0.2190908E-002  0.1807427E+03  0.7546771E-02  0.1167086E+00
         21   -1    0    0  502  501  0.00000000000E+00  0.00000000000E+00  0.78550370474E+03  0.78550370474E+03  0.00000000000E+00 0. -1.
         21   -1    0    0  501  502 -0.00000000000E+00 -0.00000000000E+00 -0.41588523165E+02  0.41588523165E+02  0.00000000000E+00 0. -1.
         25    1    1    2    0    0 -0.91400599837E+02  0.45288380065E+01  0.58498305512E+03  0.60514853945E+03  0.12500000000E+03 0.  0.
         25    1    1    2    0    0  0.91400599837E+02 -0.45288380065E+01  0.15893212646E+03  0.22194368845E+03  0.12500000000E+03 0.  0.
</event>
<event>
 4    0  0.2190908E-002  0.2435388E+03  0.7546771E-02  0.1117458E+00
         21   -1    0    0  502  501  0.00000000000E+00  0.00000000000E+00  0.28489262935E+03  0.28489262935E+03  0.00000000000E+00 0.  1.
         21   -1    0    0  501  502 -0.00000000000E+00 -0.00000000000E+00 -0.20818766558E+03  0.20818766558E+03  0.00000000000E+00 0.  1.
         25    1    1    2    0    0  0.95881685984E+01 -0.14415873524E+03  0.19125181229E+03  0.27032559929E+03  0.12500000000E+03 0.  0.
         25    1    1    2    0    0 -0.95881685984E+01  0.14415873524E+03 -0.11454684852E+03  0.22275469564E+03  0.12500000000E+03 0.  0.
</event>
<event>
 4    0  0.2190908E-002  0.2288474E+03  0.7546771E-02  0.1127454E+00
         21   -1    0    0  502  501  0.00000000000E+00  0.00000000000E+00  0.40979411652E+03  0.40979411652E+03  0.00000000000E+00 0.  1.
         21   -1    0    0  501  502 -0.00000000000E+00 -0.00000000000E+00 -0.12779860132E+03  0.12779860132E+03  0.00000000000E+00 0.  1.
         25    1    1    2    0    0 -0.97623431268E+02 -0.79219111836E+02 -0.28970170823E+02  0.17963928526E+03  0.12500000000E+03 0.  0.
         25    1    1    2    0    0  0.97623431268E+02  0.79219111836E+02  0.31096568603E+03  0.35795343258E+03  0.12500000000E+03 0.  0.
</event>
<event>
 4    0  0.2190908E-002  0.1748934E+03  0.7546771E-02  0.1172839E+00
         21   -1    0    0  502  501  0.00000000000E+00  0.00000000000E+00  0.89250210724E+02  0.89250210724E+02  0.00000000000E+00 0. -1.
         21   -1    0    0  501  502 -0.00000000000E+00 -0.00000000000E+00 -0.34271838376E+03  0.34271838376E+03  0.00000000000E+00 0. -1.
         25    1    1    2    0    0  0.75976037636E+02 -0.93100930168E+02 -0.98504058200E+02  0.19941963538E+03  0.12500000000E+03 0.  0.
         25    1    1    2    0    0 -0.75976037636E+02  0.93100930168E+02 -0.15496411484E+03  0.23254895910E+03  0.12500000000E+03 0.  0.
</event>
<event>
 4    0  0.2190908E-002  0.2344081E+03  0.7546771E-02  0.1123575E+00
         21   -1    0    0  502  501  0.00000000000E+00  0.00000000000E+00  0.29162886567E+03  0.29162886567E+03  0.00000000000E+00 0.  1.
         21   -1    0    0  501  502 -0.00000000000E+00 -0.00000000000E+00 -0.18841471097E+03  0.18841471097E+03  0.00000000000E+00 0.  1.
         25    1    1    2    0    0  0.11368426557E+02  0.14557443637E+03  0.18898800823E+03  0.26956005806E+03  0.12500000000E+03 0.  0.
         25    1    1    2    0    0 -0.11368426557E+02 -0.14557443637E+03 -0.85773853532E+02  0.21048351858E+03  0.12500000000E+03 0.  0.
</event>
<event>
 4    0  0.2190908E-002  0.2721250E+03  0.7546771E-02  0.1100070E+00
         21   -1    0    0  502  501  0.00000000000E+00  0.00000000000E+00  0.11562826472E+04  0.11562826472E+04  0.00000000000E+00 0.  1.
         21   -1    0    0  501  502 -0.00000000000E+00 -0.00000000000E+00 -0.64043158711E+02  0.64043158711E+02  0.00000000000E+00 0.  1.
         25    1    1    2    0    0 -0.10562332784E+03 -0.55626495011E+02  0.74846723238E+02  0.18835505385E+03  0.12500000000E+03 0.  0.
         25    1    1    2    0    0  0.10562332784E+03  0.55626495011E+02  0.10173927653E+04  0.10319707521E+04  0.12500000000E+03 0.  0.
</event>
<event>
 4    0  0.2190908E-002  0.2267232E+03  0.7546771E-02  0.1128968E+00
         21   -1    0    0  502  501  0.00000000000E+00  0.00000000000E+00  0.21929985783E+02  0.21929985783E+02  0.00000000000E+00 0. -1.
         21   -1    0    0  501  502 -0.00000000000E+00 -0.00000000000E+00 -0.23439778559E+04  0.23439778559E+04  0.00000000000E+00 0. -1.
         25    1    1    2    0    0 -0.16463200298E+03  0.48294654052E+02 -0.74549970449E+03  0.77513281405E+03  0.12500000000E+03 0.  0.
         25    1    1    2    0    0  0.16463200298E+03 -0.48294654052E+02 -0.15765481657E+04  0.15907750277E+04  0.12500000000E+03 0.  0.
</event>
<event>
 4    0  0.2190908E-002  0.2116949E+03  0.7546771E-02  0.1140231E+00
         21   -1    0    0  502  501  0.00000000000E+00  0.00000000000E+00  0.64234781398E+02  0.64234781398E+02  0.00000000000E+00 0.  1.
         21   -1    0    0  501  502 -0.00000000000E+00 -0.00000000000E+00 -0.69767098640E+03  0.69767098640E+03  0.00000000000E+00 0.  1.
         25    1    1    2    0    0 -0.22247270099E+02  0.22527232437E+02 -0.14592347441E+02  0.12977038889E+03  0.12500000000E+03 0.  0.
         25    1    1    2    0    0  0.22247270099E+02 -0.22527232437E+02 -0.61884385756E+03  0.63213537891E+03  0.12500000000E+03 0.  0.
</event>
<event>
 4    0  0.2190908E-002  0.1854280E+03  0.7546771E-02  0.1162651E+00
         21   -1    0    0  502  501  0.00000000000E+00  0.00000000000E+00  0.62337821046E+03  0.62337821046E+03  0.00000000000E+00 0. -1.
         21   -1    0    0  501  502 -0.00000000000E+00 -0.00000000000E+00 -0.55156809199E+02  0.55156809199E+02  0.00000000000E+00 0. -1.
         25    1    1    2    0    0  0.13578085302E+03 -0.17751088155E+02  0.28895557736E+03  0.34332472510E+03  0.12500000000E+03 0.  0.
         25    1    1    2    0    0 -0.13578085302E+03  0.17751088155E+02  0.27926582390E+03  0.33521029456E+03  0.12500000000E+03 0.  0.
</event>
<event>
 4    0  0.2190908E-002  0.2234233E+03  0.7546771E-02  0.1131356E+00
         21   -1    0    0  502  501  0.00000000000E+00  0.00000000000E+00  0.17196436337E+04  0.17196436337E+04  0.00000000000E+00 0. -1.
         21   -1    0    0  501  502 -0.00000000000E+00 -0.00000000000E+00 -0.29028092651E+02  0.29028092651E+02  0.00000000000E+00 0. -1.
         25    1    1    2    0    0 -0.60933043431E+02 -0.41091698690E+02  0.15104824290E+04  0.15174266150E+04  0.12500000000E+03 0.  0.
         25    1    1    2    0    0  0.60933043431E+02  0.41091698690E+02  0.18013311204E+03  0.23124511138E+03  0.12500000000E+03 0.  0.
</event>
<event>
 4    0  0.2190908E-002  0.2637574E+03  0.7546771E-02  0.1104906E+00
         21   -1    0    0  502  501  0.00000000000E+00  0.00000000000E+00  0.11145500035E+04  0.11145500035E+04  0.00000000000E+00 0.  1.
         21   -1    0    0  501  502 -0.00000000000E+00 -0.00000000000E+00 -0.62418003604E+02  0.62418003604E+02  0.00000000000E+00 0.  1.
         25    1    1    2    0    0  0.19446793023E+03 -0.11469747767E+03  0.64765272277E+03  0.69717453810E+03  0.12500000000E+03 0.  0.
         25    1    1    2    0    0 -0.19446793023E+03  0.11469747767E+03  0.40447927714E+03  0.47979346901E+03  0.12500000000E+03 0.  0.
</event>
<event>
 4    0  0.2190908E-002  0.1891265E+03  0.7546771E-02  0.1159252E+00
         21   -1    0    0  502  501  0.00000000000E+00  0.00000000000E+00  0.15500051143E+02  0.15500051143E+02  0.00000000000E+00 0. -1.
         21   -1    0    0  501  502 -0.00000000000E+00 -0.00000000000E+00 -0.23076591658E+04  0.23076591658E+04  0.00000000000E+00 0. -1.
         25    1    1    2    0    0  0.17327603865E+02  0.79186352195E+02 -0.43053566456E+03  0.45558389204E+03  0.12500000000E+03 0.  0.
         25    1    1    2    0    0 -0.17327603865E+02 -0.79186352195E+02 -0.18616234501E+04  0.18675753249E+04  0.12500000000E+03 0.  0.
</event>
<event>
 4    0  0.2190908E-002  0.3098024E+03  0.7546771E-02  0.1080441E+00
         21   -1    0    0  502  501  0.00000000000E+00  0.00000000000E+00  0.23633014377E+03  0.23633014377E+03  0.00000000000E+00 0. -1.
         21   -1    0    0  501  502 -0.00000000000E+00 -0.00000000000E+00 -0.40611620533E+03  0.40611620533E+03  0.00000000000E+00 0. -1.
         25    1    1    2    0    0 -0.61138687442E+02  0.20070898114E+03 -0.28252520136E+03  0.37345350931E+03  0.12500000000E+03 0.  0.
         25    1    1    2    0    0  0.61138687442E+02 -0.20070898114E+03  0.11273913980E+03  0.26899283979E+03  0.12500000000E+03 0.  0.
</event>
<event>
 4    0  0.2190908E-002  0.1800995E+03  0.7546771E-02  0.1167707E+00
         21   -1    0    0  502  501  0.00000000000E+00  0.00000000000E+00  0.30597782396E+02  0.30597782396E+02  0.00000000000E+00 0.  1.
         21   -1    0    0  501  502 -0.00000000000E+00 -0.00000000000E+00 -0.10600718056E+04  0.10600718056E+04  0.00000000000E+00 0.  1.
         25    1    1    2    0    0  0.10572186768E+03  0.39292237866E+02 -0.70838119149E+03  0.72811393732E+03  0.12500000000E+03 0.  0.
         25    1    1    2    0    0 -0.10572186768E+03 -0.39292237866E+02 -0.32109283176E+03  0.36255565072E+03  0.12500000000E+03 0.  0.
</event>
<event>
 4    0  0.2190908E-002  0.2459743E+03  0.7546771E-02  0.1115876E+00
         21   -1    0    0  502  501  0.00000000000E+00  0.00000000000E+00  0.47613288652E+03  0.47613288652E+03  0.00000000000E+00 0.  1.
         21   -1    0    0  501  502 -0.00000000000E+00 -0.00000000000E+00 -0.12707243087E+03  0.12707243087E+03  0.00000000000E+00 0.  1.
         25    1    1    2    0    0 -0.41796605694E+01  0.13189673020E+03  0.37773245282E+03  0.41919091463E+03  0.12500000000E+03 0.  0.
         25    1    1    2    0    0  0.41796605694E+01 -0.13189673020E+03 -0.28671997169E+02  0.18401440276E+03  0.12500000000E+03 0.  0.
</event>
<event>
 4    0  0.2190908E-002  0.2077965E+03  0.7546771E-02  0.1143323E+00
         21   -1    0    0  502  501  0.00000000000E+00  0.00000000000E+00  0.47085072932E+03  0.47085072932E+03  0.00000000000E+00 0.  1.
         21   -1    0    0  501  502 -0.00000000000E+00 -0.00000000000E+00 -0.91705003568E+02  0.91705003568E+02  0.00000000000E+00 0.  1.
         25    1    1    2    0    0 -0.51135953309E+02 -0.15591908490E+03  0.15563172313E+03  0.25840255417E+03  0.12500000000E+03 0.  0.
         25    1    1    2    0    0  0.51135953309E+02  0.15591908490E+03  0.22351400262E+03  0.30415317872E+03  0.12500000000E+03 0.  0.
</event>
<event>
 4    0  0.2190908E-002  0.1785311E+03  0.7546771E-02  0.1169232E+00
         21   -1    0    0  502  501  0.00000000000E+00  0.00000000000E+00  0.22893503180E+04  0.22893503180E+04  0.00000000000E+00 0.  1.
         21   -1    0    0  501  502 -0.00000000000E+00 -0.00000000000E+00 -0.13922448319E+02  0.13922448319E+02  0.00000000000E+00 0.  1.
         25    1    1    2    0    0 -0.64088003830E+02 -0.91076947761E+02  0.73766738070E+03  0.75642610161E+03  0.12500000000E+03 0.  0.
         25    1    1    2    0    0  0.64088003830E+02  0.91076947761E+02  0.15377604890E+04  0.15468466647E+04  0.12500000000E+03 0.  0.
</event>
<event>
 4    0  0.2190908E-002  0.3047470E+03  0.7546771E-02  0.1082891E+00
         21   -1    0    0  502  501  0.00000000000E+00  0.00000000000E+00  0.11053525835E+03  0.11053525835E+03  0.00000000000E+00 0.  1.
         21   -1    0    0  501  502 -0.00000000000E+00 -0.00000000000E+00 -0.84019077609E+03  0.84019077609E+03  0.00000000000E+00 0.  1.
         25    1    1    2    0    0 -0.19862777356E+03  0.19030439460E+03 -0.30288437756E+03  0.42782321256E+03  0.12500000000E+03 0.  0.
         25    1    1    2    0    0  0.19862777356E+03 -0.19030439460E+03 -0.42677114019E+03  0.52290282188E+03  0.12500000000E+03 0.  0.
</event>
<event>
 4    0  0.2190908E-002  0.4031609E+03  0.7546771E-02  0.1042691E+00
         21   -1    0    0  502  501  0.00000000000E+00  0.00000000000E+00  0.21394321332E+03  0.21394321332E+03  0.00000000000E+00 0.  1.
         21   -1    0    0  501  502 -0.00000000000E+00 -0.00000000000E+00 -0.75972844774E+03  0.75972844774E+03  0.00000000000E+00 0.  1.
         25    1    1    2    0    0 -0.13520952630E+03  0.35799736760E+03 -0.29907200891E+03  0.50151051607E+03  0.12500000000E+03 0.  0.
         25    1    1    2    0    0  0.13520952630E+03 -0.35799736760E+03 -0.24671322551E+03  0.47216114500E+03  0.12500000000E+03 0.  0.
</event>
<event>
 4    0  0.2190908E-002  0.2963695E+03  0.7546771E-02  0.1087070E+00
         21   -1    0    0  502  501  0.00000000000E+00  0.00000000000E+00  0.69218394408E+03  0.69218394408E+03  0.00000000000E+00 0.  1.
         21   -1    0    0  501  502 -0.00000000000E+00 -0.00000000000E+00 -0.12689526164E+03  0.12689526164E+03  0.00000000000E+00 0.  1.
         25    1    1    2    0    0 -0.19654930577E+03 -0.11528817142E+03  0.47946467826E+03  0.54537543928E+03  0.12500000000E+03 0.  0.
         25    1    1    2    0    0  0.19654930577E+03  0.11528817142E+03  0.85824004180E+02  0.27370376644E+03  0.12500000000E+03 0.  0.
</event>
<event>
 4    0  0.2190908E-002  0.2571248E+03  0.7546771E-02  0.1108883E+00
         21   -1    0    0  502  501  0.00000000000E+00  0.00000000000E+00  0.27673093548E+03  0.27673093548E+03  0.00000000000E+00 0. -1.
         21   -1    0    0  501  502 -0.00000000000E+00 -0.00000000000E+00 -0.23890771493E+03  0.23890771493E+03  0.00000000000E+00 0. -1.
         25    1    1    2    0    0  0.10808418925E+03 -0.19596897277E+03  0.39018836576E+02  0.25929423415E+03  0.12500000000E+03 0.  0.
         25    1    1    2    0    0 -0.10808418925E+03  0.19596897277E+03 -0.11956160262E+01  0.25634441627E+03  0.12500000000E+03 0.  0.
</event>
<event>
 4    0  0.2190908E-002  0.2257766E+03  0.7546771E-02  0.1129648E+00
         21   -1    0    0  502  501  0.00000000000E+00  0.00000000000E+00  0.28664885031E+03  0.28664885031E+03  0.00000000000E+00 0. -1.
         21   -1    0    0  501  502 -0.00000000000E+00 -0.00000000000E+00 -0.17783099800E+03  0.17783099800E+03  0.00000000000E+00 0. -1.
         25    1    1    2    0    0  0.54351243623E+02  0.16432420385E+03 -0.21134274143E+02  0.21454174232E+03  0.12500000000E+03 0.  0.
         25    1    1    2    0    0 -0.54351243623E+02 -0.16432420385E+03  0.12995212645E+03  0.24993810599E+03  0.12500000000E+03 0.  0.
</event>
<event>
 4    0  0.2190908E-002  0.1493317E+03  0.7546771E-02  0.1201297E+00
         21   -1    0    0  502  501  0.00000000000E+00  0.00000000000E+00  0.29765953771E+03  0.29765953771E+03  0.00000000000E+00 0. -1.
         21   -1    0    0  501  502 -0.00000000000E+00 -0.00000000000E+00 -0.74917698279E+02  0.74917698279E+02  0.00000000000E+00 0. -1.
         25    1    1    2    0    0  0.21671532874E+02  0.44083430450E+02  0.19281116202E+03  0.23497691030E+03  0.12500000000E+03 0.  0.
         25    1    1    2    0    0 -0.21671532874E+02 -0.44083430450E+02  0.29930677408E+02  0.13760032568E+03  0.12500000000E+03 0.  0.
</event>
<event>
 4    0  0.2190908E-002  0.2003454E+03  0.7546771E-02  0.1149448E+00
         21   -1    0    0  502  501  0.00000000000E+00  0.00000000000E+00  0.11127210085E+03  0.11127210085E+03  0.00000000000E+00 0. -1.
         21   -1    0    0  501  502 -0.00000000000E+00 -0.00000000000E+00 -0.36072191807E+03  0.36072191807E+03  0.00000000000E+00 0. -1.
         25    1    1    2    0    0  0.15209237254E+03  0.20109501009E+02 -0.87909403220E+02  0.21653993856E+03  0.12500000000E+03 0.  0.
         25    1    1    2    0    0 -0.15209237254E+03 -0.20109501009E+02 -0.16154041400E+03  0.25545408036E+03  0.12500000000E+03 0.  0.
</event>
<event>
 4    0  0.2190908E-002  0.1779494E+03  0.7546771E-02  0.1169802E+00
         21   -1    0    0  502  501  0.00000000000E+00  0.00000000000E+00  0.13835814931E+03  0.13835814931E+03  0.00000000000E+00 0. -1.
         21   -1    0    0  501  502 -0.00000000000E+00 -0.00000000000E+00 -0.22886971644E+03  0.22886971644E+03  0.00000000000E+00 0. -1.
         25    1    1    2    0    0 -0.50426677343E+01 -0.55337196051E+02 -0.16269151484E+03  0.21255861019E+03  0.12500000000E+03 0.  0.
         25    1    1    2    0    0  0.50426677343E+01  0.55337196051E+02  0.72179947709E+02  0.15466925556E+03  0.12500000000E+03 0.  0.
</event>
<event>
 4    0  0.2190908E-002  0.1667546E+03  0.7546771E-02  0.1181275E+00
         21   -1    0    0  502  501  0.00000000000E+00  0.00000000000E+00  0.22529450920E+03  0.22529450920E+03  0.00000000000E+00 0. -1.
         21   -1    0    0  501  502 -0.00000000000E+00 -0.00000000000E+00 -0.12342553912E+03  0.12342553912E+03  0.00000000000E+00 0. -1.
         25    1    1    2    0    0 -0.45858350301E+02  0.97045584842E+02  0.24046638261E+02  0.16650547931E+03  0.12500000000E+03 0.  0.
         25    1    1    2    0    0  0.45858350301E+02 -0.97045584842E+02  0.77822331820E+02  0.18221456901E+03  0.12500000000E+03 0.  0.
</event>
<event>
 4    0  0.2190908E-002  0.2639292E+03  0.7546771E-02  0.1104805E+00
         21   -1    0    0  502  501  0.00000000000E+00  0.00000000000E+00  0.27212478100E+03  0.27212478100E+03  0.00000000000E+00 0. -1.
         21   -1    0    0  501  502 -0.00000000000E+00 -0.00000000000E+00 -0.25598048059E+03  0.25598048059E+03  0.00000000000E+00 0. -1.
         25    1    1    2    0    0 -0.43472648626E+01 -0.22113808886E+03 -0.63464285514E+02  0.26186574536E+03  0.12500000000E+03 0.  0.
         25    1    1    2    0    0  0.43472648626E+01  0.22113808886E+03  0.79608585917E+02  0.26623951624E+03  0.12500000000E+03 0.  0.
</event>
<event>
 4    0  0.2190908E-002  0.2791801E+03  0.7546771E-02  0.1096138E+00
         21   -1    0    0  502  501  0.00000000000E+00  0.00000000000E+00  0.84095944899E+02  0.84095944899E+02  0.00000000000E+00 0.  1.
         21   -1    0    0  501  502 -0.00000000000E+00 -0.00000000000E+00 -0.92681702042E+03  0.92681702042E+03  0.00000000000E+00 0.  1.
         25    1    1    2    0    0  0.23247497296E+03  0.40518037111E+02 -0.27393813082E+03  0.38256166026E+03  0.12500000000E+03 0.  0.
         25    1    1    2    0    0 -0.23247497296E+03 -0.40518037111E+02 -0.56878294470E+03  0.62835130505E+03  0.12500000000E+03 0.  0.
</event>
<event>
 4    0  0.2190908E-002  0.2702159E+03  0.7546771E-02  0.1101156E+00
         21   -1    0    0  502  501  0.00000000000E+00  0.00000000000E+00  0.75497909701E+03  0.75497909701E+03  0.00000000000E+00 0.  1.
         21   -1    0    0  501  502 -0.00000000000E+00 -0.00000000000E+00 -0.96713475358E+02  0.96713475358E+02  0.00000000000E+00 0.  1.
         25    1    1    2    0    0 -0.27799023984E+02 -0.80180098183E+02  0.68219449046E+03  0.69872452132E+03  0.12500000000E+03 0.  0.
         25    1    1    2    0    0  0.27799023984E+02  0.80180098183E+02 -0.23928868809E+02  0.15296805105E+03  0.12500000000E+03 0.  0.
</event>
<event>
 4    0  0.2190908E-002  0.2298217E+03  0.7546771E-02  0.1126765E+00
         21   -1    0    0  502  501  0.00000000000E+00  0.00000000000E+00  0.39940684768E+02  0.39940684768E+02  0.00000000000E+00 0.  1.
         21   -1    0    0  501  502 -0.00000000000E+00 -0.00000000000E+00 -0.13224114314E+04  0.13224114314E+04  0.00000000000E+00 0.  1.
         25    1    1    2    0    0 -0.17224056798E+03  0.79609992232E+02 -0.53905687594E+03  0.58498878589E+03  0.12500000000E+03 0.  0.
         25    1    1    2    0    0  0.17224056798E+03 -0.79609992232E+02 -0.74341387065E+03  0.77736333023E+03  0.12500000000E+03 0.  0.
</event>
<event>
 4    0  0.2190908E-002  0.1756606E+03  0.7546771E-02  0.1172070E+00
         21   -1    0    0  502  501  0.00000000000E+00  0.00000000000E+00  0.21582655157E+03  0.21582655157E+03  0.00000000000E+00 0.  1.
         21   -1    0    0  501  502 -0.00000000000E+00 -0.00000000000E+00 -0.14296973010E+03  0.14296973010E+03  0.00000000000E+00 0.  1.
         25    1    1    2    0    0 -0.41575139316E+02 -0.10106466335E+02  0.15465429164E+03  0.20340497239E+03  0.12500000000E+03 0.  0.
         25    1    1    2    0    0  0.41575139316E+02  0.10106466335E+02 -0.81797470178E+02  0.15539130928E+03  0.12500000000E+03 0.  0.
</event>
<event>
 4    0  0.2190908E-002  0.2065576E+03  0.7546771E-02  0.1144321E+00
         21   -1    0    0  502  501  0.00000000000E+00  0.00000000000E+00  0.16463200783E+03  0.16463200783E+03  0.00000000000E+00 0.  1.
         21   -1    0    0  501  502 -0.00000000000E+00 -0.00000000000E+00 -0.25916001590E+03  0.25916001590E+03  0.00000000000E+00 0.  1.
         25    1    1    2    0    0  0.31360277457E+02 -0.40553685053E+02 -0.20754864703E+03  0.24764795428E+03  0.12500000000E+03 0.  0.
         25    1    1    2    0    0 -0.31360277457E+02  0.40553685053E+02  0.11302063896E+03  0.17614406945E+03  0.12500000000E+03 0.  0.
</event>
<event>
 4    0  0.2190908E-002  0.2016637E+03  0.7546771E-02  0.1148343E+00
         21   -1    0    0  502  501  0.00000000000E+00  0.00000000000E+00  0.11598877540E+04  0.11598877540E+04  0.00000000000E+00 0.  1.
         21   -1    0    0  501  502 -0.00000000000E+00 -0.00000000000E+00 -0.35062233245E+02  0.35062233245E+02  0.00000000000E+00 0.  1.
         25    1    1    2    0    0 -0.31836216851E+02  0.15340640307E+03  0.62840822851E+03  0.65959758252E+03  0.12500000000E+03 0.  0.
         25    1    1    2    0    0  0.31836216851E+02 -0.15340640307E+03  0.49641729226E+03  0.53535240474E+03  0.12500000000E+03 0.  0.
</event>
<event>
 4    0  0.2190908E-002  0.1543453E+03  0.7546771E-02  0.1195233E+00
         21   -1    0    0  502  501  0.00000000000E+00  0.00000000000E+00  0.77019790369E+03  0.77019790369E+03  0.00000000000E+00 0. -1.
         21   -1    0    0  501  502 -0.00000000000E+00 -0.00000000000E+00 -0.30930324680E+02  0.30930324680E+02  0.00000000000E+00 0. -1.
         25    1    1    2    0    0  0.72455040689E+02  0.43924822570E+02  0.45245218235E+03  0.47698752632E+03  0.12500000000E+03 0.  0.
         25    1    1    2    0    0 -0.72455040689E+02 -0.43924822570E+02  0.28681539667E+03  0.32414070205E+03  0.12500000000E+03 0.  0.
</event>
<event>
 4    0  0.2190908E-002  0.1845661E+03  0.7546771E-02  0.1163456E+00
         21   -1    0    0  502  501  0.00000000000E+00  0.00000000000E+00  0.11603493031E+03  0.11603493031E+03  0.00000000000E+00 0. -1.
         21   -1    0    0  501  502 -0.00000000000E+00 -0.00000000000E+00 -0.29357226364E+03  0.29357226364E+03  0.00000000000E+00 0. -1.
         25    1    1    2    0    0  0.95638007092E+02  0.52396838481E+02  0.10209474931E+01  0.16588580234E+03  0.12500000000E+03 0.  0.
         25    1    1    2    0    0 -0.95638007092E+02 -0.52396838481E+02 -0.17855828082E+03  0.24372139162E+03  0.12500000000E+03 0.  0.
</event>
<event>
 4    0  0.2190908E-002  0.3242468E+03  0.7546771E-02  0.1073711E+00
         21   -1    0    0  502  501  0.00000000000E+00  0.00000000000E+00  0.67195334376E+02  0.67195334376E+02  0.00000000000E+00 0. -1.
         21   -1    0    0  501  502 -0.00000000000E+00 -0.00000000000E+00 -0.15646322692E+04  0.15646322692E+04  0.00000000000E+00 0.  1.
         25    1    1    2    0    0 -0.13818789967E+03  0.21764937812E+03 -0.36673372674E+03  0.46538776707E+03  0.12500000000E+03 0.  0.
         25    1    1    2    0    0  0.13818789967E+03 -0.21764937812E+03 -0.11307032081E+04  0.11664398365E+04  0.12500000000E+03 0.  0.
</event>
<event>
 4    0  0.2190908E-002  0.1717886E+03  0.7546771E-02  0.1175995E+00
         21   -1    0    0  502  501  0.00000000000E+00  0.00000000000E+00  0.23751226309E+03  0.23751226309E+03  0.00000000000E+00 0. -1.
         21   -1    0    0  501  502 -0.00000000000E+00 -0.00000000000E+00 -0.12425174574E+03  0.12425174574E+03  0.00000000000E+00 0. -1.
         25    1    1    2    0    0  0.34117911160E+02  0.64409604505E+02 -0.40865301200E+02  0.15035824506E+03  0.12500000000E+03 0.  0.
         25    1    1    2    0    0 -0.34117911160E+02 -0.64409604505E+02  0.15412581855E+03  0.21140576378E+03  0.12500000000E+03 0.  0.
</event>
<event>
 4    0  0.2190908E-002  0.2107457E+03  0.7546771E-02  0.1140977E+00
         21   -1    0    0  502  501  0.00000000000E+00  0.00000000000E+00  0.11095937741E+03  0.11095937741E+03  0.00000000000E+00 0.  1.
         21   -1    0    0  501  502 -0.00000000000E+00 -0.00000000000E+00 -0.40027020017E+03  0.40027020017E+03  0.00000000000E+00 0.  1.
         25    1    1    2    0    0  0.93249349690E+00  0.31821605320E+02  0.57486475504E+02  0.14122032069E+03  0.12500000000E+03 0.  0.
         25    1    1    2    0    0 -0.93249349690E+00 -0.31821605320E+02 -0.34679729826E+03  0.37000925690E+03  0.12500000000E+03 0.  0.
</event>
<event>
 4    0  0.2190908E-002  0.2222841E+03  0.7546771E-02  0.1132192E+00
         21   -1    0    0  502  501  0.00000000000E+00  0.00000000000E+00  0.46440355154E+03  0.46440355154E+03  0.00000000000E+00 0.  1.
         21   -1    0    0  501  502 -0.00000000000E+00 -0.00000000000E+00 -0.10639505859E+03  0.10639505859E+03  0.00000000000E+00 0.  1.
         25    1    1    2    0    0 -0.92713937597E+02 -0.41540065431E+02  0.37567669034E+03  0.40875350387E+03  0.12500000000E+03 0.  0.
         25    1    1    2    0    0  0.92713937597E+02  0.41540065431E+02 -0.17668197393E+02  0.16204510625E+03  0.12500000000E+03 0.  0.
</event>
<event>
 4    0  0.2190908E-002  0.3074212E+03  0.7546771E-02  0.1081589E+00
         21   -1    0    0  502  501  0.00000000000E+00  0.00000000000E+00  0.90082245813E+03  0.90082245813E+03  0.00000000000E+00 0. -1.
         21   -1    0    0  501  502 -0.00000000000E+00 -0.00000000000E+00 -0.10491277870E+03  0.10491277870E+03  0.00000000000E+00 0. -1.
         25    1    1    2    0    0  0.27378061567E+02  0.27583746624E+03  0.32394824325E+03  0.44430094569E+03  0.12500000000E+03 0.  0.
         25    1    1    2    0    0 -0.27378061567E+02 -0.27583746624E+03  0.47196143617E+03  0.56143429114E+03  0.12500000000E+03 0.  0.
</event>
<event>
 4    0  0.2190908E-002  0.2228570E+03  0.7546771E-02  0.1131771E+00
         21   -1    0    0  502  501  0.00000000000E+00  0.00000000000E+00  0.12298029344E+04  0.12298029344E+04  0.00000000000E+00 0.  1.
         21   -1    0    0  501  502 -0.00000000000E+00 -0.00000000000E+00 -0.40384731595E+02  0.40384731595E+02  0.00000000000E+00 0.  1.
         25    1    1    2    0    0 -0.10682618840E+03  0.14851108232E+03  0.52649952083E+03  0.57122160458E+03  0.12500000000E+03 0.  0.
         25    1    1    2    0    0  0.10682618840E+03 -0.14851108232E+03  0.66291868194E+03  0.69896606139E+03  0.12500000000E+03 0.  0.
</event>
<event>
 4    0  0.2190908E-002  0.1889051E+03  0.7546771E-02  0.1159453E+00
         21   -1    0    0  502  501  0.00000000000E+00  0.00000000000E+00  0.28578618791E+03  0.28578618791E+03  0.00000000000E+00 0. -1.
         21   -1    0    0  501  502 -0.00000000000E+00 -0.00000000000E+00 -0.12486659106E+03  0.12486659106E+03  0.00000000000E+00 0. -1.
         25    1    1    2    0    0  0.11157368064E+03  0.30033244515E+02 -0.85719645495E+01  0.17043814292E+03  0.12500000000E+03 0.  0.
         25    1    1    2    0    0 -0.11157368064E+03 -0.30033244515E+02  0.16949156140E+03  0.24021463605E+03  0.12500000000E+03 0.  0.
</event>
<event>
 4    0  0.2190908E-002  0.1666510E+03  0.7546771E-02  0.1181386E+00
         21   -1    0    0  502  501  0.00000000000E+00  0.00000000000E+00  0.94705921630E+03  0.94705921630E+03  0.00000000000E+00 0.  1.
         21   -1    0    0  501  502 -0.00000000000E+00 -0.00000000000E+00 -0.29325046069E+02  0.29325046069E+02  0.00000000000E+00 0.  1.
         25    1    1    2    0    0 -0.36571532182E+02 -0.10356169811E+03  0.48588347605E+03  0.51358568378E+03  0.12500000000E+03 0.  0.
         25    1    1    2    0    0  0.36571532182E+02  0.10356169811E+03  0.43185069418E+03  0.46279857859E+03  0.12500000000E+03 0.  0.
</event>
<event>
 4    0  0.2190908E-002  0.3639703E+03  0.7546771E-02  0.1057023E+00
         21   -1    0    0  502  501  0.00000000000E+00  0.00000000000E+00  0.22364681330E+04  0.22364681330E+04  0.00000000000E+00 0.  1.
         21   -1    0    0  501  502 -0.00000000000E+00 -0.00000000000E+00 -0.59233742902E+02  0.59233742902E+02  0.00000000000E+00 0.  1.
         25    1    1    2    0    0 -0.14834898083E+03 -0.22284617407E+03  0.41826958122E+03  0.51209596756E+03  0.12500000000E+03 0.  0.
         25    1    1    2    0    0  0.14834898083E+03  0.22284617407E+03  0.17589648089E+04  0.17836059083E+04  0.12500000000E+03 0.  0.
</event>
<event>
 4    0  0.2190908E-002  0.3420802E+03  0.7546771E-02  0.1065913E+00
         21   -1    0    0  502  501  0.00000000000E+00  0.00000000000E+00  0.53578780938E+03  0.53578780938E+03  0.00000000000E+00 0. -1.
         21   -1    0    0  501  502 -0.00000000000E+00 -0.00000000000E+00 -0.21840527027E+03  0.21840527027E+03  0.00000000000E+00 0. -1.
         25    1    1    2    0    0 -0.19874940926E+03 -0.99662468883E+02 -0.92589308033E+02  0.27135164519E+03  0.12500000000E+03 0.  0.
         25    1    1    2    0    0  0.19874940926E+03  0.99662468883E+02  0.40997184714E+03  0.48284143446E+03  0.12500000000E+03 0.  0.
</event>
<event>
 4    0  0.2190908E-002  0.1969207E+03  0.7546771E-02  0.1152363E+00
         21   -1    0    0  502  501  0.00000000000E+00  0.00000000000E+00  0.24076943901E+03  0.24076943901E+03  0.00000000000E+00 0. -1.
         21   -1    0    0  501  502 -0.00000000000E+00 -0.00000000000E+00 -0.16105765794E+03  0.16105765794E+03  0.00000000000E+00 0. -1.
         25    1    1    2    0    0  0.12383076849E+03 -0.48279589639E+02  0.11543753842E+03  0.21590693198E+03  0.12500000000E+03 0.  0.
         25    1    1    2    0    0 -0.12383076849E+03  0.48279589639E+02 -0.35725757350E+02  0.18592016496E+03  0.12500000000E+03 0.  0.
</event>
<event>
 4    0  0.2190908E-002  0.2103508E+03  0.7546771E-02  0.1141288E+00
         21   -1    0    0  502  501  0.00000000000E+00  0.00000000000E+00  0.17544632817E+02  0.17544632817E+02  0.00000000000E+00 0.  1.
         21   -1    0    0  501  502 -0.00000000000E+00 -0.00000000000E+00 -0.25219951106E+04  0.25219951106E+04  0.00000000000E+00 0.  1.
         25    1    1    2    0    0  0.71952385532E+02 -0.14982093212E+03 -0.10614297951E+04  0.10816106820E+04  0.12500000000E+03 0.  0.
         25    1    1    2    0    0 -0.71952385532E+02  0.14982093212E+03 -0.14430206827E+04  0.14579290614E+04  0.12500000000E+03 0.  0.
</event>
<event>
 4    0  0.2190908E-002  0.1829266E+03  0.7546771E-02  0.1165000E+00
         21   -1    0    0  502  501  0.00000000000E+00  0.00000000000E+00  0.71077316659E+02  0.71077316659E+02  0.00000000000E+00 0.  1.
         21   -1    0    0  501  502 -0.00000000000E+00 -0.00000000000E+00 -0.47078495673E+03  0.47078495673E+03  0.00000000000E+00 0.  1.
         25    1    1    2    0    0 -0.36355079055E+02 -0.23177057408E+02 -0.38707152221E+03  0.40903328846E+03  0.12500000000E+03 0.  0.
         25    1    1    2    0    0  0.36355079055E+02  0.23177057408E+02 -0.12636117863E+02  0.13282898493E+03  0.12500000000E+03 0.  0.
</event>
<event>
 4    0  0.2190908E-002  0.2722124E+03  0.7546771E-02  0.1100020E+00
         21   -1    0    0  502  501  0.00000000000E+00  0.00000000000E+00  0.41274035416E+03  0.41274035416E+03  0.00000000000E+00 0. -1.
         21   -1    0    0  501  502 -0.00000000000E+00 -0.00000000000E+00 -0.17953081557E+03  0.17953081557E+03  0.00000000000E+00 0. -1.
         25    1    1    2    0    0 -0.13333935658E+03  0.46241478877E+02 -0.97011333609E+02  0.21202324691E+03  0.12500000000E+03 0.  0.
         25    1    1    2    0    0  0.13333935658E+03 -0.46241478877E+02  0.33022087219E+03  0.38024792283E+03  0.12500000000E+03 0.  0.
</event>
<event>
 4    0  0.2190908E-002  0.1817484E+03  0.7546771E-02  0.1166122E+00
         21   -1    0    0  502  501  0.00000000000E+00  0.00000000000E+00  0.39150318452E+03  0.39150318452E+03  0.00000000000E+00 0.  1.
         21   -1    0    0  501  502 -0.00000000000E+00 -0.00000000000E+00 -0.84373430418E+02  0.84373430418E+02  0.00000000000E+00 0.  1.
         25    1    1    2    0    0 -0.83438882664E+02 -0.54007862514E+02  0.26715749830E+03  0.31125074338E+03  0.12500000000E+03 0.  0.
         25    1    1    2    0    0  0.83438882664E+02  0.54007862514E+02  0.39972255799E+02  0.16462587156E+03  0.12500000000E+03 0.  0.
</event>
<event>
 4    0  0.2190908E-002  0.2074811E+03  0.7546771E-02  0.1143576E+00
         21   -1    0    0  502  501  0.00000000000E+00  0.00000000000E+00  0.16732248579E+03  0.16732248579E+03  0.00000000000E+00 0.  1.
         21   -1    0    0  501  502 -0.00000000000E+00 -0.00000000000E+00 -0.25727796751E+03  0.25727796751E+03  0.00000000000E+00 0.  1.
         25    1    1    2    0    0  0.15317915571E+03 -0.59463582642E+02 -0.23917708498E+02  0.20783846657E+03  0.12500000000E+03 0.  0.
         25    1    1    2    0    0 -0.15317915571E+03  0.59463582642E+02 -0.66037773221E+02  0.21676198674E+03  0.12500000000E+03 0.  0.
</event>
<event>
 4    0  0.2190908E-002  0.2408721E+03  0.7546771E-02  0.1119213E+00
         21   -1    0    0  502  501  0.00000000000E+00  0.00000000000E+00  0.31902656312E+02  0.31902656312E+02  0.00000000000E+00 0.  1.
         21   -1    0    0  501  502 -0.00000000000E+00 -0.00000000000E+00 -0.18186377588E+04  0.18186377588E+04  0.00000000000E+00 0.  1.
         25    1    1    2    0    0 -0.16502043321E+03 -0.34446697980E+02 -0.13474914793E+04  0.13637362667E+04  0.12500000000E+03 0.  0.
         25    1    1    2    0    0  0.16502043321E+03  0.34446697980E+02 -0.43924362317E+03  0.48680414838E+03  0.12500000000E+03 0.  0.
</event>
<event>
 4    0  0.2190908E-002  0.2732480E+03  0.7546771E-02  0.1099435E+00
         21   -1    0    0  502  501  0.00000000000E+00  0.00000000000E+00  0.43498038702E+03  0.43498038702E+03  0.00000000000E+00 0. -1.
         21   -1    0    0  501  502 -0.00000000000E+00 -0.00000000000E+00 -0.17165014303E+03  0.17165014303E+03  0.00000000000E+00 0. -1.
         25    1    1    2    0    0 -0.18282615417E+03 -0.83159696396E+02 -0.20124060246E+02  0.23742560004E+03  0.12500000000E+03 0.  0.
         25    1    1    2    0    0  0.18282615417E+03  0.83159696396E+02  0.28345430424E+03  0.36920493001E+03  0.12500000000E+03 0.  0.
</event>
<event>
 4    0  0.2190908E-002  0.1656055E+03  0.7546771E-02  0.1182510E+00
         21   -1    0    0  502  501  0.00000000000E+00  0.00000000000E+00  0.53314953190E+03  0.53314953190E+03  0.00000000000E+00 0.  1.
         21   -1    0    0  501  502 -0.00000000000E+00 -0.00000000000E+00 -0.51439934781E+02  0.51439934781E+02  0.00000000000E+00 0.  1.
         25    1    1    2    0    0 -0.38527696962E+02 -0.49902599782E+02  0.84718819728E+02  0.16363658306E+03  0.12500000000E+03 0.  0.
         25    1    1    2    0    0  0.38527696962E+02  0.49902599782E+02  0.39699077739E+03  0.42095288362E+03  0.12500000000E+03 0.  0.
</event>
<event>
 4    0  0.2190908E-002  0.2008492E+03  0.7546771E-02  0.1149024E+00
         21   -1    0    0  502  501  0.00000000000E+00  0.00000000000E+00  0.92559371319E+02  0.92559371319E+02  0.00000000000E+00 0.  1.
         21   -1    0    0  501  502 -0.00000000000E+00 -0.00000000000E+00 -0.43583282707E+03  0.43583282707E+03  0.00000000000E+00 0.  1.
         25    1    1    2    0    0 -0.33015617410E+02 -0.11670778821E+03 -0.40066478707E+02  0.17872062427E+03  0.12500000000E+03 0.  0.
         25    1    1    2    0    0  0.33015617410E+02  0.11670778821E+03 -0.30320697704E+03  0.34967157412E+03  0.12500000000E+03 0.  0.
</event>
<event>
 4    0  0.2190908E-002  0.1994935E+03  0.7546771E-02  0.1150167E+00
         21   -1    0    0  502  501  0.00000000000E+00  0.00000000000E+00  0.13509028579E+04  0.13509028579E+04  0.00000000000E+00 0. -1.
         21   -1    0    0  501  502 -0.00000000000E+00 -0.00000000000E+00 -0.29460055919E+02  0.29460055919E+02  0.00000000000E+00 0. -1.
         25    1    1    2    0    0  0.13457160294E+03  0.75292534815E+02  0.72941055017E+03  0.75593864356E+03  0.12500000000E+03 0.  0.
         25    1    1    2    0    0 -0.13457160294E+03 -0.75292534815E+02  0.59203225181E+03  0.62442427027E+03  0.12500000000E+03 0.  0.
</event>
<event>
 4    0  0.2190908E-002  0.2155213E+03  0.7546771E-02  0.1137267E+00
         21   -1    0    0  502  501  0.00000000000E+00  0.00000000000E+00  0.13126586005E+03  0.13126586005E+03  0.00000000000E+00 0. -1.
         21   -1    0    0  501  502 -0.00000000000E+00 -0.00000000000E+00 -0.35385753425E+03  0.35385753425E+03  0.00000000000E+00 0. -1.
         25    1    1    2    0    0 -0.13653997228E+03  0.66660189184E+02 -0.21029628759E+03  0.28798658550E+03  0.12500000000E+03 0.  0.
         25    1    1    2    0    0  0.13653997228E+03 -0.66660189184E+02 -0.12295386614E+02  0.19713680880E+03  0.12500000000E+03 0.  0.
</event>
<event>
 4    0  0.2190908E-002  0.3559765E+03  0.7546771E-02  0.1060188E+00
         21   -1    0    0  502  501  0.00000000000E+00  0.00000000000E+00  0.27436970006E+03  0.27436970006E+03  0.00000000000E+00 0.  1.
         21   -1    0    0  501  502 -0.00000000000E+00 -0.00000000000E+00 -0.46185601958E+03  0.46185601958E+03  0.00000000000E+00 0. -1.
         25    1    1    2    0    0 -0.70416914867E+02  0.31502490013E+03 -0.17961067321E+03  0.38997977323E+03  0.12500000000E+03 0.  0.
         25    1    1    2    0    0  0.70416914867E+02 -0.31502490013E+03 -0.78756463130E+01  0.34624594641E+03  0.12500000000E+03 0.  0.
</event>
<event>
 4    0  0.2190908E-002  0.3406361E+03  0.7546771E-02  0.1066525E+00
         21   -1    0    0  502  501  0.00000000000E+00  0.00000000000E+00  0.43396144742E+03  0.43396144742E+03  0.00000000000E+00 0. -1.
         21   -1    0    0  501  502 -0.00000000000E+00 -0.00000000000E+00 -0.26738076633E+03  0.26738076633E+03  0.00000000000E+00 0. -1.
         25    1    1    2    0    0 -0.19662765211E+03 -0.17677062928E+02 -0.17186831421E+03  0.29006659504E+03  0.12500000000E+03 0.  0.
         25    1    1    2    0    0  0.19662765211E+03  0.17677062928E+02  0.33844899529E+03  0.41127561871E+03  0.12500000000E+03 0.  0.
</event>
<event>
 4    0  0.2190908E-002  0.2610878E+03  0.7546771E-02  0.1106491E+00
         21   -1    0    0  502  501  0.00000000000E+00  0.00000000000E+00  0.17126246409E+03  0.17126246409E+03  0.00000000000E+00 0.  1.
         21   -1    0    0  501  502 -0.00000000000E+00 -0.00000000000E+00 -0.39802565491E+03  0.39802565491E+03  0.00000000000E+00 0.  1.
         25    1    1    2    0    0  0.20534479412E+03  0.29593670820E+01 -0.23787984754E+01  0.24042857777E+03  0.12500000000E+03 0.  0.
         25    1    1    2    0    0 -0.20534479412E+03 -0.29593670820E+01 -0.22438439235E+03  0.32885954123E+03  0.12500000000E+03 0.  0.
</event>
<event>
 4    0  0.2190908E-002  0.3898376E+03  0.7546771E-02  0.1047356E+00
         21   -1    0    0  502  501  0.00000000000E+00  0.00000000000E+00  0.60310500793E+03  0.60310500793E+03  0.00000000000E+00 0. -1.
         21   -1    0    0  501  502 -0.00000000000E+00 -0.00000000000E+00 -0.25198491987E+03  0.25198491987E+03  0.00000000000E+00 0. -1.
         25    1    1    2    0    0 -0.16842525701E+03 -0.70125498139E+02 -0.17652773220E+03  0.28296942047E+03  0.12500000000E+03 0.  0.
         25    1    1    2    0    0  0.16842525701E+03  0.70125498139E+02  0.52764782025E+03  0.57212050733E+03  0.12500000000E+03 0.  0.
</event>
<event>
 4    0  0.2190908E-002  0.2158815E+03  0.7546771E-02  0.1136991E+00
         21   -1    0    0  502  501  0.00000000000E+00  0.00000000000E+00  0.27106098173E+04  0.27106098173E+04  0.00000000000E+00 0.  1.
         21   -1    0    0  501  502 -0.00000000000E+00 -0.00000000000E+00 -0.17193486920E+02  0.17193486920E+02  0.00000000000E+00 0.  1.
         25    1    1    2    0    0 -0.12676297203E+02 -0.42399099140E+02  0.27042334138E+03  0.30118458739E+03  0.12500000000E+03 0.  0.
         25    1    1    2    0    0  0.12676297203E+02  0.42399099140E+02  0.24229929890E+04  0.24266187168E+04  0.12500000000E+03 0.  0.
</event>
<event>
 4    0  0.2190908E-002  0.2086285E+03  0.7546771E-02  0.1142657E+00
         21   -1    0    0  502  501  0.00000000000E+00  0.00000000000E+00  0.75494567411E+03  0.75494567411E+03  0.00000000000E+00 0. -1.
         21   -1    0    0  501  502 -0.00000000000E+00 -0.00000000000E+00 -0.57654276698E+02  0.57654276698E+02  0.00000000000E+00 0. -1.
         25    1    1    2    0    0 -0.93972910476E+02  0.71399362163E+02  0.57884476481E+03  0.60383361829E+03  0.12500000000E+03 0.  0.
         25    1    1    2    0    0  0.93972910476E+02 -0.71399362163E+02  0.11844663260E+03  0.20876633252E+03  0.12500000000E+03 0.  0.
</event>
<event>
 4    0  0.2190908E-002  0.2208726E+03  0.7546771E-02  0.1133234E+00
         21   -1    0    0  502  501  0.00000000000E+00  0.00000000000E+00  0.44543705253E+02  0.44543705253E+02  0.00000000000E+00 0. -1.
         21   -1    0    0  501  502 -0.00000000000E+00 -0.00000000000E+00 -0.10952100685E+04  0.10952100685E+04  0.00000000000E+00 0. -1.
         25    1    1    2    0    0  0.17548084239E+02  0.79732410199E+01 -0.99252797177E+03  0.10005539878E+04  0.12500000000E+03 0.  0.
         25    1    1    2    0    0 -0.17548084239E+02 -0.79732410199E+01 -0.58138391464E+02  0.13919978590E+03  0.12500000000E+03 0.  0.
</event>
<event>
 4    0  0.2190908E-002  0.1760104E+03  0.7546771E-02  0.1171721E+00
         21   -1    0    0  502  501  0.00000000000E+00  0.00000000000E+00  0.31071628095E+02  0.31071628095E+02  0.00000000000E+00 0. -1.
         21   -1    0    0  501  502 -0.00000000000E+00 -0.00000000000E+00 -0.99703974774E+03  0.99703974774E+03  0.00000000000E+00 0. -1.
         25    1    1    2    0    0  0.19708922117E+02 -0.11816696449E+03 -0.57546957182E+03  0.60095099733E+03  0.12500000000E+03 0.  0.
         25    1    1    2    0    0 -0.19708922117E+02  0.11816696449E+03 -0.39049854783E+03  0.42716037850E+03  0.12500000000E+03 0.  0.
</event>
<event>
 4    0  0.2190908E-002  0.3749384E+03  0.7546771E-02  0.1052821E+00
         21   -1    0    0  502  501  0.00000000000E+00  0.00000000000E+00  0.73349215202E+02  0.73349215202E+02  0.00000000000E+00 0.  1.
         21   -1    0    0  501  502 -0.00000000000E+00 -0.00000000000E+00 -0.19165685670E+04  0.19165685670E+04  0.00000000000E+00 0. -1.
         25    1    1    2    0    0  0.32520029225E+03 -0.75292897087E+02 -0.61294502600E+03  0.70904926156E+03  0.12500000000E+03 0.  0.
         25    1    1    2    0    0 -0.32520029225E+03  0.75292897087E+02 -0.12302743258E+04  0.12808685207E+04  0.12500000000E+03 0.  0.
</event>
<event>
 4    0  0.2190908E-002  0.1828672E+03  0.7546771E-02  0.1165057E+00
         21   -1    0    0  502  501  0.00000000000E+00  0.00000000000E+00  0.10049710019E+04  0.10049710019E+04  0.00000000000E+00 0.  1.
         21   -1    0    0  501  502 -0.00000000000E+00 -0.00000000000E+00 -0.33274992199E+02  0.33274992199E+02  0.00000000000E+00 0.  1.
         25    1    1    2    0    0  0.80807998342E+02  0.75704554402E+02  0.27428057928E+03  0.32111672072E+03  0.12500000000E+03 0.  0.
         25    1    1    2    0    0 -0.80807998342E+02 -0.75704554402E+02  0.69741543044E+03  0.71712927340E+03  0.12500000000E+03 0.  0.
</event>
<event>
 4    0  0.2190908E-002  0.2237414E+03  0.7546771E-02  0.1131124E+00
         21   -1    0    0  502  501  0.00000000000E+00  0.00000000000E+00  0.78132314677E+02  0.78132314677E+02  0.00000000000E+00 0.  1.
         21   -1    0    0  501  502 -0.00000000000E+00 -0.00000000000E+00 -0.64071097809E+03  0.64071097809E+03  0.00000000000E+00 0.  1.
         25    1    1    2    0    0  0.72013077412E+02  0.14415777185E+02 -0.55504780869E+03  0.57366956332E+03  0.12500000000E+03 0.  0.
         25    1    1    2    0    0 -0.72013077412E+02 -0.14415777185E+02 -0.75308547300E+01  0.14517372945E+03  0.12500000000E+03 0.  0.
</event>
<event>
 4    0  0.2190908E-002  0.2230368E+03  0.7546771E-02  0.1131639E+00
         21   -1    0    0  502  501  0.00000000000E+00  0.00000000000E+00  0.27216832488E+03  0.27216832488E+03  0.00000000000E+00 0. -1.
         21   -1    0    0  501  502 -0.00000000000E+00 -0.00000000000E+00 -0.18277436922E+03  0.18277436922E+03  0.00000000000E+00 0. -1.
         25    1    1    2    0    0 -0.32933711124E+02  0.16370152158E+03  0.12524561590E+03  0.24329875009E+03  0.12500000000E+03 0.  0.
         25    1    1    2    0    0  0.32933711124E+02 -0.16370152158E+03 -0.35851660239E+02  0.21164394401E+03  0.12500000000E+03 0.  0.
</event>
<event>
 4    0  0.2190908E-002  0.3643297E+03  0.7546771E-02  0.1056883E+00
         21   -1    0    0  502  501  0.00000000000E+00  0.00000000000E+00  0.12280084599E+03  0.12280084599E+03  0.00000000000E+00 0.  1.
         21   -1    0    0  501  502 -0.00000000000E+00 -0.00000000000E+00 -0.10809057104E+04  0.10809057104E+04  0.00000000000E+00 0.  1.
         25    1    1    2    0    0 -0.20315181713E+03 -0.26934760325E+03 -0.57383939653E+03  0.67730011456E+03  0.12500000000E+03 0.  0.
         25    1    1    2    0    0  0.20315181713E+03  0.26934760325E+03 -0.38426546786E+03  0.52640644180E+03  0.12500000000E+03 0.  0.
</event>
<event>
 4    0  0.2190908E-002  0.1856029E+03  0.7546771E-02  0.1162488E+00
         21   -1    0    0  502  501  0.00000000000E+00  0.00000000000E+00  0.53616800131E+03  0.53616800131E+03  0.00000000000E+00 0.  1.
         21   -1    0    0  501  502 -0.00000000000E+00 -0.00000000000E+00 -0.64249302811E+02  0.64249302811E+02  0.00000000000E+00 0.  1.
         25    1    1    2    0    0 -0.78121893032E+02  0.54004191205E+02  0.75804971430E+02  0.17432979244E+03  0.12500000000E+03 0.  0.
         25    1    1    2    0    0  0.78121893032E+02 -0.54004191205E+02  0.39611372707E+03  0.42608751168E+03  0.12500000000E+03 0.  0.
</event>
<event>
 4    0  0.2190908E-002  0.2497024E+03  0.7546771E-02  0.1113493E+00
         21   -1    0    0  502  501  0.00000000000E+00  0.00000000000E+00  0.43078599019E+03  0.43078599019E+03  0.00000000000E+00 0.  1.
         21   -1    0    0  501  502 -0.00000000000E+00 -0.00000000000E+00 -0.14473844009E+03  0.14473844009E+03  0.00000000000E+00 0.  1.
         25    1    1    2    0    0  0.20476246562E+03 -0.27770969459E+02  0.69889102335E+02  0.25141276956E+03  0.12500000000E+03 0.  0.
         25    1    1    2    0    0 -0.20476246562E+03  0.27770969459E+02  0.21615844777E+03  0.32411166072E+03  0.12500000000E+03 0.  0.
</event>
<event>
 4    0  0.2190908E-002  0.2459648E+03  0.7546771E-02  0.1115882E+00
         21   -1    0    0  502  501  0.00000000000E+00  0.00000000000E+00  0.51398951782E+02  0.51398951782E+02  0.00000000000E+00 0.  1.
         21   -1    0    0  501  502 -0.00000000000E+00 -0.00000000000E+00 -0.11770411063E+04  0.11770411063E+04  0.00000000000E+00 0.  1.
         25    1    1    2    0    0  0.10894614873E+03  0.16520458928E+03 -0.37409157989E+03  0.44128372934E+03  0.12500000000E+03 0.  0.
         25    1    1    2    0    0 -0.10894614873E+03 -0.16520458928E+03 -0.75155057460E+03  0.78715632871E+03  0.12500000000E+03 0.  0.
</event>
<event>
 4    0  0.2190908E-002  0.2709839E+03  0.7546771E-02  0.1100718E+00
         21   -1    0    0  502  501  0.00000000000E+00  0.00000000000E+00  0.31822985935E+03  0.31822985935E+03  0.00000000000E+00 0. -1.
         21   -1    0    0  501  502 -0.00000000000E+00 -0.00000000000E+00 -0.23075234810E+03  0.23075234810E+03  0.00000000000E+00 0. -1.
         25    1    1    2    0    0 -0.16928473042E+03  0.16778387429E+03  0.11730115017E+02  0.26939069031E+03  0.12500000000E+03 0.  0.
         25    1    1    2    0    0  0.16928473042E+03 -0.16778387429E+03  0.75747396224E+02  0.27959151715E+03  0.12500000000E+03 0.  0.
</event>
<event>
 4    0  0.2190908E-002  0.1901620E+03  0.7546771E-02  0.1158315E+00
         21   -1    0    0  502  501  0.00000000000E+00  0.00000000000E+00  0.76854979623E+03  0.76854979623E+03  0.00000000000E+00 0.  1.
         21   -1    0    0  501  502 -0.00000000000E+00 -0.00000000000E+00 -0.47051735446E+02  0.47051735446E+02  0.00000000000E+00 0.  1.
         25    1    1    2    0    0  0.75156304776E+02 -0.68631941378E+02  0.57709604746E+03  0.59918583221E+03  0.12500000000E+03 0.  0.
         25    1    1    2    0    0 -0.75156304776E+02  0.68631941378E+02  0.14440201333E+03  0.21641569947E+03  0.12500000000E+03 0.  0.
</event>
<event>
 4    0  0.2190908E-002  0.3050453E+03  0.7546771E-02  0.1082745E+00
         21   -1    0    0  502  501  0.00000000000E+00  0.00000000000E+00  0.20847660194E+03  0.20847660194E+03  0.00000000000E+00 0. -1.
         21   -1    0    0  501  502 -0.00000000000E+00 -0.00000000000E+00 -0.44634572142E+03  0.44634572142E+03  0.00000000000E+00 0. -1.
         25    1    1    2    0    0 -0.12712574779E+02  0.22068415630E+03 -0.30033682088E+03  0.39330689338E+03  0.12500000000E+03 0.  0.
         25    1    1    2    0    0  0.12712574779E+02 -0.22068415630E+03  0.62467701397E+02  0.26151542998E+03  0.12500000000E+03 0.  0.
</event>
<event>
 4    0  0.2190908E-002  0.2693391E+03  0.7546771E-02  0.1101658E+00
         21   -1    0    0  502  501  0.00000000000E+00  0.00000000000E+00  0.72538514726E+02  0.72538514726E+02  0.00000000000E+00 0. -1.
         21   -1    0    0  501  502 -0.00000000000E+00 -0.00000000000E+00 -0.10000691993E+04  0.10000691993E+04  0.00000000000E+00 0. -1.
         25    1    1    2    0    0  0.21254646236E+03 -0.10127885112E+03 -0.54050039563E+03  0.60266000533E+03  0.12500000000E+03 0.  0.
         25    1    1    2    0    0 -0.21254646236E+03  0.10127885112E+03 -0.38703028891E+03  0.46994770867E+03  0.12500000000E+03 0.  0.
</event>
<event>
 4    0  0.2190908E-002  0.2255642E+03  0.7546771E-02  0.1129801E+00
         21   -1    0    0  502  501  0.00000000000E+00  0.00000000000E+00  0.73551375312E+03  0.73551375312E+03  0.00000000000E+00 0.  1.
         21   -1    0    0  501  502 -0.00000000000E+00 -0.00000000000E+00 -0.69175034045E+02  0.69175034045E+02  0.00000000000E+00 0.  1.
         25    1    1    2    0    0  0.10984843727E+03 -0.15017393997E+03  0.37812833816E+03  0.43957357920E+03  0.12500000000E+03 0.  0.
         25    1    1    2    0    0 -0.10984843727E+03  0.15017393997E+03  0.28821038092E+03  0.36511520797E+03  0.12500000000E+03 0.  0.
</event>
<event>
 4    0  0.2190908E-002  0.2213365E+03  0.7546771E-02  0.1132891E+00
         21   -1    0    0  502  501  0.00000000000E+00  0.00000000000E+00  0.68088680817E+03  0.68088680817E+03  0.00000000000E+00 0.  1.
         21   -1    0    0  501  502 -0.00000000000E+00 -0.00000000000E+00 -0.71950038204E+02  0.71950038204E+02  0.00000000000E+00 0.  1.
         25    1    1    2    0    0  0.70839445512E+00  0.14000566035E+03  0.10495573826E+03  0.21504137682E+03  0.12500000000E+03 0.  0.
         25    1    1    2    0    0 -0.70839445512E+00 -0.14000566035E+03  0.50398103171E+03  0.53779546955E+03  0.12500000000E+03 0.  0.
</event>
<event>
 4    0  0.2190908E-002  0.3296970E+03  0.7546771E-02  0.1071271E+00
         21   -1    0    0  502  501  0.00000000000E+00  0.00000000000E+00  0.32742139108E+03  0.32742139108E+03  0.00000000000E+00 0.  1.
         21   -1    0    0  501  502 -0.00000000000E+00 -0.00000000000E+00 -0.33198850565E+03  0.33198850565E+03  0.00000000000E+00 0.  1.
         25    1    1    2    0    0  0.22637661623E+03 -0.15965431221E+03 -0.13011176387E+03  0.33059029459E+03  0.12500000000E+03 0.  0.
         25    1    1    2    0    0 -0.22637661623E+03  0.15965431221E+03  0.12554464930E+03  0.32881960214E+03  0.12500000000E+03 0.  0.
</event>
<event>
 4    0  0.2190908E-002  0.2452585E+03  0.7546771E-02  0.1116339E+00
         21   -1    0    0  502  501  0.00000000000E+00  0.00000000000E+00  0.95123896769E+03  0.95123896769E+03  0.00000000000E+00 0.  1.
         21   -1    0    0  501  502 -0.00000000000E+00 -0.00000000000E+00 -0.63235145378E+02  0.63235145378E+02  0.00000000000E+00 0.  1.
         25    1    1    2    0    0 -0.16294888693E+03 -0.61131290811E+02  0.69077717732E+03  0.72324787118E+03  0.12500000000E+03 0.  0.
         25    1    1    2    0    0  0.16294888693E+03  0.61131290811E+02  0.19722664499E+03  0.29122624189E+03  0.12500000000E+03 0.  0.
</event>
<event>
 4    0  0.2190908E-002  0.3135582E+03  0.7546771E-02  0.1078653E+00
         21   -1    0    0  502  501  0.00000000000E+00  0.00000000000E+00  0.53504596169E+03  0.53504596169E+03  0.00000000000E+00 0.  1.
         21   -1    0    0  501  502 -0.00000000000E+00 -0.00000000000E+00 -0.18375761423E+03  0.18375761423E+03  0.00000000000E+00 0.  1.
         25    1    1    2    0    0  0.39959034925E+02 -0.95938403116E+02 -0.13168580086E+03  0.20920576429E+03  0.12500000000E+03 0.  0.
         25    1    1    2    0    0 -0.39959034925E+02  0.95938403116E+02  0.48297414832E+03  0.50959781162E+03  0.12500000000E+03 0.  0.
</event>
<event>
 4    0  0.2190908E-002  0.2417962E+03  0.7546771E-02  0.1118602E+00
         21   -1    0    0  502  501  0.00000000000E+00  0.00000000000E+00  0.90220617006E+03  0.90220617006E+03  0.00000000000E+00 0. -1.
         21   -1    0    0  501  502 -0.00000000000E+00 -0.00000000000E+00 -0.64802727636E+02  0.64802727636E+02  0.00000000000E+00 0. -1.
         25    1    1    2    0    0  0.11216280850E+03 -0.28981689542E+00  0.76654551293E+03  0.78472772539E+03  0.12500000000E+03 0.  0.
         25    1    1    2    0    0 -0.11216280850E+03  0.28981689542E+00  0.70857929494E+02  0.18228117230E+03  0.12500000000E+03 0.  0.
</event>
<event>
 4    0  0.2190908E-002  0.3884918E+03  0.7546771E-02  0.1047839E+00
         21   -1    0    0  502  501  0.00000000000E+00  0.00000000000E+00  0.92305216951E+03  0.92305216951E+03  0.00000000000E+00 0.  1.
         21   -1    0    0  501  502 -0.00000000000E+00 -0.00000000000E+00 -0.16350745883E+03  0.16350745883E+03  0.00000000000E+00 0.  1.
         25    1    1    2    0    0  0.27360549384E+02  0.19419034699E+03 -0.55413214822E+02  0.23906926800E+03  0.12500000000E+03 0.  0.
         25    1    1    2    0    0 -0.27360549384E+02 -0.19419034699E+03  0.81495792550E+03  0.84749036034E+03  0.12500000000E+03 0.  0.
</event>
<event>
 4    0  0.2190908E-002  0.2479075E+03  0.7546771E-02  0.1114634E+00
         21   -1    0    0  502  501  0.00000000000E+00  0.00000000000E+00  0.10361851123E+03  0.10361851123E+03  0.00000000000E+00 0. -1.
         21   -1    0    0  501  502 -0.00000000000E+00 -0.00000000000E+00 -0.59311901107E+03  0.59311901107E+03  0.00000000000E+00 0. -1.
         25    1    1    2    0    0 -0.16848506303E+03 -0.90020739575E+02 -0.10892727689E+03  0.25294485895E+03  0.12500000000E+03 0.  0.
         25    1    1    2    0    0  0.16848506303E+03  0.90020739575E+02 -0.38057322295E+03  0.44379266335E+03  0.12500000000E+03 0.  0.
</event>
<event>
 4    0  0.2190908E-002  0.1929484E+03  0.7546771E-02  0.1155829E+00
         21   -1    0    0  502  501  0.00000000000E+00  0.00000000000E+00  0.18268580149E+03  0.18268580149E+03  0.00000000000E+00 0.  1.
         21   -1    0    0  501  502 -0.00000000000E+00 -0.00000000000E+00 -0.20378746128E+03  0.20378746128E+03  0.00000000000E+00 0.  1.
         25    1    1    2    0    0  0.24980649703E+02 -0.11882129059E+03 -0.93509016299E+02  0.19776619551E+03  0.12500000000E+03 0.  0.
         25    1    1    2    0    0 -0.24980649703E+02  0.11882129059E+03  0.72407356511E+02  0.18870706726E+03  0.12500000000E+03 0.  0.
</event>
<event>
 4    0  0.2190908E-002  0.2787522E+03  0.7546771E-02  0.1096372E+00
         21   -1    0    0  502  501  0.00000000000E+00  0.00000000000E+00  0.24008022111E+04  0.24008022111E+04  0.00000000000E+00 0. -1.
         21   -1    0    0  501  502 -0.00000000000E+00 -0.00000000000E+00 -0.32365342429E+02  0.32365342429E+02  0.00000000000E+00 0. -1.
         25    1    1    2    0    0 -0.93797016296E+02  0.13321562154E+02  0.21899474285E+04  0.21955568961E+04  0.12500000000E+03 0.  0.
         25    1    1    2    0    0  0.93797016296E+02 -0.13321562154E+02  0.17848944016E+03  0.23761065745E+03  0.12500000000E+03 0.  0.
</event>
<event>
 4    0  0.2190908E-002  0.2650178E+03  0.7546771E-02  0.1104165E+00
         21   -1    0    0  502  501  0.00000000000E+00  0.00000000000E+00  0.67781669054E+03  0.67781669054E+03  0.00000000000E+00 0. -1.
         21   -1    0    0  501  502 -0.00000000000E+00 -0.00000000000E+00 -0.10361861693E+03  0.10361861693E+03  0.00000000000E+00 0. -1.
         25    1    1    2    0    0 -0.14174055958E+03  0.17594870865E+03  0.37507817627E+03  0.45536465895E+03  0.12500000000E+03 0.  0.
         25    1    1    2    0    0  0.14174055958E+03 -0.17594870865E+03  0.19911989734E+03  0.32607064851E+03  0.12500000000E+03 0.  0.
</event>
<event>
 4    0  0.2190908E-002  0.2186231E+03  0.7546771E-02  0.1134914E+00
         21   -1    0    0  502  501  0.00000000000E+00  0.00000000000E+00  0.15288750608E+04  0.15288750608E+04  0.00000000000E+00 0.  1.
         21   -1    0    0  501  502 -0.00000000000E+00 -0.00000000000E+00 -0.31262232417E+02  0.31262232417E+02  0.00000000000E+00 0.  1.
         25    1    1    2    0    0  0.52272264448E+01 -0.86688437528E+02  0.13087687225E+04  0.13175897609E+04  0.12500000000E+03 0.  0.
         25    1    1    2    0    0 -0.52272264448E+01  0.86688437528E+02  0.18884410591E+03  0.24254753232E+03  0.12500000000E+03 0.  0.
</event>
<event>
 4    0  0.2190908E-002  0.2457852E+03  0.7546771E-02  0.1115998E+00
         21   -1    0    0  502  501  0.00000000000E+00  0.00000000000E+00  0.24030220673E+03  0.24030220673E+03  0.00000000000E+00 0.  1.
         21   -1    0    0  501  502 -0.00000000000E+00 -0.00000000000E+00 -0.25139330320E+03  0.25139330320E+03  0.00000000000E+00 0.  1.
         25    1    1    2    0    0 -0.13508221930E+03  0.40005625326E+02  0.15241142226E+03  0.24228474501E+03  0.12500000000E+03 0.  0.
         25    1    1    2    0    0  0.13508221930E+03 -0.40005625326E+02 -0.16350251873E+03  0.24941076493E+03  0.12500000000E+03 0.  0.
</event>
<event>
 4    0  0.2190908E-002  0.1836554E+03  0.7546771E-02  0.1164312E+00
         21   -1    0    0  502  501  0.00000000000E+00  0.00000000000E+00  0.66743504479E+03  0.66743504479E+03  0.00000000000E+00 0. -1.
         21   -1    0    0  501  502 -0.00000000000E+00 -0.00000000000E+00 -0.50535709386E+02  0.50535709386E+02  0.00000000000E+00 0. -1.
         25    1    1    2    0    0  0.39758073123E+01  0.89825620757E+02  0.50411044504E+03  0.52710225762E+03  0.12500000000E+03 0.  0.
         25    1    1    2    0    0 -0.39758073123E+01 -0.89825620757E+02  0.11278889036E+03  0.19086849656E+03  0.12500000000E+03 0.  0.
</event>
<event>
 4    0  0.2190908E-002  0.2742574E+03  0.7546771E-02  0.1098867E+00
         21   -1    0    0  502  501  0.00000000000E+00  0.00000000000E+00  0.83194781675E+02  0.83194781675E+02  0.00000000000E+00 0.  1.
         21   -1    0    0  501  502 -0.00000000000E+00 -0.00000000000E+00 -0.90410856291E+03  0.90410856291E+03  0.00000000000E+00 0.  1.
         25    1    1    2    0    0 -0.15035233254E+03 -0.12572902790E+02 -0.75588096269E+03  0.78086165967E+03  0.12500000000E+03 0.  0.
         25    1    1    2    0    0  0.15035233254E+03  0.12572902790E+02 -0.65032818550E+02  0.20644168492E+03  0.12500000000E+03 0.  0.
</event>
<event>
 4    0  0.2190908E-002  0.1845153E+03  0.7546771E-02  0.1163503E+00
         21   -1    0    0  502  501  0.00000000000E+00  0.00000000000E+00  0.17095510568E+03  0.17095510568E+03  0.00000000000E+00 0.  1.
         21   -1    0    0  501  502 -0.00000000000E+00 -0.00000000000E+00 -0.19915104115E+03  0.19915104115E+03  0.00000000000E+00 0.  1.
         25    1    1    2    0    0  0.92641280548E+02  0.55088024601E+02 -0.96823472012E+02  0.19135538155E+03  0.12500000000E+03 0.  0.
         25    1    1    2    0    0 -0.92641280548E+02 -0.55088024601E+02  0.68627536549E+02  0.17875076528E+03  0.12500000000E+03 0.  0.
</event>
<event>
 4    0  0.2190908E-002  0.2076991E+03  0.7546771E-02  0.1143401E+00
         21   -1    0    0  502  501  0.00000000000E+00  0.00000000000E+00  0.11776229384E+03  0.11776229384E+03  0.00000000000E+00 0. -1.
         21   -1    0    0  501  502 -0.00000000000E+00 -0.00000000000E+00 -0.36632208946E+03  0.36632208946E+03  0.00000000000E+00 0. -1.
         25    1    1    2    0    0 -0.23792791094E+02 -0.89882422451E+01  0.66734603507E+02  0.14396316443E+03  0.12500000000E+03 0.  0.
         25    1    1    2    0    0  0.23792791094E+02  0.89882422451E+01 -0.31529439913E+03  0.34012121888E+03  0.12500000000E+03 0.  0.
</event>
<event>
 4    0  0.2190908E-002  0.2706336E+03  0.7546771E-02  0.1100918E+00
         21   -1    0    0  502  501  0.00000000000E+00  0.00000000000E+00  0.58434457200E+03  0.58434457200E+03  0.00000000000E+00 0.  1.
         21   -1    0    0  501  502 -0.00000000000E+00 -0.00000000000E+00 -0.12534138561E+03  0.12534138561E+03  0.00000000000E+00 0.  1.
         25    1    1    2    0    0  0.13904557894E+03  0.10772320571E+03  0.44366441976E+03  0.49335694931E+03  0.12500000000E+03 0.  0.
         25    1    1    2    0    0 -0.13904557894E+03 -0.10772320571E+03  0.15338766633E+02  0.21632900830E+03  0.12500000000E+03 0.  0.
</event>
<event>
 4    0  0.2190908E-002  0.2373230E+03  0.7546771E-02  0.1121589E+00
         21   -1    0    0  502  501  0.00000000000E+00  0.00000000000E+00  0.29020549041E+03  0.29020549041E+03  0.00000000000E+00 0. -1.
         21   -1    0    0  501  502 -0.00000000000E+00 -0.00000000000E+00 -0.19407694778E+03  0.19407694778E+03  0.00000000000E+00 0. -1.
         25    1    1    2    0    0 -0.14946646512E+03 -0.13415724912E+03  0.28737573943E+02  0.23830493038E+03  0.12500000000E+03 0.  0.
         25    1    1    2    0    0  0.14946646512E+03  0.13415724912E+03  0.67390968682E+02  0.24597750781E+03  0.12500000000E+03 0.  0.
</event>
<event>
 4    0  0.2190908E-002  0.2658097E+03  0.7546771E-02  0.1103702E+00
         21   -1    0    0  502  501  0.00000000000E+00  0.00000000000E+00  0.10636116529E+04  0.10636116529E+04  0.00000000000E+00 0.  1.
         21   -1    0    0  501  502 -0.00000000000E+00 -0.00000000000E+00 -0.66429119446E+02  0.66429119446E+02  0.00000000000E+00 0.  1.
         25    1    1    2    0    0  0.12000090454E+03  0.15292274576E+03  0.21945589029E+03  0.31870279422E+03  0.12500000000E+03 0.  0.
         25    1    1    2    0    0 -0.12000090454E+03 -0.15292274576E+03  0.77772664317E+03  0.81133797813E+03  0.12500000000E+03 0.  0.
</event>
<event>
 4    0  0.2190908E-002  0.1940461E+03  0.7546771E-02  0.1154862E+00
         21   -1    0    0  502  501  0.00000000000E+00  0.00000000000E+00  0.18550786275E+03  0.18550786275E+03  0.00000000000E+00 0.  1.
         21   -1    0    0  501  502 -0.00000000000E+00 -0.00000000000E+00 -0.20297735074E+03  0.20297735074E+03  0.00000000000E+00 0.  1.
         25    1    1    2    0    0 -0.49493752596E+02 -0.76973703808E+02 -0.12570473495E+03  0.19950253886E+03  0.12500000000E+03 0.  0.
         25    1    1    2    0    0  0.49493752596E+02  0.76973703808E+02  0.10823524696E+03  0.18898267462E+03  0.12500000000E+03 0.  0.
</event>
<event>
 4    0  0.2190908E-002  0.2521610E+03  0.7546771E-02  0.1111947E+00
         21   -1    0    0  502  501  0.00000000000E+00  0.00000000000E+00  0.89780185781E+02  0.89780185781E+02  0.00000000000E+00 0. -1.
         21   -1    0    0  501  502 -0.00000000000E+00 -0.00000000000E+00 -0.70823170891E+03  0.70823170891E+03  0.00000000000E+00 0. -1.
         25    1    1    2    0    0 -0.10526340764E+03 -0.12272644547E+03 -0.54295282034E+03  0.58014216406E+03  0.12500000000E+03 0.  0.
         25    1    1    2    0    0  0.10526340764E+03  0.12272644547E+03 -0.75498702792E+02  0.21786973064E+03  0.12500000000E+03 0.  0.
</event>
<event>
 4    0  0.2190908E-002  0.1739337E+03  0.7546771E-02  0.1173807E+00
         21   -1    0    0  502  501  0.00000000000E+00  0.00000000000E+00  0.39765933169E+02  0.39765933169E+02  0.00000000000E+00 0. -1.
         21   -1    0    0  501  502 -0.00000000000E+00 -0.00000000000E+00 -0.76077484136E+03  0.76077484136E+03  0.00000000000E+00 0. -1.
         25    1    1    2    0    0 -0.73413869739E+02 -0.92615193058E+02 -0.30134981685E+03  0.34699262582E+03  0.12500000000E+03 0.  0.
         25    1    1    2    0    0  0.73413869739E+02  0.92615193058E+02 -0.41965909134E+03  0.45354814871E+03  0.12500000000E+03 0.  0.
</event>
<event>
 4    0  0.2190908E-002  0.1983607E+03  0.7546771E-02  0.1151129E+00
         21   -1    0    0  502  501  0.00000000000E+00  0.00000000000E+00  0.10030887445E+04  0.10030887445E+04  0.00000000000E+00 0. -1.
         21   -1    0    0  501  502 -0.00000000000E+00 -0.00000000000E+00 -0.39225811222E+02  0.39225811222E+02  0.00000000000E+00 0. -1.
         25    1    1    2    0    0  0.18957876637E+01  0.57387425792E+02  0.10644453883E+03  0.17393202838E+03  0.12500000000E+03 0.  0.
         25    1    1    2    0    0 -0.18957876637E+01 -0.57387425792E+02  0.85741839443E+03  0.86838252732E+03  0.12500000000E+03 0.  0.
</event>
<event>
 4    0  0.2190908E-002  0.1539324E+03  0.7546771E-02  0.1195722E+00
         21   -1    0    0  502  501  0.00000000000E+00  0.00000000000E+00  0.11673006233E+03  0.11673006233E+03  0.00000000000E+00 0. -1.
         21   -1    0    0  501  502 -0.00000000000E+00 -0.00000000000E+00 -0.20299127801E+03  0.20299127801E+03  0.00000000000E+00 0. -1.
         25    1    1    2    0    0  0.69499742907E+02 -0.54325318982E+02 -0.25484150603E+02  0.15509963404E+03  0.12500000000E+03 0.  0.
         25    1    1    2    0    0 -0.69499742907E+02  0.54325318982E+02 -0.60777065082E+02  0.16462170630E+03  0.12500000000E+03 0.  0.
</event>
<event>
 4    0  0.2190908E-002  0.1518766E+03  0.7546771E-02  0.1198186E+00
         21   -1    0    0  502  501  0.00000000000E+00  0.00000000000E+00  0.39499315673E+02  0.39499315673E+02  0.00000000000E+00 0. -1.
         21   -1    0    0  501  502 -0.00000000000E+00 -0.00000000000E+00 -0.58397231466E+03  0.58397231466E+03  0.00000000000E+00 0. -1.
         25    1    1    2    0    0  0.76526475561E+02 -0.11354393981E+02 -0.19390820192E+03  0.24333231289E+03  0.12500000000E+03 0.  0.
         25    1    1    2    0    0 -0.76526475561E+02  0.11354393981E+02 -0.35056479706E+03  0.38013931744E+03  0.12500000000E+03 0.  0.
</event>
<event>
 4    0  0.2190908E-002  0.2536399E+03  0.7546771E-02  0.1111026E+00
         21   -1    0    0  502  501  0.00000000000E+00  0.00000000000E+00  0.10806156928E+03  0.10806156928E+03  0.00000000000E+00 0.  1.
         21   -1    0    0  501  502 -0.00000000000E+00 -0.00000000000E+00 -0.59533828103E+03  0.59533828103E+03  0.00000000000E+00 0.  1.
         25    1    1    2    0    0  0.12112387208E+03  0.36572630290E+02  0.71031425337E+01  0.17800001210E+03  0.12500000000E+03 0.  0.
         25    1    1    2    0    0 -0.12112387208E+03 -0.36572630290E+02 -0.49437985428E+03  0.52539983821E+03  0.12500000000E+03 0.  0.
</event>
<event>
 4    0  0.2190908E-002  0.2142822E+03  0.7546771E-02  0.1138219E+00
         21   -1    0    0  502  501  0.00000000000E+00  0.00000000000E+00  0.51225837712E+02  0.51225837712E+02  0.00000000000E+00 0. -1.
         21   -1    0    0  501  502 -0.00000000000E+00 -0.00000000000E+00 -0.89636105108E+03  0.89636105108E+03  0.00000000000E+00 0. -1.
         25    1    1    2    0    0 -0.15733623812E+03 -0.62625347992E+02 -0.33370504578E+03  0.39453857050E+03  0.12500000000E+03 0.  0.
         25    1    1    2    0    0  0.15733623812E+03  0.62625347992E+02 -0.51143016759E+03  0.55304831828E+03  0.12500000000E+03 0.  0.
</event>
<event>
 4    0  0.2190908E-002  0.1889024E+03  0.7546771E-02  0.1159455E+00
         21   -1    0    0  502  501  0.00000000000E+00  0.00000000000E+00  0.14636307184E+03  0.14636307184E+03  0.00000000000E+00 0. -1.
         21   -1    0    0  501  502 -0.00000000000E+00 -0.00000000000E+00 -0.24380549109E+03  0.24380549109E+03  0.00000000000E+00 0. -1.
         25    1    1    2    0    0 -0.91110778943E+01  0.13609434213E+03 -0.88106361190E+02  0.20492050308E+03  0.12500000000E+03 0.  0.
         25    1    1    2    0    0  0.91110778943E+01 -0.13609434213E+03 -0.93360580588E+01  0.18524805986E+03  0.12500000000E+03 0.  0.
</event>
<event>
 4    0  0.2190908E-002  0.3633911E+03  0.7546771E-02  0.1057249E+00
         21   -1    0    0  502  501  0.00000000000E+00  0.00000000000E+00  0.11669462238E+03  0.11669462238E+03  0.00000000000E+00 0. -1.
         21   -1    0    0  501  502 -0.00000000000E+00 -0.00000000000E+00 -0.11316124148E+04  0.11316124148E+04  0.00000000000E+00 0.  1.
         25    1    1    2    0    0 -0.11207572734E+02 -0.34099412533E+03 -0.49878890012E+03  0.61710450499E+03  0.12500000000E+03 0.  0.
         25    1    1    2    0    0  0.11207572734E+02  0.34099412533E+03 -0.51612889233E+03  0.63120253223E+03  0.12500000000E+03 0.  0.
</event>
<event>
 4    0  0.2190908E-002  0.2032575E+03  0.7546771E-02  0.1147019E+00
         21   -1    0    0  502  501  0.00000000000E+00  0.00000000000E+00  0.12127333911E+03  0.12127333911E+03  0.00000000000E+00 0.  1.
         21   -1    0    0  501  502 -0.00000000000E+00 -0.00000000000E+00 -0.34066508094E+03  0.34066508094E+03  0.00000000000E+00 0.  1.
         25    1    1    2    0    0 -0.62668431825E+01  0.13387442380E+03 -0.20958353686E+03  0.27840957885E+03  0.12500000000E+03 0.  0.
         25    1    1    2    0    0  0.62668431825E+01 -0.13387442380E+03 -0.98082049634E+01  0.18352884121E+03  0.12500000000E+03 0.  0.
</event>
<event>
 4    0  0.2190908E-002  0.2874386E+03  0.7546771E-02  0.1091694E+00
         21   -1    0    0  502  501  0.00000000000E+00  0.00000000000E+00  0.17725966350E+04  0.17725966350E+04  0.00000000000E+00 0. -1.
         21   -1    0    0  501  502 -0.00000000000E+00 -0.00000000000E+00 -0.46610108932E+02  0.46610108932E+02  0.00000000000E+00 0. -1.
         25    1    1    2    0    0  0.24702469211E+03  0.43427937413E+02  0.10653425522E+04  0.11015838314E+04  0.12500000000E+03 0.  0.
         25    1    1    2    0    0 -0.24702469211E+03 -0.43427937413E+02  0.66064397387E+03  0.71762291244E+03  0.12500000000E+03 0.  0.
</event>
<event>
 4    0  0.2190908E-002  0.2176831E+03  0.7546771E-02  0.1135622E+00
         21   -1    0    0  502  501  0.00000000000E+00  0.00000000000E+00  0.54700160653E+02  0.54700160653E+02  0.00000000000E+00 0.  1.
         21   -1    0    0  501  502 -0.00000000000E+00 -0.00000000000E+00 -0.86628484390E+03  0.86628484390E+03  0.00000000000E+00 0.  1.
         25    1    1    2    0    0 -0.11208385040E+03 -0.39613735993E+02 -0.12491914544E+03  0.21298316952E+03  0.12500000000E+03 0.  0.
         25    1    1    2    0    0  0.11208385040E+03  0.39613735993E+02 -0.68666553781E+03  0.70800183503E+03  0.12500000000E+03 0.  0.
</event>
<event>
 4    0  0.2190908E-002  0.2672338E+03  0.7546771E-02  0.1102873E+00
         21   -1    0    0  502  501  0.00000000000E+00  0.00000000000E+00  0.22250200840E+03  0.22250200840E+03  0.00000000000E+00 0. -1.
         21   -1    0    0  501  502 -0.00000000000E+00 -0.00000000000E+00 -0.32095845575E+03  0.32095845575E+03  0.00000000000E+00 0. -1.
         25    1    1    2    0    0 -0.12514710299E+03  0.16091489775E+03  0.72083402204E+02  0.24975271486E+03  0.12500000000E+03 0.  0.
         25    1    1    2    0    0  0.12514710299E+03 -0.16091489775E+03 -0.17053984955E+03  0.29370774929E+03  0.12500000000E+03 0.  0.
</event>
<event>
 4    0  0.2190908E-002  0.1410765E+03  0.7546771E-02  0.1211888E+00
         21   -1    0    0  502  501  0.00000000000E+00  0.00000000000E+00  0.17923063797E+03  0.17923063797E+03  0.00000000000E+00 0.  1.
         21   -1    0    0  501  502 -0.00000000000E+00 -0.00000000000E+00 -0.11104455674E+03  0.11104455674E+03  0.00000000000E+00 0.  1.
         25    1    1    2    0    0  0.53071878496E+02 -0.36860576106E+02  0.23689554552E+02  0.14269380278E+03  0.12500000000E+03 0.  0.
         25    1    1    2    0    0 -0.53071878496E+02  0.36860576106E+02  0.44496526681E+02  0.14758139193E+03  0.12500000000E+03 0.  0.
</event>
<event>
 4    0  0.2190908E-002  0.1925235E+03  0.7546771E-02  0.1156205E+00
         21   -1    0    0  502  501  0.00000000000E+00  0.00000000000E+00  0.10833284666E+04  0.10833284666E+04  0.00000000000E+00 0.  1.
         21   -1    0    0  501  502 -0.00000000000E+00 -0.00000000000E+00 -0.34214272940E+02  0.34214272940E+02  0.00000000000E+00 0.  1.
         25    1    1    2    0    0 -0.68810304991E+01 -0.13105780728E+03  0.33608727064E+03  0.38184178781E+03  0.12500000000E+03 0.  0.
         25    1    1    2    0    0  0.68810304991E+01  0.13105780728E+03  0.71302692305E+03  0.73570095176E+03  0.12500000000E+03 0.  0.
</event>
<event>
 4    0  0.2190908E-002  0.2543478E+03  0.7546771E-02  0.1110588E+00
         21   -1    0    0  502  501  0.00000000000E+00  0.00000000000E+00  0.69023153916E+02  0.69023153916E+02  0.00000000000E+00 0.  1.
         21   -1    0    0  501  502 -0.00000000000E+00 -0.00000000000E+00 -0.93726199051E+03  0.93726199051E+03  0.00000000000E+00 0.  1.
         25    1    1    2    0    0  0.85965693783E-01 -0.19651585098E+03 -0.63633126093E+03  0.67761416803E+03  0.12500000000E+03 0.  0.
         25    1    1    2    0    0 -0.85965693783E-01  0.19651585098E+03 -0.23190757567E+03  0.32867097640E+03  0.12500000000E+03 0.  0.
</event>
<event>
 4    0  0.2190908E-002  0.2060431E+03  0.7546771E-02  0.1144738E+00
         21   -1    0    0  502  501  0.00000000000E+00  0.00000000000E+00  0.16247624498E+04  0.16247624498E+04  0.00000000000E+00 0. -1.
         21   -1    0    0  501  502 -0.00000000000E+00 -0.00000000000E+00 -0.26129206714E+02  0.26129206714E+02  0.00000000000E+00 0. -1.
         25    1    1    2    0    0  0.74556579921E+02  0.14141232726E+03  0.94223253290E+03  0.96383778509E+03  0.12500000000E+03 0.  0.
         25    1    1    2    0    0 -0.74556579921E+02 -0.14141232726E+03  0.65640071021E+03  0.68705387145E+03  0.12500000000E+03 0.  0.
</event>
<event>
 4    0  0.2190908E-002  0.1819747E+03  0.7546771E-02  0.1165905E+00
         21   -1    0    0  502  501  0.00000000000E+00  0.00000000000E+00  0.22918383506E+02  0.22918383506E+02  0.00000000000E+00 0. -1.
         21   -1    0    0  501  502 -0.00000000000E+00 -0.00000000000E+00 -0.14449007719E+04  0.14449007719E+04  0.00000000000E+00 0. -1.
         25    1    1    2    0    0 -0.37596151727E+01  0.74106488763E+02 -0.11524908245E+04  0.11616221447E+04  0.12500000000E+03 0.  0.
         25    1    1    2    0    0  0.37596151727E+01 -0.74106488763E+02 -0.26949156385E+03  0.30619701071E+03  0.12500000000E+03 0.  0.
</event>
<event>
 4    0  0.2190908E-002  0.1710806E+03  0.7546771E-02  0.1176726E+00
         21   -1    0    0  502  501  0.00000000000E+00  0.00000000000E+00  0.20332419581E+03  0.20332419581E+03  0.00000000000E+00 0.  1.
         21   -1    0    0  501  502 -0.00000000000E+00 -0.00000000000E+00 -0.14395023436E+03  0.14395023436E+03  0.00000000000E+00 0.  1.
         25    1    1    2    0    0  0.46478409105E+02 -0.18657089445E+02 -0.77413595543E+02  0.15532609013E+03  0.12500000000E+03 0.  0.
         25    1    1    2    0    0 -0.46478409105E+02  0.18657089445E+02  0.13678755699E+03  0.19194834004E+03  0.12500000000E+03 0.  0.
</event>
<event>
 4    0  0.2190908E-002  0.2206812E+03  0.7546771E-02  0.1133376E+00
         21   -1    0    0  502  501  0.00000000000E+00  0.00000000000E+00  0.24640328585E+03  0.24640328585E+03  0.00000000000E+00 0.  1.
         21   -1    0    0  501  502 -0.00000000000E+00 -0.00000000000E+00 -0.19764432900E+03  0.19764432900E+03  0.00000000000E+00 0.  1.
         25    1    1    2    0    0 -0.12759832537E+03  0.15904096998E+02 -0.10501454040E+03  0.20781560729E+03  0.12500000000E+03 0.  0.
         25    1    1    2    0    0  0.12759832537E+03 -0.15904096998E+02  0.15377349725E+03  0.23623200756E+03  0.12500000000E+03 0.  0.
</event>
<event>
 4    0  0.2190908E-002  0.2664761E+03  0.7546771E-02  0.1103313E+00
         21   -1    0    0  502  501  0.00000000000E+00  0.00000000000E+00  0.60725791141E+03  0.60725791141E+03  0.00000000000E+00 0.  1.
         21   -1    0    0  501  502 -0.00000000000E+00 -0.00000000000E+00 -0.11693472215E+03  0.11693472215E+03  0.00000000000E+00 0.  1.
         25    1    1    2    0    0 -0.11574035736E+03  0.17078352444E+03  0.91297086530E+02  0.25792053146E+03  0.12500000000E+03 0.  0.
         25    1    1    2    0    0  0.11574035736E+03 -0.17078352444E+03  0.39902610272E+03  0.46627210210E+03  0.12500000000E+03 0.  0.
</event>
<event>
 4    0  0.2190908E-002  0.2275037E+03  0.7546771E-02  0.1128409E+00
         21   -1    0    0  502  501  0.00000000000E+00  0.00000000000E+00  0.32891098229E+03  0.32891098229E+03  0.00000000000E+00 0.  1.
         21   -1    0    0  501  502 -0.00000000000E+00 -0.00000000000E+00 -0.15736151625E+03  0.15736151625E+03  0.00000000000E+00 0.  1.
         25    1    1    2    0    0  0.50718625296E+02  0.94642582251E+01  0.28129666151E+03  0.31211338150E+03  0.12500000000E+03 0.  0.
         25    1    1    2    0    0 -0.50718625296E+02 -0.94642582251E+01 -0.10974719547E+03  0.17415911704E+03  0.12500000000E+03 0.  0.
</event>
<event>
 4    0  0.2190908E-002  0.3524043E+03  0.7546771E-02  0.1061633E+00
         21   -1    0    0  502  501  0.00000000000E+00  0.00000000000E+00  0.67639835609E+03  0.67639835609E+03  0.00000000000E+00 0.  1.
         21   -1    0    0  501  502 -0.00000000000E+00 -0.00000000000E+00 -0.18360301675E+03  0.18360301675E+03  0.00000000000E+00 0.  1.
         25    1    1    2    0    0 -0.23107849139E+02 -0.21131857355E+03 -0.60776323617E+02  0.25398479036E+03  0.12500000000E+03 0.  0.
         25    1    1    2    0    0  0.23107849139E+02  0.21131857355E+03  0.55357166296E+03  0.60601658249E+03  0.12500000000E+03 0.  0.
</event>
<event>
 4    0  0.2190908E-002  0.2843491E+03  0.7546771E-02  0.1093337E+00
         21   -1    0    0  502  501  0.00000000000E+00  0.00000000000E+00  0.91794323233E+03  0.91794323233E+03  0.00000000000E+00 0.  1.
         21   -1    0    0  501  502 -0.00000000000E+00 -0.00000000000E+00 -0.88082168460E+02  0.88082168460E+02  0.00000000000E+00 0.  1.
         25    1    1    2    0    0 -0.14659359197E+03 -0.20910515156E+03  0.42173250504E+03  0.50862358520E+03  0.12500000000E+03 0.  0.
         25    1    1    2    0    0  0.14659359197E+03  0.20910515156E+03  0.40812855882E+03  0.49740181558E+03  0.12500000000E+03 0.  0.
</event>
<event>
 4    0  0.2190908E-002  0.2420465E+03  0.7546771E-02  0.1118437E+00
         21   -1    0    0  502  501  0.00000000000E+00  0.00000000000E+00  0.46209305254E+03  0.46209305254E+03  0.00000000000E+00 0. -1.
         21   -1    0    0  501  502 -0.00000000000E+00 -0.00000000000E+00 -0.12678511347E+03  0.12678511347E+03  0.00000000000E+00 0. -1.
         25    1    1    2    0    0 -0.73014250095E+02 -0.15126832374E+03  0.31538375995E+03  0.37855660412E+03  0.12500000000E+03 0.  0.
         25    1    1    2    0    0  0.73014250095E+02  0.15126832374E+03  0.19924179126E+02  0.21032156190E+03  0.12500000000E+03 0.  0.
</event>
<event>
 4    0  0.2190908E-002  0.1836897E+03  0.7546771E-02  0.1164279E+00
         21   -1    0    0  502  501  0.00000000000E+00  0.00000000000E+00  0.50162861171E+03  0.50162861171E+03  0.00000000000E+00 0.  1.
         21   -1    0    0  501  502 -0.00000000000E+00 -0.00000000000E+00 -0.67264690768E+02  0.67264690768E+02  0.00000000000E+00 0.  1.
         25    1    1    2    0    0  0.59661279437E+02 -0.11646019968E+03  0.26601423322E+03  0.32173128329E+03  0.12500000000E+03 0.  0.
         25    1    1    2    0    0 -0.59661279437E+02  0.11646019968E+03  0.16834968772E+03  0.24716201919E+03  0.12500000000E+03 0.  0.
</event>
<event>
 4    0  0.2190908E-002  0.2790233E+03  0.7546771E-02  0.1096224E+00
         21   -1    0    0  502  501  0.00000000000E+00  0.00000000000E+00  0.93618098308E+03  0.93618098308E+03  0.00000000000E+00 0. -1.
         21   -1    0    0  501  502 -0.00000000000E+00 -0.00000000000E+00 -0.83161242931E+02  0.83161242931E+02  0.00000000000E+00 0. -1.
         25    1    1    2    0    0 -0.15014680494E+03 -0.14309706387E+03  0.67966824470E+03  0.72152252603E+03  0.12500000000E+03 0.  0.
         25    1    1    2    0    0  0.15014680494E+03  0.14309706387E+03  0.17335149545E+03  0.29781969998E+03  0.12500000000E+03 0.  0.
</event>
<event>
 4    0  0.2190908E-002  0.1717403E+03  0.7546771E-02  0.1176045E+00
         21   -1    0    0  502  501  0.00000000000E+00  0.00000000000E+00  0.17995652561E+03  0.17995652561E+03  0.00000000000E+00 0.  1.
         21   -1    0    0  501  502 -0.00000000000E+00 -0.00000000000E+00 -0.16389923197E+03  0.16389923197E+03  0.00000000000E+00 0.  1.
         25    1    1    2    0    0  0.10836606453E+03 -0.25795320626E+02 -0.30237879767E+02  0.17014091772E+03  0.12500000000E+03 0.  0.
         25    1    1    2    0    0 -0.10836606453E+03  0.25795320626E+02  0.46295173402E+02  0.17371483986E+03  0.12500000000E+03 0.  0.
</event>
<event>
 4    0  0.2190908E-002  0.2660508E+03  0.7546771E-02  0.1103561E+00
         21   -1    0    0  502  501  0.00000000000E+00  0.00000000000E+00  0.19930250403E+03  0.19930250403E+03  0.00000000000E+00 0. -1.
         21   -1    0    0  501  502 -0.00000000000E+00 -0.00000000000E+00 -0.35515383105E+03  0.35515383105E+03  0.00000000000E+00 0. -1.
         25    1    1    2    0    0 -0.10325875502E+02  0.22027362313E+03  0.62838335427E+01  0.25355784215E+03  0.12500000000E+03 0.  0.
         25    1    1    2    0    0  0.10325875502E+02 -0.22027362313E+03 -0.16213516057E+03  0.30089849293E+03  0.12500000000E+03 0.  0.
</event>
<event>
 4    0  0.2190908E-002  0.1943576E+03  0.7546771E-02  0.1154589E+00
         21   -1    0    0  502  501  0.00000000000E+00  0.00000000000E+00  0.39276226800E+02  0.39276226800E+02  0.00000000000E+00 0.  1.
         21   -1    0    0  501  502 -0.00000000000E+00 -0.00000000000E+00 -0.96177408975E+03  0.96177408975E+03  0.00000000000E+00 0.  1.
         25    1    1    2    0    0 -0.14111923123E+03  0.18556134405E+02 -0.34926451346E+03  0.39732816149E+03  0.12500000000E+03 0.  0.
         25    1    1    2    0    0  0.14111923123E+03 -0.18556134405E+02 -0.57323334949E+03  0.60372215506E+03  0.12500000000E+03 0.  0.
</event>
<event>
 4    0  0.2190908E-002  0.2091339E+03  0.7546771E-02  0.1142254E+00
         21   -1    0    0  502  501  0.00000000000E+00  0.00000000000E+00  0.80398302950E+02  0.80398302950E+02  0.00000000000E+00 0. -1.
         21   -1    0    0  501  502 -0.00000000000E+00 -0.00000000000E+00 -0.54400396663E+03  0.54400396663E+03  0.00000000000E+00 0. -1.
         25    1    1    2    0    0 -0.15937606067E+03  0.14047971944E+01 -0.30950587617E+03  0.36989402476E+03  0.12500000000E+03 0.  0.
         25    1    1    2    0    0  0.15937606067E+03 -0.14047971944E+01 -0.15409978751E+03  0.25450824482E+03  0.12500000000E+03 0.  0.
</event>
<event>
 4    0  0.2190908E-002  0.1438420E+03  0.7546771E-02  0.1208251E+00
         21   -1    0    0  502  501  0.00000000000E+00  0.00000000000E+00  0.32287643919E+03  0.32287643919E+03  0.00000000000E+00 0.  1.
         21   -1    0    0  501  502 -0.00000000000E+00 -0.00000000000E+00 -0.64081866578E+02  0.64081866578E+02  0.00000000000E+00 0.  1.
         25    1    1    2    0    0  0.79853003269E+01  0.37815803426E+02  0.20978458277E+03  0.24724152398E+03  0.12500000000E+03 0.  0.
         25    1    1    2    0    0 -0.79853003269E+01 -0.37815803426E+02  0.49009989842E+02  0.13971678179E+03  0.12500000000E+03 0.  0.
</event>
<event>
 4    0  0.2190908E-002  0.3501532E+03  0.7546771E-02  0.1062552E+00
         21   -1    0    0  502  501  0.00000000000E+00  0.00000000000E+00  0.57777357780E+03  0.57777357780E+03  0.00000000000E+00 0.  1.
         21   -1    0    0  501  502 -0.00000000000E+00 -0.00000000000E+00 -0.21220642022E+03  0.21220642022E+03  0.00000000000E+00 0.  1.
         25    1    1    2    0    0 -0.30087394476E+03 -0.82760222530E+01  0.32719430501E+03  0.46181677796E+03  0.12500000000E+03 0.  0.
         25    1    1    2    0    0  0.30087394476E+03  0.82760222530E+01  0.38372852567E+02  0.32816322005E+03  0.12500000000E+03 0.  0.
</event>
<event>
 4    0  0.2190908E-002  0.2442138E+03  0.7546771E-02  0.1117017E+00
         21   -1    0    0  502  501  0.00000000000E+00  0.00000000000E+00  0.13467148915E+04  0.13467148915E+04  0.00000000000E+00 0. -1.
         21   -1    0    0  501  502 -0.00000000000E+00 -0.00000000000E+00 -0.44285839320E+02  0.44285839320E+02  0.00000000000E+00 0. -1.
         25    1    1    2    0    0 -0.13836725741E+03  0.39411179358E+02  0.21634370924E+03  0.28831985625E+03  0.12500000000E+03 0.  0.
         25    1    1    2    0    0  0.13836725741E+03 -0.39411179358E+02  0.10860853429E+04  0.11026808746E+04  0.12500000000E+03 0.  0.
</event>
<event>
 4    0  0.2190908E-002  0.2347376E+03  0.7546771E-02  0.1123349E+00
         21   -1    0    0  502  501  0.00000000000E+00  0.00000000000E+00  0.37341156923E+03  0.37341156923E+03  0.00000000000E+00 0.  1.
         21   -1    0    0  501  502 -0.00000000000E+00 -0.00000000000E+00 -0.14756305487E+03  0.14756305487E+03  0.00000000000E+00 0.  1.
         25    1    1    2    0    0 -0.10824263592E+03 -0.11998675685E+03 -0.15357044960E+02  0.20487588653E+03  0.12500000000E+03 0.  0.
         25    1    1    2    0    0  0.10824263592E+03  0.11998675685E+03  0.24120555932E+03  0.31609873758E+03  0.12500000000E+03 0.  0.
</event>
<event>
 4    0  0.2190908E-002  0.1892035E+03  0.7546771E-02  0.1159182E+00
         21   -1    0    0  502  501  0.00000000000E+00  0.00000000000E+00  0.16785442065E+03  0.16785442065E+03  0.00000000000E+00 0. -1.
         21   -1    0    0  501  502 -0.00000000000E+00 -0.00000000000E+00 -0.21326784538E+03  0.21326784538E+03  0.00000000000E+00 0. -1.
         25    1    1    2    0    0  0.19148273739E+02  0.12073952058E+03  0.50118864340E+02  0.18188344834E+03  0.12500000000E+03 0.  0.
         25    1    1    2    0    0 -0.19148273739E+02 -0.12073952058E+03 -0.95532289073E+02  0.19923881769E+03  0.12500000000E+03 0.  0.
</event>
<event>
 4    0  0.2190908E-002  0.3066042E+03  0.7546771E-02  0.1081985E+00
         21   -1    0    0  502  501  0.00000000000E+00  0.00000000000E+00  0.20654708130E+03  0.20654708130E+03  0.00000000000E+00 0.  1.
         21   -1    0    0  501  502 -0.00000000000E+00 -0.00000000000E+00 -0.45513179158E+03  0.45513179158E+03  0.00000000000E+00 0.  1.
         25    1    1    2    0    0 -0.27074196398E+03 -0.54062132114E+02 -0.74175227863E+02  0.31201104086E+03  0.12500000000E+03 0.  0.
         25    1    1    2    0    0  0.27074196398E+03  0.54062132114E+02 -0.17440948241E+03  0.34966783201E+03  0.12500000000E+03 0.  0.
</event>
<event>
 4    0  0.2190908E-002  0.2060056E+03  0.7546771E-02  0.1144769E+00
         21   -1    0    0  502  501  0.00000000000E+00  0.00000000000E+00  0.59480934775E+03  0.59480934775E+03  0.00000000000E+00 0.  1.
         21   -1    0    0  501  502 -0.00000000000E+00 -0.00000000000E+00 -0.71347725464E+02  0.71347725464E+02  0.00000000000E+00 0.  1.
         25    1    1    2    0    0 -0.10652736337E+03 -0.70216779975E+01  0.46247930028E+03  0.49082531138E+03  0.12500000000E+03 0.  0.
         25    1    1    2    0    0  0.10652736337E+03  0.70216779975E+01  0.60982322006E+02  0.17533176183E+03  0.12500000000E+03 0.  0.
</event>
<event>
 4    0  0.2190908E-002  0.1995178E+03  0.7546771E-02  0.1150146E+00
         21   -1    0    0  502  501  0.00000000000E+00  0.00000000000E+00  0.45389164680E+03  0.45389164680E+03  0.00000000000E+00 0.  1.
         21   -1    0    0  501  502 -0.00000000000E+00 -0.00000000000E+00 -0.87702327135E+02  0.87702327135E+02  0.00000000000E+00 0.  1.
         25    1    1    2    0    0 -0.77867630224E+02  0.11289810932E+03  0.28258266116E+03  0.33806406392E+03  0.12500000000E+03 0.  0.
         25    1    1    2    0    0  0.77867630224E+02 -0.11289810932E+03  0.83606658497E+02  0.20352991001E+03  0.12500000000E+03 0.  0.
</event>
<event>
 4    0  0.2190908E-002  0.1928026E+03  0.7546771E-02  0.1155958E+00
         21   -1    0    0  502  501  0.00000000000E+00  0.00000000000E+00  0.12442044820E+03  0.12442044820E+03  0.00000000000E+00 0. -1.
         21   -1    0    0  501  502 -0.00000000000E+00 -0.00000000000E+00 -0.29876790468E+03  0.29876790468E+03  0.00000000000E+00 0. -1.
         25    1    1    2    0    0 -0.11591039213E+03 -0.64767085234E+02 -0.18480435642E+02  0.18329353735E+03  0.12500000000E+03 0.  0.
         25    1    1    2    0    0  0.11591039213E+03  0.64767085234E+02 -0.15586702084E+03  0.23989481553E+03  0.12500000000E+03 0.  0.
</event>
<event>
 4    0  0.2190908E-002  0.1599748E+03  0.7546771E-02  0.1188725E+00
         21   -1    0    0  502  501  0.00000000000E+00  0.00000000000E+00  0.23146025568E+03  0.23146025568E+03  0.00000000000E+00 0.  1.
         21   -1    0    0  501  502 -0.00000000000E+00 -0.00000000000E+00 -0.11056736198E+03  0.11056736198E+03  0.00000000000E+00 0.  1.
         25    1    1    2    0    0 -0.14594130495E+02 -0.81816003630E+02  0.11958184132E+03  0.19191577285E+03  0.12500000000E+03 0.  0.
         25    1    1    2    0    0  0.14594130495E+02  0.81816003630E+02  0.13110523862E+01  0.15011184481E+03  0.12500000000E+03 0.  0.
</event>
<event>
 4    0  0.2190908E-002  0.3402963E+03  0.7546771E-02  0.1066670E+00
         21   -1    0    0  502  501  0.00000000000E+00  0.00000000000E+00  0.47191696941E+02  0.47191696941E+02  0.00000000000E+00 0.  1.
         21   -1    0    0  501  502 -0.00000000000E+00 -0.00000000000E+00 -0.24538554184E+04  0.24538554184E+04  0.00000000000E+00 0.  1.
         25    1    1    2    0    0 -0.11894447819E+03 -0.24559966992E+03 -0.61410521588E+03  0.68353288357E+03  0.12500000000E+03 0.  0.
         25    1    1    2    0    0  0.11894447819E+03  0.24559966992E+03 -0.17925585056E+04  0.18175142318E+04  0.12500000000E+03 0.  0.
</event>
<event>
 4    0  0.2190908E-002  0.1997523E+03  0.7546771E-02  0.1149948E+00
         21   -1    0    0  502  501  0.00000000000E+00  0.00000000000E+00  0.11027047634E+04  0.11027047634E+04  0.00000000000E+00 0. -1.
         21   -1    0    0  501  502 -0.00000000000E+00 -0.00000000000E+00 -0.36184629702E+02  0.36184629702E+02  0.00000000000E+00 0. -1.
         25    1    1    2    0    0  0.63073932119E+02  0.24299379375E+02  0.93345550454E+03  0.94421023068E+03  0.12500000000E+03 0.  0.
         25    1    1    2    0    0 -0.63073932119E+02 -0.24299379375E+02  0.13306462915E+03  0.19467916243E+03  0.12500000000E+03 0.  0.
</event>
<event>
 4    0  0.2190908E-002  0.1844911E+03  0.7546771E-02  0.1163526E+00
         21   -1    0    0  502  501  0.00000000000E+00  0.00000000000E+00  0.98617922165E+03  0.98617922165E+03  0.00000000000E+00 0.  1.
         21   -1    0    0  501  502 -0.00000000000E+00 -0.00000000000E+00 -0.34513981620E+02  0.34513981620E+02  0.00000000000E+00 0.  1.
         25    1    1    2    0    0  0.78885298657E+02  0.13209679780E+02  0.77904307248E+03  0.79305138217E+03  0.12500000000E+03 0.  0.
         25    1    1    2    0    0 -0.78885298657E+02 -0.13209679780E+02  0.17262216755E+03  0.22764182110E+03  0.12500000000E+03 0.  0.
</event>
<event>
 4    0  0.2190908E-002  0.1820014E+03  0.7546771E-02  0.1165880E+00
         21   -1    0    0  502  501  0.00000000000E+00  0.00000000000E+00  0.89161283020E+03  0.89161283020E+03  0.00000000000E+00 0. -1.
         21   -1    0    0  501  502 -0.00000000000E+00 -0.00000000000E+00 -0.37151221052E+02  0.37151221052E+02  0.00000000000E+00 0. -1.
         25    1    1    2    0    0 -0.96849953182E+02 -0.67282028845E+02  0.27429385718E+03  0.32368025106E+03  0.12500000000E+03 0.  0.
         25    1    1    2    0    0  0.96849953182E+02  0.67282028845E+02  0.58016775197E+03  0.60508380020E+03  0.12500000000E+03 0.  0.
</event>
<event>
 4    0  0.2190908E-002  0.3212678E+03  0.7546771E-02  0.1075067E+00
         21   -1    0    0  502  501  0.00000000000E+00  0.00000000000E+00  0.30099373753E+03  0.30099373753E+03  0.00000000000E+00 0.  1.
         21   -1    0    0  501  502 -0.00000000000E+00 -0.00000000000E+00 -0.34290753673E+03  0.34290753673E+03  0.00000000000E+00 0.  1.
         25    1    1    2    0    0  0.29565892121E+03 -0.13080263451E+02 -0.22612719404E+02  0.32205842027E+03  0.12500000000E+03 0.  0.
         25    1    1    2    0    0 -0.29565892121E+03  0.13080263451E+02 -0.19301079788E+02  0.32184285399E+03  0.12500000000E+03 0.  0.
</event>
<event>
 4    0  0.2190908E-002  0.2105590E+03  0.7546771E-02  0.1141124E+00
         21   -1    0    0  502  501  0.00000000000E+00  0.00000000000E+00  0.24096367334E+03  0.24096367334E+03  0.00000000000E+00 0. -1.
         21   -1    0    0  501  502 -0.00000000000E+00 -0.00000000000E+00 -0.18399072236E+03  0.18399072236E+03  0.00000000000E+00 0. -1.
         25    1    1    2    0    0 -0.55233704345E+02  0.12696931261E+03  0.12703946135E+03  0.22569003784E+03  0.12500000000E+03 0.  0.
         25    1    1    2    0    0  0.55233704345E+02 -0.12696931261E+03 -0.70066510366E+02  0.19926435786E+03  0.12500000000E+03 0.  0.
</event>
<event>
 4    0  0.2190908E-002  0.2954032E+03  0.7546771E-02  0.1087561E+00
         21   -1    0    0  502  501  0.00000000000E+00  0.00000000000E+00  0.13569930088E+03  0.13569930088E+03  0.00000000000E+00 0. -1.
         21   -1    0    0  501  502 -0.00000000000E+00 -0.00000000000E+00 -0.64306171198E+03  0.64306171198E+03  0.00000000000E+00 0. -1.
         25    1    1    2    0    0  0.18053286599E+03  0.15859103161E+03 -0.40905763112E+03  0.49060817012E+03  0.12500000000E+03 0.  0.
         25    1    1    2    0    0 -0.18053286599E+03 -0.15859103161E+03 -0.98304779969E+02  0.28815284273E+03  0.12500000000E+03 0.  0.
</event>
<event>
 4    0  0.2190908E-002  0.1882369E+03  0.7546771E-02  0.1160061E+00
         21   -1    0    0  502  501  0.00000000000E+00  0.00000000000E+00  0.17390975836E+03  0.17390975836E+03  0.00000000000E+00 0. -1.
         21   -1    0    0  501  502 -0.00000000000E+00 -0.00000000000E+00 -0.20374441254E+03  0.20374441254E+03  0.00000000000E+00 0. -1.
         25    1    1    2    0    0  0.58772022191E+02 -0.72930589562E+02  0.90460197312E+02  0.18050226809E+03  0.12500000000E+03 0.  0.
         25    1    1    2    0    0 -0.58772022191E+02  0.72930589562E+02 -0.12029485149E+03  0.19715190281E+03  0.12500000000E+03 0.  0.
</event>
<event>
 4    0  0.2190908E-002  0.2009984E+03  0.7546771E-02  0.1148899E+00
         21   -1    0    0  502  501  0.00000000000E+00  0.00000000000E+00  0.14864092994E+03  0.14864092994E+03  0.00000000000E+00 0. -1.
         21   -1    0    0  501  502 -0.00000000000E+00 -0.00000000000E+00 -0.27179837914E+03  0.27179837914E+03  0.00000000000E+00 0. -1.
         25    1    1    2    0    0  0.11019566568E+03  0.97224912371E+02 -0.12055354372E+03  0.22749489054E+03  0.12500000000E+03 0.  0.
         25    1    1    2    0    0 -0.11019566568E+03 -0.97224912371E+02 -0.26039054871E+01  0.19294441853E+03  0.12500000000E+03 0.  0.
</event>
<event>
 4    0  0.2190908E-002  0.2240207E+03  0.7546771E-02  0.1130920E+00
         21   -1    0    0  502  501  0.00000000000E+00  0.00000000000E+00  0.11238874162E+03  0.11238874162E+03  0.00000000000E+00 0.  1.
         21   -1    0    0  501  502 -0.00000000000E+00 -0.00000000000E+00 -0.44653304634E+03  0.44653304634E+03  0.00000000000E+00 0.  1.
         25    1    1    2    0    0 -0.18153374298E+03  0.37385400945E+02 -0.18506868476E+03  0.29021989271E+03  0.12500000000E+03 0.  0.
         25    1    1    2    0    0  0.18153374298E+03 -0.37385400945E+02 -0.14907561997E+03  0.26870189526E+03  0.12500000000E+03 0.  0.
</event>
<event>
 4    0  0.2190908E-002  0.1935281E+03  0.7546771E-02  0.1155317E+00
         21   -1    0    0  502  501  0.00000000000E+00  0.00000000000E+00  0.18651796988E+04  0.18651796988E+04  0.00000000000E+00 0. -1.
         21   -1    0    0  501  502 -0.00000000000E+00 -0.00000000000E+00 -0.20080178104E+02  0.20080178104E+02  0.00000000000E+00 0. -1.
         25    1    1    2    0    0 -0.28758408410E+02 -0.78833766174E+02  0.15148301217E+04  0.15222933707E+04  0.12500000000E+03 0.  0.
         25    1    1    2    0    0  0.28758408410E+02  0.78833766174E+02  0.33026939901E+03  0.36296650626E+03  0.12500000000E+03 0.  0.
</event>
<event>
 4    0  0.2190908E-002  0.1971270E+03  0.7546771E-02  0.1152186E+00
         21   -1    0    0  502  501  0.00000000000E+00  0.00000000000E+00  0.32999536838E+03  0.32999536838E+03  0.00000000000E+00 0.  1.
         21   -1    0    0  501  502 -0.00000000000E+00 -0.00000000000E+00 -0.11775630266E+03  0.11775630266E+03  0.00000000000E+00 0.  1.
         25    1    1    2    0    0  0.61837689735E+02  0.69672036386E+02  0.24313871609E+03  0.28882438919E+03  0.12500000000E+03 0.  0.
         25    1    1    2    0    0 -0.61837689735E+02 -0.69672036386E+02 -0.30899650376E+02  0.15892728186E+03  0.12500000000E+03 0.  0.
</event>
<event>
 4    0  0.2190908E-002  0.1991725E+03  0.7546771E-02  0.1150439E+00
         21   -1    0    0  502  501  0.00000000000E+00  0.00000000000E+00  0.22603161831E+03  0.22603161831E+03  0.00000000000E+00 0. -1.
         21   -1    0    0  501  502 -0.00000000000E+00 -0.00000000000E+00 -0.17550495102E+03  0.17550495102E+03  0.00000000000E+00 0. -1.
         25    1    1    2    0    0  0.58859917715E+02 -0.14335951798E+03  0.19907876279E+02  0.20009438985E+03  0.12500000000E+03 0.  0.
         25    1    1    2    0    0 -0.58859917715E+02  0.14335951798E+03  0.30618791016E+02  0.20144217948E+03  0.12500000000E+03 0.  0.
</event>
<event>
 4    0  0.2190908E-002  0.2872337E+03  0.7546771E-02  0.1091802E+00
         21   -1    0    0  502  501  0.00000000000E+00  0.00000000000E+00  0.62728088248E+02  0.62728088248E+02  0.00000000000E+00 0.  1.
         21   -1    0    0  501  502 -0.00000000000E+00 -0.00000000000E+00 -0.13152514562E+04  0.13152514562E+04  0.00000000000E+00 0.  1.
         25    1    1    2    0    0 -0.19414269764E+03  0.15170883733E+03 -0.81469772023E+03  0.86026991910E+03  0.12500000000E+03 0.  0.
         25    1    1    2    0    0  0.19414269764E+03 -0.15170883733E+03 -0.43782564776E+03  0.51770962538E+03  0.12500000000E+03 0.  0.
</event>
<event>
 4    0  0.2190908E-002  0.2491452E+03  0.7546771E-02  0.1113846E+00
         21   -1    0    0  502  501  0.00000000000E+00  0.00000000000E+00  0.22356725907E+02  0.22356725907E+02  0.00000000000E+00 0.  1.
         21   -1    0    0  501  502 -0.00000000000E+00 -0.00000000000E+00 -0.27764943799E+04  0.27764943799E+04  0.00000000000E+00 0.  1.
         25    1    1    2    0    0 -0.11465124261E+03  0.35498096496E+02 -0.23825314424E+04  0.23888252544E+04  0.12500000000E+03 0.  0.
         25    1    1    2    0    0  0.11465124261E+03 -0.35498096496E+02 -0.37160621162E+03  0.41002585138E+03  0.12500000000E+03 0.  0.
</event>
<event>
 4    0  0.2190908E-002  0.1950146E+03  0.7546771E-02  0.1154015E+00
         21   -1    0    0  502  501  0.00000000000E+00  0.00000000000E+00  0.43908419095E+03  0.43908419095E+03  0.00000000000E+00 0. -1.
         21   -1    0    0  501  502 -0.00000000000E+00 -0.00000000000E+00 -0.86613632713E+02  0.86613632713E+02  0.00000000000E+00 0. -1.
         25    1    1    2    0    0 -0.77834485870E+02  0.81863299858E+02  0.43859096327E+02  0.17409315720E+03  0.12500000000E+03 0.  0.
         25    1    1    2    0    0  0.77834485870E+02 -0.81863299858E+02  0.30861146191E+03  0.35160466646E+03  0.12500000000E+03 0.  0.
</event>
<event>
 4    0  0.2190908E-002  0.1899581E+03  0.7546771E-02  0.1158499E+00
         21   -1    0    0  502  501  0.00000000000E+00  0.00000000000E+00  0.31985131494E+02  0.31985131494E+02  0.00000000000E+00 0. -1.
         21   -1    0    0  501  502 -0.00000000000E+00 -0.00000000000E+00 -0.11281511021E+04  0.11281511021E+04  0.00000000000E+00 0. -1.
         25    1    1    2    0    0 -0.58652354228E+02 -0.87262866829E+02 -0.25195382656E+03  0.30026760948E+03  0.12500000000E+03 0.  0.
         25    1    1    2    0    0  0.58652354228E+02  0.87262866829E+02 -0.84421214407E+03  0.85986862414E+03  0.12500000000E+03 0.  0.
</event>
<event>
 4    0  0.2190908E-002  0.1948262E+03  0.7546771E-02  0.1154179E+00
         21   -1    0    0  502  501  0.00000000000E+00  0.00000000000E+00  0.38467124822E+02  0.38467124822E+02  0.00000000000E+00 0. -1.
         21   -1    0    0  501  502 -0.00000000000E+00 -0.00000000000E+00 -0.98674509219E+03  0.98674509219E+03  0.00000000000E+00 0. -1.
         25    1    1    2    0    0  0.16503915498E+02 -0.21436123879E+02 -0.87445440113E+02  0.15493092535E+03  0.12500000000E+03 0.  0.
         25    1    1    2    0    0 -0.16503915498E+02  0.21436123879E+02 -0.86083252726E+03  0.87028129166E+03  0.12500000000E+03 0.  0.
</event>
<event>
 4    0  0.2190908E-002  0.1703556E+03  0.7546771E-02  0.1177478E+00
         21   -1    0    0  502  501  0.00000000000E+00  0.00000000000E+00  0.33833263313E+03  0.33833263313E+03  0.00000000000E+00 0.  1.
         21   -1    0    0  501  502 -0.00000000000E+00 -0.00000000000E+00 -0.85776579438E+02  0.85776579438E+02  0.00000000000E+00 0.  1.
         25    1    1    2    0    0  0.68234041531E+02 -0.89605576286E+02  0.15946882772E+03  0.23181965132E+03  0.12500000000E+03 0.  0.
         25    1    1    2    0    0 -0.68234041531E+02  0.89605576286E+02  0.93087225977E+02  0.19228956125E+03  0.12500000000E+03 0.  0.
</event>
<event>
 4    0  0.2190908E-002  0.1863266E+03  0.7546771E-02  0.1161817E+00
         21   -1    0    0  502  501  0.00000000000E+00  0.00000000000E+00  0.46325706804E+03  0.46325706804E+03  0.00000000000E+00 0.  1.
         21   -1    0    0  501  502 -0.00000000000E+00 -0.00000000000E+00 -0.74942381148E+02  0.74942381148E+02  0.00000000000E+00 0.  1.
         25    1    1    2    0    0  0.77877286622E+02 -0.97168055479E+02  0.28064393284E+03  0.33150040697E+03  0.12500000000E+03 0.  0.
         25    1    1    2    0    0 -0.77877286622E+02  0.97168055479E+02  0.10767075404E+03  0.20669904222E+03  0.12500000000E+03 0.  0.
</event>
<event>
 4    0  0.2190908E-002  0.2437295E+03  0.7546771E-02  0.1117333E+00
         21   -1    0    0  502  501  0.00000000000E+00  0.00000000000E+00  0.11299733234E+03  0.11299733234E+03  0.00000000000E+00 0.  1.
         21   -1    0    0  501  502 -0.00000000000E+00 -0.00000000000E+00 -0.52571223030E+03  0.52571223030E+03  0.00000000000E+00 0.  1.
         25    1    1    2    0    0  0.94058366749E+02 -0.99203755647E+02 -0.41390701646E+03  0.45346706580E+03  0.12500000000E+03 0.  0.
         25    1    1    2    0    0 -0.94058366749E+02  0.99203755647E+02  0.11921184969E+01  0.18524249684E+03  0.12500000000E+03 0.  0.
</event>
<event>
 4    0  0.2190908E-002  0.2377803E+03  0.7546771E-02  0.1121280E+00
         21   -1    0    0  502  501  0.00000000000E+00  0.00000000000E+00  0.27166536953E+03  0.27166536953E+03  0.00000000000E+00 0.  1.
         21   -1    0    0  501  502 -0.00000000000E+00 -0.00000000000E+00 -0.20812168583E+03  0.20812168583E+03  0.00000000000E+00 0.  1.
         25    1    1    2    0    0  0.18727780623E+03 -0.29434083699E+00  0.10888009678E+03  0.25010585522E+03  0.12500000000E+03 0.  0.
         25    1    1    2    0    0 -0.18727780623E+03  0.29434083699E+00 -0.45336413082E+02  0.22968120013E+03  0.12500000000E+03 0.  0.
</event>
<event>
 4    0  0.2190908E-002  0.1884683E+03  0.7546771E-02  0.1159850E+00
         21   -1    0    0  502  501  0.00000000000E+00  0.00000000000E+00  0.20675744820E+04  0.20675744820E+04  0.00000000000E+00 0. -1.
         21   -1    0    0  501  502 -0.00000000000E+00 -0.00000000000E+00 -0.17179701511E+02  0.17179701511E+02  0.00000000000E+00 0. -1.
         25    1    1    2    0    0  0.83349516649E+02  0.60501671291E+02  0.15582142999E+04  0.15666092041E+04  0.12500000000E+03 0.  0.
         25    1    1    2    0    0 -0.83349516649E+02 -0.60501671291E+02  0.49218048065E+03  0.51814497941E+03  0.12500000000E+03 0.  0.
</event>
<event>
 4    0  0.2190908E-002  0.2027853E+03  0.7546771E-02  0.1147410E+00
         21   -1    0    0  502  501  0.00000000000E+00  0.00000000000E+00  0.33198898485E+03  0.33198898485E+03  0.00000000000E+00 0.  1.
         21   -1    0    0  501  502 -0.00000000000E+00 -0.00000000000E+00 -0.12386515457E+03  0.12386515457E+03  0.00000000000E+00 0.  1.
         25    1    1    2    0    0 -0.82100651500E+02  0.99863830575E+02  0.20940230284E+03  0.27602106091E+03  0.12500000000E+03 0.  0.
         25    1    1    2    0    0  0.82100651500E+02 -0.99863830575E+02 -0.12784725567E+01  0.17983307851E+03  0.12500000000E+03 0.  0.
</event>
<event>
 4    0  0.2190908E-002  0.2045814E+03  0.7546771E-02  0.1145930E+00
         21   -1    0    0  502  501  0.00000000000E+00  0.00000000000E+00  0.60900239301E+02  0.60900239301E+02  0.00000000000E+00 0. -1.
         21   -1    0    0  501  502 -0.00000000000E+00 -0.00000000000E+00 -0.68724758630E+03  0.68724758630E+03  0.00000000000E+00 0. -1.
         25    1    1    2    0    0 -0.64415054450E+02 -0.12889032101E+03 -0.44836446621E+03  0.48725528078E+03  0.12500000000E+03 0.  0.
         25    1    1    2    0    0  0.64415054450E+02  0.12889032101E+03 -0.17798288079E+03  0.26089254482E+03  0.12500000000E+03 0.  0.
</event>
<event>
 4    0  0.2190908E-002  0.2350384E+03  0.7546771E-02  0.1123143E+00
         21   -1    0    0  502  501  0.00000000000E+00  0.00000000000E+00  0.58099264784E+02  0.58099264784E+02  0.00000000000E+00 0. -1.
         21   -1    0    0  501  502 -0.00000000000E+00 -0.00000000000E+00 -0.95083892990E+03  0.95083892990E+03  0.00000000000E+00 0. -1.
         25    1    1    2    0    0  0.93069430735E+02  0.93169627625E+02 -0.76670892017E+03  0.78791501236E+03  0.12500000000E+03 0.  0.
         25    1    1    2    0    0 -0.93069430735E+02 -0.93169627625E+02 -0.12603074495E+03  0.22102318232E+03  0.12500000000E+03 0.  0.
</event>
<event>
 4    0  0.2190908E-002  0.2416146E+03  0.7546771E-02  0.1118722E+00
         21   -1    0    0  502  501  0.00000000000E+00  0.00000000000E+00  0.30647957788E+03  0.30647957788E+03  0.00000000000E+00 0. -1.
         21   -1    0    0  501  502 -0.00000000000E+00 -0.00000000000E+00 -0.19047803610E+03  0.19047803610E+03  0.00000000000E+00 0. -1.
         25    1    1    2    0    0  0.15932301880E+03 -0.87608231566E+02 -0.43252418586E+02  0.22484394204E+03  0.12500000000E+03 0.  0.
         25    1    1    2    0    0 -0.15932301880E+03  0.87608231566E+02  0.15925396037E+03  0.27211367193E+03  0.12500000000E+03 0.  0.
</event>
<event>
 4    0  0.2190908E-002  0.1722577E+03  0.7546771E-02  0.1175514E+00
         21   -1    0    0  502  501  0.00000000000E+00  0.00000000000E+00  0.13214994130E+03  0.13214994130E+03  0.00000000000E+00 0. -1.
         21   -1    0    0  501  502 -0.00000000000E+00 -0.00000000000E+00 -0.22453822382E+03  0.22453822382E+03  0.00000000000E+00 0. -1.
         25    1    1    2    0    0 -0.24340376452E+02 -0.11558108164E+03 -0.56352691673E+02  0.18097531936E+03  0.12500000000E+03 0.  0.
         25    1    1    2    0    0  0.24340376452E+02  0.11558108164E+03 -0.36035590840E+02  0.17571284576E+03  0.12500000000E+03 0.  0.
</event>
<event>
 4    0  0.2190908E-002  0.1800687E+03  0.7546771E-02  0.1167737E+00
         21   -1    0    0  502  501  0.00000000000E+00  0.00000000000E+00  0.34215919737E+02  0.34215919737E+02  0.00000000000E+00 0. -1.
         21   -1    0    0  501  502 -0.00000000000E+00 -0.00000000000E+00 -0.94765093576E+03  0.94765093576E+03  0.00000000000E+00 0. -1.
         25    1    1    2    0    0  0.20913202744E+01  0.12076290853E+03 -0.32850013289E+03  0.37165224472E+03  0.12500000000E+03 0.  0.
         25    1    1    2    0    0 -0.20913202744E+01 -0.12076290853E+03 -0.58493488314E+03  0.61021461078E+03  0.12500000000E+03 0.  0.
</event>
<event>
 4    0  0.2190908E-002  0.2225766E+03  0.7546771E-02  0.1131977E+00
         21   -1    0    0  502  501  0.00000000000E+00  0.00000000000E+00  0.35166168402E+03  0.35166168402E+03  0.00000000000E+00 0. -1.
         21   -1    0    0  501  502 -0.00000000000E+00 -0.00000000000E+00 -0.14087494686E+03  0.14087494686E+03  0.00000000000E+00 0.  1.
         25    1    1    2    0    0  0.16047675072E+03  0.48767009270E+02  0.21243198305E+02  0.21025527862E+03  0.12500000000E+03 0.  0.
         25    1    1    2    0    0 -0.16047675072E+03 -0.48767009270E+02  0.18954353886E+03  0.28228135226E+03  0.12500000000E+03 0.  0.
</event>
<event>
 4    0  0.2190908E-002  0.2014249E+03  0.7546771E-02  0.1148542E+00
         21   -1    0    0  502  501  0.00000000000E+00  0.00000000000E+00  0.11401202480E+03  0.11401202480E+03  0.00000000000E+00 0. -1.
         21   -1    0    0  501  502 -0.00000000000E+00 -0.00000000000E+00 -0.35585711202E+03  0.35585711202E+03  0.00000000000E+00 0. -1.
         25    1    1    2    0    0  0.14023693491E+02  0.70498901916E+02 -0.28496242484E+03  0.31936709712E+03  0.12500000000E+03 0.  0.
         25    1    1    2    0    0 -0.14023693491E+02 -0.70498901916E+02  0.43117337623E+02  0.15050203970E+03  0.12500000000E+03 0.  0.
</event>
<event>
 4    0  0.2190908E-002  0.2676292E+03  0.7546771E-02  0.1102644E+00
         21   -1    0    0  502  501  0.00000000000E+00  0.00000000000E+00  0.94191498003E+02  0.94191498003E+02  0.00000000000E+00 0. -1.
         21   -1    0    0  501  502 -0.00000000000E+00 -0.00000000000E+00 -0.76042298533E+03  0.76042298533E+03  0.00000000000E+00 0. -1.
         25    1    1    2    0    0  0.11823746004E+03 -0.11114701923E+03 -0.60812090282E+03  0.64169290887E+03  0.12500000000E+03 0.  0.
         25    1    1    2    0    0 -0.11823746004E+03  0.11114701923E+03 -0.58110584508E+02  0.21292157447E+03  0.12500000000E+03 0.  0.
</event>
<event>
 4    0  0.2190908E-002  0.3039132E+03  0.7546771E-02  0.1083301E+00
         21   -1    0    0  502  501  0.00000000000E+00  0.00000000000E+00  0.59321364191E+03  0.59321364191E+03  0.00000000000E+00 0. -1.
         21   -1    0    0  501  502 -0.00000000000E+00 -0.00000000000E+00 -0.15569978090E+03  0.15569978090E+03  0.00000000000E+00 0. -1.
         25    1    1    2    0    0  0.53583795750E+02  0.47297120802E+01 -0.11606318680E+03  0.17885540717E+03  0.12500000000E+03 0.  0.
         25    1    1    2    0    0 -0.53583795750E+02 -0.47297120802E+01  0.55357704780E+03  0.57005801564E+03  0.12500000000E+03 0.  0.
</event>
<event>
 4    0  0.2190908E-002  0.2736122E+03  0.7546771E-02  0.1099230E+00
         21   -1    0    0  502  501  0.00000000000E+00  0.00000000000E+00  0.17720755531E+04  0.17720755531E+04  0.00000000000E+00 0. -1.
         21   -1    0    0  501  502 -0.00000000000E+00 -0.00000000000E+00 -0.42246315013E+02  0.42246315013E+02  0.00000000000E+00 0. -1.
         25    1    1    2    0    0  0.39417489348E+02 -0.18060801838E+03  0.13898289636E+04  0.14076301158E+04  0.12500000000E+03 0.  0.
         25    1    1    2    0    0 -0.39417489348E+02  0.18060801838E+03  0.34000027447E+03  0.40669175232E+03  0.12500000000E+03 0.  0.
</event>
<event>
 4    0  0.2190908E-002  0.2004636E+03  0.7546771E-02  0.1149348E+00
         21   -1    0    0  502  501  0.00000000000E+00  0.00000000000E+00  0.17734021867E+02  0.17734021867E+02  0.00000000000E+00 0. -1.
         21   -1    0    0  501  502 -0.00000000000E+00 -0.00000000000E+00 -0.22660193585E+04  0.22660193585E+04  0.00000000000E+00 0. -1.
         25    1    1    2    0    0  0.27048547864E+02 -0.11917661431E+02 -0.24746761740E+03  0.27881692247E+03  0.12500000000E+03 0.  0.
         25    1    1    2    0    0 -0.27048547864E+02  0.11917661431E+02 -0.20008177192E+04  0.20049364579E+04  0.12500000000E+03 0.  0.
</event>
<event>
 4    0  0.2190908E-002  0.2321017E+03  0.7546771E-02  0.1125169E+00
         21   -1    0    0  502  501  0.00000000000E+00  0.00000000000E+00  0.18667992406E+03  0.18667992406E+03  0.00000000000E+00 0. -1.
         21   -1    0    0  501  502 -0.00000000000E+00 -0.00000000000E+00 -0.28857530983E+03  0.28857530983E+03  0.00000000000E+00 0. -1.
         25    1    1    2    0    0  0.42158580205E+02 -0.18608497347E+03 -0.94879122337E+02  0.24704657676E+03  0.12500000000E+03 0.  0.
         25    1    1    2    0    0 -0.42158580205E+02  0.18608497347E+03 -0.70162634407E+01  0.22820865713E+03  0.12500000000E+03 0.  0.
</event>
<event>
 4    0  0.2190908E-002  0.2385037E+03  0.7546771E-02  0.1120794E+00
         21   -1    0    0  502  501  0.00000000000E+00  0.00000000000E+00  0.62125693305E+03  0.62125693305E+03  0.00000000000E+00 0.  1.
         21   -1    0    0  501  502 -0.00000000000E+00 -0.00000000000E+00 -0.91562784786E+02  0.91562784786E+02  0.00000000000E+00 0.  1.
         25    1    1    2    0    0  0.56472552942E+02  0.10383883720E+03  0.17995807168E+02  0.17297543878E+03  0.12500000000E+03 0.  0.
         25    1    1    2    0    0 -0.56472552942E+02 -0.10383883720E+03  0.51169834109E+03  0.53984427905E+03  0.12500000000E+03 0.  0.
</event>
<event>
 4    0  0.2190908E-002  0.1755204E+03  0.7546771E-02  0.1172210E+00
         21   -1    0    0  502  501  0.00000000000E+00  0.00000000000E+00  0.30585949398E+02  0.30585949398E+02  0.00000000000E+00 0. -1.
         21   -1    0    0  501  502 -0.00000000000E+00 -0.00000000000E+00 -0.10072408343E+04  0.10072408343E+04  0.00000000000E+00 0. -1.
         25    1    1    2    0    0 -0.98493790839E+01 -0.76081387218E+02 -0.20326543636E+03  0.25065359636E+03  0.12500000000E+03 0.  0.
         25    1    1    2    0    0  0.98493790839E+01  0.76081387218E+02 -0.77338944854E+03  0.78717318733E+03  0.12500000000E+03 0.  0.
</event>
<event>
 4    0  0.2190908E-002  0.2326113E+03  0.7546771E-02  0.1124815E+00
         21   -1    0    0  502  501  0.00000000000E+00  0.00000000000E+00  0.17341219720E+03  0.17341219720E+03  0.00000000000E+00 0.  1.
         21   -1    0    0  501  502 -0.00000000000E+00 -0.00000000000E+00 -0.31201955198E+03  0.31201955198E+03  0.00000000000E+00 0.  1.
         25    1    1    2    0    0 -0.14244703506E+03  0.34200649324E+01  0.71387247842E+02  0.20254380710E+03  0.12500000000E+03 0.  0.
         25    1    1    2    0    0  0.14244703506E+03 -0.34200649324E+01 -0.20999460262E+03  0.28288794207E+03  0.12500000000E+03 0.  0.
</event>
<event>
 4    0  0.2190908E-002  0.1958931E+03  0.7546771E-02  0.1153251E+00
         21   -1    0    0  502  501  0.00000000000E+00  0.00000000000E+00  0.98380471768E+02  0.98380471768E+02  0.00000000000E+00 0.  1.
         21   -1    0    0  501  502 -0.00000000000E+00 -0.00000000000E+00 -0.39005815358E+03  0.39005815358E+03  0.00000000000E+00 0.  1.
         25    1    1    2    0    0  0.11639301058E+03 -0.22575522793E+02 -0.29607384058E+02  0.17481013795E+03  0.12500000000E+03 0.  0.
         25    1    1    2    0    0 -0.11639301058E+03  0.22575522793E+02 -0.26207029776E+03  0.31362848740E+03  0.12500000000E+03 0.  0.
</event>
<event>
 4    0  0.2190908E-002  0.2115692E+03  0.7546771E-02  0.1140329E+00
         21   -1    0    0  502  501  0.00000000000E+00  0.00000000000E+00  0.14069296961E+03  0.14069296961E+03  0.00000000000E+00 0. -1.
         21   -1    0    0  501  502 -0.00000000000E+00 -0.00000000000E+00 -0.31815051409E+03  0.31815051409E+03  0.00000000000E+00 0. -1.
         25    1    1    2    0    0  0.10123194293E+03  0.12572036296E+03 -0.14893904025E+03  0.25270804032E+03  0.12500000000E+03 0.  0.
         25    1    1    2    0    0 -0.10123194293E+03 -0.12572036296E+03 -0.28518504231E+02  0.20613544338E+03  0.12500000000E+03 0.  0.
</event>
<event>
 4    0  0.2190908E-002  0.2152066E+03  0.7546771E-02  0.1137508E+00
         21   -1    0    0  502  501  0.00000000000E+00  0.00000000000E+00  0.16470029167E+03  0.16470029167E+03  0.00000000000E+00 0.  1.
         21   -1    0    0  501  502 -0.00000000000E+00 -0.00000000000E+00 -0.28120090622E+03  0.28120090622E+03  0.00000000000E+00 0.  1.
         25    1    1    2    0    0  0.10757855227E+03  0.13638727643E+03 -0.34757503891E+02  0.21681263376E+03  0.12500000000E+03 0.  0.
         25    1    1    2    0    0 -0.10757855227E+03 -0.13638727643E+03 -0.81743110658E+02  0.22908856414E+03  0.12500000000E+03 0.  0.
</event>
<event>
 4    0  0.2190908E-002  0.1907377E+03  0.7546771E-02  0.1157798E+00
         21   -1    0    0  502  501  0.00000000000E+00  0.00000000000E+00  0.61976914462E+03  0.61976914462E+03  0.00000000000E+00 0.  1.
         21   -1    0    0  501  502 -0.00000000000E+00 -0.00000000000E+00 -0.58700666966E+02  0.58700666966E+02  0.00000000000E+00 0.  1.
         25    1    1    2    0    0 -0.36211180171E+02  0.30606106641E+02  0.52249356322E+03  0.53932597465E+03  0.12500000000E+03 0.  0.
         25    1    1    2    0    0  0.36211180171E+02 -0.30606106641E+02  0.38574914439E+02  0.13914383694E+03  0.12500000000E+03 0.  0.
</event>
<event>
 4    0  0.2190908E-002  0.2235321E+03  0.7546771E-02  0.1131277E+00
         21   -1    0    0  502  501  0.00000000000E+00  0.00000000000E+00  0.19831928620E+02  0.19831928620E+02  0.00000000000E+00 0.  1.
         21   -1    0    0  501  502 -0.00000000000E+00 -0.00000000000E+00 -0.25195022206E+04  0.25195022206E+04  0.00000000000E+00 0.  1.
         25    1    1    2    0    0  0.13077643741E+03  0.64628366270E+02 -0.60066341179E+03  0.63063526430E+03  0.12500000000E+03 0.  0.
         25    1    1    2    0    0 -0.13077643741E+03 -0.64628366270E+02 -0.18990068802E+04  0.19086988849E+04  0.12500000000E+03 0.  0.
</event>
<event>
 4    0  0.2190908E-002  0.3637563E+03  0.7546771E-02  0.1057106E+00
         21   -1    0    0  502  501  0.00000000000E+00  0.00000000000E+00  0.76410872146E+02  0.76410872146E+02  0.00000000000E+00 0.  1.
         21   -1    0    0  501  502 -0.00000000000E+00 -0.00000000000E+00 -0.17316733513E+04  0.17316733513E+04  0.00000000000E+00 0.  1.
         25    1    1    2    0    0  0.21129211777E+03 -0.83552835782E+02 -0.19367013809E+03  0.32366426709E+03  0.12500000000E+03 0.  0.
         25    1    1    2    0    0 -0.21129211777E+03  0.83552835782E+02 -0.14615923411E+04  0.14844199564E+04  0.12500000000E+03 0.  0.
</event>
<event>
 4    0  0.2190908E-002  0.2280662E+03  0.7546771E-02  0.1128008E+00
         21   -1    0    0  502  501  0.00000000000E+00  0.00000000000E+00  0.18552276857E+02  0.18552276857E+02  0.00000000000E+00 0. -1.
         21   -1    0    0  501  502 -0.00000000000E+00 -0.00000000000E+00 -0.28036557205E+04  0.28036557205E+04  0.00000000000E+00 0. -1.
         25    1    1    2    0    0  0.58912981179E+00 -0.16131793429E+03 -0.76262422771E+03  0.78945838123E+03  0.12500000000E+03 0.  0.
         25    1    1    2    0    0 -0.58912981179E+00  0.16131793429E+03 -0.20224792160E+04  0.20327496162E+04  0.12500000000E+03 0.  0.
</event>
<event>
 4    0  0.2190908E-002  0.2159208E+03  0.7546771E-02  0.1136961E+00
         21   -1    0    0  502  501  0.00000000000E+00  0.00000000000E+00  0.82185274876E+02  0.82185274876E+02  0.00000000000E+00 0.  1.
         21   -1    0    0  501  502 -0.00000000000E+00 -0.00000000000E+00 -0.56727652116E+03  0.56727652116E+03  0.00000000000E+00 0.  1.
         25    1    1    2    0    0  0.14199925782E+03  0.11304289372E+02 -0.39815171983E+03  0.44095506367E+03  0.12500000000E+03 0.  0.
         25    1    1    2    0    0 -0.14199925782E+03 -0.11304289372E+02 -0.86939526463E+02  0.20850673237E+03  0.12500000000E+03 0.  0.
</event>
<event>
 4    0  0.2190908E-002  0.2387959E+03  0.7546771E-02  0.1120598E+00
         21   -1    0    0  502  501  0.00000000000E+00  0.00000000000E+00  0.18493025576E+04  0.18493025576E+04  0.00000000000E+00 0.  1.
         21   -1    0    0  501  502 -0.00000000000E+00 -0.00000000000E+00 -0.30835118862E+02  0.30835118862E+02  0.00000000000E+00 0.  1.
         25    1    1    2    0    0 -0.17742210991E+03  0.39526562940E+01  0.13010146914E+04  0.13189990356E+04  0.12500000000E+03 0.  0.
         25    1    1    2    0    0  0.17742210991E+03 -0.39526562940E+01  0.51745274729E+03  0.56113864085E+03  0.12500000000E+03 0.  0.
</event>
<event>
 4    0  0.2190908E-002  0.2134709E+03  0.7546771E-02  0.1138847E+00
         21   -1    0    0  502  501  0.00000000000E+00  0.00000000000E+00  0.93229873405E+03  0.93229873405E+03  0.00000000000E+00 0. -1.
         21   -1    0    0  501  502 -0.00000000000E+00 -0.00000000000E+00 -0.48878979548E+02  0.48878979548E+02  0.00000000000E+00 0. -1.
         25    1    1    2    0    0  0.15115317247E+02 -0.14773140086E+02  0.47001783642E+02  0.13520682730E+03  0.12500000000E+03 0.  0.
         25    1    1    2    0    0 -0.15115317247E+02  0.14773140086E+02  0.83641797086E+03  0.84597088629E+03  0.12500000000E+03 0.  0.
</event>
<event>
 4    0  0.2190908E-002  0.1858742E+03  0.7546771E-02  0.1162236E+00
         21   -1    0    0  502  501  0.00000000000E+00  0.00000000000E+00  0.38002362532E+03  0.38002362532E+03  0.00000000000E+00 0. -1.
         21   -1    0    0  501  502 -0.00000000000E+00 -0.00000000000E+00 -0.90913390009E+02  0.90913390009E+02  0.00000000000E+00 0. -1.
         25    1    1    2    0    0 -0.42110391838E+01  0.10004676398E+03  0.26404716987E+03  0.30882518639E+03  0.12500000000E+03 0.  0.
         25    1    1    2    0    0  0.42110391838E+01 -0.10004676398E+03  0.25063065443E+02  0.16211182894E+03  0.12500000000E+03 0.  0.
</event>
<event>
 4    0  0.2190908E-002  0.2209081E+03  0.7546771E-02  0.1133208E+00
         21   -1    0    0  502  501  0.00000000000E+00  0.00000000000E+00  0.23063758881E+03  0.23063758881E+03  0.00000000000E+00 0.  1.
         21   -1    0    0  501  502 -0.00000000000E+00 -0.00000000000E+00 -0.21158909983E+03  0.21158909983E+03  0.00000000000E+00 0.  1.
         25    1    1    2    0    0 -0.12559734146E+03 -0.13081443345E+02 -0.12185920264E+03  0.21545412879E+03  0.12500000000E+03 0.  0.
         25    1    1    2    0    0  0.12559734146E+03  0.13081443345E+02  0.14090769162E+03  0.22677255985E+03  0.12500000000E+03 0.  0.
</event>
<event>
 4    0  0.2190908E-002  0.2088001E+03  0.7546771E-02  0.1142520E+00
         21   -1    0    0  502  501  0.00000000000E+00  0.00000000000E+00  0.20821567169E+04  0.20821567169E+04  0.00000000000E+00 0.  1.
         21   -1    0    0  501  502 -0.00000000000E+00 -0.00000000000E+00 -0.20938615782E+02  0.20938615782E+02  0.00000000000E+00 0.  1.
         25    1    1    2    0    0  0.14713779566E+03 -0.69326490063E+01  0.63167489015E+03  0.66055715830E+03  0.12500000000E+03 0.  0.
         25    1    1    2    0    0 -0.14713779566E+03  0.69326490063E+01  0.14295432109E+04  0.14425381744E+04  0.12500000000E+03 0.  0.
</event>
<event>
 4    0  0.2190908E-002  0.2694880E+03  0.7546771E-02  0.1101573E+00
         21   -1    0    0  502  501  0.00000000000E+00  0.00000000000E+00  0.13264983547E+03  0.13264983547E+03  0.00000000000E+00 0. -1.
         21   -1    0    0  501  502 -0.00000000000E+00 -0.00000000000E+00 -0.54748484524E+03  0.54748484524E+03  0.00000000000E+00 0.  1.
         25    1    1    2    0    0 -0.19233392475E+03  0.10404946407E+03 -0.86510827164E+02  0.26632264793E+03  0.12500000000E+03 0.  0.
         25    1    1    2    0    0  0.19233392475E+03 -0.10404946407E+03 -0.32832418261E+03  0.41381203278E+03  0.12500000000E+03 0.  0.
</event>
<event>
 4    0  0.2190908E-002  0.1896039E+03  0.7546771E-02  0.1158819E+00
         21   -1    0    0  502  501  0.00000000000E+00  0.00000000000E+00  0.84613035593E+03  0.84613035593E+03  0.00000000000E+00 0. -1.
         21   -1    0    0  501  502 -0.00000000000E+00 -0.00000000000E+00 -0.42487109184E+02  0.42487109184E+02  0.00000000000E+00 0. -1.
         25    1    1    2    0    0  0.47364015448E+02 -0.19770239358E+02  0.71350001751E+03  0.72618281949E+03  0.12500000000E+03 0.  0.
         25    1    1    2    0    0 -0.47364015448E+02  0.19770239358E+02  0.90143229228E+02  0.16243464563E+03  0.12500000000E+03 0.  0.
</event>
<event>
 4    0  0.2190908E-002  0.3546978E+03  0.7546771E-02  0.1060703E+00
         21   -1    0    0  502  501  0.00000000000E+00  0.00000000000E+00  0.51551860432E+03  0.51551860432E+03  0.00000000000E+00 0.  1.
         21   -1    0    0  501  502 -0.00000000000E+00 -0.00000000000E+00 -0.24404651606E+03  0.24404651606E+03  0.00000000000E+00 0.  1.
         25    1    1    2    0    0 -0.15896091294E+03  0.74828380346E+02 -0.16581545349E+03  0.27200665978E+03  0.12500000000E+03 0.  0.
         25    1    1    2    0    0  0.15896091294E+03 -0.74828380346E+02  0.43728754174E+03  0.48755846060E+03  0.12500000000E+03 0.  0.
</event>
<event>
 4    0  0.2190908E-002  0.2218535E+03  0.7546771E-02  0.1132509E+00
         21   -1    0    0  502  501  0.00000000000E+00  0.00000000000E+00  0.80100236484E+03  0.80100236484E+03  0.00000000000E+00 0.  1.
         21   -1    0    0  501  502 -0.00000000000E+00 -0.00000000000E+00 -0.61446731087E+02  0.61446731087E+02  0.00000000000E+00 0.  1.
         25    1    1    2    0    0  0.16366442221E+03  0.31349131752E+01  0.20951559669E+03  0.29379866582E+03  0.12500000000E+03 0.  0.
         25    1    1    2    0    0 -0.16366442221E+03 -0.31349131752E+01  0.53004003706E+03  0.56865043011E+03  0.12500000000E+03 0.  0.
</event>
<event>
 4    0  0.2190908E-002  0.1787629E+03  0.7546771E-02  0.1169006E+00
         21   -1    0    0  502  501  0.00000000000E+00  0.00000000000E+00  0.43438620211E+03  0.43438620211E+03  0.00000000000E+00 0. -1.
         21   -1    0    0  501  502 -0.00000000000E+00 -0.00000000000E+00 -0.73566284627E+02  0.73566284627E+02  0.00000000000E+00 0. -1.
         25    1    1    2    0    0 -0.10922398826E+03 -0.22421380292E+02  0.26911921905E+03  0.31699014490E+03  0.12500000000E+03 0.  0.
         25    1    1    2    0    0  0.10922398826E+03  0.22421380292E+02  0.91700698437E+02  0.19096234183E+03  0.12500000000E+03 0.  0.
</event>
<event>
 4    0  0.2190908E-002  0.2225838E+03  0.7546771E-02  0.1131971E+00
         21   -1    0    0  502  501  0.00000000000E+00  0.00000000000E+00  0.32918679053E+02  0.32918679053E+02  0.00000000000E+00 0.  1.
         21   -1    0    0  501  502 -0.00000000000E+00 -0.00000000000E+00 -0.15050278684E+04  0.15050278684E+04  0.00000000000E+00 0.  1.
         25    1    1    2    0    0  0.24043821956E+02  0.51864657193E+01 -0.10549220009E+03  0.16540438048E+03  0.12500000000E+03 0.  0.
         25    1    1    2    0    0 -0.24043821956E+02 -0.51864657193E+01 -0.13666169892E+04  0.13725421669E+04  0.12500000000E+03 0.  0.
</event>
<event>
 4    0  0.2190908E-002  0.1786529E+03  0.7546771E-02  0.1169113E+00
         21   -1    0    0  502  501  0.00000000000E+00  0.00000000000E+00  0.12204008093E+03  0.12204008093E+03  0.00000000000E+00 0.  1.
         21   -1    0    0  501  502 -0.00000000000E+00 -0.00000000000E+00 -0.26152761398E+03  0.26152761398E+03  0.00000000000E+00 0.  1.
         25    1    1    2    0    0 -0.86417551900E+02  0.43704655769E+02  0.19516707274E+02  0.15932354526E+03  0.12500000000E+03 0.  0.
         25    1    1    2    0    0  0.86417551900E+02 -0.43704655769E+02 -0.15900424032E+03  0.22424414965E+03  0.12500000000E+03 0.  0.
</event>
<event>
 4    0  0.2190908E-002  0.1737076E+03  0.7546771E-02  0.1174036E+00
         21   -1    0    0  502  501  0.00000000000E+00  0.00000000000E+00  0.15702135871E+02  0.15702135871E+02  0.00000000000E+00 0.  1.
         21   -1    0    0  501  502 -0.00000000000E+00 -0.00000000000E+00 -0.19216699910E+04  0.19216699910E+04  0.00000000000E+00 0.  1.
         25    1    1    2    0    0 -0.98018305745E+02  0.52493728394E+02 -0.12137214992E+04  0.12251971504E+04  0.12500000000E+03 0.  0.
         25    1    1    2    0    0  0.98018305745E+02 -0.52493728394E+02 -0.69224635587E+03  0.71217497639E+03  0.12500000000E+03 0.  0.
</event>
<event>
 4    0  0.2190908E-002  0.2289396E+03  0.7546771E-02  0.1127388E+00
         21   -1    0    0  502  501  0.00000000000E+00  0.00000000000E+00  0.50291106432E+02  0.50291106432E+02  0.00000000000E+00 0. -1.
         21   -1    0    0  501  502 -0.00000000000E+00 -0.00000000000E+00 -0.10421993982E+04  0.10421993982E+04  0.00000000000E+00 0. -1.
         25    1    1    2    0    0  0.19000784433E+03 -0.26147044833E+02 -0.49907603892E+03  0.54907972234E+03  0.12500000000E+03 0.  0.
         25    1    1    2    0    0 -0.19000784433E+03  0.26147044833E+02 -0.49283225281E+03  0.54341078225E+03  0.12500000000E+03 0.  0.
</event>
<event>
 4    0  0.2190908E-002  0.2264081E+03  0.7546771E-02  0.1129194E+00
         21   -1    0    0  502  501  0.00000000000E+00  0.00000000000E+00  0.13359400720E+03  0.13359400720E+03  0.00000000000E+00 0.  1.
         21   -1    0    0  501  502 -0.00000000000E+00 -0.00000000000E+00 -0.38370447921E+03  0.38370447921E+03  0.00000000000E+00 0.  1.
         25    1    1    2    0    0  0.14213746746E+03  0.79606980561E+02 -0.16105165512E+02  0.20597258887E+03  0.12500000000E+03 0.  0.
         25    1    1    2    0    0 -0.14213746746E+03 -0.79606980561E+02 -0.23400530650E+03  0.31132589754E+03  0.12500000000E+03 0.  0.
</event>
<event>
 4    0  0.2190908E-002  0.1880771E+03  0.7546771E-02  0.1160207E+00
         21   -1    0    0  502  501  0.00000000000E+00  0.00000000000E+00  0.17711481444E+03  0.17711481444E+03  0.00000000000E+00 0. -1.
         21   -1    0    0  501  502 -0.00000000000E+00 -0.00000000000E+00 -0.19971791273E+03  0.19971791273E+03  0.00000000000E+00 0. -1.
         25    1    1    2    0    0 -0.13991565797E+03 -0.79767587903E+01 -0.89141346082E+00  0.18779194510E+03  0.12500000000E+03 0.  0.
         25    1    1    2    0    0  0.13991565797E+03  0.79767587903E+01 -0.21711684828E+02  0.18904078207E+03  0.12500000000E+03 0.  0.
</event>
<event>
 4    0  0.2190908E-002  0.2039808E+03  0.7546771E-02  0.1146423E+00
         21   -1    0    0  502  501  0.00000000000E+00  0.00000000000E+00  0.11406365279E+03  0.11406365279E+03  0.00000000000E+00 0.  1.
         21   -1    0    0  501  502 -0.00000000000E+00 -0.00000000000E+00 -0.36478039844E+03  0.36478039844E+03  0.00000000000E+00 0.  1.
         25    1    1    2    0    0 -0.77077275024E+02  0.13947079048E+03 -0.96843866730E+02  0.22449218749E+03  0.12500000000E+03 0.  0.
         25    1    1    2    0    0  0.77077275024E+02 -0.13947079048E+03 -0.15387287892E+03  0.25435186374E+03  0.12500000000E+03 0.  0.
</event>
<event>
 4    0  0.2190908E-002  0.2010112E+03  0.7546771E-02  0.1148889E+00
         21   -1    0    0  502  501  0.00000000000E+00  0.00000000000E+00  0.71380514382E+02  0.71380514382E+02  0.00000000000E+00 0.  1.
         21   -1    0    0  501  502 -0.00000000000E+00 -0.00000000000E+00 -0.56605805679E+03  0.56605805679E+03  0.00000000000E+00 0.  1.
         25    1    1    2    0    0  0.13664497340E+03 -0.77272625563E+02 -0.22873891360E+03  0.30428506045E+03  0.12500000000E+03 0.  0.
         25    1    1    2    0    0 -0.13664497340E+03  0.77272625563E+02 -0.26593862880E+03  0.33315351072E+03  0.12500000000E+03 0.  0.
</event>
<event>
 4    0  0.2190908E-002  0.2401440E+03  0.7546771E-02  0.1119697E+00
         21   -1    0    0  502  501  0.00000000000E+00  0.00000000000E+00  0.13140166093E+03  0.13140166093E+03  0.00000000000E+00 0.  1.
         21   -1    0    0  501  502 -0.00000000000E+00 -0.00000000000E+00 -0.43887693165E+03  0.43887693165E+03  0.00000000000E+00 0.  1.
         25    1    1    2    0    0 -0.71556154575E+02 -0.17027624002E+03 -0.48002705066E+02  0.22813053471E+03  0.12500000000E+03 0.  0.
         25    1    1    2    0    0  0.71556154575E+02  0.17027624002E+03 -0.25947256566E+03  0.34214805787E+03  0.12500000000E+03 0.  0.
</event>
<event>
 4    0  0.2190908E-002  0.1846318E+03  0.7546771E-02  0.1163394E+00
         21   -1    0    0  502  501  0.00000000000E+00  0.00000000000E+00  0.23414149417E+03  0.23414149417E+03  0.00000000000E+00 0. -1.
         21   -1    0    0  501  502 -0.00000000000E+00 -0.00000000000E+00 -0.14559104098E+03  0.14559104098E+03  0.00000000000E+00 0. -1.
         25    1    1    2    0    0 -0.12279396960E+03 -0.17744015622E+02  0.10126010452E+03  0.20315466480E+03  0.12500000000E+03 0.  0.
         25    1    1    2    0    0  0.12279396960E+03  0.17744015622E+02 -0.12709651335E+02  0.17657787035E+03  0.12500000000E+03 0.  0.
</event>
<event>
 4    0  0.2190908E-002  0.2652429E+03  0.7546771E-02  0.1104033E+00
         21   -1    0    0  502  501  0.00000000000E+00  0.00000000000E+00  0.61060230085E+03  0.61060230085E+03  0.00000000000E+00 0.  1.
         21   -1    0    0  501  502 -0.00000000000E+00 -0.00000000000E+00 -0.11522034649E+03  0.11522034649E+03  0.00000000000E+00 0.  1.
         25    1    1    2    0    0  0.24732271307E+02  0.14349127259E+03 -0.28371598498E+01  0.19192310968E+03  0.12500000000E+03 0.  0.
         25    1    1    2    0    0 -0.24732271307E+02 -0.14349127259E+03  0.49821911420E+03  0.53389953766E+03  0.12500000000E+03 0.  0.
</event>
<event>
 4    0  0.2190908E-002  0.2527242E+03  0.7546771E-02  0.1111595E+00
         21   -1    0    0  502  501  0.00000000000E+00  0.00000000000E+00  0.26324056659E+03  0.26324056659E+03  0.00000000000E+00 0. -1.
         21   -1    0    0  501  502 -0.00000000000E+00 -0.00000000000E+00 -0.24262786797E+03  0.24262786797E+03  0.00000000000E+00 0. -1.
         25    1    1    2    0    0  0.38076695672E+02 -0.21012090180E+03  0.61767658133E+02  0.25503111911E+03  0.12500000000E+03 0.  0.
         25    1    1    2    0    0 -0.38076695672E+02  0.21012090180E+03 -0.41154959514E+02  0.25083731544E+03  0.12500000000E+03 0.  0.
</event>
<event>
 4    0  0.2190908E-002  0.2350275E+03  0.7546771E-02  0.1123150E+00
         21   -1    0    0  502  501  0.00000000000E+00  0.00000000000E+00  0.53379419646E+02  0.53379419646E+02  0.00000000000E+00 0.  1.
         21   -1    0    0  501  502 -0.00000000000E+00 -0.00000000000E+00 -0.10348168412E+04  0.10348168412E+04  0.00000000000E+00 0.  1.
         25    1    1    2    0    0  0.26642717434E+02  0.15677385446E+03 -0.21363781227E+03  0.29420059596E+03  0.12500000000E+03 0.  0.
         25    1    1    2    0    0 -0.26642717434E+02 -0.15677385446E+03 -0.76779960931E+03  0.79399566491E+03  0.12500000000E+03 0.  0.
</event>
<event>
 4    0  0.2190908E-002  0.2629977E+03  0.7546771E-02  0.1105355E+00
         21   -1    0    0  502  501  0.00000000000E+00  0.00000000000E+00  0.42476821695E+03  0.42476821695E+03  0.00000000000E+00 0. -1.
         21   -1    0    0  501  502 -0.00000000000E+00 -0.00000000000E+00 -0.16283659516E+03  0.16283659516E+03  0.00000000000E+00 0.  1.
         25    1    1    2    0    0  0.67835149674E+02  0.22080410055E+03  0.11569944148E+03  0.28699724583E+03  0.12500000000E+03 0.  0.
         25    1    1    2    0    0 -0.67835149674E+02 -0.22080410055E+03  0.14623218031E+03  0.30060756629E+03  0.12500000000E+03 0.  0.
</event>
<event>
 4    0  0.2190908E-002  0.1468912E+03  0.7546771E-02  0.1204346E+00
         21   -1    0    0  502  501  0.00000000000E+00  0.00000000000E+00  0.49189521547E+03  0.49189521547E+03  0.00000000000E+00 0.  1.
         21   -1    0    0  501  502 -0.00000000000E+00 -0.00000000000E+00 -0.43865065472E+02  0.43865065472E+02  0.00000000000E+00 0.  1.
         25    1    1    2    0    0 -0.14208921224E+02  0.70878646022E+02  0.27316408644E+03  0.30898105771E+03  0.12500000000E+03 0.  0.
         25    1    1    2    0    0  0.14208921224E+02 -0.70878646022E+02  0.17486606355E+03  0.22677922322E+03  0.12500000000E+03 0.  0.
</event>
<event>
 4    0  0.2190908E-002  0.2152836E+03  0.7546771E-02  0.1137449E+00
         21   -1    0    0  502  501  0.00000000000E+00  0.00000000000E+00  0.21536023555E+03  0.21536023555E+03  0.00000000000E+00 0.  1.
         21   -1    0    0  501  502 -0.00000000000E+00 -0.00000000000E+00 -0.21520700931E+03  0.21520700931E+03  0.00000000000E+00 0.  1.
         25    1    1    2    0    0  0.13022110254E+01 -0.51378104380E+02  0.16764937466E+03  0.21534325665E+03  0.12500000000E+03 0.  0.
         25    1    1    2    0    0 -0.13022110254E+01  0.51378104380E+02 -0.16749614842E+03  0.21522398821E+03  0.12500000000E+03 0.  0.
</event>
<event>
 4    0  0.2190908E-002  0.2046016E+03  0.7546771E-02  0.1145914E+00
         21   -1    0    0  502  501  0.00000000000E+00  0.00000000000E+00  0.57091862984E+03  0.57091862984E+03  0.00000000000E+00 0. -1.
         21   -1    0    0  501  502 -0.00000000000E+00 -0.00000000000E+00 -0.73323642101E+02  0.73323642101E+02  0.00000000000E+00 0. -1.
         25    1    1    2    0    0  0.74565383741E+02  0.14221986614E+03  0.21538695356E+03  0.29631575480E+03  0.12500000000E+03 0.  0.
         25    1    1    2    0    0 -0.74565383741E+02 -0.14221986614E+03  0.28220803418E+03  0.34792651714E+03  0.12500000000E+03 0.  0.
</event>
<event>
 4    0  0.2190908E-002  0.1898042E+03  0.7546771E-02  0.1158638E+00
         21   -1    0    0  502  501  0.00000000000E+00  0.00000000000E+00  0.10649773279E+04  0.10649773279E+04  0.00000000000E+00 0.  1.
         21   -1    0    0  501  502 -0.00000000000E+00 -0.00000000000E+00 -0.33827606858E+02  0.33827606858E+02  0.00000000000E+00 0.  1.
         25    1    1    2    0    0 -0.13579234102E+02  0.13842479595E+03  0.42156511897E+03  0.46118105910E+03  0.12500000000E+03 0.  0.
         25    1    1    2    0    0  0.13579234102E+02 -0.13842479595E+03  0.60958460203E+03  0.63762387562E+03  0.12500000000E+03 0.  0.
</event>
<event>
 4    0  0.2190908E-002  0.2570417E+03  0.7546771E-02  0.1108934E+00
         21   -1    0    0  502  501  0.00000000000E+00  0.00000000000E+00  0.10216736486E+03  0.10216736486E+03  0.00000000000E+00 0. -1.
         21   -1    0    0  501  502 -0.00000000000E+00 -0.00000000000E+00 -0.64668813648E+03  0.64668813648E+03  0.00000000000E+00 0. -1.
         25    1    1    2    0    0  0.34661741748E+02 -0.21566386743E+03 -0.34841406240E+03  0.42980192988E+03  0.12500000000E+03 0.  0.
         25    1    1    2    0    0 -0.34661741748E+02  0.21566386743E+03 -0.19610670923E+03  0.31905357146E+03  0.12500000000E+03 0.  0.
</event>
<event>
 4    0  0.2190908E-002  0.2276588E+03  0.7546771E-02  0.1128299E+00
         21   -1    0    0  502  501  0.00000000000E+00  0.00000000000E+00  0.12804083933E+04  0.12804083933E+04  0.00000000000E+00 0.  1.
         21   -1    0    0  501  502 -0.00000000000E+00 -0.00000000000E+00 -0.40478118853E+02  0.40478118853E+02  0.00000000000E+00 0.  1.
         25    1    1    2    0    0 -0.90070050786E+02 -0.62151568600E+01  0.13407824575E+03  0.20433604236E+03  0.12500000000E+03 0.  0.
         25    1    1    2    0    0  0.90070050786E+02  0.62151568600E+01  0.11058520287E+04  0.11165504698E+04  0.12500000000E+03 0.  0.
</event>
<event>
 4    0  0.2190908E-002  0.2234931E+03  0.7546771E-02  0.1131305E+00
         21   -1    0    0  502  501  0.00000000000E+00  0.00000000000E+00  0.30614232215E+03  0.30614232215E+03  0.00000000000E+00 0.  1.
         21   -1    0    0  501  502 -0.00000000000E+00 -0.00000000000E+00 -0.16315668540E+03  0.16315668540E+03  0.00000000000E+00 0.  1.
         25    1    1    2    0    0 -0.11618725443E+03 -0.13320890950E+03  0.12976162915E+03  0.25240279725E+03  0.12500000000E+03 0.  0.
         25    1    1    2    0    0  0.11618725443E+03  0.13320890950E+03  0.13224007608E+02  0.21689621029E+03  0.12500000000E+03 0.  0.
</event>
<event>
 4    0  0.2190908E-002  0.2027173E+03  0.7546771E-02  0.1147466E+00
         21   -1    0    0  502  501  0.00000000000E+00  0.00000000000E+00  0.39289006152E+02  0.39289006152E+02  0.00000000000E+00 0.  1.
         21   -1    0    0  501  502 -0.00000000000E+00 -0.00000000000E+00 -0.10459495015E+04  0.10459495015E+04  0.00000000000E+00 0.  1.
         25    1    1    2    0    0  0.10483099898E+03  0.65163163276E+02 -0.77411067522E+03  0.79379349562E+03  0.12500000000E+03 0.  0.
         25    1    1    2    0    0 -0.10483099898E+03 -0.65163163276E+02 -0.23254982011E+03  0.29144501202E+03  0.12500000000E+03 0.  0.
</event>
<event>
 4    0  0.2190908E-002  0.1831862E+03  0.7546771E-02  0.1164755E+00
         21   -1    0    0  502  501  0.00000000000E+00  0.00000000000E+00  0.23599739258E+04  0.23599739258E+04  0.00000000000E+00 0.  1.
         21   -1    0    0  501  502 -0.00000000000E+00 -0.00000000000E+00 -0.14219303646E+02  0.14219303646E+02  0.00000000000E+00 0.  1.
         25    1    1    2    0    0 -0.96088207327E+02  0.99653224093E+01  0.17738308188E+04  0.17808517695E+04  0.12500000000E+03 0.  0.
         25    1    1    2    0    0  0.96088207327E+02 -0.99653224093E+01  0.57192380338E+03  0.59334145996E+03  0.12500000000E+03 0.  0.
</event>
<event>
 4    0  0.2190908E-002  0.2247489E+03  0.7546771E-02  0.1130391E+00
         21   -1    0    0  502  501  0.00000000000E+00  0.00000000000E+00  0.66679126948E+03  0.66679126948E+03  0.00000000000E+00 0.  1.
         21   -1    0    0  501  502 -0.00000000000E+00 -0.00000000000E+00 -0.75753973833E+02  0.75753973833E+02  0.00000000000E+00 0.  1.
         25    1    1    2    0    0  0.16267173102E+03  0.22227923186E+01  0.44710243022E+03  0.49192744992E+03  0.12500000000E+03 0.  0.
         25    1    1    2    0    0 -0.16267173102E+03 -0.22227923186E+01  0.14393486542E+03  0.25061779339E+03  0.12500000000E+03 0.  0.
</event>
<event>
 4    0  0.2190908E-002  0.1310587E+03  0.7546771E-02  0.1225893E+00
         21   -1    0    0  502  501  0.00000000000E+00  0.00000000000E+00  0.37213721105E+02  0.37213721105E+02  0.00000000000E+00 0. -1.
         21   -1    0    0  501  502 -0.00000000000E+00 -0.00000000000E+00 -0.46156081597E+03  0.46156081597E+03  0.00000000000E+00 0. -1.
         25    1    1    2    0    0  0.10256707035E+02  0.20134288104E+02 -0.27356291114E+03  0.30161607376E+03  0.12500000000E+03 0.  0.
         25    1    1    2    0    0 -0.10256707035E+02 -0.20134288104E+02 -0.15078418373E+03  0.19715846332E+03  0.12500000000E+03 0.  0.
</event>
<event>
 4    0  0.2190908E-002  0.1751320E+03  0.7546771E-02  0.1172599E+00
         21   -1    0    0  502  501  0.00000000000E+00  0.00000000000E+00  0.34978334298E+02  0.34978334298E+02  0.00000000000E+00 0.  1.
         21   -1    0    0  501  502 -0.00000000000E+00 -0.00000000000E+00 -0.87686334595E+03  0.87686334595E+03  0.00000000000E+00 0.  1.
         25    1    1    2    0    0 -0.10010721798E+03 -0.57694260186E+02 -0.31372780851E+03  0.35693167495E+03  0.12500000000E+03 0.  0.
         25    1    1    2    0    0  0.10010721798E+03  0.57694260186E+02 -0.52815720314E+03  0.55491000530E+03  0.12500000000E+03 0.  0.
</event>
<event>
 4    0  0.2190908E-002  0.2260592E+03  0.7546771E-02  0.1129445E+00
         21   -1    0    0  502  501  0.00000000000E+00  0.00000000000E+00  0.11179747343E+03  0.11179747343E+03  0.00000000000E+00 0. -1.
         21   -1    0    0  501  502 -0.00000000000E+00 -0.00000000000E+00 -0.45710133589E+03  0.45710133589E+03  0.00000000000E+00 0. -1.
         25    1    1    2    0    0 -0.85064169857E+02  0.52608883617E+02 -0.37348387136E+03  0.40634813866E+03  0.12500000000E+03 0.  0.
         25    1    1    2    0    0  0.85064169857E+02 -0.52608883617E+02  0.28180008901E+02  0.16255067066E+03  0.12500000000E+03 0.  0.
</event>
<event>
 4    0  0.2190908E-002  0.2962472E+03  0.7546771E-02  0.1087132E+00
         21   -1    0    0  502  501  0.00000000000E+00  0.00000000000E+00  0.21857194818E+03  0.21857194818E+03  0.00000000000E+00 0. -1.
         21   -1    0    0  501  502 -0.00000000000E+00 -0.00000000000E+00 -0.40152631987E+03  0.40152631987E+03  0.00000000000E+00 0. -1.
         25    1    1    2    0    0 -0.15699766185E+03 -0.12931176928E+03  0.92101833293E+02  0.25588580890E+03  0.12500000000E+03 0.  0.
         25    1    1    2    0    0  0.15699766185E+03  0.12931176928E+03 -0.27505620498E+03  0.36421245915E+03  0.12500000000E+03 0.  0.
</event>
<event>
 4    0  0.2190908E-002  0.1803519E+03  0.7546771E-02  0.1167463E+00
         21   -1    0    0  502  501  0.00000000000E+00  0.00000000000E+00  0.20499085037E+03  0.20499085037E+03  0.00000000000E+00 0. -1.
         21   -1    0    0  501  502 -0.00000000000E+00 -0.00000000000E+00 -0.15867438019E+03  0.15867438019E+03  0.00000000000E+00 0. -1.
         25    1    1    2    0    0 -0.89576828054E+01 -0.11977902499E+03 -0.26994946333E+02  0.17544509693E+03  0.12500000000E+03 0.  0.
         25    1    1    2    0    0  0.89576828054E+01  0.11977902499E+03  0.73311416513E+02  0.18822013362E+03  0.12500000000E+03 0.  0.
</event>
<event>
 4    0  0.2190908E-002  0.2393739E+03  0.7546771E-02  0.1120211E+00
         21   -1    0    0  502  501  0.00000000000E+00  0.00000000000E+00  0.52043403089E+03  0.52043403089E+03  0.00000000000E+00 0.  1.
         21   -1    0    0  501  502 -0.00000000000E+00 -0.00000000000E+00 -0.11010018183E+03  0.11010018183E+03  0.00000000000E+00 0.  1.
         25    1    1    2    0    0  0.28296907518E+02  0.14234113970E+03  0.39425935918E+03  0.43832311977E+03  0.12500000000E+03 0.  0.
         25    1    1    2    0    0 -0.28296907518E+02 -0.14234113970E+03  0.16074489886E+02  0.19221109295E+03  0.12500000000E+03 0.  0.
</event>
<event>
 4    0  0.2190908E-002  0.2436725E+03  0.7546771E-02  0.1117370E+00
         21   -1    0    0  502  501  0.00000000000E+00  0.00000000000E+00  0.67244981758E+02  0.67244981758E+02  0.00000000000E+00 0.  1.
         21   -1    0    0  501  502 -0.00000000000E+00 -0.00000000000E+00 -0.88298495588E+03  0.88298495588E+03  0.00000000000E+00 0.  1.
         25    1    1    2    0    0 -0.40155013240E+02 -0.19745502587E+03 -0.51730961819E+03  0.56906515743E+03  0.12500000000E+03 0.  0.
         25    1    1    2    0    0  0.40155013240E+02  0.19745502587E+03 -0.29843035594E+03  0.38116478021E+03  0.12500000000E+03 0.  0.
</event>
<event>
 4    0  0.2190908E-002  0.1880349E+03  0.7546771E-02  0.1160246E+00
         21   -1    0    0  502  501  0.00000000000E+00  0.00000000000E+00  0.25131653878E+03  0.25131653878E+03  0.00000000000E+00 0. -1.
         21   -1    0    0  501  502 -0.00000000000E+00 -0.00000000000E+00 -0.14068766428E+03  0.14068766428E+03  0.00000000000E+00 0. -1.
         25    1    1    2    0    0 -0.16303655511E+02  0.12347960670E+03 -0.12392447646E+02  0.17689430520E+03  0.12500000000E+03 0.  0.
         25    1    1    2    0    0  0.16303655511E+02 -0.12347960670E+03  0.12302132215E+03  0.21510989786E+03  0.12500000000E+03 0.  0.
</event>
<event>
 4    0  0.2190908E-002  0.2151718E+03  0.7546771E-02  0.1137535E+00
         21   -1    0    0  502  501  0.00000000000E+00  0.00000000000E+00  0.39495784928E+02  0.39495784928E+02  0.00000000000E+00 0. -1.
         21   -1    0    0  501  502 -0.00000000000E+00 -0.00000000000E+00 -0.11722495101E+04  0.11722495101E+04  0.00000000000E+00 0. -1.
         25    1    1    2    0    0 -0.16071146619E+03  0.69424265071E+02 -0.55201631404E+03  0.59244823817E+03  0.12500000000E+03 0.  0.
         25    1    1    2    0    0  0.16071146619E+03 -0.69424265071E+02 -0.58073741115E+03  0.61929705688E+03  0.12500000000E+03 0.  0.
</event>
<event>
 4    0  0.2190908E-002  0.2010531E+03  0.7546771E-02  0.1148854E+00
         21   -1    0    0  502  501  0.00000000000E+00  0.00000000000E+00  0.24817519296E+02  0.24817519296E+02  0.00000000000E+00 0. -1.
         21   -1    0    0  501  502 -0.00000000000E+00 -0.00000000000E+00 -0.16287830052E+04  0.16287830052E+04  0.00000000000E+00 0. -1.
         25    1    1    2    0    0  0.95453592528E+02 -0.47824467681E+01 -0.13166524155E+04  0.13260214339E+04  0.12500000000E+03 0.  0.
         25    1    1    2    0    0 -0.95453592528E+02  0.47824467681E+01 -0.28731307045E+03  0.32757909057E+03  0.12500000000E+03 0.  0.
</event>
<event>
 4    0  0.2190908E-002  0.3692455E+03  0.7546771E-02  0.1054982E+00
         21   -1    0    0  502  501  0.00000000000E+00  0.00000000000E+00  0.12454181303E+04  0.12454181303E+04  0.00000000000E+00 0.  1.
         21   -1    0    0  501  502 -0.00000000000E+00 -0.00000000000E+00 -0.10947510141E+03  0.10947510141E+03  0.00000000000E+00 0.  1.
         25    1    1    2    0    0  0.23286902888E+03 -0.72325954205E+02  0.11388135231E+03  0.29673724179E+03  0.12500000000E+03 0.  0.
         25    1    1    2    0    0 -0.23286902888E+03  0.72325954205E+02  0.10220616766E+04  0.10581559899E+04  0.12500000000E+03 0.  0.
</event>
<event>
 4    0  0.2190908E-002  0.2700186E+03  0.7546771E-02  0.1101269E+00
         21   -1    0    0  502  501  0.00000000000E+00  0.00000000000E+00  0.24396972740E+03  0.24396972740E+03  0.00000000000E+00 0.  1.
         21   -1    0    0  501  502 -0.00000000000E+00 -0.00000000000E+00 -0.29884872188E+03  0.29884872188E+03  0.00000000000E+00 0.  1.
         25    1    1    2    0    0  0.21436093190E+03  0.10622446419E+03 -0.34603284330E+02  0.27213348416E+03  0.12500000000E+03 0.  0.
         25    1    1    2    0    0 -0.21436093190E+03 -0.10622446419E+03 -0.20275710147E+02  0.27068496511E+03  0.12500000000E+03 0.  0.
</event>
<event>
 4    0  0.2190908E-002  0.2404605E+03  0.7546771E-02  0.1119486E+00
         21   -1    0    0  502  501  0.00000000000E+00  0.00000000000E+00  0.37262453679E+03  0.37262453679E+03  0.00000000000E+00 0. -1.
         21   -1    0    0  501  502 -0.00000000000E+00 -0.00000000000E+00 -0.15517293556E+03  0.15517293556E+03  0.00000000000E+00 0. -1.
         25    1    1    2    0    0  0.15472889952E+03 -0.41411345309E+02 -0.32419179897E+02  0.20574726023E+03  0.12500000000E+03 0.  0.
         25    1    1    2    0    0 -0.15472889952E+03  0.41411345309E+02  0.24987078112E+03  0.32205021212E+03  0.12500000000E+03 0.  0.
</event>
<event>
 4    0  0.2190908E-002  0.3002178E+03  0.7546771E-02  0.1085132E+00
         21   -1    0    0  502  501  0.00000000000E+00  0.00000000000E+00  0.15781685229E+03  0.15781685229E+03  0.00000000000E+00 0.  1.
         21   -1    0    0  501  502 -0.00000000000E+00 -0.00000000000E+00 -0.57110966709E+03  0.57110966709E+03  0.00000000000E+00 0.  1.
         25    1    1    2    0    0  0.16808899097E+03 -0.20756973587E+03 -0.27496134667E+03  0.40319703160E+03  0.12500000000E+03 0.  0.
         25    1    1    2    0    0 -0.16808899097E+03  0.20756973587E+03 -0.13833146813E+03  0.32572948778E+03  0.12500000000E+03 0.  0.
</event>
<event>
 4    0  0.2190908E-002  0.1727135E+03  0.7546771E-02  0.1175047E+00
         21   -1    0    0  502  501  0.00000000000E+00  0.00000000000E+00  0.19089790370E+03  0.19089790370E+03  0.00000000000E+00 0.  1.
         21   -1    0    0  501  502 -0.00000000000E+00 -0.00000000000E+00 -0.15626121228E+03  0.15626121228E+03  0.00000000000E+00 0.  1.
         25    1    1    2    0    0  0.67090015583E+02 -0.64813948000E+02 -0.57235996332E+02  0.16614113676E+03  0.12500000000E+03 0.  0.
         25    1    1    2    0    0 -0.67090015583E+02  0.64813948000E+02  0.91872687758E+02  0.18101797922E+03  0.12500000000E+03 0.  0.
</event>
<event>
 4    0  0.2190908E-002  0.1769517E+03  0.7546771E-02  0.1170786E+00
         21   -1    0    0  502  501  0.00000000000E+00  0.00000000000E+00  0.17989534574E+02  0.17989534574E+02  0.00000000000E+00 0.  1.
         21   -1    0    0  501  502 -0.00000000000E+00 -0.00000000000E+00 -0.17405621822E+04  0.17405621822E+04  0.00000000000E+00 0.  1.
         25    1    1    2    0    0  0.69782658591E+02 -0.32558085275E+02 -0.13521198800E+04  0.13600672109E+04  0.12500000000E+03 0.  0.
         25    1    1    2    0    0 -0.69782658591E+02  0.32558085275E+02 -0.37045276765E+03  0.39848450587E+03  0.12500000000E+03 0.  0.
</event>
<event>
 4    0  0.2190908E-002  0.2554298E+03  0.7546771E-02  0.1109921E+00
         21   -1    0    0  502  501  0.00000000000E+00  0.00000000000E+00  0.17119049100E+03  0.17119049100E+03  0.00000000000E+00 0. -1.
         21   -1    0    0  501  502 -0.00000000000E+00 -0.00000000000E+00 -0.38112146972E+03  0.38112146972E+03  0.00000000000E+00 0. -1.
         25    1    1    2    0    0  0.15184520063E+03  0.26664195077E+02  0.68864694477E+02  0.21008400796E+03  0.12500000000E+03 0.  0.
         25    1    1    2    0    0 -0.15184520063E+03 -0.26664195077E+02 -0.27879567320E+03  0.34222795276E+03  0.12500000000E+03 0.  0.
</event>
<event>
 4    0  0.2190908E-002  0.2155372E+03  0.7546771E-02  0.1137255E+00
         21   -1    0    0  502  501  0.00000000000E+00  0.00000000000E+00  0.35968187288E+03  0.35968187288E+03  0.00000000000E+00 0. -1.
         21   -1    0    0  501  502 -0.00000000000E+00 -0.00000000000E+00 -0.12915937968E+03  0.12915937968E+03  0.00000000000E+00 0. -1.
         25    1    1    2    0    0 -0.16844624795E+03 -0.46584030752E+02  0.96047371507E+02  0.23535995399E+03  0.12500000000E+03 0.  0.
         25    1    1    2    0    0  0.16844624795E+03  0.46584030752E+02  0.13447512169E+03  0.25348129857E+03  0.12500000000E+03 0.  0.
</event>
<event>
 4    0  0.2190908E-002  0.2498637E+03  0.7546771E-02  0.1113391E+00
         21   -1    0    0  502  501  0.00000000000E+00  0.00000000000E+00  0.92073814083E+02  0.92073814083E+02  0.00000000000E+00 0. -1.
         21   -1    0    0  501  502 -0.00000000000E+00 -0.00000000000E+00 -0.67806303636E+03  0.67806303636E+03  0.00000000000E+00 0. -1.
         25    1    1    2    0    0 -0.14156565778E+03  0.14263667160E+03 -0.41648387129E+03  0.47903013537E+03  0.12500000000E+03 0.  0.
         25    1    1    2    0    0  0.14156565778E+03 -0.14263667160E+03 -0.16950535098E+03  0.29110671507E+03  0.12500000000E+03 0.  0.
</event>
<event>
 4    0  0.2190908E-002  0.1793152E+03  0.7546771E-02  0.1168467E+00
         21   -1    0    0  502  501  0.00000000000E+00  0.00000000000E+00  0.35173057881E+03  0.35173057881E+03  0.00000000000E+00 0. -1.
         21   -1    0    0  501  502 -0.00000000000E+00 -0.00000000000E+00 -0.91416360008E+02  0.91416360008E+02  0.00000000000E+00 0. -1.
         25    1    1    2    0    0 -0.62218963401E+02  0.48283821532E+02  0.25572403307E+03  0.29533423086E+03  0.12500000000E+03 0.  0.
         25    1    1    2    0    0  0.62218963401E+02 -0.48283821532E+02  0.45901857310E+01  0.14781270796E+03  0.12500000000E+03 0.  0.
</event>
<event>
 4    0  0.2190908E-002  0.3020526E+03  0.7546771E-02  0.1084219E+00
         21   -1    0    0  502  501  0.00000000000E+00  0.00000000000E+00  0.80882986389E+02  0.80882986389E+02  0.00000000000E+00 0.  1.
         21   -1    0    0  501  502 -0.00000000000E+00 -0.00000000000E+00 -0.11279967460E+04  0.11279967460E+04  0.00000000000E+00 0.  1.
         25    1    1    2    0    0 -0.98159939163E+02  0.17971929866E+03 -0.15633118054E+03  0.28635439228E+03  0.12500000000E+03 0.  0.
         25    1    1    2    0    0  0.98159939163E+02 -0.17971929866E+03 -0.89078257905E+03  0.92252534009E+03  0.12500000000E+03 0.  0.
</event>
<event>
 4    0  0.2190908E-002  0.1852948E+03  0.7546771E-02  0.1162775E+00
         21   -1    0    0  502  501  0.00000000000E+00  0.00000000000E+00  0.11506919057E+03  0.11506919057E+03  0.00000000000E+00 0. -1.
         21   -1    0    0  501  502 -0.00000000000E+00 -0.00000000000E+00 -0.29837845480E+03  0.29837845480E+03  0.00000000000E+00 0. -1.
         25    1    1    2    0    0  0.97143929400E+02 -0.56988167685E+02 -0.50601132496E+01  0.16833062413E+03  0.12500000000E+03 0.  0.
         25    1    1    2    0    0 -0.97143929400E+02  0.56988167685E+02 -0.17824915098E+03  0.24511702124E+03  0.12500000000E+03 0.  0.
</event>
<event>
 4    0  0.2190908E-002  0.3332124E+03  0.7546771E-02  0.1069724E+00
         21   -1    0    0  502  501  0.00000000000E+00  0.00000000000E+00  0.96929881736E+02  0.96929881736E+02  0.00000000000E+00 0.  1.
         21   -1    0    0  501  502 -0.00000000000E+00 -0.00000000000E+00 -0.11454720644E+04  0.11454720644E+04  0.00000000000E+00 0.  1.
         25    1    1    2    0    0  0.18027055158E+03 -0.21478421448E+03 -0.28280736786E+03  0.41741434795E+03  0.12500000000E+03 0.  0.
         25    1    1    2    0    0 -0.18027055158E+03  0.21478421448E+03 -0.76573481478E+03  0.82498759816E+03  0.12500000000E+03 0.  0.
</event>
<event>
 4    0  0.2190908E-002  0.2081911E+03  0.7546771E-02  0.1143007E+00
         21   -1    0    0  502  501  0.00000000000E+00  0.00000000000E+00  0.12520165950E+03  0.12520165950E+03  0.00000000000E+00 0. -1.
         21   -1    0    0  501  502 -0.00000000000E+00 -0.00000000000E+00 -0.34618963855E+03  0.34618963855E+03  0.00000000000E+00 0. -1.
         25    1    1    2    0    0  0.14627705575E+03  0.18855319056E+02 -0.23049642514E+02  0.19470178765E+03  0.12500000000E+03 0.  0.
         25    1    1    2    0    0 -0.14627705575E+03 -0.18855319056E+02 -0.19793833654E+03  0.27668951040E+03  0.12500000000E+03 0.  0.
</event>
<event>
 4    0  0.2190908E-002  0.3836869E+03  0.7546771E-02  0.1049579E+00
         21   -1    0    0  502  501  0.00000000000E+00  0.00000000000E+00  0.17220011593E+04  0.17220011593E+04  0.00000000000E+00 0.  1.
         21   -1    0    0  501  502 -0.00000000000E+00 -0.00000000000E+00 -0.85491019799E+02  0.85491019799E+02  0.00000000000E+00 0.  1.
         25    1    1    2    0    0 -0.21680033074E+03  0.14799995226E+03  0.22853116196E+03  0.36980787075E+03  0.12500000000E+03 0.  0.
         25    1    1    2    0    0  0.21680033074E+03 -0.14799995226E+03  0.14079789775E+04  0.14376843083E+04  0.12500000000E+03 0.  0.
</event>
<event>
 4    0  0.2190908E-002  0.2306522E+03  0.7546771E-02  0.1126182E+00
         21   -1    0    0  502  501  0.00000000000E+00  0.00000000000E+00  0.86938336622E+02  0.86938336622E+02  0.00000000000E+00 0.  1.
         21   -1    0    0  501  502 -0.00000000000E+00 -0.00000000000E+00 -0.61193308247E+03  0.61193308247E+03  0.00000000000E+00 0.  1.
         25    1    1    2    0    0  0.11580827320E+03 -0.97443790023E+02 -0.79010952700E+02  0.21160004490E+03  0.12500000000E+03 0.  0.
         25    1    1    2    0    0 -0.11580827320E+03  0.97443790023E+02 -0.44598379315E+03  0.48727137419E+03  0.12500000000E+03 0.  0.
</event>
<event>
 4    0  0.2190908E-002  0.3803360E+03  0.7546771E-02  0.1050810E+00
         21   -1    0    0  502  501  0.00000000000E+00  0.00000000000E+00  0.68066569542E+03  0.68066569542E+03  0.00000000000E+00 0.  1.
         21   -1    0    0  501  502 -0.00000000000E+00 -0.00000000000E+00 -0.21252061215E+03  0.21252061215E+03  0.00000000000E+00 0. -1.
         25    1    1    2    0    0 -0.29814798702E+03 -0.17283649190E+03  0.11510148448E+03  0.38423694100E+03  0.12500000000E+03 0.  0.
         25    1    1    2    0    0  0.29814798702E+03  0.17283649190E+03  0.35304359879E+03  0.50894936658E+03  0.12500000000E+03 0.  0.
</event>
<event>
 4    0  0.2190908E-002  0.2049951E+03  0.7546771E-02  0.1145592E+00
         21   -1    0    0  502  501  0.00000000000E+00  0.00000000000E+00  0.12969669515E+03  0.12969669515E+03  0.00000000000E+00 0.  1.
         21   -1    0    0  501  502 -0.00000000000E+00 -0.00000000000E+00 -0.32400963769E+03  0.32400963769E+03  0.00000000000E+00 0.  1.
         25    1    1    2    0    0  0.39661804234E+02 -0.14861819700E+03 -0.15505701151E+03  0.25165075802E+03  0.12500000000E+03 0.  0.
         25    1    1    2    0    0 -0.39661804234E+02  0.14861819700E+03 -0.39255931020E+02  0.20205557482E+03  0.12500000000E+03 0.  0.
</event>
<event>
 4    0  0.2190908E-002  0.1802266E+03  0.7546771E-02  0.1167584E+00
         21   -1    0    0  502  501  0.00000000000E+00  0.00000000000E+00  0.21162214804E+02  0.21162214804E+02  0.00000000000E+00 0.  1.
         21   -1    0    0  501  502 -0.00000000000E+00 -0.00000000000E+00 -0.15348874571E+04  0.15348874571E+04  0.00000000000E+00 0.  1.
         25    1    1    2    0    0 -0.68512962172E+02 -0.10518316301E+03 -0.61374532879E+03  0.63880032277E+03  0.12500000000E+03 0.  0.
         25    1    1    2    0    0  0.68512962172E+02  0.10518316301E+03 -0.89997991355E+03  0.91724934918E+03  0.12500000000E+03 0.  0.
</event>
<event>
 4    0  0.2190908E-002  0.3125633E+03  0.7546771E-02  0.1079124E+00
         21   -1    0    0  502  501  0.00000000000E+00  0.00000000000E+00  0.93839667984E+03  0.93839667984E+03  0.00000000000E+00 0.  1.
         21   -1    0    0  501  502 -0.00000000000E+00 -0.00000000000E+00 -0.10410931924E+03  0.10410931924E+03  0.00000000000E+00 0.  1.
         25    1    1    2    0    0 -0.52226545448E+02  0.18828865291E+03  0.67765044969E+02  0.24165539552E+03  0.12500000000E+03 0.  0.
         25    1    1    2    0    0  0.52226545448E+02 -0.18828865291E+03  0.76652231563E+03  0.80085060356E+03  0.12500000000E+03 0.  0.
</event>
<event>
 4    0  0.2190908E-002  0.3741504E+03  0.7546771E-02  0.1053117E+00
         21   -1    0    0  502  501  0.00000000000E+00  0.00000000000E+00  0.12441985552E+04  0.12441985552E+04  0.00000000000E+00 0.  1.
         21   -1    0    0  501  502 -0.00000000000E+00 -0.00000000000E+00 -0.11251300701E+03  0.11251300701E+03  0.00000000000E+00 0.  1.
         25    1    1    2    0    0 -0.24982009985E+03  0.10789244310E+02  0.10166964677E+04  0.10544302715E+04  0.12500000000E+03 0.  0.
         25    1    1    2    0    0  0.24982009985E+03 -0.10789244310E+02  0.11498908052E+03  0.30228129072E+03  0.12500000000E+03 0.  0.
</event>
<event>
 4    0  0.2190908E-002  0.2425941E+03  0.7546771E-02  0.1118077E+00
         21   -1    0    0  502  501  0.00000000000E+00  0.00000000000E+00  0.66151038999E+02  0.66151038999E+02  0.00000000000E+00 0.  1.
         21   -1    0    0  501  502 -0.00000000000E+00 -0.00000000000E+00 -0.88965937217E+03  0.88965937217E+03  0.00000000000E+00 0.  1.
         25    1    1    2    0    0 -0.65254040664E+02 -0.19672401902E+03 -0.44403191506E+03  0.50571510860E+03  0.12500000000E+03 0.  0.
         25    1    1    2    0    0  0.65254040664E+02  0.19672401902E+03 -0.37947641811E+03  0.45009530256E+03  0.12500000000E+03 0.  0.
</event>
<event>
 4    0  0.2190908E-002  0.1684226E+03  0.7546771E-02  0.1179503E+00
         21   -1    0    0  502  501  0.00000000000E+00  0.00000000000E+00  0.65573674170E+03  0.65573674170E+03  0.00000000000E+00 0. -1.
         21   -1    0    0  501  502 -0.00000000000E+00 -0.00000000000E+00 -0.43258487241E+02  0.43258487241E+02  0.00000000000E+00 0. -1.
         25    1    1    2    0    0 -0.51207915121E+02 -0.90079396556E+02  0.21332943159E+03  0.26808766223E+03  0.12500000000E+03 0.  0.
         25    1    1    2    0    0  0.51207915121E+02  0.90079396556E+02  0.39914882287E+03  0.43090756671E+03  0.12500000000E+03 0.  0.
</event>
<event>
 4    0  0.2190908E-002  0.2615913E+03  0.7546771E-02  0.1106191E+00
         21   -1    0    0  502  501  0.00000000000E+00  0.00000000000E+00  0.27535769776E+03  0.27535769776E+03  0.00000000000E+00 0.  1.
         21   -1    0    0  501  502 -0.00000000000E+00 -0.00000000000E+00 -0.24851316202E+03  0.24851316202E+03  0.00000000000E+00 0.  1.
         25    1    1    2    0    0 -0.21478654992E+03  0.78329915761E+02  0.36608169371E+02  0.26312353713E+03  0.12500000000E+03 0.  0.
         25    1    1    2    0    0  0.21478654992E+03 -0.78329915761E+02 -0.97636336308E+01  0.26074732265E+03  0.12500000000E+03 0.  0.
</event>
<event>
 4    0  0.2190908E-002  0.2909980E+03  0.7546771E-02  0.1089829E+00
         21   -1    0    0  502  501  0.00000000000E+00  0.00000000000E+00  0.12318111808E+04  0.12318111808E+04  0.00000000000E+00 0.  1.
         21   -1    0    0  501  502 -0.00000000000E+00 -0.00000000000E+00 -0.68744173370E+02  0.68744173370E+02  0.00000000000E+00 0.  1.
         25    1    1    2    0    0  0.67562225737E+02  0.13263576716E+03  0.97599975220E+02  0.21750323271E+03  0.12500000000E+03 0.  0.
         25    1    1    2    0    0 -0.67562225737E+02 -0.13263576716E+03  0.10654670322E+04  0.10830521214E+04  0.12500000000E+03 0.  0.
</event>
<event>
 4    0  0.2190908E-002  0.2678002E+03  0.7546771E-02  0.1102545E+00
         21   -1    0    0  502  501  0.00000000000E+00  0.00000000000E+00  0.29376094203E+03  0.29376094203E+03  0.00000000000E+00 0. -1.
         21   -1    0    0  501  502 -0.00000000000E+00 -0.00000000000E+00 -0.24413362229E+03  0.24413362229E+03  0.00000000000E+00 0. -1.
         25    1    1    2    0    0 -0.17678258174E+03 -0.61444571630E+01  0.18297504228E+03  0.28353959452E+03  0.12500000000E+03 0.  0.
         25    1    1    2    0    0  0.17678258174E+03  0.61444571630E+01 -0.13334772254E+03  0.25435496981E+03  0.12500000000E+03 0.  0.
</event>
<event>
 4    0  0.2190908E-002  0.2934660E+03  0.7546771E-02  0.1088553E+00
         21   -1    0    0  502  501  0.00000000000E+00  0.00000000000E+00  0.57255871999E+03  0.57255871999E+03  0.00000000000E+00 0.  1.
         21   -1    0    0  501  502 -0.00000000000E+00 -0.00000000000E+00 -0.15041652711E+03  0.15041652711E+03  0.00000000000E+00 0.  1.
         25    1    1    2    0    0 -0.16356868897E+03 -0.19886647490E+03  0.29084966970E+03  0.40806999549E+03  0.12500000000E+03 0.  0.
         25    1    1    2    0    0  0.16356868897E+03  0.19886647490E+03  0.13129252317E+03  0.31490525161E+03  0.12500000000E+03 0.  0.
</event>
<event>
 4    0  0.2190908E-002  0.1572668E+03  0.7546771E-02  0.1191817E+00
         21   -1    0    0  502  501  0.00000000000E+00  0.00000000000E+00  0.15290333163E+02  0.15290333163E+02  0.00000000000E+00 0.  1.
         21   -1    0    0  501  502 -0.00000000000E+00 -0.00000000000E+00 -0.16175486219E+04  0.16175486219E+04  0.00000000000E+00 0.  1.
         25    1    1    2    0    0 -0.38082647159E+01  0.51122842194E+02 -0.12190146702E+04  0.12264786236E+04  0.12500000000E+03 0.  0.
         25    1    1    2    0    0  0.38082647159E+01 -0.51122842194E+02 -0.38324361853E+03  0.40636033150E+03  0.12500000000E+03 0.  0.
</event>
<event>
 4    0  0.2190908E-002  0.3000213E+03  0.7546771E-02  0.1085230E+00
         21   -1    0    0  502  501  0.00000000000E+00  0.00000000000E+00  0.29833434437E+03  0.29833434437E+03  0.00000000000E+00 0.  1.
         21   -1    0    0  501  502 -0.00000000000E+00 -0.00000000000E+00 -0.30171778511E+03  0.30171778511E+03  0.00000000000E+00 0.  1.
         25    1    1    2    0    0  0.14252642004E+03  0.21767176616E+03  0.80120333838E+02  0.29956476109E+03  0.12500000000E+03 0.  0.
         25    1    1    2    0    0 -0.14252642004E+03 -0.21767176616E+03 -0.83503774585E+02  0.30048736839E+03  0.12500000000E+03 0.  0.
</event>
<event>
 4    0  0.2190908E-002  0.2036237E+03  0.7546771E-02  0.1146717E+00
         21   -1    0    0  502  501  0.00000000000E+00  0.00000000000E+00  0.34407877620E+02  0.34407877620E+02  0.00000000000E+00 0. -1.
         21   -1    0    0  501  502 -0.00000000000E+00 -0.00000000000E+00 -0.12050330567E+04  0.12050330567E+04  0.00000000000E+00 0. -1.
         25    1    1    2    0    0  0.11999856796E+03 -0.91329273639E+02 -0.41594370369E+03  0.45975521441E+03  0.12500000000E+03 0.  0.
         25    1    1    2    0    0 -0.11999856796E+03  0.91329273639E+02 -0.75468147543E+03  0.77968571995E+03  0.12500000000E+03 0.  0.
</event>
<event>
 4    0  0.2190908E-002  0.2367004E+03  0.7546771E-02  0.1122011E+00
         21   -1    0    0  502  501  0.00000000000E+00  0.00000000000E+00  0.60983874606E+02  0.60983874606E+02  0.00000000000E+00 0.  1.
         21   -1    0    0  501  502 -0.00000000000E+00 -0.00000000000E+00 -0.91871922081E+03  0.91871922081E+03  0.00000000000E+00 0.  1.
         25    1    1    2    0    0 -0.18915672012E+03 -0.16889344720E+02 -0.29258601575E+03  0.37053622136E+03  0.12500000000E+03 0.  0.
         25    1    1    2    0    0  0.18915672012E+03  0.16889344720E+02 -0.56514933045E+03  0.60916687405E+03  0.12500000000E+03 0.  0.
</event>
<event>
 4    0  0.2190908E-002  0.2147578E+03  0.7546771E-02  0.1137853E+00
         21   -1    0    0  502  501  0.00000000000E+00  0.00000000000E+00  0.23428219224E+03  0.23428219224E+03  0.00000000000E+00 0.  1.
         21   -1    0    0  501  502 -0.00000000000E+00 -0.00000000000E+00 -0.19686044124E+03  0.19686044124E+03  0.00000000000E+00 0.  1.
         25    1    1    2    0    0  0.44759572332E+02 -0.48401639411E+02  0.18103233634E+03  0.22966028131E+03  0.12500000000E+03 0.  0.
         25    1    1    2    0    0 -0.44759572332E+02  0.48401639411E+02 -0.14361058534E+03  0.20148235217E+03  0.12500000000E+03 0.  0.
</event>
<event>
 4    0  0.2190908E-002  0.1652739E+03  0.7546771E-02  0.1182868E+00
         21   -1    0    0  502  501  0.00000000000E+00  0.00000000000E+00  0.14609574258E+03  0.14609574258E+03  0.00000000000E+00 0. -1.
         21   -1    0    0  501  502 -0.00000000000E+00 -0.00000000000E+00 -0.18696968831E+03  0.18696968831E+03  0.00000000000E+00 0. -1.
         25    1    1    2    0    0 -0.78337628103E+02 -0.25784451941E+02  0.50015897842E+02  0.15788670614E+03  0.12500000000E+03 0.  0.
         25    1    1    2    0    0  0.78337628103E+02  0.25784451941E+02 -0.90889843571E+02  0.17517872474E+03  0.12500000000E+03 0.  0.
</event>
<event>
 4    0  0.2190908E-002  0.3361212E+03  0.7546771E-02  0.1068460E+00
         21   -1    0    0  502  501  0.00000000000E+00  0.00000000000E+00  0.28358794014E+03  0.28358794014E+03  0.00000000000E+00 0. -1.
         21   -1    0    0  501  502 -0.00000000000E+00 -0.00000000000E+00 -0.39838605467E+03  0.39838605467E+03  0.00000000000E+00 0. -1.
         25    1    1    2    0    0 -0.77823092590E+02 -0.29743485660E+03 -0.11135310520E+03  0.35006919559E+03  0.12500000000E+03 0.  0.
         25    1    1    2    0    0  0.77823092590E+02  0.29743485660E+03 -0.34450093304E+01  0.33190479923E+03  0.12500000000E+03 0.  0.
</event>
<event>
 4    0  0.2190908E-002  0.2141421E+03  0.7546771E-02  0.1138327E+00
         21   -1    0    0  502  501  0.00000000000E+00  0.00000000000E+00  0.13565302036E+03  0.13565302036E+03  0.00000000000E+00 0.  1.
         21   -1    0    0  501  502 -0.00000000000E+00 -0.00000000000E+00 -0.33804504743E+03  0.33804504743E+03  0.00000000000E+00 0. -1.
         25    1    1    2    0    0  0.17081540583E+03  0.13244541227E+01 -0.65319228973E+02  0.22152033478E+03  0.12500000000E+03 0.  0.
         25    1    1    2    0    0 -0.17081540583E+03 -0.13244541227E+01 -0.13707279810E+03  0.25217773301E+03  0.12500000000E+03 0.  0.
</event>
<event>
 4    0  0.2190908E-002  0.2025233E+03  0.7546771E-02  0.1147627E+00
         21   -1    0    0  502  501  0.00000000000E+00  0.00000000000E+00  0.49775333863E+03  0.49775333863E+03  0.00000000000E+00 0. -1.
         21   -1    0    0  501  502 -0.00000000000E+00 -0.00000000000E+00 -0.82401591665E+02  0.82401591665E+02  0.00000000000E+00 0. -1.
         25    1    1    2    0    0 -0.10514548669E+03 -0.37310469584E+02  0.37062684701E+03  0.40673935664E+03  0.12500000000E+03 0.  0.
         25    1    1    2    0    0  0.10514548669E+03  0.37310469584E+02  0.44724899955E+02  0.17341557366E+03  0.12500000000E+03 0.  0.
</event>
<event>
 4    0  0.2190908E-002  0.2229724E+03  0.7546771E-02  0.1131686E+00
         21   -1    0    0  502  501  0.00000000000E+00  0.00000000000E+00  0.16457059458E+03  0.16457059458E+03  0.00000000000E+00 0.  1.
         21   -1    0    0  501  502 -0.00000000000E+00 -0.00000000000E+00 -0.30209958942E+03  0.30209958942E+03  0.00000000000E+00 0.  1.
         25    1    1    2    0    0  0.89756796875E+02  0.86562594909E+02 -0.21126329004E+03  0.27532988058E+03  0.12500000000E+03 0.  0.
         25    1    1    2    0    0 -0.89756796875E+02 -0.86562594909E+02  0.73734295196E+02  0.19134030341E+03  0.12500000000E+03 0.  0.
</event>
<event>
 4    0  0.2190908E-002  0.2562167E+03  0.7546771E-02  0.1109438E+00
         21   -1    0    0  502  501  0.00000000000E+00  0.00000000000E+00  0.44485106396E+03  0.44485106396E+03  0.00000000000E+00 0.  1.
         21   -1    0    0  501  502 -0.00000000000E+00 -0.00000000000E+00 -0.14757078644E+03  0.14757078644E+03  0.00000000000E+00 0.  1.
         25    1    1    2    0    0  0.66421871159E+02 -0.20397361775E+03  0.22180296334E+03  0.33292440021E+03  0.12500000000E+03 0.  0.
         25    1    1    2    0    0 -0.66421871159E+02  0.20397361775E+03  0.75477314174E+02  0.25949745020E+03  0.12500000000E+03 0.  0.
</event>
<event>
 4    0  0.2190908E-002  0.1894409E+03  0.7546771E-02  0.1158967E+00
         21   -1    0    0  502  501  0.00000000000E+00  0.00000000000E+00  0.44568299583E+02  0.44568299583E+02  0.00000000000E+00 0.  1.
         21   -1    0    0  501  502 -0.00000000000E+00 -0.00000000000E+00 -0.80523260661E+03  0.80523260661E+03  0.00000000000E+00 0.  1.
         25    1    1    2    0    0  0.27923615711E+02  0.18334137038E+02 -0.69973672454E+02  0.14709583180E+03  0.12500000000E+03 0.  0.
         25    1    1    2    0    0 -0.27923615711E+02 -0.18334137038E+02 -0.69069063457E+03  0.70270507439E+03  0.12500000000E+03 0.  0.
</event>
<event>
 4    0  0.2190908E-002  0.2378198E+03  0.7546771E-02  0.1121254E+00
         21   -1    0    0  502  501  0.00000000000E+00  0.00000000000E+00  0.10332653417E+04  0.10332653417E+04  0.00000000000E+00 0.  1.
         21   -1    0    0  501  502 -0.00000000000E+00 -0.00000000000E+00 -0.54737411627E+02  0.54737411627E+02  0.00000000000E+00 0.  1.
         25    1    1    2    0    0 -0.11235388036E+03  0.16683390571E+03  0.43934068828E+03  0.49910137938E+03  0.12500000000E+03 0.  0.
         25    1    1    2    0    0  0.11235388036E+03 -0.16683390571E+03  0.53918724183E+03  0.58890137399E+03  0.12500000000E+03 0.  0.
</event>
<event>
 4    0  0.2190908E-002  0.1938175E+03  0.7546771E-02  0.1155063E+00
         21   -1    0    0  502  501  0.00000000000E+00  0.00000000000E+00  0.47036965791E+02  0.47036965791E+02  0.00000000000E+00 0. -1.
         21   -1    0    0  501  502 -0.00000000000E+00 -0.00000000000E+00 -0.79863233083E+03  0.79863233083E+03  0.00000000000E+00 0. -1.
         25    1    1    2    0    0  0.33176466396E+02 -0.14276230989E+03 -0.32908435684E+03  0.38131780572E+03  0.12500000000E+03 0.  0.
         25    1    1    2    0    0 -0.33176466396E+02  0.14276230989E+03 -0.42251100821E+03  0.46435149090E+03  0.12500000000E+03 0.  0.
</event>
<event>
 4    0  0.2190908E-002  0.3213871E+03  0.7546771E-02  0.1075013E+00
         21   -1    0    0  502  501  0.00000000000E+00  0.00000000000E+00  0.30704021708E+03  0.30704021708E+03  0.00000000000E+00 0. -1.
         21   -1    0    0  501  502 -0.00000000000E+00 -0.00000000000E+00 -0.33640438347E+03  0.33640438347E+03  0.00000000000E+00 0. -1.
         25    1    1    2    0    0  0.16659670326E+03 -0.39187875474E+02 -0.25654227072E+03  0.33275980495E+03  0.12500000000E+03 0.  0.
         25    1    1    2    0    0 -0.16659670326E+03  0.39187875474E+02  0.22717810433E+03  0.31068479559E+03  0.12500000000E+03 0.  0.
</event>
<event>
 4    0  0.2190908E-002  0.3617013E+03  0.7546771E-02  0.1057912E+00
         21   -1    0    0  502  501  0.00000000000E+00  0.00000000000E+00  0.15688739426E+03  0.15688739426E+03  0.00000000000E+00 0.  1.
         21   -1    0    0  501  502 -0.00000000000E+00 -0.00000000000E+00 -0.83389638229E+03  0.83389638229E+03  0.00000000000E+00 0.  1.
         25    1    1    2    0    0  0.20800081288E+03 -0.26699613520E+03 -0.37346476080E+03  0.51928046558E+03  0.12500000000E+03 0.  0.
         25    1    1    2    0    0 -0.20800081288E+03  0.26699613520E+03 -0.30354422723E+03  0.47150331097E+03  0.12500000000E+03 0.  0.
</event>
<event>
 4    0  0.2190908E-002  0.3097377E+03  0.7546771E-02  0.1080472E+00
         21   -1    0    0  502  501  0.00000000000E+00  0.00000000000E+00  0.52609721759E+03  0.52609721759E+03  0.00000000000E+00 0.  1.
         21   -1    0    0  501  502 -0.00000000000E+00 -0.00000000000E+00 -0.18235686092E+03  0.18235686092E+03  0.00000000000E+00 0.  1.
         25    1    1    2    0    0  0.19451233717E+02  0.15833399121E+03  0.43974574576E+03  0.48419967387E+03  0.12500000000E+03 0.  0.
         25    1    1    2    0    0 -0.19451233717E+02 -0.15833399121E+03 -0.96005389090E+02  0.22425440464E+03  0.12500000000E+03 0.  0.
</event>
<event>
 4    0  0.2190908E-002  0.2504218E+03  0.7546771E-02  0.1113039E+00
         21   -1    0    0  502  501  0.00000000000E+00  0.00000000000E+00  0.70829062439E+03  0.70829062439E+03  0.00000000000E+00 0.  1.
         21   -1    0    0  501  502 -0.00000000000E+00 -0.00000000000E+00 -0.88538614441E+02  0.88538614441E+02  0.00000000000E+00 0.  1.
         25    1    1    2    0    0 -0.16279453795E+03 -0.87168980950E+02  0.12857767815E+03  0.25740573448E+03  0.12500000000E+03 0.  0.
         25    1    1    2    0    0  0.16279453795E+03  0.87168980950E+02  0.49117433179E+03  0.53942350434E+03  0.12500000000E+03 0.  0.
</event>
<event>
 4    0  0.2190908E-002  0.1493116E+03  0.7546771E-02  0.1201321E+00
         21   -1    0    0  502  501  0.00000000000E+00  0.00000000000E+00  0.29119236355E+03  0.29119236355E+03  0.00000000000E+00 0. -1.
         21   -1    0    0  501  502 -0.00000000000E+00 -0.00000000000E+00 -0.76560929162E+02  0.76560929162E+02  0.00000000000E+00 0. -1.
         25    1    1    2    0    0 -0.37378067135E+02  0.44231741686E+02  0.36406879669E+02  0.14249220246E+03  0.12500000000E+03 0.  0.
         25    1    1    2    0    0  0.37378067135E+02 -0.44231741686E+02  0.17822455472E+03  0.22526109025E+03  0.12500000000E+03 0.  0.
</event>
<event>
 4    0  0.2190908E-002  0.2126399E+03  0.7546771E-02  0.1139492E+00
         21   -1    0    0  502  501  0.00000000000E+00  0.00000000000E+00  0.11452631966E+04  0.11452631966E+04  0.00000000000E+00 0.  1.
         21   -1    0    0  501  502 -0.00000000000E+00 -0.00000000000E+00 -0.39480644942E+02  0.39480644942E+02  0.00000000000E+00 0.  1.
         25    1    1    2    0    0  0.16450391618E+01  0.15131451021E+03  0.32500100100E+03  0.37967016976E+03  0.12500000000E+03 0.  0.
         25    1    1    2    0    0 -0.16450391618E+01 -0.15131451021E+03  0.78078155065E+03  0.80507367177E+03  0.12500000000E+03 0.  0.
</event>
<event>
 4    0  0.2190908E-002  0.1742186E+03  0.7546771E-02  0.1173519E+00
         21   -1    0    0  502  501  0.00000000000E+00  0.00000000000E+00  0.59033793752E+02  0.59033793752E+02  0.00000000000E+00 0. -1.
         21   -1    0    0  501  502 -0.00000000000E+00 -0.00000000000E+00 -0.51414807811E+03  0.51414807811E+03  0.00000000000E+00 0. -1.
         25    1    1    2    0    0  0.96983947039E+02 -0.77497544108E+01 -0.10823829845E+03  0.19185013403E+03  0.12500000000E+03 0.  0.
         25    1    1    2    0    0 -0.96983947039E+02  0.77497544108E+01 -0.34687598591E+03  0.38133173783E+03  0.12500000000E+03 0.  0.
</event>
<event>
 4    0  0.2190908E-002  0.2110816E+03  0.7546771E-02  0.1140712E+00
         21   -1    0    0  502  501  0.00000000000E+00  0.00000000000E+00  0.19520677483E+04  0.19520677483E+04  0.00000000000E+00 0. -1.
         21   -1    0    0  501  502 -0.00000000000E+00 -0.00000000000E+00 -0.22824745436E+02  0.22824745436E+02  0.00000000000E+00 0. -1.
         25    1    1    2    0    0 -0.10894862741E+03 -0.10373985774E+03  0.13358899942E+04  0.13501328965E+04  0.12500000000E+03 0.  0.
         25    1    1    2    0    0  0.10894862741E+03  0.10373985774E+03  0.59335300863E+03  0.62475959724E+03  0.12500000000E+03 0.  0.
</event>
<event>
 4    0  0.2190908E-002  0.1801164E+03  0.7546771E-02  0.1167690E+00
         21   -1    0    0  502  501  0.00000000000E+00  0.00000000000E+00  0.12129781601E+04  0.12129781601E+04  0.00000000000E+00 0.  1.
         21   -1    0    0  501  502 -0.00000000000E+00 -0.00000000000E+00 -0.26745682307E+02  0.26745682307E+02  0.00000000000E+00 0.  1.
         25    1    1    2    0    0  0.12894200573E+03 -0.86543162475E+01  0.63018028292E+03  0.65532673302E+03  0.12500000000E+03 0.  0.
         25    1    1    2    0    0 -0.12894200573E+03  0.86543162475E+01  0.55605219485E+03  0.58439710936E+03  0.12500000000E+03 0.  0.
</event>
<event>
 4    0  0.2190908E-002  0.3247054E+03  0.7546771E-02  0.1073504E+00
         21   -1    0    0  502  501  0.00000000000E+00  0.00000000000E+00  0.32044420839E+03  0.32044420839E+03  0.00000000000E+00 0.  1.
         21   -1    0    0  501  502 -0.00000000000E+00 -0.00000000000E+00 -0.32902329034E+03  0.32902329034E+03  0.00000000000E+00 0.  1.
         25    1    1    2    0    0 -0.11016892551E+03 -0.12071612262E+03 -0.25550666894E+03  0.32805217921E+03  0.12500000000E+03 0.  0.
         25    1    1    2    0    0  0.11016892551E+03  0.12071612262E+03  0.24692758699E+03  0.32141531952E+03  0.12500000000E+03 0.  0.
</event>
<event>
 4    0  0.2190908E-002  0.3469479E+03  0.7546771E-02  0.1063875E+00
         21   -1    0    0  502  501  0.00000000000E+00  0.00000000000E+00  0.46680385752E+03  0.46680385752E+03  0.00000000000E+00 0. -1.
         21   -1    0    0  501  502 -0.00000000000E+00 -0.00000000000E+00 -0.25786603431E+03  0.25786603431E+03  0.00000000000E+00 0. -1.
         25    1    1    2    0    0 -0.22977402959E+03  0.11328104019E+03 -0.10208845976E+03  0.30278003956E+03  0.12500000000E+03 0.  0.
         25    1    1    2    0    0  0.22977402959E+03 -0.11328104019E+03  0.31102628297E+03  0.42188985226E+03  0.12500000000E+03 0.  0.
</event>
<event>
 4    0  0.2190908E-002  0.2209369E+03  0.7546771E-02  0.1133186E+00
         21   -1    0    0  502  501  0.00000000000E+00  0.00000000000E+00  0.45804180462E+02  0.45804180462E+02  0.00000000000E+00 0. -1.
         21   -1    0    0  501  502 -0.00000000000E+00 -0.00000000000E+00 -0.10656915444E+04  0.10656915444E+04  0.00000000000E+00 0. -1.
         25    1    1    2    0    0  0.69483126065E+02 -0.79364207348E+02 -0.13632597553E+03  0.21292335199E+03  0.12500000000E+03 0.  0.
         25    1    1    2    0    0 -0.69483126065E+02  0.79364207348E+02 -0.88356138841E+03  0.89857237288E+03  0.12500000000E+03 0.  0.
</event>
<event>
 4    0  0.2190908E-002  0.3038064E+03  0.7546771E-02  0.1083353E+00
         21   -1    0    0  502  501  0.00000000000E+00  0.00000000000E+00  0.74233663466E+03  0.74233663466E+03  0.00000000000E+00 0.  1.
         21   -1    0    0  501  502 -0.00000000000E+00 -0.00000000000E+00 -0.12433490078E+03  0.12433490078E+03  0.00000000000E+00 0. -1.
         25    1    1    2    0    0  0.14837524332E+03  0.20234982683E+03  0.14197303683E+03  0.31423241149E+03  0.12500000000E+03 0.  0.
         25    1    1    2    0    0 -0.14837524332E+03 -0.20234982683E+03  0.47602869705E+03  0.55243912394E+03  0.12500000000E+03 0.  0.
</event>
<event>
 4    0  0.2190908E-002  0.2286515E+03  0.7546771E-02  0.1127592E+00
         21   -1    0    0  502  501  0.00000000000E+00  0.00000000000E+00  0.36333965464E+03  0.36333965464E+03  0.00000000000E+00 0. -1.
         21   -1    0    0  501  502 -0.00000000000E+00 -0.00000000000E+00 -0.14389161547E+03  0.14389161547E+03  0.00000000000E+00 0. -1.
         25    1    1    2    0    0 -0.17951445743E+03  0.37398778115E+02  0.48644358822E+02  0.22719019053E+03  0.12500000000E+03 0.  0.
         25    1    1    2    0    0  0.17951445743E+03 -0.37398778115E+02  0.17080368034E+03  0.28004107957E+03  0.12500000000E+03 0.  0.
</event>
<event>
 4    0  0.2190908E-002  0.2414744E+03  0.7546771E-02  0.1118815E+00
         21   -1    0    0  502  501  0.00000000000E+00  0.00000000000E+00  0.11247633450E+03  0.11247633450E+03  0.00000000000E+00 0. -1.
         21   -1    0    0  501  502 -0.00000000000E+00 -0.00000000000E+00 -0.51841914275E+03  0.51841914275E+03  0.00000000000E+00 0. -1.
         25    1    1    2    0    0 -0.31209028288E+02 -0.19831402907E+03 -0.26673402480E+03  0.35647510090E+03  0.12500000000E+03 0.  0.
         25    1    1    2    0    0  0.31209028288E+02  0.19831402907E+03 -0.13920878345E+03  0.27442037636E+03  0.12500000000E+03 0.  0.
</event>
<event>
 4    0  0.2190908E-002  0.2444097E+03  0.7546771E-02  0.1116890E+00
         21   -1    0    0  502  501  0.00000000000E+00  0.00000000000E+00  0.36067651817E+03  0.36067651817E+03  0.00000000000E+00 0. -1.
         21   -1    0    0  501  502 -0.00000000000E+00 -0.00000000000E+00 -0.16562242105E+03  0.16562242105E+03  0.00000000000E+00 0. -1.
         25    1    1    2    0    0 -0.15605101090E+03  0.13163719907E+03  0.44443139100E+02  0.24347579509E+03  0.12500000000E+03 0.  0.
         25    1    1    2    0    0  0.15605101090E+03 -0.13163719907E+03  0.15061095802E+03  0.28282314413E+03  0.12500000000E+03 0.  0.
</event>
<event>
 4    0  0.2190908E-002  0.1885542E+03  0.7546771E-02  0.1159772E+00
         21   -1    0    0  502  501  0.00000000000E+00  0.00000000000E+00  0.15209622027E+03  0.15209622027E+03  0.00000000000E+00 0. -1.
         21   -1    0    0  501  502 -0.00000000000E+00 -0.00000000000E+00 -0.23375130547E+03  0.23375130547E+03  0.00000000000E+00 0. -1.
         25    1    1    2    0    0  0.27733136291E+02 -0.13219422926E+03  0.11506432920E+01  0.18404011812E+03  0.12500000000E+03 0.  0.
         25    1    1    2    0    0 -0.27733136291E+02  0.13219422926E+03 -0.82805728495E+02  0.20180740762E+03  0.12500000000E+03 0.  0.
</event>
<event>
 4    0  0.2190908E-002  0.2731711E+03  0.7546771E-02  0.1099478E+00
         21   -1    0    0  502  501  0.00000000000E+00  0.00000000000E+00  0.24527882674E+03  0.24527882674E+03  0.00000000000E+00 0.  1.
         21   -1    0    0  501  502 -0.00000000000E+00 -0.00000000000E+00 -0.30423512824E+03  0.30423512824E+03  0.00000000000E+00 0.  1.
         25    1    1    2    0    0 -0.19920224031E+03  0.63075297117E+02 -0.15404142914E+03  0.28812113345E+03  0.12500000000E+03 0.  0.
         25    1    1    2    0    0  0.19920224031E+03 -0.63075297117E+02  0.95085127632E+02  0.26139282153E+03  0.12500000000E+03 0.  0.
</event>
<event>
 4    0  0.2190908E-002  0.1821505E+03  0.7546771E-02  0.1165738E+00
         21   -1    0    0  502  501  0.00000000000E+00  0.00000000000E+00  0.32422700161E+03  0.32422700161E+03  0.00000000000E+00 0. -1.
         21   -1    0    0  501  502 -0.00000000000E+00 -0.00000000000E+00 -0.10233205324E+03  0.10233205324E+03  0.00000000000E+00 0. -1.
         25    1    1    2    0    0  0.30227418759E+02 -0.65316009324E+02 -0.19301011791E+02  0.14552459234E+03  0.12500000000E+03 0.  0.
         25    1    1    2    0    0 -0.30227418759E+02  0.65316009324E+02  0.24119596016E+03  0.28103446251E+03  0.12500000000E+03 0.  0.
</event>
<event>
 4    0  0.2190908E-002  0.2271385E+03  0.7546771E-02  0.1128670E+00
         21   -1    0    0  502  501  0.00000000000E+00  0.00000000000E+00  0.11419942922E+03  0.11419942922E+03  0.00000000000E+00 0.  1.
         21   -1    0    0  501  502 -0.00000000000E+00 -0.00000000000E+00 -0.45177002039E+03  0.45177002039E+03  0.00000000000E+00 0.  1.
         25    1    1    2    0    0 -0.18573415642E+03  0.26311386078E+02 -0.13404783218E+03  0.26226568058E+03  0.12500000000E+03 0.  0.
         25    1    1    2    0    0  0.18573415642E+03 -0.26311386078E+02 -0.20352275899E+03  0.30370376903E+03  0.12500000000E+03 0.  0.
</event>
<event>
 4    0  0.2190908E-002  0.2577010E+03  0.7546771E-02  0.1108532E+00
         21   -1    0    0  502  501  0.00000000000E+00  0.00000000000E+00  0.85153248337E+03  0.85153248337E+03  0.00000000000E+00 0. -1.
         21   -1    0    0  501  502 -0.00000000000E+00 -0.00000000000E+00 -0.77988551853E+02  0.77988551853E+02  0.00000000000E+00 0. -1.
         25    1    1    2    0    0 -0.20572638261E+03 -0.89998249315E+02  0.35246984493E+03  0.43621442086E+03  0.12500000000E+03 0.  0.
         25    1    1    2    0    0  0.20572638261E+03  0.89998249315E+02  0.42107408658E+03  0.49330661436E+03  0.12500000000E+03 0.  0.
</event>
<event>
 4    0  0.2190908E-002  0.2995080E+03  0.7546771E-02  0.1085487E+00
         21   -1    0    0  502  501  0.00000000000E+00  0.00000000000E+00  0.17218209557E+03  0.17218209557E+03  0.00000000000E+00 0. -1.
         21   -1    0    0  501  502 -0.00000000000E+00 -0.00000000000E+00 -0.52098947055E+03  0.52098947055E+03  0.00000000000E+00 0.  1.
         25    1    1    2    0    0 -0.17545261674E+03 -0.19706943602E+03 -0.25168480264E+03  0.38547402405E+03  0.12500000000E+03 0.  0.
         25    1    1    2    0    0  0.17545261674E+03  0.19706943602E+03 -0.97122572330E+02  0.30769754207E+03  0.12500000000E+03 0.  0.
</event>
<event>
 4    0  0.2190908E-002  0.2366640E+03  0.7546771E-02  0.1122035E+00
         21   -1    0    0  502  501  0.00000000000E+00  0.00000000000E+00  0.23885281695E+03  0.23885281695E+03  0.00000000000E+00 0.  1.
         21   -1    0    0  501  502 -0.00000000000E+00 -0.00000000000E+00 -0.23449530128E+03  0.23449530128E+03  0.00000000000E+00 0.  1.
         25    1    1    2    0    0 -0.18410700343E+02 -0.16691458337E+03  0.11257107638E+03  0.23769030116E+03  0.12500000000E+03 0.  0.
         25    1    1    2    0    0  0.18410700343E+02  0.16691458337E+03 -0.10821356070E+03  0.23565781707E+03  0.12500000000E+03 0.  0.
</event>
<event>
 4    0  0.2190908E-002  0.3318379E+03  0.7546771E-02  0.1070327E+00
         21   -1    0    0  502  501  0.00000000000E+00  0.00000000000E+00  0.80209266052E+03  0.80209266052E+03  0.00000000000E+00 0. -1.
         21   -1    0    0  501  502 -0.00000000000E+00 -0.00000000000E+00 -0.13728639946E+03  0.13728639946E+03  0.00000000000E+00 0. -1.
         25    1    1    2    0    0  0.35625133934E+01  0.50637984025E+02 -0.96715039321E+02  0.16599908361E+03  0.12500000000E+03 0.  0.
         25    1    1    2    0    0 -0.35625133934E+01 -0.50637984025E+02  0.76152130038E+03  0.77337997637E+03  0.12500000000E+03 0.  0.
</event>
<event>
 4    0  0.2190908E-002  0.2143708E+03  0.7546771E-02  0.1138151E+00
         21   -1    0    0  502  501  0.00000000000E+00  0.00000000000E+00  0.16854169508E+03  0.16854169508E+03  0.00000000000E+00 0.  1.
         21   -1    0    0  501  502 -0.00000000000E+00 -0.00000000000E+00 -0.27266143023E+03  0.27266143023E+03  0.00000000000E+00 0.  1.
         25    1    1    2    0    0 -0.70695838797E+02 -0.10976564525E+03 -0.17066350878E+03  0.24859089229E+03  0.12500000000E+03 0.  0.
         25    1    1    2    0    0  0.70695838797E+02  0.10976564525E+03  0.66543773629E+02  0.19261223302E+03  0.12500000000E+03 0.  0.
</event>
<event>
 4    0  0.2190908E-002  0.2978728E+03  0.7546771E-02  0.1086309E+00
         21   -1    0    0  502  501  0.00000000000E+00  0.00000000000E+00  0.25976442408E+03  0.25976442408E+03  0.00000000000E+00 0. -1.
         21   -1    0    0  501  502 -0.00000000000E+00 -0.00000000000E+00 -0.34157181827E+03  0.34157181827E+03  0.00000000000E+00 0. -1.
         25    1    1    2    0    0  0.17843521533E+03  0.90701669527E+02 -0.22437102034E+03  0.32562750758E+03  0.12500000000E+03 0.  0.
         25    1    1    2    0    0 -0.17843521533E+03 -0.90701669527E+02  0.14256362614E+03  0.27570873477E+03  0.12500000000E+03 0.  0.
</event>
<event>
 4    0  0.2190908E-002  0.2719686E+03  0.7546771E-02  0.1100158E+00
         21   -1    0    0  502  501  0.00000000000E+00  0.00000000000E+00  0.11753876133E+03  0.11753876133E+03  0.00000000000E+00 0.  1.
         21   -1    0    0  501  502 -0.00000000000E+00 -0.00000000000E+00 -0.62929828368E+03  0.62929828368E+03  0.00000000000E+00 0.  1.
         25    1    1    2    0    0 -0.14682200851E+03 -0.13122178943E+03 -0.63823289289E+02  0.24181454145E+03  0.12500000000E+03 0.  0.
         25    1    1    2    0    0  0.14682200851E+03  0.13122178943E+03 -0.44793623306E+03  0.50502250355E+03  0.12500000000E+03 0.  0.
</event>
<event>
 4    0  0.2190908E-002  0.2030546E+03  0.7546771E-02  0.1147187E+00
         21   -1    0    0  502  501  0.00000000000E+00  0.00000000000E+00  0.47789142508E+03  0.47789142508E+03  0.00000000000E+00 0.  1.
         21   -1    0    0  501  502 -0.00000000000E+00 -0.00000000000E+00 -0.86277237425E+02  0.86277237425E+02  0.00000000000E+00 0.  1.
         25    1    1    2    0    0 -0.72075943953E+02 -0.14098550163E+03  0.16369576796E+03  0.25979445301E+03  0.12500000000E+03 0.  0.
         25    1    1    2    0    0  0.72075943953E+02  0.14098550163E+03  0.22791841969E+03  0.30437420949E+03  0.12500000000E+03 0.  0.
</event>
<event>
 4    0  0.2190908E-002  0.1994305E+03  0.7546771E-02  0.1150220E+00
         21   -1    0    0  502  501  0.00000000000E+00  0.00000000000E+00  0.61182103388E+02  0.61182103388E+02  0.00000000000E+00 0. -1.
         21   -1    0    0  501  502 -0.00000000000E+00 -0.00000000000E+00 -0.65006777146E+03  0.65006777146E+03  0.00000000000E+00 0. -1.
         25    1    1    2    0    0  0.82548847550E+01  0.14298107212E+02 -0.56997466817E+03  0.58375397331E+03  0.12500000000E+03 0.  0.
         25    1    1    2    0    0 -0.82548847550E+01 -0.14298107212E+02 -0.18910999897E+02  0.12749590154E+03  0.12500000000E+03 0.  0.
</event>
<event>
 4    0  0.2190908E-002  0.1977149E+03  0.7546771E-02  0.1151681E+00
         21   -1    0    0  502  501  0.00000000000E+00  0.00000000000E+00  0.80008579049E+02  0.80008579049E+02  0.00000000000E+00 0.  1.
         21   -1    0    0  501  502 -0.00000000000E+00 -0.00000000000E+00 -0.48858721715E+03  0.48858721715E+03  0.00000000000E+00 0.  1.
         25    1    1    2    0    0  0.70496776245E+01 -0.13779177173E+03 -0.29999356732E+03  0.35306856380E+03  0.12500000000E+03 0.  0.
         25    1    1    2    0    0 -0.70496776245E+01  0.13779177173E+03 -0.10858507079E+03  0.21552723240E+03  0.12500000000E+03 0.  0.
</event>
<event>
 4    0  0.2190908E-002  0.1990422E+03  0.7546771E-02  0.1150550E+00
         21   -1    0    0  502  501  0.00000000000E+00  0.00000000000E+00  0.12608552144E+03  0.12608552144E+03  0.00000000000E+00 0. -1.
         21   -1    0    0  501  502 -0.00000000000E+00 -0.00000000000E+00 -0.31421376234E+03  0.31421376234E+03  0.00000000000E+00 0. -1.
         25    1    1    2    0    0 -0.62414666061E+02  0.62081439739E+02  0.46899605367E+02  0.15991956942E+03  0.12500000000E+03 0.  0.
         25    1    1    2    0    0  0.62414666061E+02 -0.62081439739E+02 -0.23502784627E+03  0.28037971436E+03  0.12500000000E+03 0.  0.
</event>
<event>
 4    0  0.2190908E-002  0.1810869E+03  0.7546771E-02  0.1166755E+00
         21   -1    0    0  502  501  0.00000000000E+00  0.00000000000E+00  0.19456787477E+03  0.19456787477E+03  0.00000000000E+00 0. -1.
         21   -1    0    0  501  502 -0.00000000000E+00 -0.00000000000E+00 -0.16853990580E+03  0.16853990580E+03  0.00000000000E+00 0. -1.
         25    1    1    2    0    0  0.75000264001E+02  0.83768005808E+02  0.80458072148E+02  0.18638835739E+03  0.12500000000E+03 0.  0.
         25    1    1    2    0    0 -0.75000264001E+02 -0.83768005808E+02 -0.54430103177E+02  0.17671942318E+03  0.12500000000E+03 0.  0.
</event>
<event>
 4    0  0.2190908E-002  0.2291026E+03  0.7546771E-02  0.1127273E+00
         21   -1    0    0  502  501  0.00000000000E+00  0.00000000000E+00  0.55265537120E+03  0.55265537120E+03  0.00000000000E+00 0. -1.
         21   -1    0    0  501  502 -0.00000000000E+00 -0.00000000000E+00 -0.94974177917E+02  0.94974177917E+02  0.00000000000E+00 0. -1.
         25    1    1    2    0    0 -0.14480247377E+03  0.11513167948E+03  0.30146170243E+03  0.37513626599E+03  0.12500000000E+03 0.  0.
         25    1    1    2    0    0  0.14480247377E+03 -0.11513167948E+03  0.15621949086E+03  0.27249328314E+03  0.12500000000E+03 0.  0.
</event>
<event>
 4    0  0.2190908E-002  0.1847946E+03  0.7546771E-02  0.1163242E+00
         21   -1    0    0  502  501  0.00000000000E+00  0.00000000000E+00  0.18849957721E+03  0.18849957721E+03  0.00000000000E+00 0. -1.
         21   -1    0    0  501  502 -0.00000000000E+00 -0.00000000000E+00 -0.18116241115E+03  0.18116241115E+03  0.00000000000E+00 0. -1.
         25    1    1    2    0    0 -0.86798246171E+02 -0.93206892580E+02  0.51663218303E+02  0.18578360662E+03  0.12500000000E+03 0.  0.
         25    1    1    2    0    0  0.86798246171E+02  0.93206892580E+02 -0.44326052243E+02  0.18387838174E+03  0.12500000000E+03 0.  0.
</event>
<event>
 4    0  0.2190908E-002  0.1877503E+03  0.7546771E-02  0.1160506E+00
         21   -1    0    0  502  501  0.00000000000E+00  0.00000000000E+00  0.21088579724E+03  0.21088579724E+03  0.00000000000E+00 0.  1.
         21   -1    0    0  501  502 -0.00000000000E+00 -0.00000000000E+00 -0.16715285960E+03  0.16715285960E+03  0.00000000000E+00 0.  1.
         25    1    1    2    0    0  0.72030449308E+02 -0.11905209156E+03  0.55278503392E+01  0.18712921541E+03  0.12500000000E+03 0.  0.
         25    1    1    2    0    0 -0.72030449308E+02  0.11905209156E+03  0.38205087300E+02  0.19090944143E+03  0.12500000000E+03 0.  0.
</event>
<event>
 4    0  0.2190908E-002  0.1842687E+03  0.7546771E-02  0.1163735E+00
         21   -1    0    0  502  501  0.00000000000E+00  0.00000000000E+00  0.19736841722E+03  0.19736841722E+03  0.00000000000E+00 0.  1.
         21   -1    0    0  501  502 -0.00000000000E+00 -0.00000000000E+00 -0.17203842795E+03  0.17203842795E+03  0.00000000000E+00 0.  1.
         25    1    1    2    0    0  0.51335953092E+02 -0.26521723807E+02 -0.11006229700E+03  0.17628809130E+03  0.12500000000E+03 0.  0.
         25    1    1    2    0    0 -0.51335953092E+02  0.26521723807E+02  0.13539228627E+03  0.19311875387E+03  0.12500000000E+03 0.  0.
</event>
<event>
 4    0  0.2190908E-002  0.1749712E+03  0.7546771E-02  0.1172761E+00
         21   -1    0    0  502  501  0.00000000000E+00  0.00000000000E+00  0.97583302585E+02  0.97583302585E+02  0.00000000000E+00 0. -1.
         21   -1    0    0  501  502 -0.00000000000E+00 -0.00000000000E+00 -0.31373103956E+03  0.31373103956E+03  0.00000000000E+00 0. -1.
         25    1    1    2    0    0 -0.10903960306E+03  0.83973927232E+01 -0.17277046751E+03  0.23965555634E+03  0.12500000000E+03 0.  0.
         25    1    1    2    0    0  0.10903960306E+03 -0.83973927232E+01 -0.43377269462E+02  0.17165878581E+03  0.12500000000E+03 0.  0.
</event>
<event>
 4    0  0.2190908E-002  0.2149981E+03  0.7546771E-02  0.1137668E+00
         21   -1    0    0  502  501  0.00000000000E+00  0.00000000000E+00  0.41815806918E+02  0.41815806918E+02  0.00000000000E+00 0. -1.
         21   -1    0    0  501  502 -0.00000000000E+00 -0.00000000000E+00 -0.11054240756E+04  0.11054240756E+04  0.00000000000E+00 0. -1.
         25    1    1    2    0    0  0.69000972912E+02 -0.15992569662E+03 -0.57497642101E+03  0.61364505002E+03  0.12500000000E+03 0.  0.
         25    1    1    2    0    0 -0.69000972912E+02  0.15992569662E+03 -0.48863184768E+03  0.53359483250E+03  0.12500000000E+03 0.  0.
</event>
<event>
 4    0  0.2190908E-002  0.2722620E+03  0.7546771E-02  0.1099992E+00
         21   -1    0    0  502  501  0.00000000000E+00  0.00000000000E+00  0.14096917321E+03  0.14096917321E+03  0.00000000000E+00 0.  1.
         21   -1    0    0  501  502 -0.00000000000E+00 -0.00000000000E+00 -0.52583565880E+03  0.52583565880E+03  0.00000000000E+00 0.  1.
         25    1    1    2    0    0  0.13815432047E+03 -0.12419619537E+03 -0.27628468126E+01  0.22392843618E+03  0.12500000000E+03 0.  0.
         25    1    1    2    0    0 -0.13815432047E+03  0.12419619537E+03 -0.38210363878E+03  0.44287639582E+03  0.12500000000E+03 0.  0.
</event>
<event>
 4    0  0.2190908E-002  0.2136622E+03  0.7546771E-02  0.1138698E+00
         21   -1    0    0  502  501  0.00000000000E+00  0.00000000000E+00  0.42358502014E+03  0.42358502014E+03  0.00000000000E+00 0.  1.
         21   -1    0    0  501  502 -0.00000000000E+00 -0.00000000000E+00 -0.10777423680E+03  0.10777423680E+03  0.00000000000E+00 0.  1.
         25    1    1    2    0    0 -0.78816903704E+02  0.13543043007E+03  0.24989633074E+03  0.32035399454E+03  0.12500000000E+03 0.  0.
         25    1    1    2    0    0  0.78816903704E+02 -0.13543043007E+03  0.65914452603E+02  0.21100526240E+03  0.12500000000E+03 0.  0.
</event>
<event>
 4    0  0.2190908E-002  0.2377859E+03  0.7546771E-02  0.1121277E+00
         21   -1    0    0  502  501  0.00000000000E+00  0.00000000000E+00  0.73057148557E+03  0.73057148557E+03  0.00000000000E+00 0.  1.
         21   -1    0    0  501  502 -0.00000000000E+00 -0.00000000000E+00 -0.77394390413E+02  0.77394390413E+02  0.00000000000E+00 0.  1.
         25    1    1    2    0    0  0.14229849721E+03  0.31467428091E+02  0.88264310692E+02  0.21131646855E+03  0.12500000000E+03 0.  0.
         25    1    1    2    0    0 -0.14229849721E+03 -0.31467428091E+02  0.56491278446E+03  0.59664940743E+03  0.12500000000E+03 0.  0.
</event>
<event>
 4    0  0.2190908E-002  0.2121694E+03  0.7546771E-02  0.1139859E+00
         21   -1    0    0  502  501  0.00000000000E+00  0.00000000000E+00  0.40635644852E+02  0.40635644852E+02  0.00000000000E+00 0. -1.
         21   -1    0    0  501  502 -0.00000000000E+00 -0.00000000000E+00 -0.11077921294E+04  0.11077921294E+04  0.00000000000E+00 0. -1.
         25    1    1    2    0    0  0.20714056542E+02  0.10892509285E+03 -0.88745512752E+03  0.90304781233E+03  0.12500000000E+03 0.  0.
         25    1    1    2    0    0 -0.20714056542E+02 -0.10892509285E+03 -0.17970135698E+03  0.24537996188E+03  0.12500000000E+03 0.  0.
</event>
<event>
 4    0  0.2190908E-002  0.3159945E+03  0.7546771E-02  0.1077508E+00
         21   -1    0    0  502  501  0.00000000000E+00  0.00000000000E+00  0.21729751558E+03  0.21729751558E+03  0.00000000000E+00 0.  1.
         21   -1    0    0  501  502 -0.00000000000E+00 -0.00000000000E+00 -0.45951999763E+03  0.45951999763E+03  0.00000000000E+00 0.  1.
         25    1    1    2    0    0 -0.21012827293E+03  0.16662328038E+03 -0.22891695491E+01  0.29588418164E+03  0.12500000000E+03 0.  0.
         25    1    1    2    0    0  0.21012827293E+03 -0.16662328038E+03 -0.23993331250E+03  0.38093333157E+03  0.12500000000E+03 0.  0.
</event>
<event>
 4    0  0.2190908E-002  0.2106144E+03  0.7546771E-02  0.1141080E+00
         21   -1    0    0  502  501  0.00000000000E+00  0.00000000000E+00  0.57655167818E+03  0.57655167818E+03  0.00000000000E+00 0. -1.
         21   -1    0    0  501  502 -0.00000000000E+00 -0.00000000000E+00 -0.76937465929E+02  0.76937465929E+02  0.00000000000E+00 0. -1.
         25    1    1    2    0    0  0.16306787849E+03  0.39163665958E+02  0.28807639475E+03  0.35600271760E+03  0.12500000000E+03 0.  0.
         25    1    1    2    0    0 -0.16306787849E+03 -0.39163665958E+02  0.21153781750E+03  0.29748642651E+03  0.12500000000E+03 0.  0.
</event>
<event>
 4    0  0.2190908E-002  0.1813207E+03  0.7546771E-02  0.1166531E+00
         21   -1    0    0  502  501  0.00000000000E+00  0.00000000000E+00  0.46091468012E+02  0.46091468012E+02  0.00000000000E+00 0. -1.
         21   -1    0    0  501  502 -0.00000000000E+00 -0.00000000000E+00 -0.71330344789E+03  0.71330344789E+03  0.00000000000E+00 0. -1.
         25    1    1    2    0    0 -0.10169672500E+01 -0.76207338045E+02 -0.55761825150E+03  0.57651687486E+03  0.12500000000E+03 0.  0.
         25    1    1    2    0    0  0.10169672500E+01  0.76207338045E+02 -0.10959372838E+03  0.18287804104E+03  0.12500000000E+03 0.  0.
</event>
<event>
 4    0  0.2190908E-002  0.3568753E+03  0.7546771E-02  0.1059828E+00
         21   -1    0    0  502  501  0.00000000000E+00  0.00000000000E+00  0.13528252954E+03  0.13528252954E+03  0.00000000000E+00 0.  1.
         21   -1    0    0  501  502 -0.00000000000E+00 -0.00000000000E+00 -0.94143686048E+03  0.94143686048E+03  0.00000000000E+00 0.  1.
         25    1    1    2    0    0 -0.16202304840E+03 -0.78532628315E+02 -0.82792832376E+03  0.85645148795E+03  0.12500000000E+03 0.  0.
         25    1    1    2    0    0  0.16202304840E+03  0.78532628315E+02  0.21773992823E+02  0.22026790208E+03  0.12500000000E+03 0.  0.
</event>
<event>
 4    0  0.2190908E-002  0.1974510E+03  0.7546771E-02  0.1151908E+00
         21   -1    0    0  502  501  0.00000000000E+00  0.00000000000E+00  0.12524310952E+03  0.12524310952E+03  0.00000000000E+00 0.  1.
         21   -1    0    0  501  502 -0.00000000000E+00 -0.00000000000E+00 -0.31128981674E+03  0.31128981674E+03  0.00000000000E+00 0.  1.
         25    1    1    2    0    0  0.71395523862E+02  0.31317230579E+02  0.52304023700E+02  0.15632914205E+03  0.12500000000E+03 0.  0.
         25    1    1    2    0    0 -0.71395523862E+02 -0.31317230579E+02 -0.23835073091E+03  0.28020378421E+03  0.12500000000E+03 0.  0.
</event>
<event>
 4    0  0.2190908E-002  0.3180140E+03  0.7546771E-02  0.1076567E+00
         21   -1    0    0  502  501  0.00000000000E+00  0.00000000000E+00  0.24804732973E+03  0.24804732973E+03  0.00000000000E+00 0.  1.
         21   -1    0    0  501  502 -0.00000000000E+00 -0.00000000000E+00 -0.40771614862E+03  0.40771614862E+03  0.00000000000E+00 0.  1.
         25    1    1    2    0    0  0.13127371034E+03  0.27634656266E+02 -0.34772637171E+03  0.39310951507E+03  0.12500000000E+03 0.  0.
         25    1    1    2    0    0 -0.13127371034E+03 -0.27634656266E+02  0.18805755283E+03  0.26265396328E+03  0.12500000000E+03 0.  0.
</event>
<event>
 4    0  0.2190908E-002  0.1848397E+03  0.7546771E-02  0.1163200E+00
         21   -1    0    0  502  501  0.00000000000E+00  0.00000000000E+00  0.13691647873E+03  0.13691647873E+03  0.00000000000E+00 0. -1.
         21   -1    0    0  501  502 -0.00000000000E+00 -0.00000000000E+00 -0.24953690532E+03  0.24953690532E+03  0.00000000000E+00 0. -1.
         25    1    1    2    0    0  0.26581499379E+02 -0.13085129008E+03 -0.28414613718E+02  0.18509734330E+03  0.12500000000E+03 0.  0.
         25    1    1    2    0    0 -0.26581499379E+02  0.13085129008E+03 -0.84205812876E+02  0.20135604075E+03  0.12500000000E+03 0.  0.
</event>
<event>
 4    0  0.2190908E-002  0.2434187E+03  0.7546771E-02  0.1117536E+00
         21   -1    0    0  502  501  0.00000000000E+00  0.00000000000E+00  0.88104658284E+02  0.88104658284E+02  0.00000000000E+00 0.  1.
         21   -1    0    0  501  502 -0.00000000000E+00 -0.00000000000E+00 -0.67252601850E+03  0.67252601850E+03  0.00000000000E+00 0.  1.
         25    1    1    2    0    0 -0.39378036206E+02  0.19897907438E+03 -0.21433563986E+03  0.32048099521E+03  0.12500000000E+03 0.  0.
         25    1    1    2    0    0  0.39378036206E+02 -0.19897907438E+03 -0.37008572036E+03  0.44014968157E+03  0.12500000000E+03 0.  0.
</event>
<event>
 4    0  0.2190908E-002  0.1380131E+03  0.7546771E-02  0.1216028E+00
         21   -1    0    0  502  501  0.00000000000E+00  0.00000000000E+00  0.21175962306E+03  0.21175962306E+03  0.00000000000E+00 0. -1.
         21   -1    0    0  501  502 -0.00000000000E+00 -0.00000000000E+00 -0.89949235305E+02  0.89949235305E+02  0.00000000000E+00 0. -1.
         25    1    1    2    0    0  0.53681389728E+02  0.21742971391E+02  0.51880608764E+02  0.14721088945E+03  0.12500000000E+03 0.  0.
         25    1    1    2    0    0 -0.53681389728E+02 -0.21742971391E+02  0.69929778992E+02  0.15449796891E+03  0.12500000000E+03 0.  0.
</event>
<event>
 4    0  0.2190908E-002  0.1743260E+03  0.7546771E-02  0.1173410E+00
         21   -1    0    0  502  501  0.00000000000E+00  0.00000000000E+00  0.13388386756E+03  0.13388386756E+03  0.00000000000E+00 0.  1.
         21   -1    0    0  501  502 -0.00000000000E+00 -0.00000000000E+00 -0.22698445335E+03  0.22698445335E+03  0.00000000000E+00 0.  1.
         25    1    1    2    0    0  0.36797565525E+02 -0.11515541158E+03 -0.59215328551E+02  0.18370161888E+03  0.12500000000E+03 0.  0.
         25    1    1    2    0    0 -0.36797565525E+02  0.11515541158E+03 -0.33885257238E+02  0.17716670202E+03  0.12500000000E+03 0.  0.
</event>
<event>
 4    0  0.2190908E-002  0.2198258E+03  0.7546771E-02  0.1134013E+00
         21   -1    0    0  502  501  0.00000000000E+00  0.00000000000E+00  0.60089229620E+02  0.60089229620E+02  0.00000000000E+00 0.  1.
         21   -1    0    0  501  502 -0.00000000000E+00 -0.00000000000E+00 -0.80419337987E+03  0.80419337987E+03  0.00000000000E+00 0.  1.
         25    1    1    2    0    0 -0.16127276498E+03 -0.80356802322E+02 -0.34209385791E+03  0.40634877633E+03  0.12500000000E+03 0.  0.
         25    1    1    2    0    0  0.16127276498E+03  0.80356802322E+02 -0.40201029234E+03  0.45793383316E+03  0.12500000000E+03 0.  0.
</event>
<event>
 4    0  0.2190908E-002  0.2911427E+03  0.7546771E-02  0.1089754E+00
         21   -1    0    0  502  501  0.00000000000E+00  0.00000000000E+00  0.25323576273E+03  0.25323576273E+03  0.00000000000E+00 0.  1.
         21   -1    0    0  501  502 -0.00000000000E+00 -0.00000000000E+00 -0.33472392457E+03  0.33472392457E+03  0.00000000000E+00 0.  1.
         25    1    1    2    0    0  0.17797175547E+03 -0.76470506281E+02  0.13880146129E+03  0.26909576313E+03  0.12500000000E+03 0.  0.
         25    1    1    2    0    0 -0.17797175547E+03  0.76470506281E+02 -0.22028962313E+03  0.31886392417E+03  0.12500000000E+03 0.  0.
</event>
<event>
 4    0  0.2190908E-002  0.2351794E+03  0.7546771E-02  0.1123046E+00
         21   -1    0    0  502  501  0.00000000000E+00  0.00000000000E+00  0.21702003468E+02  0.21702003468E+02  0.00000000000E+00 0.  1.
         21   -1    0    0  501  502 -0.00000000000E+00 -0.00000000000E+00 -0.25485834355E+04  0.25485834355E+04  0.00000000000E+00 0.  1.
         25    1    1    2    0    0  0.41160311494E+02  0.14525624054E+03 -0.19736353449E+04  0.19833444031E+04  0.12500000000E+03 0.  0.
         25    1    1    2    0    0 -0.41160311494E+02 -0.14525624054E+03 -0.55324608708E+03  0.58694103582E+03  0.12500000000E+03 0.  0.
</event>
<event>
 4    0  0.2190908E-002  0.1732896E+03  0.7546771E-02  0.1174460E+00
         21   -1    0    0  502  501  0.00000000000E+00  0.00000000000E+00  0.11766706692E+04  0.11766706692E+04  0.00000000000E+00 0. -1.
         21   -1    0    0  501  502 -0.00000000000E+00 -0.00000000000E+00 -0.25520538301E+02  0.25520538301E+02  0.00000000000E+00 0. -1.
         25    1    1    2    0    0  0.17834613890E+02  0.78282148487E+02  0.26613546879E+03  0.30479379254E+03  0.12500000000E+03 0.  0.
         25    1    1    2    0    0 -0.17834613890E+02 -0.78282148487E+02  0.88501466212E+03  0.89739741497E+03  0.12500000000E+03 0.  0.
</event>
<event>
 4    0  0.2190908E-002  0.1814437E+03  0.7546771E-02  0.1166413E+00
         21   -1    0    0  502  501  0.00000000000E+00  0.00000000000E+00  0.39517177185E+02  0.39517177185E+02  0.00000000000E+00 0.  1.
         21   -1    0    0  501  502 -0.00000000000E+00 -0.00000000000E+00 -0.83310116492E+03  0.83310116492E+03  0.00000000000E+00 0.  1.
         25    1    1    2    0    0  0.48094069746E+02  0.96926429800E+02 -0.21702047409E+03  0.27281982793E+03  0.12500000000E+03 0.  0.
         25    1    1    2    0    0 -0.48094069746E+02 -0.96926429800E+02 -0.57656351364E+03  0.59979851417E+03  0.12500000000E+03 0.  0.
</event>
<event>
 4    0  0.2190908E-002  0.1733001E+03  0.7546771E-02  0.1174449E+00
         21   -1    0    0  502  501  0.00000000000E+00  0.00000000000E+00  0.23456906919E+03  0.23456906919E+03  0.00000000000E+00 0. -1.
         21   -1    0    0  501  502 -0.00000000000E+00 -0.00000000000E+00 -0.12803444811E+03  0.12803444811E+03  0.00000000000E+00 0. -1.
         25    1    1    2    0    0  0.19981920426E+02 -0.28895263715E+02  0.17334359545E+03  0.21658073666E+03  0.12500000000E+03 0.  0.
         25    1    1    2    0    0 -0.19981920426E+02  0.28895263715E+02 -0.66808974365E+02  0.14602278064E+03  0.12500000000E+03 0.  0.
</event>
<event>
 4    0  0.2190908E-002  0.1599675E+03  0.7546771E-02  0.1188734E+00
         21   -1    0    0  502  501  0.00000000000E+00  0.00000000000E+00  0.20084865335E+03  0.20084865335E+03  0.00000000000E+00 0.  1.
         21   -1    0    0  501  502 -0.00000000000E+00 -0.00000000000E+00 -0.12740731142E+03  0.12740731142E+03  0.00000000000E+00 0.  1.
         25    1    1    2    0    0  0.86774616498E+02 -0.47337131796E+02  0.51009431378E+02  0.16732483439E+03  0.12500000000E+03 0.  0.
         25    1    1    2    0    0 -0.86774616498E+02  0.47337131796E+02  0.22431910548E+02  0.16093113038E+03  0.12500000000E+03 0.  0.
</event>
<event>
 4    0  0.2190908E-002  0.5460751E+03  0.7546771E-02  0.1002406E+00
         21   -1    0    0  502  501  0.00000000000E+00  0.00000000000E+00  0.43590453281E+03  0.43590453281E+03  0.00000000000E+00 0.  1.
         21   -1    0    0  501  502 -0.00000000000E+00 -0.00000000000E+00 -0.68409008076E+03  0.68409008076E+03  0.00000000000E+00 0. -1.
         25    1    1    2    0    0  0.27650963451E+03 -0.44446573215E+03 -0.29182649003E+02  0.53896566870E+03  0.12500000000E+03 0.  0.
         25    1    1    2    0    0 -0.27650963451E+03  0.44446573215E+03 -0.21900289895E+03  0.58102894487E+03  0.12500000000E+03 0.  0.
</event>
<event>
 4    0  0.2190908E-002  0.1589355E+03  0.7546771E-02  0.1189904E+00
         21   -1    0    0  502  501  0.00000000000E+00  0.00000000000E+00  0.93401991382E+02  0.93401991382E+02  0.00000000000E+00 0. -1.
         21   -1    0    0  501  502 -0.00000000000E+00 -0.00000000000E+00 -0.27044928524E+03  0.27044928524E+03  0.00000000000E+00 0. -1.
         25    1    1    2    0    0 -0.68230329038E+02  0.30826474927E+02 -0.16118734443E+03  0.21728324685E+03  0.12500000000E+03 0.  0.
         25    1    1    2    0    0  0.68230329038E+02 -0.30826474927E+02 -0.15859949434E+02  0.14656802978E+03  0.12500000000E+03 0.  0.
</event>
<event>
 4    0  0.2190908E-002  0.2718325E+03  0.7546771E-02  0.1100235E+00
         21   -1    0    0  502  501  0.00000000000E+00  0.00000000000E+00  0.30802161815E+03  0.30802161815E+03  0.00000000000E+00 0.  1.
         21   -1    0    0  501  502 -0.00000000000E+00 -0.00000000000E+00 -0.23989518049E+03  0.23989518049E+03  0.00000000000E+00 0.  1.
         25    1    1    2    0    0 -0.19171666592E+03 -0.14666775693E+03  0.35162976129E+02  0.27409514006E+03  0.12500000000E+03 0.  0.
         25    1    1    2    0    0  0.19171666592E+03  0.14666775693E+03  0.32963461539E+02  0.27382165858E+03  0.12500000000E+03 0.  0.
</event>
<event>
 4    0  0.2190908E-002  0.2243125E+03  0.7546771E-02  0.1130708E+00
         21   -1    0    0  502  501  0.00000000000E+00  0.00000000000E+00  0.10894421338E+04  0.10894421338E+04  0.00000000000E+00 0.  1.
         21   -1    0    0  501  502 -0.00000000000E+00 -0.00000000000E+00 -0.46185179323E+02  0.46185179323E+02  0.00000000000E+00 0.  1.
         25    1    1    2    0    0 -0.73406311958E+02  0.11722383725E+03  0.20585656596E+03  0.27772619683E+03  0.12500000000E+03 0.  0.
         25    1    1    2    0    0  0.73406311958E+02 -0.11722383725E+03  0.83740038848E+03  0.85790111626E+03  0.12500000000E+03 0.  0.
</event>
<event>
 4    0  0.2190908E-002  0.3623118E+03  0.7546771E-02  0.1057672E+00
         21   -1    0    0  502  501  0.00000000000E+00  0.00000000000E+00  0.43312783420E+03  0.43312783420E+03  0.00000000000E+00 0.  1.
         21   -1    0    0  501  502 -0.00000000000E+00 -0.00000000000E+00 -0.30307406670E+03  0.30307406670E+03  0.00000000000E+00 0.  1.
         25    1    1    2    0    0 -0.12069259234E+03 -0.28400678084E+03 -0.80148798619E+02  0.34245493620E+03  0.12500000000E+03 0.  0.
         25    1    1    2    0    0  0.12069259234E+03  0.28400678084E+03  0.21020256611E+03  0.39374696470E+03  0.12500000000E+03 0.  0.
</event>
<event>
 4    0  0.2190908E-002  0.2166349E+03  0.7546771E-02  0.1136417E+00
         21   -1    0    0  502  501  0.00000000000E+00  0.00000000000E+00  0.16707368801E+03  0.16707368801E+03  0.00000000000E+00 0. -1.
         21   -1    0    0  501  502 -0.00000000000E+00 -0.00000000000E+00 -0.28089814365E+03  0.28089814365E+03  0.00000000000E+00 0.  1.
         25    1    1    2    0    0  0.13832413056E+03 -0.71027092618E+02  0.30375669111E+02  0.20180707187E+03  0.12500000000E+03 0.  0.
         25    1    1    2    0    0 -0.13832413056E+03  0.71027092618E+02 -0.14420012475E+03  0.24616475978E+03  0.12500000000E+03 0.  0.
</event>
<event>
 4    0  0.2190908E-002  0.3077579E+03  0.7546771E-02  0.1081426E+00
         21   -1    0    0  502  501  0.00000000000E+00  0.00000000000E+00  0.74951698303E+03  0.74951698303E+03  0.00000000000E+00 0. -1.
         21   -1    0    0  501  502 -0.00000000000E+00 -0.00000000000E+00 -0.12636797017E+03  0.12636797017E+03  0.00000000000E+00 0. -1.
         25    1    1    2    0    0  0.23560434673E+03 -0.99011361374E+02  0.14454638438E+03  0.31911019275E+03  0.12500000000E+03 0.  0.
         25    1    1    2    0    0 -0.23560434673E+03  0.99011361374E+02  0.47860262848E+03  0.55677476044E+03  0.12500000000E+03 0.  0.
</event>
<event>
 4    0  0.2190908E-002  0.1703836E+03  0.7546771E-02  0.1177448E+00
         21   -1    0    0  502  501  0.00000000000E+00  0.00000000000E+00  0.15356295474E+04  0.15356295474E+04  0.00000000000E+00 0.  1.
         21   -1    0    0  501  502 -0.00000000000E+00 -0.00000000000E+00 -0.18904660706E+02  0.18904660706E+02  0.00000000000E+00 0.  1.
         25    1    1    2    0    0  0.11022513050E+03 -0.25383034186E+01  0.59710620979E+03  0.61993293843E+03  0.12500000000E+03 0.  0.
         25    1    1    2    0    0 -0.11022513050E+03  0.25383034186E+01  0.91961867695E+03  0.93460126972E+03  0.12500000000E+03 0.  0.
</event>
<event>
 4    0  0.2190908E-002  0.2240242E+03  0.7546771E-02  0.1130918E+00
         21   -1    0    0  502  501  0.00000000000E+00  0.00000000000E+00  0.49576690108E+03  0.49576690108E+03  0.00000000000E+00 0. -1.
         21   -1    0    0  501  502 -0.00000000000E+00 -0.00000000000E+00 -0.10123076440E+03  0.10123076440E+03  0.00000000000E+00 0.  1.
         25    1    1    2    0    0 -0.11869048139E+03  0.13581271231E+03  0.13724406836E+03  0.25883094385E+03  0.12500000000E+03 0.  0.
         25    1    1    2    0    0  0.11869048139E+03 -0.13581271231E+03  0.25729206831E+03  0.33816672163E+03  0.12500000000E+03 0.  0.
</event>
<event>
 4    0  0.2190908E-002  0.1947544E+03  0.7546771E-02  0.1154242E+00
         21   -1    0    0  502  501  0.00000000000E+00  0.00000000000E+00  0.95881717358E+02  0.95881717358E+02  0.00000000000E+00 0.  1.
         21   -1    0    0  501  502 -0.00000000000E+00 -0.00000000000E+00 -0.39558405039E+03  0.39558405039E+03  0.00000000000E+00 0.  1.
         25    1    1    2    0    0 -0.61156117942E+01  0.11632434953E+03 -0.26778012078E+03  0.31764752177E+03  0.12500000000E+03 0.  0.
         25    1    1    2    0    0  0.61156117942E+01 -0.11632434953E+03 -0.31922212250E+02  0.17381824598E+03  0.12500000000E+03 0.  0.
</event>
<event>
 4    0  0.2190908E-002  0.3339900E+03  0.7546771E-02  0.1069385E+00
         21   -1    0    0  502  501  0.00000000000E+00  0.00000000000E+00  0.99712771749E+02  0.99712771749E+02  0.00000000000E+00 0. -1.
         21   -1    0    0  501  502 -0.00000000000E+00 -0.00000000000E+00 -0.11187064192E+04  0.11187064192E+04  0.00000000000E+00 0. -1.
         25    1    1    2    0    0  0.27663617306E+03 -0.32046053216E+01 -0.25552665195E+03  0.39680815465E+03  0.12500000000E+03 0.  0.
         25    1    1    2    0    0 -0.27663617306E+03  0.32046053216E+01 -0.76346699552E+03  0.82161103631E+03  0.12500000000E+03 0.  0.
</event>
<event>
 4    0  0.2190908E-002  0.1928327E+03  0.7546771E-02  0.1155931E+00
         21   -1    0    0  502  501  0.00000000000E+00  0.00000000000E+00  0.73896310163E+03  0.73896310163E+03  0.00000000000E+00 0.  1.
         21   -1    0    0  501  502 -0.00000000000E+00 -0.00000000000E+00 -0.50319770984E+02  0.50319770984E+02  0.00000000000E+00 0.  1.
         25    1    1    2    0    0 -0.27815071205E+02 -0.13172701463E+03  0.22439726764E+03  0.29000830729E+03  0.12500000000E+03 0.  0.
         25    1    1    2    0    0  0.27815071205E+02  0.13172701463E+03  0.46424606301E+03  0.49927456533E+03  0.12500000000E+03 0.  0.
</event>
<event>
 4    0  0.2190908E-002  0.4218208E+03  0.7546771E-02  0.1036475E+00
         21   -1    0    0  502  501  0.00000000000E+00  0.00000000000E+00  0.58359487533E+03  0.58359487533E+03  0.00000000000E+00 0. -1.
         21   -1    0    0  501  502 -0.00000000000E+00 -0.00000000000E+00 -0.30489099166E+03  0.30489099166E+03  0.00000000000E+00 0. -1.
         25    1    1    2    0    0 -0.27419009480E+03 -0.16554949348E+02  0.44972661393E+03  0.54160253112E+03  0.12500000000E+03 0.  0.
         25    1    1    2    0    0  0.27419009480E+03  0.16554949348E+02 -0.17102273026E+03  0.34688333587E+03  0.12500000000E+03 0.  0.
</event>
<event>
 4    0  0.2190908E-002  0.2744030E+03  0.7546771E-02  0.1098786E+00
         21   -1    0    0  502  501  0.00000000000E+00  0.00000000000E+00  0.28063095810E+03  0.28063095810E+03  0.00000000000E+00 0. -1.
         21   -1    0    0  501  502 -0.00000000000E+00 -0.00000000000E+00 -0.26831317171E+03  0.26831317171E+03  0.00000000000E+00 0. -1.
         25    1    1    2    0    0  0.10456732292E+03 -0.39457377813E+02 -0.21110716667E+03  0.26959682028E+03  0.12500000000E+03 0.  0.
         25    1    1    2    0    0 -0.10456732292E+03  0.39457377813E+02  0.22342495307E+03  0.27934730953E+03  0.12500000000E+03 0.  0.
</event>
<event>
 4    0  0.2190908E-002  0.3476671E+03  0.7546771E-02  0.1063577E+00
         21   -1    0    0  502  501  0.00000000000E+00  0.00000000000E+00  0.32588358229E+03  0.32588358229E+03  0.00000000000E+00 0. -1.
         21   -1    0    0  501  502 -0.00000000000E+00 -0.00000000000E+00 -0.37090669116E+03  0.37090669116E+03  0.00000000000E+00 0. -1.
         25    1    1    2    0    0  0.14999288680E+03 -0.25318510277E+03 -0.15935094080E+03  0.35723701472E+03  0.12500000000E+03 0.  0.
         25    1    1    2    0    0 -0.14999288680E+03  0.25318510277E+03  0.11432783193E+03  0.33955325872E+03  0.12500000000E+03 0.  0.
</event>
<event>
 4    0  0.2190908E-002  0.1896072E+03  0.7546771E-02  0.1158816E+00
         21   -1    0    0  502  501  0.00000000000E+00  0.00000000000E+00  0.25409966944E+02  0.25409966944E+02  0.00000000000E+00 0. -1.
         21   -1    0    0  501  502 -0.00000000000E+00 -0.00000000000E+00 -0.14148344573E+04  0.14148344573E+04  0.00000000000E+00 0. -1.
         25    1    1    2    0    0 -0.85659938036E+02 -0.31999260058E+02 -0.11101398366E+04  0.11208911787E+04  0.12500000000E+03 0.  0.
         25    1    1    2    0    0  0.85659938036E+02  0.31999260058E+02 -0.27928465372E+03  0.31935324554E+03  0.12500000000E+03 0.  0.
</event>
<event>
 4    0  0.2190908E-002  0.1991572E+03  0.7546771E-02  0.1150452E+00
         21   -1    0    0  502  501  0.00000000000E+00  0.00000000000E+00  0.22405434036E+03  0.22405434036E+03  0.00000000000E+00 0.  1.
         21   -1    0    0  501  502 -0.00000000000E+00 -0.00000000000E+00 -0.17702662629E+03  0.17702662629E+03  0.00000000000E+00 0.  1.
         25    1    1    2    0    0 -0.13697503702E+03  0.72438424823E+02  0.18082150073E+02  0.19990360254E+03  0.12500000000E+03 0.  0.
         25    1    1    2    0    0  0.13697503702E+03 -0.72438424823E+02  0.28945563989E+02  0.20117736411E+03  0.12500000000E+03 0.  0.
</event>
<event>
 4    0  0.2190908E-002  0.5406075E+03  0.7546771E-02  0.1003692E+00
         21   -1    0    0  502  501  0.00000000000E+00  0.00000000000E+00  0.54396726783E+03  0.54396726783E+03  0.00000000000E+00 0. -1.
         21   -1    0    0  501  502 -0.00000000000E+00 -0.00000000000E+00 -0.53726842396E+03  0.53726842396E+03  0.00000000000E+00 0. -1.
         25    1    1    2    0    0 -0.32821731188E+03  0.19059082450E+03 -0.36077289229E+03  0.53836190988E+03  0.12500000000E+03 0.  0.
         25    1    1    2    0    0  0.32821731188E+03 -0.19059082450E+03  0.36747173616E+03  0.54287378191E+03  0.12500000000E+03 0.  0.
</event>
<event>
 4    0  0.2190908E-002  0.1989484E+03  0.7546771E-02  0.1150629E+00
         21   -1    0    0  502  501  0.00000000000E+00  0.00000000000E+00  0.24023992997E+03  0.24023992997E+03  0.00000000000E+00 0. -1.
         21   -1    0    0  501  502 -0.00000000000E+00 -0.00000000000E+00 -0.16475391055E+03  0.16475391055E+03  0.00000000000E+00 0. -1.
         25    1    1    2    0    0  0.80812155007E+02 -0.12468031291E+03 -0.63856035063E+01  0.19427187330E+03  0.12500000000E+03 0.  0.
         25    1    1    2    0    0 -0.80812155007E+02  0.12468031291E+03  0.81871622932E+02  0.21072196721E+03  0.12500000000E+03 0.  0.
</event>
<event>
 4    0  0.2190908E-002  0.3284469E+03  0.7546771E-02  0.1071826E+00
         21   -1    0    0  502  501  0.00000000000E+00  0.00000000000E+00  0.67269407653E+03  0.67269407653E+03  0.00000000000E+00 0. -1.
         21   -1    0    0  501  502 -0.00000000000E+00 -0.00000000000E+00 -0.16036617853E+03  0.16036617853E+03  0.00000000000E+00 0. -1.
         25    1    1    2    0    0  0.12387796608E+03  0.27393240558E+03  0.31097027951E+03  0.45023574718E+03  0.12500000000E+03 0.  0.
         25    1    1    2    0    0 -0.12387796608E+03 -0.27393240558E+03  0.20135761850E+03  0.38282450788E+03  0.12500000000E+03 0.  0.
</event>
<event>
 4    0  0.2190908E-002  0.1927279E+03  0.7546771E-02  0.1156024E+00
         21   -1    0    0  502  501  0.00000000000E+00  0.00000000000E+00  0.79345416759E+02  0.79345416759E+02  0.00000000000E+00 0.  1.
         21   -1    0    0  501  502 -0.00000000000E+00 -0.00000000000E+00 -0.46813103188E+03  0.46813103188E+03  0.00000000000E+00 0.  1.
         25    1    1    2    0    0  0.46243609001E+02 -0.91038353533E+02 -0.44801121548E+02  0.16750699591E+03  0.12500000000E+03 0.  0.
         25    1    1    2    0    0 -0.46243609001E+02  0.91038353533E+02 -0.34398449357E+03  0.37996945272E+03  0.12500000000E+03 0.  0.
</event>
<event>
 4    0  0.2190908E-002  0.2208415E+03  0.7546771E-02  0.1133257E+00
         21   -1    0    0  502  501  0.00000000000E+00  0.00000000000E+00  0.67009101047E+02  0.67009101047E+02  0.00000000000E+00 0.  1.
         21   -1    0    0  501  502 -0.00000000000E+00 -0.00000000000E+00 -0.72782571304E+03  0.72782571304E+03  0.00000000000E+00 0.  1.
         25    1    1    2    0    0  0.17143959678E+03 -0.47842266639E+02 -0.26151714719E+03  0.34014208222E+03  0.12500000000E+03 0.  0.
         25    1    1    2    0    0 -0.17143959678E+03  0.47842266639E+02 -0.39929946480E+03  0.45469273187E+03  0.12500000000E+03 0.  0.
</event>
<event>
 4    0  0.2190908E-002  0.4396983E+03  0.7546771E-02  0.1030839E+00
         21   -1    0    0  502  501  0.00000000000E+00  0.00000000000E+00  0.62862652012E+03  0.62862652012E+03  0.00000000000E+00 0. -1.
         21   -1    0    0  501  502 -0.00000000000E+00 -0.00000000000E+00 -0.30755076721E+03  0.30755076721E+03  0.00000000000E+00 0. -1.
         25    1    1    2    0    0 -0.14332574515E+03  0.52722824927E+02  0.57882987812E+03  0.61154803024E+03  0.12500000000E+03 0.  0.
         25    1    1    2    0    0  0.14332574515E+03 -0.52722824927E+02 -0.25775412521E+03  0.32462925709E+03  0.12500000000E+03 0.  0.
</event>
<event>
 4    0  0.2190908E-002  0.1791203E+03  0.7546771E-02  0.1168657E+00
         21   -1    0    0  502  501  0.00000000000E+00  0.00000000000E+00  0.78941297079E+02  0.78941297079E+02  0.00000000000E+00 0. -1.
         21   -1    0    0  501  502 -0.00000000000E+00 -0.00000000000E+00 -0.40642960244E+03  0.40642960244E+03  0.00000000000E+00 0. -1.
         25    1    1    2    0    0  0.60890922141E+02  0.11093403452E+03 -0.13516255190E+03  0.22340093968E+03  0.12500000000E+03 0.  0.
         25    1    1    2    0    0 -0.60890922141E+02 -0.11093403452E+03 -0.19232575346E+03  0.26196995984E+03  0.12500000000E+03 0.  0.
</event>
<event>
 4    0  0.2190908E-002  0.2364599E+03  0.7546771E-02  0.1122174E+00
         21   -1    0    0  502  501  0.00000000000E+00  0.00000000000E+00  0.18165893108E+03  0.18165893108E+03  0.00000000000E+00 0.  1.
         21   -1    0    0  501  502 -0.00000000000E+00 -0.00000000000E+00 -0.30779259453E+03  0.30779259453E+03  0.00000000000E+00 0.  1.
         25    1    1    2    0    0 -0.31739685084E+02  0.18317300269E+03  0.15265912395E+02  0.22453909371E+03  0.12500000000E+03 0.  0.
         25    1    1    2    0    0  0.31739685084E+02 -0.18317300269E+03 -0.14139957584E+03  0.26491243189E+03  0.12500000000E+03 0.  0.
</event>
<event>
 4    0  0.2190908E-002  0.2495849E+03  0.7546771E-02  0.1113567E+00
         21   -1    0    0  502  501  0.00000000000E+00  0.00000000000E+00  0.56156773916E+03  0.56156773916E+03  0.00000000000E+00 0. -1.
         21   -1    0    0  501  502 -0.00000000000E+00 -0.00000000000E+00 -0.11092625014E+03  0.11092625014E+03  0.00000000000E+00 0. -1.
         25    1    1    2    0    0 -0.14893084959E+03  0.12846485610E+03  0.10494193018E+03  0.25558056640E+03  0.12500000000E+03 0.  0.
         25    1    1    2    0    0  0.14893084959E+03 -0.12846485610E+03  0.34569955884E+03  0.41691342290E+03  0.12500000000E+03 0.  0.
</event>
<event>
 4    0  0.2190908E-002  0.1936072E+03  0.7546771E-02  0.1155248E+00
         21   -1    0    0  502  501  0.00000000000E+00  0.00000000000E+00  0.11308084048E+04  0.11308084048E+04  0.00000000000E+00 0.  1.
         21   -1    0    0  501  502 -0.00000000000E+00 -0.00000000000E+00 -0.33147733958E+02  0.33147733958E+02  0.00000000000E+00 0.  1.
         25    1    1    2    0    0  0.19072342135E+02  0.14490165096E+03  0.61594461319E+03  0.64526971818E+03  0.12500000000E+03 0.  0.
         25    1    1    2    0    0 -0.19072342135E+02 -0.14490165096E+03  0.48171605761E+03  0.51868642054E+03  0.12500000000E+03 0.  0.
</event>
<event>
 4    0  0.2190908E-002  0.2346317E+03  0.7546771E-02  0.1123422E+00
         21   -1    0    0  502  501  0.00000000000E+00  0.00000000000E+00  0.61024521224E+02  0.61024521224E+02  0.00000000000E+00 0. -1.
         21   -1    0    0  501  502 -0.00000000000E+00 -0.00000000000E+00 -0.90212965034E+03  0.90212965034E+03  0.00000000000E+00 0. -1.
         25    1    1    2    0    0  0.17853964182E+03 -0.50380999932E+02 -0.27524066205E+03  0.35467882782E+03  0.12500000000E+03 0.  0.
         25    1    1    2    0    0 -0.17853964182E+03  0.50380999932E+02 -0.56586446707E+03  0.60847534375E+03  0.12500000000E+03 0.  0.
</event>
<event>
 4    0  0.2190908E-002  0.1743576E+03  0.7546771E-02  0.1173378E+00
         21   -1    0    0  502  501  0.00000000000E+00  0.00000000000E+00  0.16351669354E+03  0.16351669354E+03  0.00000000000E+00 0.  1.
         21   -1    0    0  501  502 -0.00000000000E+00 -0.00000000000E+00 -0.18591723575E+03  0.18591723575E+03  0.00000000000E+00 0.  1.
         25    1    1    2    0    0  0.11791739498E+03 -0.17877219402E+01 -0.40720516004E+02  0.17660936672E+03  0.12500000000E+03 0.  0.
         25    1    1    2    0    0 -0.11791739498E+03  0.17877219402E+01  0.18319973801E+02  0.17282456257E+03  0.12500000000E+03 0.  0.
</event>
<event>
 4    0  0.2190908E-002  0.2303950E+03  0.7546771E-02  0.1126362E+00
         21   -1    0    0  502  501  0.00000000000E+00  0.00000000000E+00  0.58749545985E+03  0.58749545985E+03  0.00000000000E+00 0.  1.
         21   -1    0    0  501  502 -0.00000000000E+00 -0.00000000000E+00 -0.90352802410E+02  0.90352802410E+02  0.00000000000E+00 0.  1.
         25    1    1    2    0    0 -0.68639336803E+02 -0.12591413811E+03  0.57384132503E+02  0.19870497577E+03  0.12500000000E+03 0.  0.
         25    1    1    2    0    0  0.68639336803E+02  0.12591413811E+03  0.43975852494E+03  0.47914328649E+03  0.12500000000E+03 0.  0.
</event>
<event>
 4    0  0.2190908E-002  0.2313126E+03  0.7546771E-02  0.1125719E+00
         21   -1    0    0  502  501  0.00000000000E+00  0.00000000000E+00  0.33831925101E+03  0.33831925101E+03  0.00000000000E+00 0.  1.
         21   -1    0    0  501  502 -0.00000000000E+00 -0.00000000000E+00 -0.15815095255E+03  0.15815095255E+03  0.00000000000E+00 0.  1.
         25    1    1    2    0    0  0.17251915602E+03 -0.90094389922E+02  0.90951698210E+02  0.24854993401E+03  0.12500000000E+03 0.  0.
         25    1    1    2    0    0 -0.17251915602E+03  0.90094389922E+02  0.89216600251E+02  0.24792026954E+03  0.12500000000E+03 0.  0.
</event>
<event>
 4    0  0.2190908E-002  0.2159459E+03  0.7546771E-02  0.1136942E+00
         21   -1    0    0  502  501  0.00000000000E+00  0.00000000000E+00  0.31511913377E+02  0.31511913377E+02  0.00000000000E+00 0. -1.
         21   -1    0    0  501  502 -0.00000000000E+00 -0.00000000000E+00 -0.14798414075E+04  0.14798414075E+04  0.00000000000E+00 0. -1.
         25    1    1    2    0    0  0.98726500689E+02 -0.80858037712E+02 -0.11487692728E+04  0.11625750669E+04  0.12500000000E+03 0.  0.
         25    1    1    2    0    0 -0.98726500689E+02  0.80858037712E+02 -0.29956022131E+03  0.34877825390E+03  0.12500000000E+03 0.  0.
</event>
<event>
 4    0  0.2190908E-002  0.2030236E+03  0.7546771E-02  0.1147213E+00
         21   -1    0    0  502  501  0.00000000000E+00  0.00000000000E+00  0.32903872627E+03  0.32903872627E+03  0.00000000000E+00 0. -1.
         21   -1    0    0  501  502 -0.00000000000E+00 -0.00000000000E+00 -0.12526974629E+03  0.12526974629E+03  0.00000000000E+00 0. -1.
         25    1    1    2    0    0 -0.50863898888E+01  0.11497728324E+03 -0.22444291714E+02  0.17138959494E+03  0.12500000000E+03 0.  0.
         25    1    1    2    0    0  0.50863898888E+01 -0.11497728324E+03  0.22621327170E+03  0.28291887762E+03  0.12500000000E+03 0.  0.
</event>
<event>
 4    0  0.2190908E-002  0.2121290E+03  0.7546771E-02  0.1139891E+00
         21   -1    0    0  502  501  0.00000000000E+00  0.00000000000E+00  0.25163201353E+03  0.25163201353E+03  0.00000000000E+00 0. -1.
         21   -1    0    0  501  502 -0.00000000000E+00 -0.00000000000E+00 -0.17882744468E+03  0.17882744468E+03  0.00000000000E+00 0. -1.
         25    1    1    2    0    0  0.13148907333E+03 -0.93256420332E+01 -0.74731263849E+02  0.19643346406E+03  0.12500000000E+03 0.  0.
         25    1    1    2    0    0 -0.13148907333E+03  0.93256420332E+01  0.14753583270E+03  0.23402599414E+03  0.12500000000E+03 0.  0.
</event>
<event>
 4    0  0.2190908E-002  0.2939474E+03  0.7546771E-02  0.1088306E+00
         21   -1    0    0  502  501  0.00000000000E+00  0.00000000000E+00  0.74430038378E+03  0.74430038378E+03  0.00000000000E+00 0.  1.
         21   -1    0    0  501  502 -0.00000000000E+00 -0.00000000000E+00 -0.11608894311E+03  0.11608894311E+03  0.00000000000E+00 0. -1.
         25    1    1    2    0    0 -0.22307417908E+03  0.14188769185E+03  0.27054723904E+03  0.39839053079E+03  0.12500000000E+03 0.  0.
         25    1    1    2    0    0  0.22307417908E+03 -0.14188769185E+03  0.35766420164E+03  0.46199879611E+03  0.12500000000E+03 0.  0.
</event>
<event>
 4    0  0.2190908E-002  0.1811495E+03  0.7546771E-02  0.1166695E+00
         21   -1    0    0  502  501  0.00000000000E+00  0.00000000000E+00  0.65391498977E+03  0.65391498977E+03  0.00000000000E+00 0. -1.
         21   -1    0    0  501  502 -0.00000000000E+00 -0.00000000000E+00 -0.50182561694E+02  0.50182561694E+02  0.00000000000E+00 0. -1.
         25    1    1    2    0    0 -0.61106908641E+02 -0.78608716630E+02  0.46764705851E+03  0.49419849853E+03  0.12500000000E+03 0.  0.
         25    1    1    2    0    0  0.61106908641E+02  0.78608716630E+02  0.13608536957E+03  0.20989905294E+03  0.12500000000E+03 0.  0.
</event>
<event>
 4    0  0.2190908E-002  0.2248955E+03  0.7546771E-02  0.1130285E+00
         21   -1    0    0  502  501  0.00000000000E+00  0.00000000000E+00  0.83065678643E+02  0.83065678643E+02  0.00000000000E+00 0. -1.
         21   -1    0    0  501  502 -0.00000000000E+00 -0.00000000000E+00 -0.60889133634E+03  0.60889133634E+03  0.00000000000E+00 0. -1.
         25    1    1    2    0    0  0.16812255511E+03  0.75174410274E+02 -0.21338250078E+03  0.30833987277E+03  0.12500000000E+03 0.  0.
         25    1    1    2    0    0 -0.16812255511E+03 -0.75174410274E+02 -0.31244315692E+03  0.38361714222E+03  0.12500000000E+03 0.  0.
</event>
<event>
 4    0  0.2190908E-002  0.2118318E+03  0.7546771E-02  0.1140124E+00
         21   -1    0    0  502  501  0.00000000000E+00  0.00000000000E+00  0.13514575880E+03  0.13514575880E+03  0.00000000000E+00 0. -1.
         21   -1    0    0  501  502 -0.00000000000E+00 -0.00000000000E+00 -0.33203191976E+03  0.33203191976E+03  0.00000000000E+00 0. -1.
         25    1    1    2    0    0 -0.15325318411E+03 -0.61846407126E+02 -0.14696465214E+03  0.25403764582E+03  0.12500000000E+03 0.  0.
         25    1    1    2    0    0  0.15325318411E+03  0.61846407126E+02 -0.49921508823E+02  0.21314003274E+03  0.12500000000E+03 0.  0.
</event>
<event>
 4    0  0.2190908E-002  0.2919623E+03  0.7546771E-02  0.1089329E+00
         21   -1    0    0  502  501  0.00000000000E+00  0.00000000000E+00  0.55894623392E+02  0.55894623392E+02  0.00000000000E+00 0.  1.
         21   -1    0    0  501  502 -0.00000000000E+00 -0.00000000000E+00 -0.15250478379E+04  0.15250478379E+04  0.00000000000E+00 0.  1.
         25    1    1    2    0    0  0.10196966223E+03  0.16259714019E+03 -0.24437738325E+03  0.33493424348E+03  0.12500000000E+03 0.  0.
         25    1    1    2    0    0 -0.10196966223E+03 -0.16259714019E+03 -0.12247758313E+04  0.12460082178E+04  0.12500000000E+03 0.  0.
</event>
<event>
 4    0  0.2190908E-002  0.1810107E+03  0.7546771E-02  0.1166828E+00
         21   -1    0    0  502  501  0.00000000000E+00  0.00000000000E+00  0.15713816091E+03  0.15713816091E+03  0.00000000000E+00 0.  1.
         21   -1    0    0  501  502 -0.00000000000E+00 -0.00000000000E+00 -0.20850996870E+03  0.20850996870E+03  0.00000000000E+00 0.  1.
         25    1    1    2    0    0 -0.46718344008E+02  0.11809394091E+03 -0.57802101640E+02  0.18733623649E+03  0.12500000000E+03 0.  0.
         25    1    1    2    0    0  0.46718344008E+02 -0.11809394091E+03  0.64302938491E+01  0.17831189312E+03  0.12500000000E+03 0.  0.
</event>
<event>
 4    0  0.2190908E-002  0.2248840E+03  0.7546771E-02  0.1130293E+00
         21   -1    0    0  502  501  0.00000000000E+00  0.00000000000E+00  0.13423643663E+03  0.13423643663E+03  0.00000000000E+00 0. -1.
         21   -1    0    0  501  502 -0.00000000000E+00 -0.00000000000E+00 -0.37674429490E+03  0.37674429490E+03  0.00000000000E+00 0. -1.
         25    1    1    2    0    0 -0.26527309684E+02  0.12823251326E+03  0.30322795662E+02  0.18355311916E+03  0.12500000000E+03 0.  0.
         25    1    1    2    0    0  0.26527309684E+02 -0.12823251326E+03 -0.27283065393E+03  0.32742761237E+03  0.12500000000E+03 0.  0.
</event>
<event>
 4    0  0.2190908E-002  0.2553796E+03  0.7546771E-02  0.1109951E+00
         21   -1    0    0  502  501  0.00000000000E+00  0.00000000000E+00  0.10421462544E+04  0.10421462544E+04  0.00000000000E+00 0. -1.
         21   -1    0    0  501  502 -0.00000000000E+00 -0.00000000000E+00 -0.62581197561E+02  0.62581197561E+02  0.00000000000E+00 0. -1.
         25    1    1    2    0    0  0.62770690358E+02  0.20586673853E+03  0.61351333577E+03  0.66207619408E+03  0.12500000000E+03 0.  0.
         25    1    1    2    0    0 -0.62770690358E+02 -0.20586673853E+03  0.36605172106E+03  0.44265125787E+03  0.12500000000E+03 0.  0.
</event>
<event>
 4    0  0.2190908E-002  0.4020598E+03  0.7546771E-02  0.1043069E+00
         21   -1    0    0  502  501  0.00000000000E+00  0.00000000000E+00  0.45222534662E+03  0.45222534662E+03  0.00000000000E+00 0.  1.
         21   -1    0    0  501  502 -0.00000000000E+00 -0.00000000000E+00 -0.35745906313E+03  0.35745906313E+03  0.00000000000E+00 0.  1.
         25    1    1    2    0    0 -0.26655964916E+03  0.12985924495E+03  0.29011067267E+03  0.43325128096E+03  0.12500000000E+03 0.  0.
         25    1    1    2    0    0  0.26655964916E+03 -0.12985924495E+03 -0.19534438918E+03  0.37643312878E+03  0.12500000000E+03 0.  0.
</event>
<event>
 4    0  0.2190908E-002  0.2453878E+03  0.7546771E-02  0.1116255E+00
         21   -1    0    0  502  501  0.00000000000E+00  0.00000000000E+00  0.69824775673E+02  0.69824775673E+02  0.00000000000E+00 0.  1.
         21   -1    0    0  501  502 -0.00000000000E+00 -0.00000000000E+00 -0.86237548908E+03  0.86237548908E+03  0.00000000000E+00 0.  1.
         25    1    1    2    0    0 -0.12011476411E+03  0.94117124825E+02 -0.11903095053E+03  0.23038870833E+03  0.12500000000E+03 0.  0.
         25    1    1    2    0    0  0.12011476411E+03 -0.94117124825E+02 -0.67351976288E+03  0.70181155642E+03  0.12500000000E+03 0.  0.
</event>
<event>
 4    0  0.2190908E-002  0.1858514E+03  0.7546771E-02  0.1162257E+00
         21   -1    0    0  502  501  0.00000000000E+00  0.00000000000E+00  0.11226878690E+03  0.11226878690E+03  0.00000000000E+00 0. -1.
         21   -1    0    0  501  502 -0.00000000000E+00 -0.00000000000E+00 -0.30766122469E+03  0.30766122469E+03  0.00000000000E+00 0. -1.
         25    1    1    2    0    0  0.71842576641E+02  0.96999652073E+02 -0.23223174662E+02  0.17531287506E+03  0.12500000000E+03 0.  0.
         25    1    1    2    0    0 -0.71842576641E+02 -0.96999652073E+02 -0.17216926312E+03  0.24461713653E+03  0.12500000000E+03 0.  0.
</event>
<event>
 4    0  0.2190908E-002  0.2801885E+03  0.7546771E-02  0.1095586E+00
         21   -1    0    0  502  501  0.00000000000E+00  0.00000000000E+00  0.12365920073E+03  0.12365920073E+03  0.00000000000E+00 0. -1.
         21   -1    0    0  501  502 -0.00000000000E+00 -0.00000000000E+00 -0.63485424346E+03  0.63485424346E+03  0.00000000000E+00 0. -1.
         25    1    1    2    0    0  0.20349250113E+03 -0.14625895228E+03 -0.26768074331E+03  0.38740012839E+03  0.12500000000E+03 0.  0.
         25    1    1    2    0    0 -0.20349250113E+03  0.14625895228E+03 -0.24351429943E+03  0.37111331580E+03  0.12500000000E+03 0.  0.
</event>
<event>
 4    0  0.2190908E-002  0.2861088E+03  0.7546771E-02  0.1092398E+00
         21   -1    0    0  502  501  0.00000000000E+00  0.00000000000E+00  0.43549581259E+03  0.43549581259E+03  0.00000000000E+00 0.  1.
         21   -1    0    0  501  502 -0.00000000000E+00 -0.00000000000E+00 -0.18796557116E+03  0.18796557116E+03  0.00000000000E+00 0.  1.
         25    1    1    2    0    0  0.22624127687E+03 -0.11091718688E+03  0.18085480928E+03  0.33439676994E+03  0.12500000000E+03 0.  0.
         25    1    1    2    0    0 -0.22624127687E+03  0.11091718688E+03  0.66675432154E+02  0.28906461381E+03  0.12500000000E+03 0.  0.
</event>
<event>
 4    0  0.2190908E-002  0.2872180E+03  0.7546771E-02  0.1091811E+00
         21   -1    0    0  502  501  0.00000000000E+00  0.00000000000E+00  0.47885570239E+02  0.47885570239E+02  0.00000000000E+00 0.  1.
         21   -1    0    0  501  502 -0.00000000000E+00 -0.00000000000E+00 -0.17227351851E+04  0.17227351851E+04  0.00000000000E+00 0.  1.
         25    1    1    2    0    0  0.65131930110E+02  0.20666309613E+03 -0.12724353403E+04  0.12967916174E+04  0.12500000000E+03 0.  0.
         25    1    1    2    0    0 -0.65131930110E+02 -0.20666309613E+03 -0.40241427454E+03  0.47382913795E+03  0.12500000000E+03 0.  0.
</event>
<event>
 4    0  0.2190908E-002  0.3235678E+03  0.7546771E-02  0.1074019E+00
         21   -1    0    0  502  501  0.00000000000E+00  0.00000000000E+00  0.68458569358E+03  0.68458569358E+03  0.00000000000E+00 0. -1.
         21   -1    0    0  501  502 -0.00000000000E+00 -0.00000000000E+00 -0.15293355380E+03  0.15293355380E+03  0.00000000000E+00 0. -1.
         25    1    1    2    0    0 -0.30542835842E+02  0.12367903627E+03 -0.83466782705E+02  0.19703063886E+03  0.12500000000E+03 0.  0.
         25    1    1    2    0    0  0.30542835842E+02 -0.12367903627E+03  0.61511892249E+03  0.64048860851E+03  0.12500000000E+03 0.  0.
</event>
<event>
 4    0  0.2190908E-002  0.2002934E+03  0.7546771E-02  0.1149492E+00
         21   -1    0    0  502  501  0.00000000000E+00  0.00000000000E+00  0.20711664461E+03  0.20711664461E+03  0.00000000000E+00 0. -1.
         21   -1    0    0  501  502 -0.00000000000E+00 -0.00000000000E+00 -0.19369484358E+03  0.19369484358E+03  0.00000000000E+00 0. -1.
         25    1    1    2    0    0 -0.53356225428E+02 -0.14566538506E+03 -0.13967938659E+02  0.19971328074E+03  0.12500000000E+03 0.  0.
         25    1    1    2    0    0  0.53356225428E+02  0.14566538506E+03  0.27389739686E+02  0.20109820744E+03  0.12500000000E+03 0.  0.
</event>
<event>
 4    0  0.2190908E-002  0.3029338E+03  0.7546771E-02  0.1083783E+00
         21   -1    0    0  502  501  0.00000000000E+00  0.00000000000E+00  0.79338594395E+02  0.79338594395E+02  0.00000000000E+00 0. -1.
         21   -1    0    0  501  502 -0.00000000000E+00 -0.00000000000E+00 -0.11566743034E+04  0.11566743034E+04  0.00000000000E+00 0. -1.
         25    1    1    2    0    0 -0.40392870829E+02 -0.16175605479E+02 -0.10945662590E+04  0.11025395818E+04  0.12500000000E+03 0.  0.
         25    1    1    2    0    0  0.40392870829E+02  0.16175605479E+02  0.17230549952E+02  0.13347331598E+03  0.12500000000E+03 0.  0.
</event>
<event>
 4    0  0.2190908E-002  0.2264666E+03  0.7546771E-02  0.1129152E+00
         21   -1    0    0  502  501  0.00000000000E+00  0.00000000000E+00  0.69122391385E+03  0.69122391385E+03  0.00000000000E+00 0.  1.
         21   -1    0    0  501  502 -0.00000000000E+00 -0.00000000000E+00 -0.74197581003E+02  0.74197581003E+02  0.00000000000E+00 0.  1.
         25    1    1    2    0    0 -0.78092875362E+02 -0.10951242054E+03  0.53251967107E+03  0.56328826324E+03  0.12500000000E+03 0.  0.
         25    1    1    2    0    0  0.78092875362E+02  0.10951242054E+03  0.84506661780E+02  0.20213323161E+03  0.12500000000E+03 0.  0.
</event>
<event>
 4    0  0.2190908E-002  0.3185631E+03  0.7546771E-02  0.1076313E+00
         21   -1    0    0  502  501  0.00000000000E+00  0.00000000000E+00  0.19854427510E+04  0.19854427510E+04  0.00000000000E+00 0. -1.
         21   -1    0    0  501  502 -0.00000000000E+00 -0.00000000000E+00 -0.51113266397E+02  0.51113266397E+02  0.00000000000E+00 0. -1.
         25    1    1    2    0    0 -0.18556782654E+03  0.21776636853E+03  0.11693236919E+04  0.12102894306E+04  0.12500000000E+03 0.  0.
         25    1    1    2    0    0  0.18556782654E+03 -0.21776636853E+03  0.76500579279E+03  0.82626658683E+03  0.12500000000E+03 0.  0.
</event>
<event>
 4    0  0.2190908E-002  0.1710273E+03  0.7546771E-02  0.1176781E+00
         21   -1    0    0  502  501  0.00000000000E+00  0.00000000000E+00  0.29646641370E+03  0.29646641370E+03  0.00000000000E+00 0.  1.
         21   -1    0    0  501  502 -0.00000000000E+00 -0.00000000000E+00 -0.98663211407E+02  0.98663211407E+02  0.00000000000E+00 0.  1.
         25    1    1    2    0    0  0.18921608039E+02  0.63283504765E+02  0.21007690254E+03  0.25321953757E+03  0.12500000000E+03 0.  0.
         25    1    1    2    0    0 -0.18921608039E+02 -0.63283504765E+02 -0.12273700250E+02  0.14191008753E+03  0.12500000000E+03 0.  0.
</event>
<event>
 4    0  0.2190908E-002  0.2405031E+03  0.7546771E-02  0.1119458E+00
         21   -1    0    0  502  501  0.00000000000E+00  0.00000000000E+00  0.13002153613E+04  0.13002153613E+04  0.00000000000E+00 0.  1.
         21   -1    0    0  501  502 -0.00000000000E+00 -0.00000000000E+00 -0.44486277722E+02  0.44486277722E+02  0.00000000000E+00 0.  1.
         25    1    1    2    0    0 -0.14835999546E+03 -0.47282159647E+02  0.10026258477E+04  0.10223159400E+04  0.12500000000E+03 0.  0.
         25    1    1    2    0    0  0.14835999546E+03  0.47282159647E+02  0.25310323593E+03  0.32238569899E+03  0.12500000000E+03 0.  0.
</event>
<event>
 4    0  0.2190908E-002  0.1681255E+03  0.7546771E-02  0.1179817E+00
         21   -1    0    0  502  501  0.00000000000E+00  0.00000000000E+00  0.84911263498E+02  0.84911263498E+02  0.00000000000E+00 0.  1.
         21   -1    0    0  501  502 -0.00000000000E+00 -0.00000000000E+00 -0.33289081236E+03  0.33289081236E+03  0.00000000000E+00 0.  1.
         25    1    1    2    0    0  0.16092661664E+01 -0.10497990644E+03 -0.74012719078E+02  0.17923797890E+03  0.12500000000E+03 0.  0.
         25    1    1    2    0    0 -0.16092661664E+01  0.10497990644E+03 -0.17396682978E+03  0.23856409696E+03  0.12500000000E+03 0.  0.
</event>
<event>
 4    0  0.2190908E-002  0.1811827E+03  0.7546771E-02  0.1166663E+00
         21   -1    0    0  502  501  0.00000000000E+00  0.00000000000E+00  0.16693458945E+04  0.16693458945E+04  0.00000000000E+00 0. -1.
         21   -1    0    0  501  502 -0.00000000000E+00 -0.00000000000E+00 -0.19664698825E+02  0.19664698825E+02  0.00000000000E+00 0. -1.
         25    1    1    2    0    0 -0.86958306019E+02  0.69600844563E+02  0.50204145024E+03  0.52922267744E+03  0.12500000000E+03 0.  0.
         25    1    1    2    0    0  0.86958306019E+02 -0.69600844563E+02  0.11476397454E+04  0.11597879159E+04  0.12500000000E+03 0.  0.
</event>
<event>
 4    0  0.2190908E-002  0.1645469E+03  0.7546771E-02  0.1183657E+00
         21   -1    0    0  502  501  0.00000000000E+00  0.00000000000E+00  0.19102303972E+04  0.19102303972E+04  0.00000000000E+00 0. -1.
         21   -1    0    0  501  502 -0.00000000000E+00 -0.00000000000E+00 -0.14174034938E+02  0.14174034938E+02  0.00000000000E+00 0. -1.
         25    1    1    2    0    0 -0.15973256079E+01 -0.52599199960E+02  0.40318347039E+03  0.42538351881E+03  0.12500000000E+03 0.  0.
         25    1    1    2    0    0  0.15973256079E+01  0.52599199960E+02  0.14928728919E+04  0.14990209133E+04  0.12500000000E+03 0.  0.
</event>
<event>
 4    0  0.2190908E-002  0.2211917E+03  0.7546771E-02  0.1132998E+00
         21   -1    0    0  502  501  0.00000000000E+00  0.00000000000E+00  0.16312977974E+04  0.16312977974E+04  0.00000000000E+00 0.  1.
         21   -1    0    0  501  502 -0.00000000000E+00 -0.00000000000E+00 -0.29991939817E+02  0.29991939817E+02  0.00000000000E+00 0.  1.
         25    1    1    2    0    0 -0.25563610223E+02 -0.16157679520E+03  0.11043515893E+04  0.11233779380E+04  0.12500000000E+03 0.  0.
         25    1    1    2    0    0  0.25563610223E+02  0.16157679520E+03  0.49695426830E+03  0.53791179918E+03  0.12500000000E+03 0.  0.
</event>
<event>
 4    0  0.2190908E-002  0.1878453E+03  0.7546771E-02  0.1160419E+00
         21   -1    0    0  502  501  0.00000000000E+00  0.00000000000E+00  0.29195937619E+02  0.29195937619E+02  0.00000000000E+00 0.  1.
         21   -1    0    0  501  502 -0.00000000000E+00 -0.00000000000E+00 -0.12085872501E+04  0.12085872501E+04  0.00000000000E+00 0.  1.
         25    1    1    2    0    0 -0.74182850961E+02 -0.57846104642E+02 -0.24711821301E+03  0.29247509023E+03  0.12500000000E+03 0.  0.
         25    1    1    2    0    0  0.74182850961E+02  0.57846104642E+02 -0.93227309947E+03  0.94530809750E+03  0.12500000000E+03 0.  0.
</event>
<event>
 4    0  0.2190908E-002  0.1647904E+03  0.7546771E-02  0.1183392E+00
         21   -1    0    0  502  501  0.00000000000E+00  0.00000000000E+00  0.38728827257E+03  0.38728827257E+03  0.00000000000E+00 0. -1.
         21   -1    0    0  501  502 -0.00000000000E+00 -0.00000000000E+00 -0.70118026565E+02  0.70118026565E+02  0.00000000000E+00 0. -1.
         25    1    1    2    0    0  0.10302253461E+03 -0.21577892035E+02  0.12909089964E+03  0.20825155085E+03  0.12500000000E+03 0.  0.
         25    1    1    2    0    0 -0.10302253461E+03  0.21577892035E+02  0.18807934637E+03  0.24915474828E+03  0.12500000000E+03 0.  0.
</event>
<event>
 4    0  0.2190908E-002  0.1737830E+03  0.7546771E-02  0.1173959E+00
         21   -1    0    0  502  501  0.00000000000E+00  0.00000000000E+00  0.35847911052E+03  0.35847911052E+03  0.00000000000E+00 0. -1.
         21   -1    0    0  501  502 -0.00000000000E+00 -0.00000000000E+00 -0.84246269478E+02  0.84246269478E+02  0.00000000000E+00 0. -1.
         25    1    1    2    0    0  0.15466529796E+02 -0.23758029323E+02 -0.12367203696E+02  0.12876958192E+03  0.12500000000E+03 0.  0.
         25    1    1    2    0    0 -0.15466529796E+02  0.23758029323E+02  0.28660004474E+03  0.31395579808E+03  0.12500000000E+03 0.  0.
</event>
<event>
 4    0  0.2190908E-002  0.1745377E+03  0.7546771E-02  0.1173197E+00
         21   -1    0    0  502  501  0.00000000000E+00  0.00000000000E+00  0.35803336510E+03  0.35803336510E+03  0.00000000000E+00 0. -1.
         21   -1    0    0  501  502 -0.00000000000E+00 -0.00000000000E+00 -0.85085398924E+02  0.85085398924E+02  0.00000000000E+00 0. -1.
         25    1    1    2    0    0  0.21974707646E+02 -0.11873203413E+03  0.11607528100E+03  0.20899438883E+03  0.12500000000E+03 0.  0.
         25    1    1    2    0    0 -0.21974707646E+02  0.11873203413E+03  0.15687268517E+03  0.23412437519E+03  0.12500000000E+03 0.  0.
</event>
<event>
 4    0  0.2190908E-002  0.1957017E+03  0.7546771E-02  0.1153417E+00
         21   -1    0    0  502  501  0.00000000000E+00  0.00000000000E+00  0.11894759021E+04  0.11894759021E+04  0.00000000000E+00 0.  1.
         21   -1    0    0  501  502 -0.00000000000E+00 -0.00000000000E+00 -0.32198335597E+02  0.32198335597E+02  0.00000000000E+00 0.  1.
         25    1    1    2    0    0 -0.87748306545E+02  0.12008783365E+03  0.50521990226E+03  0.54128828062E+03  0.12500000000E+03 0.  0.
         25    1    1    2    0    0  0.87748306545E+02 -0.12008783365E+03  0.65205766420E+03  0.68038595704E+03  0.12500000000E+03 0.  0.
</event>
<event>
 4    0  0.2190908E-002  0.2082060E+03  0.7546771E-02  0.1142995E+00
         21   -1    0    0  502  501  0.00000000000E+00  0.00000000000E+00  0.19574560024E+03  0.19574560024E+03  0.00000000000E+00 0.  1.
         21   -1    0    0  501  502 -0.00000000000E+00 -0.00000000000E+00 -0.22145948560E+03  0.22145948560E+03  0.00000000000E+00 0.  1.
         25    1    1    2    0    0  0.54298705435E+02 -0.88568382118E+01  0.14459814609E+03  0.19889800614E+03  0.12500000000E+03 0.  0.
         25    1    1    2    0    0 -0.54298705435E+02  0.88568382118E+01 -0.17031203144E+03  0.21830707971E+03  0.12500000000E+03 0.  0.
</event>
<event>
 4    0  0.2190908E-002  0.4269558E+03  0.7546771E-02  0.1034826E+00
         21   -1    0    0  502  501  0.00000000000E+00  0.00000000000E+00  0.21230204427E+03  0.21230204427E+03  0.00000000000E+00 0.  1.
         21   -1    0    0  501  502 -0.00000000000E+00 -0.00000000000E+00 -0.85864096518E+03  0.85864096518E+03  0.00000000000E+00 0. -1.
         25    1    1    2    0    0 -0.93057082031E+01 -0.34518082763E+03 -0.50033256916E+02  0.37062747708E+03  0.12500000000E+03 0.  0.
         25    1    1    2    0    0  0.93057082031E+01  0.34518082763E+03 -0.59630566399E+03  0.70031553237E+03  0.12500000000E+03 0.  0.
</event>
<event>
 4    0  0.2190908E-002  0.1881575E+03  0.7546771E-02  0.1160134E+00
         21   -1    0    0  502  501  0.00000000000E+00  0.00000000000E+00  0.48502508002E+02  0.48502508002E+02  0.00000000000E+00 0.  1.
         21   -1    0    0  501  502 -0.00000000000E+00 -0.00000000000E+00 -0.72992617625E+03  0.72992617625E+03  0.00000000000E+00 0.  1.
         25    1    1    2    0    0  0.12244322715E+03  0.22595520455E+02 -0.47596674520E+03  0.50761426689E+03  0.12500000000E+03 0.  0.
         25    1    1    2    0    0 -0.12244322715E+03 -0.22595520455E+02 -0.20545692304E+03  0.27081441735E+03  0.12500000000E+03 0.  0.
</event>
<event>
 4    0  0.2190908E-002  0.2079207E+03  0.7546771E-02  0.1143223E+00
         21   -1    0    0  502  501  0.00000000000E+00  0.00000000000E+00  0.31475447369E+03  0.31475447369E+03  0.00000000000E+00 0.  1.
         21   -1    0    0  501  502 -0.00000000000E+00 -0.00000000000E+00 -0.13734836794E+03  0.13734836794E+03  0.00000000000E+00 0.  1.
         25    1    1    2    0    0 -0.11806109738E+03 -0.17603348942E+02  0.21435683988E+03  0.27535823106E+03  0.12500000000E+03 0.  0.
         25    1    1    2    0    0  0.11806109738E+03  0.17603348942E+02 -0.36950734134E+02  0.17674461056E+03  0.12500000000E+03 0.  0.
</event>
<event>
 4    0  0.2190908E-002  0.1907264E+03  0.7546771E-02  0.1157808E+00
         21   -1    0    0  502  501  0.00000000000E+00  0.00000000000E+00  0.63131167203E+03  0.63131167203E+03  0.00000000000E+00 0.  1.
         21   -1    0    0  501  502 -0.00000000000E+00 -0.00000000000E+00 -0.57620599704E+02  0.57620599704E+02  0.00000000000E+00 0.  1.
         25    1    1    2    0    0  0.18556116177E+02 -0.57193367249E+02  0.52326994904E+03  0.54134263667E+03  0.12500000000E+03 0.  0.
         25    1    1    2    0    0 -0.18556116177E+02  0.57193367249E+02  0.50421123279E+02  0.14758963506E+03  0.12500000000E+03 0.  0.
</event>
<event>
 4    0  0.2190908E-002  0.2775723E+03  0.7546771E-02  0.1097022E+00
         21   -1    0    0  502  501  0.00000000000E+00  0.00000000000E+00  0.23311790448E+03  0.23311790448E+03  0.00000000000E+00 0. -1.
         21   -1    0    0  501  502 -0.00000000000E+00 -0.00000000000E+00 -0.33050384511E+03  0.33050384511E+03  0.00000000000E+00 0. -1.
         25    1    1    2    0    0  0.54445226515E+02 -0.20632425054E+03 -0.17666288518E+03  0.30392228292E+03  0.12500000000E+03 0.  0.
         25    1    1    2    0    0 -0.54445226515E+02  0.20632425054E+03  0.79276944562E+02  0.25969946667E+03  0.12500000000E+03 0.  0.
</event>
<event>
 4    0  0.2190908E-002  0.2244749E+03  0.7546771E-02  0.1130590E+00
         21   -1    0    0  502  501  0.00000000000E+00  0.00000000000E+00  0.18396397233E+03  0.18396397233E+03  0.00000000000E+00 0. -1.
         21   -1    0    0  501  502 -0.00000000000E+00 -0.00000000000E+00 -0.27390681903E+03  0.27390681903E+03  0.00000000000E+00 0. -1.
         25    1    1    2    0    0 -0.49871328598E+01  0.83685532731E+02 -0.21482153858E+03  0.26230027320E+03  0.12500000000E+03 0.  0.
         25    1    1    2    0    0  0.49871328598E+01 -0.83685532731E+02  0.12487869189E+03  0.19557051815E+03  0.12500000000E+03 0.  0.
</event>
<event>
 4    0  0.2190908E-002  0.4141277E+03  0.7546771E-02  0.1038995E+00
         21   -1    0    0  502  501  0.00000000000E+00  0.00000000000E+00  0.95648868722E+03  0.95648868722E+03  0.00000000000E+00 0.  1.
         21   -1    0    0  501  502 -0.00000000000E+00 -0.00000000000E+00 -0.17930344252E+03  0.17930344252E+03  0.00000000000E+00 0. -1.
         25    1    1    2    0    0  0.10363925143E+03  0.37125647676E+03  0.27139403070E+03  0.48770091847E+03  0.12500000000E+03 0.  0.
         25    1    1    2    0    0 -0.10363925143E+03 -0.37125647676E+03  0.50579121400E+03  0.64809121128E+03  0.12500000000E+03 0.  0.
</event>
<event>
 4    0  0.2190908E-002  0.3923510E+03  0.7546771E-02  0.1046461E+00
         21   -1    0    0  502  501  0.00000000000E+00  0.00000000000E+00  0.46675128088E+03  0.46675128088E+03  0.00000000000E+00 0. -1.
         21   -1    0    0  501  502 -0.00000000000E+00 -0.00000000000E+00 -0.32981014659E+03  0.32981014659E+03  0.00000000000E+00 0.  1.
         25    1    1    2    0    0 -0.29577404713E+03 -0.19232317297E+03  0.18790855009E+03  0.41881393603E+03  0.12500000000E+03 0.  0.
         25    1    1    2    0    0  0.29577404713E+03  0.19232317297E+03 -0.50967415794E+02  0.37774749144E+03  0.12500000000E+03 0.  0.
</event>
<event>
 4    0  0.2190908E-002  0.2217284E+03  0.7546771E-02  0.1132601E+00
         21   -1    0    0  502  501  0.00000000000E+00  0.00000000000E+00  0.54341092824E+03  0.54341092824E+03  0.00000000000E+00 0. -1.
         21   -1    0    0  501  502 -0.00000000000E+00 -0.00000000000E+00 -0.90471995869E+02  0.90471995869E+02  0.00000000000E+00 0. -1.
         25    1    1    2    0    0 -0.16733823183E+03 -0.34427537107E+02  0.32075800861E+03  0.38431502603E+03  0.12500000000E+03 0.  0.
         25    1    1    2    0    0  0.16733823183E+03  0.34427537107E+02  0.13218092376E+03  0.24956789808E+03  0.12500000000E+03 0.  0.
</event>
<event>
 4    0  0.2190908E-002  0.1810169E+03  0.7546771E-02  0.1166823E+00
         21   -1    0    0  502  501  0.00000000000E+00  0.00000000000E+00  0.32299695465E+02  0.32299695465E+02  0.00000000000E+00 0. -1.
         21   -1    0    0  501  502 -0.00000000000E+00 -0.00000000000E+00 -0.10144711520E+04  0.10144711520E+04  0.00000000000E+00 0. -1.
         25    1    1    2    0    0  0.82940390736E+02 -0.99588614716E+02 -0.54479886240E+03  0.57378375811E+03  0.12500000000E+03 0.  0.
         25    1    1    2    0    0 -0.82940390736E+02  0.99588614716E+02 -0.43737259411E+03  0.47298708933E+03  0.12500000000E+03 0.  0.
</event>
<event>
 4    0  0.2190908E-002  0.1451527E+03  0.7546771E-02  0.1206559E+00
         21   -1    0    0  502  501  0.00000000000E+00  0.00000000000E+00  0.58467291415E+02  0.58467291415E+02  0.00000000000E+00 0. -1.
         21   -1    0    0  501  502 -0.00000000000E+00 -0.00000000000E+00 -0.36036038182E+03  0.36036038182E+03  0.00000000000E+00 0. -1.
         25    1    1    2    0    0 -0.72500884986E+02 -0.87382243119E-01 -0.13116980383E+03  0.19515866211E+03  0.12500000000E+03 0.  0.
         25    1    1    2    0    0  0.72500884986E+02  0.87382243119E-01 -0.17072328657E+03  0.22366901112E+03  0.12500000000E+03 0.  0.
</event>
<event>
 4    0  0.2190908E-002  0.2235167E+03  0.7546771E-02  0.1131288E+00
         21   -1    0    0  502  501  0.00000000000E+00  0.00000000000E+00  0.24119246402E+03  0.24119246402E+03  0.00000000000E+00 0. -1.
         21   -1    0    0  501  502 -0.00000000000E+00 -0.00000000000E+00 -0.20713624435E+03  0.20713624435E+03  0.00000000000E+00 0. -1.
         25    1    1    2    0    0  0.22867715752E+02  0.11928464996E+03  0.15737267389E+03  0.23482529384E+03  0.12500000000E+03 0.  0.
         25    1    1    2    0    0 -0.22867715752E+02 -0.11928464996E+03 -0.12331645421E+03  0.21350341454E+03  0.12500000000E+03 0.  0.
</event>
<event>
 4    0  0.2190908E-002  0.1474962E+03  0.7546771E-02  0.1203584E+00
         21   -1    0    0  502  501  0.00000000000E+00  0.00000000000E+00  0.19846123074E+02  0.19846123074E+02  0.00000000000E+00 0. -1.
         21   -1    0    0  501  502 -0.00000000000E+00 -0.00000000000E+00 -0.10961910338E+04  0.10961910338E+04  0.00000000000E+00 0. -1.
         25    1    1    2    0    0 -0.34409084679E+02 -0.69867033276E+02 -0.56861657493E+03  0.58737994240E+03  0.12500000000E+03 0.  0.
         25    1    1    2    0    0  0.34409084679E+02  0.69867033276E+02 -0.50772833580E+03  0.52865721448E+03  0.12500000000E+03 0.  0.
</event>
<event>
 4    0  0.2190908E-002  0.3020076E+03  0.7546771E-02  0.1084241E+00
         21   -1    0    0  502  501  0.00000000000E+00  0.00000000000E+00  0.18251171043E+04  0.18251171043E+04  0.00000000000E+00 0.  1.
         21   -1    0    0  501  502 -0.00000000000E+00 -0.00000000000E+00 -0.49974109769E+02  0.49974109769E+02  0.00000000000E+00 0.  1.
         25    1    1    2    0    0  0.46398075798E+02 -0.35534852504E+02  0.17215351525E+04  0.17270563941E+04  0.12500000000E+03 0.  0.
         25    1    1    2    0    0 -0.46398075798E+02  0.35534852504E+02  0.53607841981E+02  0.14803481990E+03  0.12500000000E+03 0.  0.
</event>
<event>
 4    0  0.2190908E-002  0.1863393E+03  0.7546771E-02  0.1161805E+00
         21   -1    0    0  502  501  0.00000000000E+00  0.00000000000E+00  0.24638066672E+02  0.24638066672E+02  0.00000000000E+00 0. -1.
         21   -1    0    0  501  502 -0.00000000000E+00 -0.00000000000E+00 -0.14092961841E+04  0.14092961841E+04  0.00000000000E+00 0. -1.
         25    1    1    2    0    0 -0.12812986109E+03  0.19081057412E+01 -0.89138393979E+03  0.90918162668E+03  0.12500000000E+03 0.  0.
         25    1    1    2    0    0  0.12812986109E+03 -0.19081057412E+01 -0.49327417764E+03  0.52475262409E+03  0.12500000000E+03 0.  0.
</event>
<event>
 4    0  0.2190908E-002  0.1706919E+03  0.7546771E-02  0.1177128E+00
         21   -1    0    0  502  501  0.00000000000E+00  0.00000000000E+00  0.48933279657E+02  0.48933279657E+02  0.00000000000E+00 0. -1.
         21   -1    0    0  501  502 -0.00000000000E+00 -0.00000000000E+00 -0.59541725452E+03  0.59541725452E+03  0.00000000000E+00 0. -1.
         25    1    1    2    0    0  0.32757426890E+02 -0.99564571332E+02 -0.36807787305E+03  0.40260709570E+03  0.12500000000E+03 0.  0.
         25    1    1    2    0    0 -0.32757426890E+02  0.99564571332E+02 -0.17840610181E+03  0.24174343847E+03  0.12500000000E+03 0.  0.
</event>
<event>
 4    0  0.2190908E-002  0.2198529E+03  0.7546771E-02  0.1133993E+00
         21   -1    0    0  502  501  0.00000000000E+00  0.00000000000E+00  0.70620809408E+02  0.70620809408E+02  0.00000000000E+00 0.  1.
         21   -1    0    0  501  502 -0.00000000000E+00 -0.00000000000E+00 -0.68443438758E+03  0.68443438758E+03  0.00000000000E+00 0.  1.
         25    1    1    2    0    0  0.91042356625E+02 -0.10545208631E+03 -0.10886079579E+03  0.21652834933E+03  0.12500000000E+03 0.  0.
         25    1    1    2    0    0 -0.91042356625E+02  0.10545208631E+03 -0.50495278239E+03  0.53852684765E+03  0.12500000000E+03 0.  0.
</event>
<event>
 4    0  0.2190908E-002  0.2697345E+03  0.7546771E-02  0.1101432E+00
         21   -1    0    0  502  501  0.00000000000E+00  0.00000000000E+00  0.50984109937E+03  0.50984109937E+03  0.00000000000E+00 0. -1.
         21   -1    0    0  501  502 -0.00000000000E+00 -0.00000000000E+00 -0.14270465860E+03  0.14270465860E+03  0.00000000000E+00 0. -1.
         25    1    1    2    0    0 -0.21407883962E+02  0.14995311252E+03 -0.40086432816E+02  0.20043990507E+03  0.12500000000E+03 0.  0.
         25    1    1    2    0    0  0.21407883962E+02 -0.14995311252E+03  0.40722287359E+03  0.45210585289E+03  0.12500000000E+03 0.  0.
</event>
<event>
 4    0  0.2190908E-002  0.2148164E+03  0.7546771E-02  0.1137808E+00
         21   -1    0    0  502  501  0.00000000000E+00  0.00000000000E+00  0.84288981867E+03  0.84288981867E+03  0.00000000000E+00 0. -1.
         21   -1    0    0  501  502 -0.00000000000E+00 -0.00000000000E+00 -0.54747495360E+02  0.54747495360E+02  0.00000000000E+00 0.  1.
         25    1    1    2    0    0 -0.79224939249E+02  0.12201203631E+03  0.59617990798E+03  0.62627391027E+03  0.12500000000E+03 0.  0.
         25    1    1    2    0    0  0.79224939249E+02 -0.12201203631E+03  0.19196241533E+03  0.27136340377E+03  0.12500000000E+03 0.  0.
</event>
<event>
 4    0  0.2190908E-002  0.2261468E+03  0.7546771E-02  0.1129382E+00
         21   -1    0    0  502  501  0.00000000000E+00  0.00000000000E+00  0.39294643308E+02  0.39294643308E+02  0.00000000000E+00 0.  1.
         21   -1    0    0  501  502 -0.00000000000E+00 -0.00000000000E+00 -0.13015101539E+04  0.13015101539E+04  0.00000000000E+00 0.  1.
         25    1    1    2    0    0 -0.12507356560E+03 -0.11561615161E+02 -0.21460096846E+03  0.27830853997E+03  0.12500000000E+03 0.  0.
         25    1    1    2    0    0  0.12507356560E+03  0.11561615161E+02 -0.10476145421E+04  0.10624962572E+04  0.12500000000E+03 0.  0.
</event>
<event>
 4    0  0.2190908E-002  0.2679144E+03  0.7546771E-02  0.1102479E+00
         21   -1    0    0  502  501  0.00000000000E+00  0.00000000000E+00  0.91137957645E+02  0.91137957645E+02  0.00000000000E+00 0.  1.
         21   -1    0    0  501  502 -0.00000000000E+00 -0.00000000000E+00 -0.78757670842E+03  0.78757670842E+03  0.00000000000E+00 0.  1.
         25    1    1    2    0    0 -0.13136687169E+03  0.72726723433E+02 -0.47587694519E+02  0.20108709543E+03  0.12500000000E+03 0.  0.
         25    1    1    2    0    0  0.13136687169E+03 -0.72726723433E+02 -0.64885105626E+03  0.67762757064E+03  0.12500000000E+03 0.  0.
</event>
<event>
 4    0  0.2190908E-002  0.3644567E+03  0.7546771E-02  0.1056833E+00
         21   -1    0    0  502  501  0.00000000000E+00  0.00000000000E+00  0.15672965729E+03  0.15672965729E+03  0.00000000000E+00 0.  1.
         21   -1    0    0  501  502 -0.00000000000E+00 -0.00000000000E+00 -0.84750202924E+03  0.84750202924E+03  0.00000000000E+00 0.  1.
         25    1    1    2    0    0  0.11950214230E+03  0.31416570143E+03 -0.43491460634E+03  0.56369900193E+03  0.12500000000E+03 0.  0.
         25    1    1    2    0    0 -0.11950214230E+03 -0.31416570143E+03 -0.25585776562E+03  0.44053268459E+03  0.12500000000E+03 0.  0.
</event>
<event>
 4    0  0.2190908E-002  0.2109992E+03  0.7546771E-02  0.1140777E+00
         21   -1    0    0  502  501  0.00000000000E+00  0.00000000000E+00  0.27522368383E+03  0.27522368383E+03  0.00000000000E+00 0. -1.
         21   -1    0    0  501  502 -0.00000000000E+00 -0.00000000000E+00 -0.16176181195E+03  0.16176181195E+03  0.00000000000E+00 0. -1.
         25    1    1    2    0    0  0.63475914271E+02  0.10079011928E+03  0.18231386280E+03  0.25109994904E+03  0.12500000000E+03 0.  0.
         25    1    1    2    0    0 -0.63475914271E+02 -0.10079011928E+03 -0.68851990919E+02  0.18588554675E+03  0.12500000000E+03 0.  0.
</event>
<event>
 4    0  0.2190908E-002  0.1743711E+03  0.7546771E-02  0.1173365E+00
         21   -1    0    0  502  501  0.00000000000E+00  0.00000000000E+00  0.13780709394E+03  0.13780709394E+03  0.00000000000E+00 0.  1.
         21   -1    0    0  501  502 -0.00000000000E+00 -0.00000000000E+00 -0.22063654426E+03  0.22063654426E+03  0.00000000000E+00 0.  1.
         25    1    1    2    0    0 -0.96330266144E+02 -0.63746226678E+02 -0.80379472181E+02  0.18822582485E+03  0.12500000000E+03 0.  0.
         25    1    1    2    0    0  0.96330266144E+02  0.63746226678E+02 -0.24499781366E+01  0.17021781336E+03  0.12500000000E+03 0.  0.
</event>
<event>
 4    0  0.2190908E-002  0.2399437E+03  0.7546771E-02  0.1119830E+00
         21   -1    0    0  502  501  0.00000000000E+00  0.00000000000E+00  0.37467563499E+04  0.37467563499E+04  0.00000000000E+00 0. -1.
         21   -1    0    0  501  502 -0.00000000000E+00 -0.00000000000E+00 -0.15366082705E+02  0.15366082705E+02  0.00000000000E+00 0. -1.
         25    1    1    2    0    0  0.43011550393E+02 -0.36212902469E+02  0.32174070789E+03  0.34971910284E+03  0.12500000000E+03 0.  0.
         25    1    1    2    0    0 -0.43011550393E+02  0.36212902469E+02  0.34096495593E+04  0.34124033298E+04  0.12500000000E+03 0.  0.
</event>
<event>
 4    0  0.2190908E-002  0.1980249E+03  0.7546771E-02  0.1151416E+00
         21   -1    0    0  502  501  0.00000000000E+00  0.00000000000E+00  0.36708105558E+03  0.36708105558E+03  0.00000000000E+00 0.  1.
         21   -1    0    0  501  502 -0.00000000000E+00 -0.00000000000E+00 -0.10682617801E+03  0.10682617801E+03  0.00000000000E+00 0.  1.
         25    1    1    2    0    0  0.83352085058E+02 -0.12871777920E+03  0.11990175302E+03  0.23133799329E+03  0.12500000000E+03 0.  0.
         25    1    1    2    0    0 -0.83352085058E+02  0.12871777920E+03  0.14035312455E+03  0.24256924030E+03  0.12500000000E+03 0.  0.
</event>
<event>
 4    0  0.2190908E-002  0.1793827E+03  0.7546771E-02  0.1168402E+00
         21   -1    0    0  502  501  0.00000000000E+00  0.00000000000E+00  0.10604761912E+04  0.10604761912E+04  0.00000000000E+00 0. -1.
         21   -1    0    0  501  502 -0.00000000000E+00 -0.00000000000E+00 -0.30343105645E+02  0.30343105645E+02  0.00000000000E+00 0. -1.
         25    1    1    2    0    0  0.10021535368E+03 -0.50056622583E+02  0.32266488140E+03  0.36371198532E+03  0.12500000000E+03 0.  0.
         25    1    1    2    0    0 -0.10021535368E+03  0.50056622583E+02  0.70746820419E+03  0.72710731155E+03  0.12500000000E+03 0.  0.
</event>
<event>
 4    0  0.2190908E-002  0.4739393E+03  0.7546771E-02  0.1020814E+00
         21   -1    0    0  502  501  0.00000000000E+00  0.00000000000E+00  0.34789944689E+03  0.34789944689E+03  0.00000000000E+00 0. -1.
         21   -1    0    0  501  502 -0.00000000000E+00 -0.00000000000E+00 -0.64564182002E+03  0.64564182002E+03  0.00000000000E+00 0. -1.
         25    1    1    2    0    0 -0.18070529998E+03  0.41915770886E+03 -0.17550885884E+03  0.50475335548E+03  0.12500000000E+03 0.  0.
         25    1    1    2    0    0  0.18070529998E+03 -0.41915770886E+03 -0.12223351429E+03  0.48878791143E+03  0.12500000000E+03 0.  0.
</event>
<event>
 4    0  0.2190908E-002  0.2243225E+03  0.7546771E-02  0.1130701E+00
         21   -1    0    0  502  501  0.00000000000E+00  0.00000000000E+00  0.52323625979E+02  0.52323625979E+02  0.00000000000E+00 0. -1.
         21   -1    0    0  501  502 -0.00000000000E+00 -0.00000000000E+00 -0.96171780356E+03  0.96171780356E+03  0.00000000000E+00 0. -1.
         25    1    1    2    0    0 -0.14148235217E+03  0.11855498224E+03 -0.51111343433E+03  0.55761499490E+03  0.12500000000E+03 0.  0.
         25    1    1    2    0    0  0.14148235217E+03 -0.11855498224E+03 -0.39828074325E+03  0.45642643463E+03  0.12500000000E+03 0.  0.
</event>
<event>
 4    0  0.2190908E-002  0.2661020E+03  0.7546771E-02  0.1103531E+00
         21   -1    0    0  502  501  0.00000000000E+00  0.00000000000E+00  0.21664722325E+03  0.21664722325E+03  0.00000000000E+00 0. -1.
         21   -1    0    0  501  502 -0.00000000000E+00 -0.00000000000E+00 -0.32684605276E+03  0.32684605276E+03  0.00000000000E+00 0. -1.
         25    1    1    2    0    0 -0.14598610982E+03  0.10751904682E+03  0.97444531573E+02  0.24081679016E+03  0.12500000000E+03 0.  0.
         25    1    1    2    0    0  0.14598610982E+03 -0.10751904682E+03 -0.20764336108E+03  0.30267648586E+03  0.12500000000E+03 0.  0.
</event>
<event>
 4    0  0.2190908E-002  0.1969518E+03  0.7546771E-02  0.1152337E+00
         21   -1    0    0  502  501  0.00000000000E+00  0.00000000000E+00  0.47436545361E+02  0.47436545361E+02  0.00000000000E+00 0.  1.
         21   -1    0    0  501  502 -0.00000000000E+00 -0.00000000000E+00 -0.81772457909E+03  0.81772457909E+03  0.00000000000E+00 0.  1.
         25    1    1    2    0    0  0.16760858482E+02  0.47432906505E+02 -0.70064520455E+03  0.71348406405E+03  0.12500000000E+03 0.  0.
         25    1    1    2    0    0 -0.16760858482E+02 -0.47432906505E+02 -0.69642829188E+02  0.15167706041E+03  0.12500000000E+03 0.  0.
</event>
<event>
 4    0  0.2190908E-002  0.2735520E+03  0.7546771E-02  0.1099264E+00
         21   -1    0    0  502  501  0.00000000000E+00  0.00000000000E+00  0.25882225629E+03  0.25882225629E+03  0.00000000000E+00 0.  1.
         21   -1    0    0  501  502 -0.00000000000E+00 -0.00000000000E+00 -0.28911993086E+03  0.28911993086E+03  0.00000000000E+00 0.  1.
         25    1    1    2    0    0 -0.80340252268E+02  0.19073542822E+02 -0.24438228966E+03  0.28664622738E+03  0.12500000000E+03 0.  0.
         25    1    1    2    0    0  0.80340252268E+02 -0.19073542822E+02  0.21408461510E+03  0.26129595977E+03  0.12500000000E+03 0.  0.
</event>
<event>
 4    0  0.2190908E-002  0.2564864E+03  0.7546771E-02  0.1109273E+00
         21   -1    0    0  502  501  0.00000000000E+00  0.00000000000E+00  0.13669459060E+03  0.13669459060E+03  0.00000000000E+00 0. -1.
         21   -1    0    0  501  502 -0.00000000000E+00 -0.00000000000E+00 -0.48125729487E+03  0.48125729487E+03  0.00000000000E+00 0. -1.
         25    1    1    2    0    0 -0.79550651963E+02 -0.87801620271E+02  0.56674248467E+02  0.18131299233E+03  0.12500000000E+03 0.  0.
         25    1    1    2    0    0  0.79550651963E+02  0.87801620271E+02 -0.40123695274E+03  0.43663889313E+03  0.12500000000E+03 0.  0.
</event>
<event>
 4    0  0.2190908E-002  0.1861761E+03  0.7546771E-02  0.1161956E+00
         21   -1    0    0  502  501  0.00000000000E+00  0.00000000000E+00  0.78897825089E+02  0.78897825089E+02  0.00000000000E+00 0. -1.
         21   -1    0    0  501  502 -0.00000000000E+00 -0.00000000000E+00 -0.43932184405E+03  0.43932184405E+03  0.00000000000E+00 0. -1.
         25    1    1    2    0    0  0.60238474721E+02 -0.85216684734E+02 -0.54599852341E+02  0.17174603655E+03  0.12500000000E+03 0.  0.
         25    1    1    2    0    0 -0.60238474721E+02  0.85216684734E+02 -0.30582416662E+03  0.34647363260E+03  0.12500000000E+03 0.  0.
</event>
<event>
 4    0  0.2190908E-002  0.2190164E+03  0.7546771E-02  0.1134618E+00
         21   -1    0    0  502  501  0.00000000000E+00  0.00000000000E+00  0.70562772207E+03  0.70562772207E+03  0.00000000000E+00 0.  1.
         21   -1    0    0  501  502 -0.00000000000E+00 -0.00000000000E+00 -0.67979467727E+02  0.67979467727E+02  0.00000000000E+00 0.  1.
         25    1    1    2    0    0 -0.16425212841E+03 -0.73208050940E+02  0.31486849015E+03  0.38354314815E+03  0.12500000000E+03 0.  0.
         25    1    1    2    0    0  0.16425212841E+03  0.73208050940E+02  0.32277976420E+03  0.39006404165E+03  0.12500000000E+03 0.  0.
</event>
<event>
 4    0  0.2190908E-002  0.1915613E+03  0.7546771E-02  0.1157061E+00
         21   -1    0    0  502  501  0.00000000000E+00  0.00000000000E+00  0.38651522892E+03  0.38651522892E+03  0.00000000000E+00 0.  1.
         21   -1    0    0  501  502 -0.00000000000E+00 -0.00000000000E+00 -0.94939978970E+02  0.94939978970E+02  0.00000000000E+00 0.  1.
         25    1    1    2    0    0  0.91422762396E+02 -0.58249498657E+02  0.26710337134E+03  0.31419792578E+03  0.12500000000E+03 0.  0.
         25    1    1    2    0    0 -0.91422762396E+02  0.58249498657E+02  0.24471878606E+02  0.16725728211E+03  0.12500000000E+03 0.  0.
</event>
<event>
 4    0  0.2190908E-002  0.1441439E+03  0.7546771E-02  0.1207859E+00
         21   -1    0    0  502  501  0.00000000000E+00  0.00000000000E+00  0.35022436370E+02  0.35022436370E+02  0.00000000000E+00 0.  1.
         21   -1    0    0  501  502 -0.00000000000E+00 -0.00000000000E+00 -0.59326190252E+03  0.59326190252E+03  0.00000000000E+00 0.  1.
         25    1    1    2    0    0  0.42170157112E+02 -0.57994222747E+02 -0.27194925729E+03  0.30777110092E+03  0.12500000000E+03 0.  0.
         25    1    1    2    0    0 -0.42170157112E+02  0.57994222747E+02 -0.28629020887E+03  0.32051323797E+03  0.12500000000E+03 0.  0.
</event>
<event>
 4    0  0.2190908E-002  0.2338817E+03  0.7546771E-02  0.1123937E+00
         21   -1    0    0  502  501  0.00000000000E+00  0.00000000000E+00  0.10419524281E+03  0.10419524281E+03  0.00000000000E+00 0.  1.
         21   -1    0    0  501  502 -0.00000000000E+00 -0.00000000000E+00 -0.52498236843E+03  0.52498236843E+03  0.00000000000E+00 0.  1.
         25    1    1    2    0    0 -0.15873512437E+03  0.36293693633E+02 -0.36114773032E+03  0.41541154897E+03  0.12500000000E+03 0.  0.
         25    1    1    2    0    0  0.15873512437E+03 -0.36293693633E+02 -0.59639395291E+02  0.21376606227E+03  0.12500000000E+03 0.  0.
</event>
<event>
 4    0  0.2190908E-002  0.2419907E+03  0.7546771E-02  0.1118474E+00
         21   -1    0    0  502  501  0.00000000000E+00  0.00000000000E+00  0.24973142890E+03  0.24973142890E+03  0.00000000000E+00 0. -1.
         21   -1    0    0  501  502 -0.00000000000E+00 -0.00000000000E+00 -0.23448984011E+03  0.23448984011E+03  0.00000000000E+00 0. -1.
         25    1    1    2    0    0  0.46073682561E+02 -0.14010524174E+03  0.15323407458E+03  0.24669403032E+03  0.12500000000E+03 0.  0.
         25    1    1    2    0    0 -0.46073682561E+02  0.14010524174E+03 -0.13799248578E+03  0.23752723869E+03  0.12500000000E+03 0.  0.
</event>
<event>
 4    0  0.2190908E-002  0.2942267E+03  0.7546771E-02  0.1088163E+00
         21   -1    0    0  502  501  0.00000000000E+00  0.00000000000E+00  0.27219468095E+03  0.27219468095E+03  0.00000000000E+00 0. -1.
         21   -1    0    0  501  502 -0.00000000000E+00 -0.00000000000E+00 -0.31804199661E+03  0.31804199661E+03  0.00000000000E+00 0. -1.
         25    1    1    2    0    0 -0.56013985199E+01 -0.73083858809E+02 -0.27976942439E+03  0.31506913036E+03  0.12500000000E+03 0.  0.
         25    1    1    2    0    0  0.56013985199E+01  0.73083858809E+02  0.23392210872E+03  0.27516754720E+03  0.12500000000E+03 0.  0.
</event>
<event>
 4    0  0.2190908E-002  0.1889894E+03  0.7546771E-02  0.1159376E+00
         21   -1    0    0  502  501  0.00000000000E+00  0.00000000000E+00  0.11334749332E+03  0.11334749332E+03  0.00000000000E+00 0.  1.
         21   -1    0    0  501  502 -0.00000000000E+00 -0.00000000000E+00 -0.31511042862E+03  0.31511042862E+03  0.00000000000E+00 0.  1.
         25    1    1    2    0    0 -0.12919606240E+03  0.53307045185E+02 -0.74087597217E+02  0.20161159607E+03  0.12500000000E+03 0.  0.
         25    1    1    2    0    0  0.12919606240E+03 -0.53307045185E+02 -0.12767533808E+03  0.22684632587E+03  0.12500000000E+03 0.  0.
</event>
<event>
 4    0  0.2190908E-002  0.2589352E+03  0.7546771E-02  0.1107785E+00
         21   -1    0    0  502  501  0.00000000000E+00  0.00000000000E+00  0.43007541414E+02  0.43007541414E+02  0.00000000000E+00 0.  1.
         21   -1    0    0  501  502 -0.00000000000E+00 -0.00000000000E+00 -0.15589688443E+04  0.15589688443E+04  0.00000000000E+00 0.  1.
         25    1    1    2    0    0 -0.21227442316E+02  0.53802746265E+02 -0.79708294974E+02  0.15913438378E+03  0.12500000000E+03 0.  0.
         25    1    1    2    0    0  0.21227442316E+02 -0.53802746265E+02 -0.14362530079E+04  0.14428420019E+04  0.12500000000E+03 0.  0.
</event>
<event>
 4    0  0.2190908E-002  0.2698425E+03  0.7546771E-02  0.1101370E+00
         21   -1    0    0  502  501  0.00000000000E+00  0.00000000000E+00  0.25915473073E+02  0.25915473073E+02  0.00000000000E+00 0. -1.
         21   -1    0    0  501  502 -0.00000000000E+00 -0.00000000000E+00 -0.28097104173E+04  0.28097104173E+04  0.00000000000E+00 0. -1.
         25    1    1    2    0    0  0.20518577613E+03 -0.53275620647E+02 -0.19734449036E+04  0.19887305705E+04  0.12500000000E+03 0.  0.
         25    1    1    2    0    0 -0.20518577613E+03  0.53275620647E+02 -0.81035004056E+03  0.84689531981E+03  0.12500000000E+03 0.  0.
</event>
<event>
 4    0  0.2190908E-002  0.2231454E+03  0.7546771E-02  0.1131560E+00
         21   -1    0    0  502  501  0.00000000000E+00  0.00000000000E+00  0.35886400957E+02  0.35886400957E+02  0.00000000000E+00 0.  1.
         21   -1    0    0  501  502 -0.00000000000E+00 -0.00000000000E+00 -0.13875409188E+04  0.13875409188E+04  0.00000000000E+00 0.  1.
         25    1    1    2    0    0  0.81118590711E+01 -0.11435132648E+03 -0.11383193009E+04  0.11508856846E+04  0.12500000000E+03 0.  0.
         25    1    1    2    0    0 -0.81118590711E+01  0.11435132648E+03 -0.21333521694E+03  0.27254163519E+03  0.12500000000E+03 0.  0.
</event>
<event>
 4    0  0.2190908E-002  0.1969121E+03  0.7546771E-02  0.1152371E+00
         21   -1    0    0  502  501  0.00000000000E+00  0.00000000000E+00  0.94333065364E+02  0.94333065364E+02  0.00000000000E+00 0. -1.
         21   -1    0    0  501  502 -0.00000000000E+00 -0.00000000000E+00 -0.41103696833E+03  0.41103696833E+03  0.00000000000E+00 0. -1.
         25    1    1    2    0    0  0.12995751785E+03  0.77111884320E+02 -0.18109742573E+03  0.26693908810E+03  0.12500000000E+03 0.  0.
         25    1    1    2    0    0 -0.12995751785E+03 -0.77111884320E+02 -0.13560647724E+03  0.23843094559E+03  0.12500000000E+03 0.  0.
</event>
<event>
 4    0  0.2190908E-002  0.2492704E+03  0.7546771E-02  0.1113767E+00
         21   -1    0    0  502  501  0.00000000000E+00  0.00000000000E+00  0.13180627538E+04  0.13180627538E+04  0.00000000000E+00 0. -1.
         21   -1    0    0  501  502 -0.00000000000E+00 -0.00000000000E+00 -0.47141715867E+02  0.47141715867E+02  0.00000000000E+00 0. -1.
         25    1    1    2    0    0  0.72193295212E+02 -0.19660967348E+03  0.77625543581E+03  0.81367360606E+03  0.12500000000E+03 0.  0.
         25    1    1    2    0    0 -0.72193295212E+02  0.19660967348E+03  0.49466560208E+03  0.55153086356E+03  0.12500000000E+03 0.  0.
</event>
<event>
 4    0  0.2190908E-002  0.2362213E+03  0.7546771E-02  0.1122336E+00
         21   -1    0    0  502  501  0.00000000000E+00  0.00000000000E+00  0.76401354887E+02  0.76401354887E+02  0.00000000000E+00 0. -1.
         21   -1    0    0  501  502 -0.00000000000E+00 -0.00000000000E+00 -0.73036028154E+03  0.73036028154E+03  0.00000000000E+00 0. -1.
         25    1    1    2    0    0  0.85000024667E+02  0.17983107205E+02 -0.18528947854E+02  0.15335161638E+03  0.12500000000E+03 0.  0.
         25    1    1    2    0    0 -0.85000024667E+02 -0.17983107205E+02 -0.63542997880E+03  0.65341002005E+03  0.12500000000E+03 0.  0.
</event>
<event>
 4    0  0.2190908E-002  0.2597394E+03  0.7546771E-02  0.1107300E+00
         21   -1    0    0  502  501  0.00000000000E+00  0.00000000000E+00  0.70491485348E+02  0.70491485348E+02  0.00000000000E+00 0. -1.
         21   -1    0    0  501  502 -0.00000000000E+00 -0.00000000000E+00 -0.95705995349E+03  0.95705995349E+03  0.00000000000E+00 0. -1.
         25    1    1    2    0    0  0.98237105148E+01 -0.10005106247E+03 -0.84737109849E+03  0.86242072038E+03  0.12500000000E+03 0.  0.
         25    1    1    2    0    0 -0.98237105148E+01  0.10005106247E+03 -0.39197369649E+02  0.16513071845E+03  0.12500000000E+03 0.  0.
</event>
<event>
 4    0  0.2190908E-002  0.1809140E+03  0.7546771E-02  0.1166921E+00
         21   -1    0    0  502  501  0.00000000000E+00  0.00000000000E+00  0.37474654788E+02  0.37474654788E+02  0.00000000000E+00 0.  1.
         21   -1    0    0  501  502 -0.00000000000E+00 -0.00000000000E+00 -0.87338743427E+03  0.87338743427E+03  0.00000000000E+00 0.  1.
         25    1    1    2    0    0  0.12279129798E+03  0.44898276873E+02 -0.42643160912E+03  0.46320888957E+03  0.12500000000E+03 0.  0.
         25    1    1    2    0    0 -0.12279129798E+03 -0.44898276873E+02 -0.40948117037E+03  0.44765319949E+03  0.12500000000E+03 0.  0.
</event>
<event>
 4    0  0.2190908E-002  0.2427274E+03  0.7546771E-02  0.1117989E+00
         21   -1    0    0  502  501  0.00000000000E+00  0.00000000000E+00  0.25160019289E+03  0.25160019289E+03  0.00000000000E+00 0. -1.
         21   -1    0    0  501  502 -0.00000000000E+00 -0.00000000000E+00 -0.23416757332E+03  0.23416757332E+03  0.00000000000E+00 0. -1.
         25    1    1    2    0    0 -0.13287981078E+02 -0.18440950086E+03 -0.86781948446E+02  0.23945676233E+03  0.12500000000E+03 0.  0.
         25    1    1    2    0    0  0.13287981078E+02  0.18440950086E+03  0.10421456802E+03  0.24631100389E+03  0.12500000000E+03 0.  0.
</event>
