<event>
 6    0  0.4081161E+002  0.2118589E+03  0.7546771E-02  0.1140102E+00
         -4   -1    0    0    0  501 -0.00000000000E+00  0.00000000000E+00  0.87665014632E+03  0.87665014632E+03  0.00000000000E+00 0.  1.
         21   -1    0    0  504  502  0.00000000000E+00 -0.00000000000E+00 -0.46337783864E+03  0.46337783864E+03  0.00000000000E+00 0.  1.
         21    1    1    2  503  501  0.20274903504E+03 -0.46704602339E+02  0.60194267850E+03  0.63688576628E+03  0.00000000000E+00 0.  1.
         21    1    1    2  504  503 -0.28316413731E+02 -0.13058872971E+02 -0.26074313368E+02  0.40647549341E+02  0.00000000000E+00 0.  1.
         21    1    1    2  505  502  0.29950332209E+02 -0.40277858884E+02 -0.35864188560E+03  0.36213717073E+03  0.00000000000E+00 0.  1.
         -4    1    1    2    0  505 -0.20438295352E+03  0.10004133420E+03  0.19604582815E+03  0.30035749861E+03  0.00000000000E+00 0.  1.
<scales pt_clust_3="211.85892" pt_clust_4="31.18258" pt_clust_5="51.59840" pt_clust_6="14000.00000"></scales>
<clustering>
<clus scale="   31.183">  2  4  1 -1</clus>
<clus scale="   51.598">  2  5  1 -1</clus>
<clus scale="  211.859">  1  3  2 -1</clus>
<clus scale="   31.183">  2  3  1 -1</clus>
</clustering>
</event>
<event>
 6    0  0.4081161E+002  0.9471003E+02  0.7546771E-02  0.1291831E+00
          3   -1    0    0  504    0 -0.00000000000E+00  0.00000000000E+00  0.33593628359E+03  0.33593628359E+03  0.00000000000E+00 0.  1.
         21   -1    0    0  503  502  0.00000000000E+00 -0.00000000000E+00 -0.73475212229E+03  0.73475212229E+03  0.00000000000E+00 0. -1.
         21    1    1    2  503  501  0.16100049198E+02 -0.70182146847E+02 -0.32515159782E+03  0.33302898805E+03  0.00000000000E+00 0.  1.
         21    1    1    2  504  505  0.31653670499E+02 -0.15230323363E+02  0.11507792804E+02  0.36964129924E+02  0.00000000000E+00 0. -1.
         21    1    1    2  505  502  0.31771105667E+02 -0.12883084993E+02 -0.37914162272E+03  0.38068851718E+03  0.00000000000E+00 0. -1.
          3    1    1    2  501    0 -0.79524825364E+02  0.98295555202E+02  0.29396958905E+03  0.32000677072E+03  0.00000000000E+00 0.  1.
<scales pt_clust_3="14000.00000" pt_clust_4="36.35456" pt_clust_5="34.28377" pt_clust_6="94.71003"></scales>
<clustering>
<clus scale="   34.284">  2  5  1 -1</clus>
<clus scale="   36.355">  1  4  2 -1</clus>
<clus scale="   94.710">  1  6  2 -1</clus>
<clus scale="   34.284">  2  3  1 -1</clus>
</clustering>
</event>
<event>
 6    0  0.4081161E+002  0.1209149E+03  0.7546771E-02  0.1241595E+00
          2   -1    0    0  505    0 -0.00000000000E+00  0.00000000000E+00  0.15562962181E+04  0.15562962181E+04  0.00000000000E+00 0.  1.
         21   -1    0    0  504  502  0.00000000000E+00 -0.00000000000E+00 -0.14355890650E+03  0.14355890650E+03  0.00000000000E+00 0.  1.
         21    1    1    2  503  501 -0.68806335155E+02 -0.12087223981E+03  0.24758339326E+03  0.28397525725E+03  0.00000000000E+00 0.  1.
         21    1    1    2  504  503  0.13304808894E+00 -0.39198110105E+02  0.60362974095E+01  0.39660388602E+02  0.00000000000E+00 0.  1.
         21    1    1    2  505  502  0.12118421571E+03  0.44926895125E+02 -0.65628679587E+02  0.14495228052E+03  0.00000000000E+00 0.  1.
          2    1    1    2  501    0 -0.52510928643E+02  0.11514345479E+03  0.12247463005E+04  0.12312671982E+04  0.00000000000E+00 0.  1.
<scales pt_clust_3="14000.00000" pt_clust_4="39.19834" pt_clust_5="121.92331" pt_clust_6="120.91490"></scales>
<clustering>
<clus scale="   39.198">  2  4  1 -1</clus>
<clus scale="  121.923">  2  5  1 -1</clus>
<clus scale="  120.915">  1  6  2 -1</clus>
<clus scale="   39.198">  2  3  1 -1</clus>
</clustering>
</event>
<event>
 6    0  0.4081161E+002  0.7169755E+02  0.7546771E-02  0.1354414E+00
         21   -1    0    0  505  502  0.00000000000E+00  0.00000000000E+00  0.11580731840E+02  0.11580731840E+02  0.00000000000E+00 0. -1.
          1   -1    0    0  503    0 -0.00000000000E+00 -0.00000000000E+00 -0.24700118906E+04  0.24700118906E+04  0.00000000000E+00 0. -1.
         21    1    1    2  503  502  0.25242616427E+02  0.30446943565E+02 -0.11507003982E+04  0.11513798733E+04  0.00000000000E+00 0. -1.
         21    1    1    2  504  501 -0.53318903468E+02 -0.87894218115E+02 -0.45151412491E+03  0.46306943760E+03  0.00000000000E+00 0. -1.
         21    1    1    2  505  504 -0.26391084296E+02  0.51733823644E+02 -0.18995985739E+03  0.19863943531E+03  0.00000000000E+00 0. -1.
          1    1    1    2  501    0  0.54467371337E+02  0.57134509056E+01 -0.66625677827E+03  0.66850387632E+03  0.00000000000E+00 0. -1.
<scales pt_clust_3="39.55004" pt_clust_4="71.69755" pt_clust_5="60.61866" pt_clust_6="14000.00000"></scales>
<clustering>
<clus scale="   39.550">  2  3  1 -1</clus>
<clus scale="   60.619">  1  5  2 -1</clus>
<clus scale="   71.698">  1  4  2 -1</clus>
<clus scale="   60.619">  1  3  2 -1</clus>
</clustering>
</event>
<event>
 6    0  0.4081161E+002  0.1254334E+03  0.7546771E-02  0.1234394E+00
          2   -1    0    0  504    0 -0.00000000000E+00  0.00000000000E+00  0.18930118208E+04  0.18930118208E+04  0.00000000000E+00 0.  1.
         21   -1    0    0  505  502  0.00000000000E+00 -0.00000000000E+00 -0.23943360383E+03  0.23943360383E+03  0.00000000000E+00 0.  1.
         21    1    1    2  503  502  0.13133835480E+01  0.11709369857E+03 -0.22148816406E+03  0.25053875157E+03  0.00000000000E+00 0.  1.
         21    1    1    2  504  503 -0.33924682082E+02 -0.14951030248E+02  0.72812045876E+03  0.72906365965E+03  0.00000000000E+00 0. -1.
         21    1    1    2  505  501  0.56216894973E+01 -0.46078803722E+02  0.29521764466E+03  0.29884497195E+03  0.00000000000E+00 0.  1.
          2    1    1    2  501    0  0.26989609036E+02 -0.56063864600E+02  0.85172827761E+03  0.85399804144E+03  0.00000000000E+00 0.  1.
<scales pt_clust_3="116.91058" pt_clust_4="37.07314" pt_clust_5="39.24008" pt_clust_6="39.24008"></scales>
<clustering>
<clus scale="   37.073">  1  4  2 -1</clus>
<clus scale="   39.240">  5  6 -1 -1</clus>
<clus scale="  116.911">  2  3  1 -1</clus>
<clus scale="  116.911">  2  3  1 -1</clus>
</clustering>
</event>
<event>
 6    0  0.4081161E+002  0.1607464E+03  0.7546771E-02  0.1187857E+00
         21   -1    0    0  505  502  0.00000000000E+00  0.00000000000E+00  0.89476250340E+02  0.89476250340E+02  0.00000000000E+00 0. -1.
          2   -1    0    0  504    0 -0.00000000000E+00 -0.00000000000E+00 -0.17627810077E+04  0.17627810077E+04  0.00000000000E+00 0. -1.
         21    1    1    2  503  502 -0.20578205310E+03  0.39899155592E+02 -0.17236094687E+03  0.27137887169E+03  0.00000000000E+00 0. -1.
         21    1    1    2  504  503  0.85460092725E+01  0.61844928795E+02 -0.13381242635E+03  0.14766040409E+03  0.00000000000E+00 0. -1.
         21    1    1    2  505  501  0.11562613463E+03 -0.66263506811E+02 -0.10961371299E+03  0.17255556038E+03  0.00000000000E+00 0. -1.
          2    1    1    2  501    0  0.81609909199E+02 -0.35480577576E+02 -0.12575176711E+04  0.12606624218E+04  0.00000000000E+00 0. -1.
<scales pt_clust_3="14000.00000" pt_clust_4="62.43260" pt_clust_5="160.74641" pt_clust_6="89.12818"></scales>
<clustering>
<clus scale="   62.433">  2  4  1 -1</clus>
<clus scale="   89.128">  2  6  1 -1</clus>
<clus scale="  160.746">  1  5  2 -1</clus>
<clus scale="  160.746">  1  3  2 -1</clus>
</clustering>
</event>
<event>
 6    0  0.4081161E+002  0.2592393E+03  0.7546771E-02  0.1107601E+00
         21   -1    0    0  503  502  0.00000000000E+00  0.00000000000E+00  0.18139576051E+04  0.18139576051E+04  0.00000000000E+00 0.  1.
         -4   -1    0    0    0  501 -0.00000000000E+00 -0.00000000000E+00 -0.11109579770E+03  0.11109579770E+03  0.00000000000E+00 0. -1.
         21    1    1    2  503  501 -0.19657122298E+02  0.23779868309E+02  0.60644718567E+01  0.31443002603E+02  0.00000000000E+00 0. -1.
         21    1    1    2  504  505 -0.81377814797E+02 -0.28674550064E+02  0.74176659585E+02  0.11378380987E+03  0.00000000000E+00 0.  1.
         21    1    1    2  505  502  0.22653535682E+03  0.95006240123E+02  0.16057228804E+04  0.16244046362E+04  0.00000000000E+00 0.  1.
         -4    1    1    2    0  504 -0.12550041973E+03 -0.90111558367E+02  0.16897795504E+02  0.15542195404E+03  0.00000000000E+00 0. -1.
<scales pt_clust_3="30.85263" pt_clust_4="63.95398" pt_clust_5="244.81943" pt_clust_6="63.95398"></scales>
<clustering>
<clus scale="   30.853">  2  3  1 -1</clus>
<clus scale="   63.954">  4  6 -1 -1</clus>
<clus scale="  244.819">  1  5  2 -1</clus>
<clus scale="  244.819">  1  3  2 -1</clus>
</clustering>
</event>
<event>
 6    0  0.4081161E+002  0.1582934E+03  0.7546771E-02  0.1190637E+00
         21   -1    0    0  503  502  0.00000000000E+00  0.00000000000E+00  0.51028903875E+03  0.51028903875E+03  0.00000000000E+00 0. -1.
          4   -1    0    0  505    0 -0.00000000000E+00 -0.00000000000E+00 -0.25283357646E+03  0.25283357646E+03  0.00000000000E+00 0. -1.
         21    1    1    2  503  501  0.21394773259E+02  0.28194371682E+02  0.43729197624E+02  0.56257458547E+02  0.00000000000E+00 0.  1.
         21    1    1    2  504  502 -0.71676449062E+02 -0.33841398285E+02  0.30311625063E+03  0.31330849811E+03  0.00000000000E+00 0. -1.
         21    1    1    2  505  504  0.12592211048E+03 -0.12793389857E+03  0.49853410159E+02  0.18630304028E+03  0.00000000000E+00 0. -1.
          4    1    1    2  501    0 -0.75640434678E+02  0.13358092517E+03 -0.13924339613E+03  0.20725361829E+03  0.00000000000E+00 0. -1.
<scales pt_clust_3="35.39292" pt_clust_4="59.27029" pt_clust_5="158.29344" pt_clust_6="14000.00000"></scales>
<clustering>
<clus scale="   35.393">  1  3  2 -1</clus>
<clus scale="   59.270">  1  4  2 -1</clus>
<clus scale="  158.293">  1  5  2 -1</clus>
<clus scale="   35.393">  1  3  2 -1</clus>
</clustering>
</event>
<event>
 6    0  0.4081161E+002  0.1471715E+03  0.7546771E-02  0.1203992E+00
         21   -1    0    0  504  502  0.00000000000E+00  0.00000000000E+00  0.43770874040E+02  0.43770874040E+02  0.00000000000E+00 0. -1.
          2   -1    0    0  505    0 -0.00000000000E+00 -0.00000000000E+00 -0.23776365983E+04  0.23776365983E+04  0.00000000000E+00 0.  1.
         21    1    1    2  503  501  0.10541451580E+03 -0.86281572373E+02 -0.11862774191E+04  0.11940732159E+04  0.00000000000E+00 0.  1.
         21    1    1    2  504  503 -0.14699419761E+03 -0.64783483869E+02 -0.17373752411E+03  0.23661978192E+03  0.00000000000E+00 0. -1.
         21    1    1    2  505  502  0.51942561377E+02  0.31982600856E+02 -0.27183889886E+03  0.27859882156E+03  0.00000000000E+00 0.  1.
          2    1    1    2  501    0 -0.10362879567E+02  0.11908245539E+03 -0.70201188223E+03  0.71211565300E+03  0.00000000000E+00 0.  1.
<scales pt_clust_3="147.17147" pt_clust_4="14000.00000" pt_clust_5="60.99932" pt_clust_6="130.03282"></scales>
<clustering>
<clus scale="   60.999">  2  5  1 -1</clus>
<clus scale="  130.033">  2  6  1 -1</clus>
<clus scale="  147.171">  2  3  1 -1</clus>
<clus scale="  147.171">  1  3  2 -1</clus>
</clustering>
</event>
<event>
 6    0  0.4081161E+002  0.1026427E+03  0.7546771E-02  0.1274835E+00
         21   -1    0    0  505  502  0.00000000000E+00  0.00000000000E+00  0.14691868019E+04  0.14691868019E+04  0.00000000000E+00 0. -1.
          3   -1    0    0  503    0 -0.00000000000E+00 -0.00000000000E+00 -0.73674013753E+02  0.73674013753E+02  0.00000000000E+00 0. -1.
         21    1    1    2  503  504  0.82884765425E+02 -0.15599116080E+02  0.45679627399E+03  0.46451701013E+03  0.00000000000E+00 0.  1.
         21    1    1    2  504  502  0.31913905394E+02  0.25617478584E+02  0.84554846656E+03  0.84653822233E+03  0.00000000000E+00 0. -1.
         21    1    1    2  505  501 -0.92829892873E+02 -0.66663003589E+02  0.11971053638E+03  0.16550515876E+03  0.00000000000E+00 0.  1.
          3    1    1    2  501    0 -0.21968777946E+02  0.56644641086E+02 -0.26542488786E+02  0.66300424427E+02  0.00000000000E+00 0. -1.
<scales pt_clust_3="102.64274" pt_clust_4="40.92374" pt_clust_5="14000.00000" pt_clust_6="61.16206"></scales>
<clustering>
<clus scale="   40.924">  1  4  2 -1</clus>
<clus scale="   61.162">  2  6  1 -1</clus>
<clus scale="  102.643">  1  3  2 -1</clus>
<clus scale="   40.924">  1  3  2 -1</clus>
</clustering>
</event>
<event>
 6    0  0.4081161E+002  0.9161187E+02  0.7546771E-02  0.1298995E+00
          2   -1    0    0  505    0 -0.00000000000E+00  0.00000000000E+00  0.42518370693E+04  0.42518370693E+04  0.00000000000E+00 0. -1.
         21   -1    0    0  504  502  0.00000000000E+00 -0.00000000000E+00 -0.11043873943E+02  0.11043873943E+02  0.00000000000E+00 0.  1.
         21    1    1    2  503  502 -0.35080915317E+02 -0.19962923528E+02  0.13592281771E+03  0.14178928489E+03  0.00000000000E+00 0.  1.
         21    1    1    2  504  501  0.54399867307E+02 -0.75085059971E+02  0.30030072003E+03  0.31428909343E+03  0.00000000000E+00 0.  1.
         21    1    1    2  505  503 -0.40861821383E+02  0.18160746934E+02  0.87168034832E+03  0.87282651818E+03  0.00000000000E+00 0.  1.
          2    1    1    2  501    0  0.21542869393E+02  0.76887236564E+02  0.29328893092E+04  0.29339760467E+04  0.00000000000E+00 0. -1.
<scales pt_clust_3="40.36321" pt_clust_4="91.61187" pt_clust_5="46.46477" pt_clust_6="14000.00000"></scales>
<clustering>
<clus scale="   40.363">  2  3  1 -1</clus>
<clus scale="   46.465">  1  5  2 -1</clus>
<clus scale="   91.612">  2  4  1 -1</clus>
<clus scale="   40.363">  2  3  1 -1</clus>
</clustering>
</event>
<event>
 6    0  0.4081161E+002  0.7151299E+02  0.7546771E-02  0.1355022E+00
          2   -1    0    0  504    0 -0.00000000000E+00  0.00000000000E+00  0.17405516591E+04  0.17405516591E+04  0.00000000000E+00 0. -1.
         21   -1    0    0  503  502  0.00000000000E+00 -0.00000000000E+00 -0.56411065919E+02  0.56411065919E+02  0.00000000000E+00 0. -1.
         21    1    1    2  503  501 -0.47343423209E+02 -0.55378951560E+02  0.47775310482E+01  0.73014058920E+02  0.00000000000E+00 0. -1.
         21    1    1    2  504  505 -0.47070107697E+02  0.18527718943E+01  0.28388333580E+03  0.28776514061E+03  0.00000000000E+00 0. -1.
         21    1    1    2  505  502 -0.16621703139E+02  0.26049955713E+02 -0.47721630918E+01  0.31267471092E+02  0.00000000000E+00 0. -1.
          2    1    1    2  501    0  0.11103523404E+03  0.27476223953E+02  0.14002518894E+04  0.14049160544E+04  0.00000000000E+00 0. -1.
<scales pt_clust_3="14000.00000" pt_clust_4="48.01517" pt_clust_5="30.90115" pt_clust_6="71.51299"></scales>
<clustering>
<clus scale="   30.901">  2  5  1 -1</clus>
<clus scale="   48.015">  1  4  2 -1</clus>
<clus scale="   71.513">  1  6  2 -1</clus>
<clus scale="   30.901">  2  3  1 -1</clus>
</clustering>
</event>
<event>
 6    0  0.4081161E+002  0.1709875E+03  0.7546771E-02  0.1176822E+00
          2   -1    0    0  505    0 -0.00000000000E+00  0.00000000000E+00  0.31164186502E+04  0.31164186502E+04  0.00000000000E+00 0.  1.
         21   -1    0    0  504  502  0.00000000000E+00 -0.00000000000E+00 -0.22140470557E+02  0.22140470557E+02  0.00000000000E+00 0.  1.
         21    1    1    2  503  502  0.28721345691E+02  0.25477917740E+02  0.62872640449E+02  0.73668235405E+02  0.00000000000E+00 0.  1.
         21    1    1    2  504  501  0.69160419597E+02 -0.35784322785E+02  0.89539766949E+03  0.89877731832E+03  0.00000000000E+00 0.  1.
         21    1    1    2  505  503 -0.17813389887E+03  0.42269356758E+02  0.59135044104E+03  0.61904259027E+03  0.00000000000E+00 0.  1.
          2    1    1    2  501    0  0.80252133580E+02 -0.31962951713E+02  0.15446574286E+04  0.15470709767E+04  0.00000000000E+00 0.  1.
<scales pt_clust_3="38.39323" pt_clust_4="35.41310" pt_clust_5="166.86984" pt_clust_6="35.41310"></scales>
<clustering>
<clus scale="   35.413">  4  6 -1 -1</clus>
<clus scale="   38.393">  2  3  1 -1</clus>
<clus scale="  166.870">  2  5  1 -1</clus>
<clus scale="   38.393">  2  3  1 -1</clus>
</clustering>
</event>
<event>
 6    0  0.4081161E+002  0.8966623E+02  0.7546771E-02  0.1303662E+00
         21   -1    0    0  504  502  0.00000000000E+00  0.00000000000E+00  0.21945487574E+03  0.21945487574E+03  0.00000000000E+00 0. -1.
         -1   -1    0    0    0  501 -0.00000000000E+00 -0.00000000000E+00 -0.68038615985E+03  0.68038615985E+03  0.00000000000E+00 0. -1.
         21    1    1    2  503  501  0.34527744056E+02 -0.90859484234E+00 -0.98797073753E+02  0.10466065372E+03  0.00000000000E+00 0. -1.
         21    1    1    2  504  503 -0.19203480403E+02 -0.86142814759E+02  0.17673025644E+03  0.19754225304E+03  0.00000000000E+00 0. -1.
         21    1    1    2  505  502  0.43014972477E+02  0.95975712919E+02 -0.72942337713E+02  0.12799300746E+03  0.00000000000E+00 0. -1.
         -1    1    1    2    0  505 -0.58339236129E+02 -0.89243033184E+01 -0.46592212908E+03  0.46964512138E+03  0.00000000000E+00 0. -1.
<scales pt_clust_3="34.53970" pt_clust_4="89.66623" pt_clust_5="14000.00000" pt_clust_6="31.92344"></scales>
<clustering>
<clus scale="   34.540">  2  3  1 -1</clus>
<clus scale="   31.923">  2  6  1 -1</clus>
<clus scale="   89.666">  1  4  2 -1</clus>
<clus scale="   89.666">  1  3  2 -1</clus>
</clustering>
</event>
<event>
 6    0  0.4081161E+002  0.1480391E+03  0.7546771E-02  0.1202903E+00
         21   -1    0    0  503  502  0.00000000000E+00  0.00000000000E+00  0.53978757848E+03  0.53978757848E+03  0.00000000000E+00 0. -1.
          4   -1    0    0  505    0 -0.00000000000E+00 -0.00000000000E+00 -0.47517060784E+03  0.47517060784E+03  0.00000000000E+00 0. -1.
         21    1    1    2  503  501 -0.44408886415E+02 -0.19691673129E+03  0.33336564241E+03  0.38971912937E+03  0.00000000000E+00 0. -1.
         21    1    1    2  504  502 -0.23772406743E+02  0.65773185033E+02  0.14653551416E+03  0.16236962801E+03  0.00000000000E+00 0. -1.
         21    1    1    2  505  504  0.10089501385E+01  0.48430436084E+02 -0.18215619475E+02  0.51752622277E+02  0.00000000000E+00 0.  1.
          4    1    1    2  501    0  0.67172343019E+02  0.82713110170E+02 -0.39706856646E+03  0.41111680667E+03  0.00000000000E+00 0. -1.
<scales pt_clust_3="148.03911" pt_clust_4="70.75111" pt_clust_5="48.44094" pt_clust_6="14000.00000"></scales>
<clustering>
<clus scale="   48.441">  2  5  1 -1</clus>
<clus scale="   70.751">  1  4  2 -1</clus>
<clus scale="  148.039">  1  3  2 -1</clus>
<clus scale="   70.751">  1  3  2 -1</clus>
</clustering>
</event>
<event>
 6    0  0.4081161E+002  0.1030164E+03  0.7546771E-02  0.1274078E+00
          3   -1    0    0  503    0 -0.00000000000E+00  0.00000000000E+00  0.26840824562E+03  0.26840824562E+03  0.00000000000E+00 0. -1.
         21   -1    0    0  504  502  0.00000000000E+00 -0.00000000000E+00 -0.11349597180E+04  0.11349597180E+04  0.00000000000E+00 0.  1.
         21    1    1    2  503  502  0.63881604731E+02  0.10257364029E+03 -0.72989581337E+03  0.73983113579E+03  0.00000000000E+00 0.  1.
         21    1    1    2  504  505 -0.37093118029E+02 -0.77912085808E+02 -0.38724134124E+03  0.39673927066E+03  0.00000000000E+00 0.  1.
         21    1    1    2  505  501 -0.48109263817E+02  0.62621716872E+00  0.82639346542E+02  0.95625075215E+02  0.00000000000E+00 0.  1.
          3    1    1    2  501    0  0.21320777114E+02 -0.25287771650E+02  0.16794633566E+03  0.17117248199E+03  0.00000000000E+00 0. -1.
<scales pt_clust_3="14000.00000" pt_clust_4="103.01643" pt_clust_5="36.41522" pt_clust_6="33.07638"></scales>
<clustering>
<clus scale="   33.076">  1  6  2 -1</clus>
<clus scale="   36.415">  1  5  2 -1</clus>
<clus scale="  103.016">  2  4  1 -1</clus>
<clus scale="  103.016">  2  3  1 -1</clus>
</clustering>
</event>
<event>
 6    0  0.4081161E+002  0.9400015E+02  0.7546771E-02  0.1293444E+00
         21   -1    0    0  503  502  0.00000000000E+00  0.00000000000E+00  0.15443542846E+03  0.15443542846E+03  0.00000000000E+00 0. -1.
          1   -1    0    0  505    0 -0.00000000000E+00 -0.00000000000E+00 -0.81727425917E+03  0.81727425917E+03  0.00000000000E+00 0. -1.
         21    1    1    2  503  501  0.75136401385E+02  0.14810066936E+03 -0.12962081037E+03  0.21066760919E+03  0.00000000000E+00 0. -1.
         21    1    1    2  504  502 -0.31460115910E+02 -0.72534948388E+02  0.92437206913E+02  0.12163755527E+03  0.00000000000E+00 0. -1.
         21    1    1    2  505  504 -0.29680077942E+02 -0.13912644857E+02 -0.46975343667E+02  0.57281337504E+02  0.00000000000E+00 0.  1.
          1    1    1    2  501    0 -0.13996207533E+02 -0.61653076117E+02 -0.57867988359E+03  0.58212318567E+03  0.00000000000E+00 0. -1.
<scales pt_clust_3="94.00015" pt_clust_4="79.53361" pt_clust_5="32.77909" pt_clust_6="14000.00000"></scales>
<clustering>
<clus scale="   32.779">  2  5  1 -1</clus>
<clus scale="   79.534">  1  4  2 -1</clus>
<clus scale="   94.000">  1  3  2 -1</clus>
<clus scale="   79.534">  1  3  2 -1</clus>
</clustering>
</event>
<event>
 6    0  0.4081161E+002  0.1128749E+03  0.7546771E-02  0.1255337E+00
         21   -1    0    0  503  502  0.00000000000E+00  0.00000000000E+00  0.16513318898E+03  0.16513318898E+03  0.00000000000E+00 0.  1.
          2   -1    0    0  504    0 -0.00000000000E+00 -0.00000000000E+00 -0.18978391996E+04  0.18978391996E+04  0.00000000000E+00 0.  1.
         21    1    1    2  503  501  0.20969072145E+01  0.44026301728E+02  0.13181557043E+03  0.13898941280E+03  0.00000000000E+00 0.  1.
         21    1    1    2  504  505  0.50669579921E+02  0.74244444756E+02 -0.16173875833E+03  0.18503802273E+03  0.00000000000E+00 0.  1.
         21    1    1    2  505  502  0.49509568398E+02 -0.58344012324E+02 -0.75997005716E+02  0.10784602920E+03  0.00000000000E+00 0.  1.
          2    1    1    2  501    0 -0.10227605553E+03 -0.59926734160E+02 -0.16267858170E+04  0.16310989239E+04  0.00000000000E+00 0.  1.
<scales pt_clust_3="44.07621" pt_clust_4="112.87485" pt_clust_5="61.41741" pt_clust_6="14000.00000"></scales>
<clustering>
<clus scale="   44.076">  1  3  2 -1</clus>
<clus scale="   61.417">  1  5  2 -1</clus>
<clus scale="  112.875">  1  4  2 -1</clus>
<clus scale="   44.076">  1  3  2 -1</clus>
</clustering>
</event>
<event>
 6    0  0.4081161E+002  0.1817241E+03  0.7546771E-02  0.1166145E+00
         -2   -1    0    0    0  501 -0.00000000000E+00  0.00000000000E+00  0.10327430534E+04  0.10327430534E+04  0.00000000000E+00 0. -1.
         21   -1    0    0  504  502  0.00000000000E+00 -0.00000000000E+00 -0.79457442444E+02  0.79457442444E+02  0.00000000000E+00 0.  1.
         21    1    1    2  503  505 -0.77767356550E+02  0.13892447339E+02  0.38185763585E+02  0.87743457752E+02  0.00000000000E+00 0.  1.
         21    1    1    2  504  503 -0.41730164016E+02 -0.20398139527E+02 -0.21345581869E+02  0.51118729936E+02  0.00000000000E+00 0.  1.
         21    1    1    2  505  501 -0.50049393818E+02  0.45151040142E+02  0.11172383477E+03  0.13048284754E+03  0.00000000000E+00 0. -1.
         -2    1    1    2    0  502  0.16954691438E+03 -0.38645347954E+02  0.82472159447E+03  0.84285546061E+03  0.00000000000E+00 0. -1.
<scales pt_clust_3="61.30938" pt_clust_4="46.44880" pt_clust_5="61.30938" pt_clust_6="166.42433"></scales>
<clustering>
<clus scale="   46.449">  2  4  1 -1</clus>
<clus scale="   61.309">  3  5 -1 -1</clus>
<clus scale="  166.424">  1  6  2 -1</clus>
<clus scale="   46.449">  2  3  1 -1</clus>
</clustering>
</event>
<event>
 6    0  0.4081161E+002  0.7077138E+02  0.7546771E-02  0.1357489E+00
         21   -1    0    0  504  502  0.00000000000E+00  0.00000000000E+00  0.49619436972E+02  0.49619436972E+02  0.00000000000E+00 0.  1.
          2   -1    0    0  503    0 -0.00000000000E+00 -0.00000000000E+00 -0.15539198737E+04  0.15539198737E+04  0.00000000000E+00 0. -1.
         21    1    1    2  503  505 -0.51817173662E+02 -0.88204431019E+01 -0.93529572512E+03  0.93677153732E+03  0.00000000000E+00 0.  1.
         21    1    1    2  504  501 -0.26463103606E+02  0.51300541220E+02 -0.27075019513E+00  0.57724472173E+02  0.00000000000E+00 0.  1.
         21    1    1    2  505  502  0.93431953174E+02 -0.74598826671E+02 -0.16506940538E+03  0.20381958544E+03  0.00000000000E+00 0.  1.
          2    1    1    2  501    0 -0.15151675905E+02  0.32118728553E+02 -0.40366455608E+03  0.40522371579E+03  0.00000000000E+00 0. -1.
<scales pt_clust_3="14000.00000" pt_clust_4="58.61917" pt_clust_5="70.77138" pt_clust_6="35.51318"></scales>
<clustering>
<clus scale="   35.513">  2  6  1 -1</clus>
<clus scale="   58.619">  1  4  2 -1</clus>
<clus scale="   70.771">  1  5  2 -1</clus>
<clus scale="   58.619">  1  3  2 -1</clus>
</clustering>
</event>
<event>
 6    0  0.4081161E+002  0.1100305E+03  0.7546771E-02  0.1260513E+00
         21   -1    0    0  501  502  0.00000000000E+00  0.00000000000E+00  0.27608096522E+02  0.27608096522E+02  0.00000000000E+00 0.  1.
          2   -1    0    0  503    0 -0.00000000000E+00 -0.00000000000E+00 -0.15831952547E+04  0.15831952547E+04  0.00000000000E+00 0.  1.
         21    1    1    2  503  504  0.57253259852E+01 -0.45798497599E+02 -0.42466343503E+03  0.42716427144E+03  0.00000000000E+00 0.  1.
         21    1    1    2  504  505 -0.85428737708E+02  0.42187451735E+02 -0.19339413263E+03  0.21559021510E+03  0.00000000000E+00 0.  1.
         21    1    1    2  505  502 -0.13945540036E+02  0.36081243560E+02 -0.17092827801E+02  0.42290648918E+02  0.00000000000E+00 0.  1.
          2    1    1    2  501    0  0.93648951759E+02 -0.32470197695E+02 -0.92043676272E+03  0.92575821578E+03  0.00000000000E+00 0.  1.
<scales pt_clust_3="43.03521" pt_clust_4="110.03048" pt_clust_5="38.68248" pt_clust_6="14000.00000"></scales>
<clustering>
<clus scale="   38.682">  1  5  2 -1</clus>
<clus scale="   43.035">  2  3  1 -1</clus>
<clus scale="  110.030">  1  4  2 -1</clus>
<clus scale="   38.682">  1  3  2 -1</clus>
</clustering>
</event>
<event>
 6    0  0.4081161E+002  0.7676418E+02  0.7546771E-02  0.1338493E+00
         21   -1    0    0  504  502  0.00000000000E+00  0.00000000000E+00  0.38506192399E+02  0.38506192399E+02  0.00000000000E+00 0. -1.
          2   -1    0    0  503    0 -0.00000000000E+00 -0.00000000000E+00 -0.16503874048E+04  0.16503874048E+04  0.00000000000E+00 0. -1.
         21    1    1    2  503  505 -0.85129066902E+02 -0.29422571032E+02 -0.20348262641E+03  0.22252600964E+03  0.00000000000E+00 0. -1.
         21    1    1    2  504  501  0.81100641036E+02  0.14946230518E+02 -0.28809946998E+03  0.29966983229E+03  0.00000000000E+00 0. -1.
         21    1    1    2  505  502  0.30615112208E+02  0.73853917245E+02 -0.49728220514E+02  0.94151909718E+02  0.00000000000E+00 0. -1.
          2    1    1    2  501    0 -0.26586686343E+02 -0.59377576730E+02 -0.10705708955E+04  0.10725458455E+04  0.00000000000E+00 0. -1.
<scales pt_clust_3="76.76418" pt_clust_4="69.28998" pt_clust_5="14000.00000" pt_clust_6="65.05804"></scales>
<clustering>
<clus scale="   65.058">  2  6  1 -1</clus>
<clus scale="   69.290">  2  4  1 -1</clus>
<clus scale="   76.764">  2  3  1 -1</clus>
<clus scale="   76.764">  1  3  2 -1</clus>
</clustering>
</event>
<event>
 6    0  0.4081161E+002  0.1340228E+03  0.7546771E-02  0.1221606E+00
          2   -1    0    0  504    0 -0.00000000000E+00  0.00000000000E+00  0.68378702867E+03  0.68378702867E+03  0.00000000000E+00 0.  1.
         21   -1    0    0  501  502  0.00000000000E+00 -0.00000000000E+00 -0.39519231776E+03  0.39519231776E+03  0.00000000000E+00 0.  1.
         21    1    1    2  503  505  0.11704671924E+03  0.86522344913E+01 -0.11901118721E+03  0.16714801323E+03  0.00000000000E+00 0.  1.
         21    1    1    2  504  503 -0.37994440036E+02  0.51166257250E+02  0.13950686608E+03  0.15337447322E+03  0.00000000000E+00 0. -1.
         21    1    1    2  505  502  0.20434952462E+02 -0.26280436657E+02 -0.23864271916E+03  0.24095351427E+03  0.00000000000E+00 0.  1.
          2    1    1    2  501    0 -0.99487231667E+02 -0.33538055084E+02  0.50674175120E+03  0.51750334571E+03  0.00000000000E+00 0.  1.
<scales pt_clust_3="134.02281" pt_clust_4="62.24533" pt_clust_5="33.29037" pt_clust_6="14000.00000"></scales>
<clustering>
<clus scale="   33.290">  2  5  1 -1</clus>
<clus scale="   62.245">  1  4  2 -1</clus>
<clus scale="  134.023">  2  3  1 -1</clus>
<clus scale="   33.290">  2  3  1 -1</clus>
</clustering>
</event>
<event>
 6    0  0.4081161E+002  0.7677992E+02  0.7546771E-02  0.1338446E+00
         21   -1    0    0  505  502  0.00000000000E+00  0.00000000000E+00  0.21688123202E+03  0.21688123202E+03  0.00000000000E+00 0. -1.
          2   -1    0    0  503    0 -0.00000000000E+00 -0.00000000000E+00 -0.39506930901E+03  0.39506930901E+03  0.00000000000E+00 0.  1.
         21    1    1    2  503  504  0.28326890602E+02  0.51430484907E+02 -0.69946179909E+02  0.91323466825E+02  0.00000000000E+00 0. -1.
         21    1    1    2  504  502 -0.13464279387E+02  0.80789369121E+02  0.80908165027E+02  0.11512749520E+03  0.00000000000E+00 0. -1.
         21    1    1    2  505  501 -0.13318239360E+02 -0.39865878291E+02  0.96516361671E+02  0.10527141978E+03  0.00000000000E+00 0. -1.
          2    1    1    2  501    0 -0.15443718555E+01 -0.92353975738E+02 -0.28566642378E+03  0.30022815923E+03  0.00000000000E+00 0.  1.
<scales pt_clust_3="76.77992" pt_clust_4="53.19235" pt_clust_5="42.03170" pt_clust_6="14000.00000"></scales>
<clustering>
<clus scale="   42.032">  1  5  2 -1</clus>
<clus scale="   53.192">  1  4  2 -1</clus>
<clus scale="   76.780">  1  3  2 -1</clus>
<clus scale="   42.032">  1  3  2 -1</clus>
</clustering>
</event>
<event>
 6    0  0.4081161E+002  0.9587645E+02  0.7546771E-02  0.1289214E+00
          2   -1    0    0  504    0 -0.00000000000E+00  0.00000000000E+00  0.18373230306E+04  0.18373230306E+04  0.00000000000E+00 0.  1.
         21   -1    0    0  505  502  0.00000000000E+00 -0.00000000000E+00 -0.19863931142E+03  0.19863931142E+03  0.00000000000E+00 0. -1.
         21    1    1    2  503  502 -0.15368299893E+01 -0.13303271222E+03  0.16947694473E+03  0.21545881082E+03  0.00000000000E+00 0.  1.
         21    1    1    2  504  503 -0.37537902375E+01  0.48615272022E+02  0.24222014206E+03  0.24707920357E+03  0.00000000000E+00 0.  1.
         21    1    1    2  505  501 -0.29274576100E+02  0.41602960260E+02 -0.16893018693E+03  0.17642339744E+03  0.00000000000E+00 0. -1.
          2    1    1    2  501    0  0.34565196327E+02  0.42814479940E+02  0.13959168194E+04  0.13970009302E+04  0.00000000000E+00 0.  1.
<scales pt_clust_3="14000.00000" pt_clust_4="48.75998" pt_clust_5="50.96914" pt_clust_6="95.87645"></scales>
<clustering>
<clus scale="   48.760">  1  4  2 -1</clus>
<clus scale="   50.969">  2  5  1 -1</clus>
<clus scale="   95.876">  1  6  2 -1</clus>
<clus scale="   50.969">  2  3  1 -1</clus>
</clustering>
</event>
<event>
 6    0  0.4081161E+002  0.9205932E+02  0.7546771E-02  0.1297940E+00
         21   -1    0    0  504  502  0.00000000000E+00  0.00000000000E+00  0.13658247184E+04  0.13658247184E+04  0.00000000000E+00 0.  1.
         -3   -1    0    0    0  501 -0.00000000000E+00 -0.00000000000E+00 -0.26998463439E+02  0.26998463439E+02  0.00000000000E+00 0. -1.
         21    1    1    2  503  501 -0.43004340538E+02  0.12815320366E+03  0.62383875913E+03  0.63831607712E+03  0.00000000000E+00 0.  1.
         21    1    1    2  504  503  0.33499835151E+02 -0.42567344612E+02  0.49462337478E+03  0.49758064740E+03  0.00000000000E+00 0.  1.
         21    1    1    2  505  502 -0.31332611939E+02 -0.70218788894E+02  0.84595802821E+02  0.11431911800E+03  0.00000000000E+00 0. -1.
         -3    1    1    2    0  505  0.40837117326E+02 -0.15367070152E+02  0.13576831825E+03  0.14260733935E+03  0.00000000000E+00 0. -1.
<scales pt_clust_3="92.05932" pt_clust_4="56.52721" pt_clust_5="14000.00000" pt_clust_6="43.63275"></scales>
<clustering>
<clus scale="   43.633">  2  6  1 -1</clus>
<clus scale="   56.527">  1  4  2 -1</clus>
<clus scale="   92.059">  1  3  2 -1</clus>
<clus scale="   56.527">  1  3  2 -1</clus>
</clustering>
</event>
<event>
 6    0  0.4081161E+002  0.2080178E+03  0.7546771E-02  0.1143145E+00
          2   -1    0    0  503    0 -0.00000000000E+00  0.00000000000E+00  0.69501649116E+03  0.69501649116E+03  0.00000000000E+00 0.  1.
         21   -1    0    0  504  502  0.00000000000E+00 -0.00000000000E+00 -0.15383265134E+03  0.15383265134E+03  0.00000000000E+00 0.  1.
         21    1    1    2  503  505 -0.62607618958E+02 -0.19323320114E+02  0.10042158246E+03  0.11990662566E+03  0.00000000000E+00 0.  1.
         21    1    1    2  504  501  0.44180155424E+02  0.23053873089E+02 -0.59653265387E+02  0.77729526366E+02  0.00000000000E+00 0.  1.
         21    1    1    2  505  502 -0.32252368841E+02  0.20214609939E+03  0.24459261590E+03  0.31894953918E+03  0.00000000000E+00 0.  1.
          2    1    1    2  501    0  0.50679832375E+02 -0.20587665236E+03  0.25582290685E+03  0.33226345129E+03  0.00000000000E+00 0.  1.
<scales pt_clust_3="59.92206" pt_clust_4="49.83339" pt_clust_5="208.01783" pt_clust_6="14000.00000"></scales>
<clustering>
<clus scale="   49.833">  2  4  1 -1</clus>
<clus scale="   59.922">  1  3  2 -1</clus>
<clus scale="  208.018">  1  5  2 -1</clus>
<clus scale="   49.833">  2  3  1 -1</clus>
</clustering>
</event>
<event>
 6    0  0.4081161E+002  0.1674179E+03  0.7546771E-02  0.1180568E+00
          1   -1    0    0  505    0 -0.00000000000E+00  0.00000000000E+00  0.70771752119E+03  0.70771752119E+03  0.00000000000E+00 0.  1.
         21   -1    0    0  504  502  0.00000000000E+00 -0.00000000000E+00 -0.22267256018E+03  0.22267256018E+03  0.00000000000E+00 0. -1.
         21    1    1    2  503  502  0.78669058955E+02 -0.15137790237E+03 -0.12550444398E+03  0.21179106596E+03  0.00000000000E+00 0. -1.
         21    1    1    2  504  501  0.19417711983E+02  0.17634041335E+03  0.16047507087E+03  0.23921797024E+03  0.00000000000E+00 0.  1.
         21    1    1    2  505  503 -0.81680313938E+01 -0.44792189330E+02  0.45158464170E+02  0.64127559193E+02  0.00000000000E+00 0. -1.
          1    1    1    2  501    0 -0.89918739544E+02  0.19829678357E+02  0.40491586996E+03  0.41525348597E+03  0.00000000000E+00 0.  1.
<scales pt_clust_3="14000.00000" pt_clust_4="167.41795" pt_clust_5="45.53084" pt_clust_6="95.40910"></scales>
<clustering>
<clus scale="   45.531">  1  5  2 -1</clus>
<clus scale="   95.409">  1  6  2 -1</clus>
<clus scale="  167.418">  1  4  2 -1</clus>
<clus scale="  167.418">  2  3  1 -1</clus>
</clustering>
</event>
<event>
 6    0  0.4081161E+002  0.1143310E+03  0.7546771E-02  0.1252753E+00
          2   -1    0    0  504    0 -0.00000000000E+00  0.00000000000E+00  0.30109332140E+04  0.30109332140E+04  0.00000000000E+00 0.  1.
         21   -1    0    0  505  502  0.00000000000E+00 -0.00000000000E+00 -0.20420763568E+03  0.20420763568E+03  0.00000000000E+00 0.  1.
         21    1    1    2  503  502 -0.10744076669E+03 -0.96060754905E+01 -0.33310229435E+02  0.11289537820E+03  0.00000000000E+00 0.  1.
         21    1    1    2  504  503  0.77151603753E+02  0.20297407097E+02  0.19589852773E+03  0.21151971034E+03  0.00000000000E+00 0.  1.
         21    1    1    2  505  501  0.14841096582E+03 -0.93991492177E+02 -0.57792307496E+02  0.18493286939E+03  0.00000000000E+00 0.  1.
          2    1    1    2  501    0 -0.11812180288E+03  0.83300160571E+02  0.27019295875E+04  0.27057928918E+04  0.00000000000E+00 0.  1.
<scales pt_clust_3="106.75460" pt_clust_4="79.77691" pt_clust_5="114.33100" pt_clust_6="14000.00000"></scales>
<clustering>
<clus scale="   79.777">  1  4  2 -1</clus>
<clus scale="  106.755">  2  3  1 -1</clus>
<clus scale="  114.331">  2  5  1 -1</clus>
<clus scale="  106.755">  2  3  1 -1</clus>
</clustering>
</event>
<event>
 6    0  0.4081161E+002  0.1057401E+03  0.7546771E-02  0.1268668E+00
         21   -1    0    0  503  502  0.00000000000E+00  0.00000000000E+00  0.20436962240E+03  0.20436962240E+03  0.00000000000E+00 0.  1.
          1   -1    0    0  505    0 -0.00000000000E+00 -0.00000000000E+00 -0.25738956270E+04  0.25738956270E+04  0.00000000000E+00 0.  1.
         21    1    1    2  503  501  0.25287087602E+02 -0.47317042309E+02  0.18100783094E+03  0.18879135084E+03  0.00000000000E+00 0.  1.
         21    1    1    2  504  502  0.77227691561E+02 -0.52086099103E+01 -0.75616542255E+02  0.10820862915E+03  0.00000000000E+00 0. -1.
         21    1    1    2  505  504 -0.39423379155E+02 -0.84305722747E+01 -0.17137329048E+03  0.17605136200E+03  0.00000000000E+00 0.  1.
          1    1    1    2  501    0 -0.63091400008E+02  0.60956224494E+02 -0.23035440028E+04  0.23052139074E+04  0.00000000000E+00 0.  1.
<scales pt_clust_3="53.63212" pt_clust_4="105.74005" pt_clust_5="40.31473" pt_clust_6="14000.00000"></scales>
<clustering>
<clus scale="   40.315">  2  5  1 -1</clus>
<clus scale="   53.632">  1  3  2 -1</clus>
<clus scale="  105.740">  1  4  2 -1</clus>
<clus scale="   53.632">  1  3  2 -1</clus>
</clustering>
</event>
<event>
 6    0  0.4081161E+002  0.1672537E+03  0.7546771E-02  0.1180742E+00
         21   -1    0    0  501  502  0.00000000000E+00  0.00000000000E+00  0.23004336799E+03  0.23004336799E+03  0.00000000000E+00 0.  1.
          3   -1    0    0  504    0 -0.00000000000E+00 -0.00000000000E+00 -0.10355072226E+04  0.10355072226E+04  0.00000000000E+00 0.  1.
         21    1    1    2  503  502  0.12904311608E+03 -0.11242479948E+03  0.15722316570E+03  0.23240177533E+03  0.00000000000E+00 0.  1.
         21    1    1    2  504  505 -0.37156435713E+02  0.53461944045E+01 -0.33926254740E+02  0.50598154811E+02  0.00000000000E+00 0.  1.
         21    1    1    2  505  503 -0.10314544870E+03 -0.78350619021E+02 -0.47217588252E+03  0.48962012533E+03  0.00000000000E+00 0.  1.
          3    1    1    2  501    0  0.11258768333E+02  0.18542922410E+03 -0.45658488302E+03  0.49293053508E+03  0.00000000000E+00 0.  1.
<scales pt_clust_3="167.25373" pt_clust_4="37.53908" pt_clust_5="142.87651" pt_clust_6="14000.00000"></scales>
<clustering>
<clus scale="   37.539">  2  4  1 -1</clus>
<clus scale="  142.877">  2  5  1 -1</clus>
<clus scale="  167.254">  1  3  2 -1</clus>
<clus scale="  167.254">  1  3  2 -1</clus>
</clustering>
</event>
<event>
 6    0  0.4081161E+002  0.9174717E+02  0.7546771E-02  0.1298675E+00
          3   -1    0    0  504    0 -0.00000000000E+00  0.00000000000E+00  0.30876536545E+03  0.30876536545E+03  0.00000000000E+00 0.  1.
         21   -1    0    0  503  502  0.00000000000E+00 -0.00000000000E+00 -0.56916948104E+03  0.56916948104E+03  0.00000000000E+00 0. -1.
         21    1    1    2  503  501 -0.14660485199E+02  0.28608567240E+02 -0.98106574304E+02  0.10323894550E+03  0.00000000000E+00 0.  1.
         21    1    1    2  504  505 -0.76959496713E+02  0.53146213321E+01  0.86656912682E+02  0.11601909261E+03  0.00000000000E+00 0.  1.
         21    1    1    2  505  502  0.10087996909E+03  0.69970133642E+01 -0.44594578690E+03  0.45726728641E+03  0.00000000000E+00 0. -1.
          3    1    1    2  501    0 -0.92599871815E+01 -0.40920201936E+02  0.19699133293E+03  0.20140952197E+03  0.00000000000E+00 0.  1.
<scales pt_clust_3="32.14623" pt_clust_4="14000.00000" pt_clust_5="91.74717" pt_clust_6="41.83866"></scales>
<clustering>
<clus scale="   32.146">  2  3  1 -1</clus>
<clus scale="   41.839">  1  6  2 -1</clus>
<clus scale="   91.747">  2  5  1 -1</clus>
<clus scale="   32.146">  2  3  1 -1</clus>
</clustering>
</event>
<event>
 6    0  0.4081161E+002  0.2151558E+03  0.7546771E-02  0.1137547E+00
         21   -1    0    0  501  502  0.00000000000E+00  0.00000000000E+00  0.81683127379E+03  0.81683127379E+03  0.00000000000E+00 0.  1.
          2   -1    0    0  504    0 -0.00000000000E+00 -0.00000000000E+00 -0.14716588650E+04  0.14716588650E+04  0.00000000000E+00 0.  1.
         21    1    1    2  503  502 -0.49765719544E+02 -0.81939723074E+02  0.64895364719E+03  0.65599663205E+03  0.00000000000E+00 0.  1.
         21    1    1    2  504  505  0.19479576267E+02  0.67624506253E+02 -0.18483004851E+03  0.19777430209E+03  0.00000000000E+00 0.  1.
         21    1    1    2  505  503 -0.53974185122E+02 -0.11951687200E+03  0.12475353193E+03  0.18099983172E+03  0.00000000000E+00 0.  1.
          2    1    1    2  501    0  0.84260328399E+02  0.13383208882E+03 -0.12437047219E+04  0.12537193730E+04  0.00000000000E+00 0.  1.
<scales pt_clust_3="95.68160" pt_clust_4="70.37420" pt_clust_5="215.15584" pt_clust_6="14000.00000"></scales>
<clustering>
<clus scale="   70.374">  2  4  1 -1</clus>
<clus scale="   95.682">  1  3  2 -1</clus>
<clus scale="  215.156">  1  5  2 -1</clus>
<clus scale="   95.682">  1  3  2 -1</clus>
</clustering>
</event>
<event>
 6    0  0.4081161E+002  0.9070095E+02  0.7546771E-02  0.1301163E+00
          2   -1    0    0  505    0 -0.00000000000E+00  0.00000000000E+00  0.98265814306E+03  0.98265814306E+03  0.00000000000E+00 0. -1.
         21   -1    0    0  504  502  0.00000000000E+00 -0.00000000000E+00 -0.27583494821E+03  0.27583494821E+03  0.00000000000E+00 0. -1.
         21    1    1    2  503  502  0.16303048972E+02 -0.25449924545E+02 -0.93398538958E+01  0.31634173546E+02  0.00000000000E+00 0.  1.
         21    1    1    2  504  501 -0.20768481776E+01 -0.65159508700E+02 -0.23053592570E+03  0.23957647612E+03  0.00000000000E+00 0. -1.
         21    1    1    2  505  503 -0.14721622098E+02 -0.55969088274E+02  0.43842202472E+02  0.72604433177E+02  0.00000000000E+00 0.  1.
          2    1    1    2  501    0  0.49542130317E+00  0.14657852152E+03  0.90285677197E+03  0.91467800843E+03  0.00000000000E+00 0. -1.
<scales pt_clust_3="30.22397" pt_clust_4="90.70095" pt_clust_5="59.03874" pt_clust_6="14000.00000"></scales>
<clustering>
<clus scale="   30.224">  2  3  1 -1</clus>
<clus scale="   59.039">  1  5  2 -1</clus>
<clus scale="   90.701">  2  4  1 -1</clus>
<clus scale="   30.224">  2  3  1 -1</clus>
</clustering>
</event>
<event>
 6    0  0.4081161E+002  0.1683455E+03  0.7546771E-02  0.1179584E+00
         21   -1    0    0  504  502  0.00000000000E+00  0.00000000000E+00  0.42501052631E+02  0.42501052631E+02  0.00000000000E+00 0. -1.
          1   -1    0    0  503    0 -0.00000000000E+00 -0.00000000000E+00 -0.17449412248E+04  0.17449412248E+04  0.00000000000E+00 0. -1.
         21    1    1    2  503  502  0.14816335986E+03 -0.13811258185E+03 -0.30488440976E+03  0.36603547613E+03  0.00000000000E+00 0. -1.
         21    1    1    2  504  505 -0.35400704663E+02  0.30588894502E+02 -0.71282001096E+02  0.85264377308E+02  0.00000000000E+00 0. -1.
         21    1    1    2  505  501 -0.49417618093E+02  0.58606255421E+02 -0.47883627694E+03  0.48493398959E+03  0.00000000000E+00 0. -1.
          1    1    1    2  501    0 -0.63345037101E+02  0.48917431926E+02 -0.84743748434E+03  0.85120843437E+03  0.00000000000E+00 0. -1.
<scales pt_clust_3="162.30368" pt_clust_4="46.78558" pt_clust_5="43.74363" pt_clust_6="43.74363"></scales>
<clustering>
<clus scale="   43.744">  5  6 -1 -1</clus>
<clus scale="   46.786">  1  4  2 -1</clus>
<clus scale="  162.304">  1  3  2 -1</clus>
<clus scale="   46.786">  1  3  2 -1</clus>
</clustering>
</event>
<event>
 6    0  0.4081161E+002  0.1141544E+03  0.7546771E-02  0.1253064E+00
          2   -1    0    0  503    0 -0.00000000000E+00  0.00000000000E+00  0.54131010354E+04  0.54131010354E+04  0.00000000000E+00 0.  1.
         21   -1    0    0  504  502  0.00000000000E+00 -0.00000000000E+00 -0.30036380215E+02  0.30036380215E+02  0.00000000000E+00 0.  1.
         21    1    1    2  503  505  0.32497777556E+02  0.13017745066E+02  0.40940764679E+03  0.41090167739E+03  0.00000000000E+00 0. -1.
         21    1    1    2  504  501 -0.46864716861E+02 -0.97830012901E+02  0.14894743526E+03  0.18426163893E+03  0.00000000000E+00 0.  1.
         21    1    1    2  505  502 -0.37714685015E+02  0.17575406536E+02  0.27199468046E+02  0.49710194555E+02  0.00000000000E+00 0.  1.
          2    1    1    2  501    0  0.52081624320E+02  0.67236861298E+02  0.47975101051E+04  0.47982639048E+04  0.00000000000E+00 0.  1.
<scales pt_clust_3="35.00810" pt_clust_4="14000.00000" pt_clust_5="41.42512" pt_clust_6="114.15436"></scales>
<clustering>
<clus scale="   35.008">  1  3  2 -1</clus>
<clus scale="   41.425">  2  5  1 -1</clus>
<clus scale="  114.154">  1  6  2 -1</clus>
<clus scale="   41.425">  2  3  1 -1</clus>
</clustering>
</event>
<event>
 6    0  0.4081161E+002  0.6425546E+02  0.7546771E-02  0.1380794E+00
         21   -1    0    0  501  502  0.00000000000E+00  0.00000000000E+00  0.97275569909E+02  0.97275569909E+02  0.00000000000E+00 0. -1.
          1   -1    0    0  505    0 -0.00000000000E+00 -0.00000000000E+00 -0.28893108458E+04  0.28893108458E+04  0.00000000000E+00 0.  1.
         21    1    1    2  503  502  0.39507332471E+02 -0.11359121407E+02  0.30075410498E+02  0.50935147734E+02  0.00000000000E+00 0. -1.
         21    1    1    2  504  503 -0.87598393382E+02  0.19082106230E+02  0.18248843226E+02  0.91491122959E+02  0.00000000000E+00 0. -1.
         21    1    1    2  505  504  0.12632493421E+02  0.55601030949E+02 -0.62040632819E+03  0.62302091987E+03  0.00000000000E+00 0.  1.
          1    1    1    2  501    0  0.35458567490E+02 -0.63324015772E+02 -0.22199532014E+04  0.22211392251E+04  0.00000000000E+00 0.  1.
<scales pt_clust_3="41.10789" pt_clust_4="50.07352" pt_clust_5="14000.00000" pt_clust_6="64.25546"></scales>
<clustering>
<clus scale="   41.108">  1  3  2 -1</clus>
<clus scale="   50.074">  1  4  2 -1</clus>
<clus scale="   64.255">  2  6  1 -1</clus>
<clus scale="   41.108">  1  3  2 -1</clus>
</clustering>
</event>
<event>
 6    0  0.4081161E+002  0.1323637E+03  0.7546771E-02  0.1223990E+00
         21   -1    0    0  504  502  0.00000000000E+00  0.00000000000E+00  0.14042033327E+03  0.14042033327E+03  0.00000000000E+00 0. -1.
          2   -1    0    0  505    0 -0.00000000000E+00 -0.00000000000E+00 -0.13486141973E+04  0.13486141973E+04  0.00000000000E+00 0.  1.
         21    1    1    2  503  502 -0.44565190920E+02  0.19079012746E+02  0.90412825410E+00  0.48485899157E+02  0.00000000000E+00 0.  1.
         21    1    1    2  504  501 -0.35652339997E+02 -0.12300576073E+03  0.70066774568E+02  0.14598239421E+03  0.00000000000E+00 0. -1.
         21    1    1    2  505  503 -0.32131220863E+02 -0.97336736161E+01 -0.36465107874E+03  0.36619334918E+03  0.00000000000E+00 0. -1.
          2    1    1    2  501    0  0.11234875178E+03  0.11366042160E+03 -0.91451368811E+03  0.92837288802E+03  0.00000000000E+00 0.  1.
<scales pt_clust_3="49.10230" pt_clust_4="14000.00000" pt_clust_5="33.57320" pt_clust_6="132.36372"></scales>
<clustering>
<clus scale="   33.573">  2  5  1 -1</clus>
<clus scale="   49.102">  1  3  2 -1</clus>
<clus scale="  132.364">  2  6  1 -1</clus>
<clus scale="   49.102">  1  3  2 -1</clus>
</clustering>
</event>
<event>
 6    0  0.4081161E+002  0.1354346E+03  0.7546771E-02  0.1219608E+00
         21   -1    0    0  504  502  0.00000000000E+00  0.00000000000E+00  0.10818911817E+03  0.10818911817E+03  0.00000000000E+00 0. -1.
          1   -1    0    0  505    0 -0.00000000000E+00 -0.00000000000E+00 -0.12884112482E+04  0.12884112482E+04  0.00000000000E+00 0. -1.
         21    1    1    2  503  502 -0.11337127322E+03  0.69739679054E+02 -0.26071752750E+02  0.13563334663E+03  0.00000000000E+00 0. -1.
         21    1    1    2  504  501  0.22686006494E+02 -0.17557904655E+03 -0.12753588294E+03  0.21819270820E+03  0.00000000000E+00 0. -1.
         21    1    1    2  505  503 -0.20526457074E+02  0.31423140579E+02 -0.10522185034E+03  0.11171565240E+03  0.00000000000E+00 0. -1.
          1    1    1    2  501    0  0.11121172380E+03  0.74416226914E+02 -0.92139264398E+03  0.93105865912E+03  0.00000000000E+00 0. -1.
<scales pt_clust_3="135.43459" pt_clust_4="134.64759" pt_clust_5="37.53331" pt_clust_6="14000.00000"></scales>
<clustering>
<clus scale="   37.533">  2  5  1 -1</clus>
<clus scale="  135.435">  1  3  2 -1</clus>
<clus scale="  134.648">  1  4  2 -1</clus>
<clus scale="  135.435">  1  3  2 -1</clus>
</clustering>
</event>
<event>
 6    0  0.4081161E+002  0.9060346E+02  0.7546771E-02  0.1301397E+00
         21   -1    0    0  504  502  0.00000000000E+00  0.00000000000E+00  0.26641579204E+02  0.26641579204E+02  0.00000000000E+00 0.  1.
          1   -1    0    0  505    0 -0.00000000000E+00 -0.00000000000E+00 -0.12296244846E+04  0.12296244846E+04  0.00000000000E+00 0.  1.
         21    1    1    2  503  501 -0.22367287272E+02  0.53791676146E+02 -0.24169724093E+03  0.24861897803E+03  0.00000000000E+00 0.  1.
         21    1    1    2  504  503  0.52238025876E+02 -0.10012836862E+03 -0.14948164173E+03  0.18734797241E+03  0.00000000000E+00 0.  1.
         21    1    1    2  505  502  0.32163439260E+02  0.17755024564E+02 -0.13027898499E+03  0.13536004452E+03  0.00000000000E+00 0. -1.
          1    1    1    2  501    0 -0.62034177864E+02  0.28581667910E+02 -0.68152503771E+03  0.68493906881E+03  0.00000000000E+00 0.  1.
<scales pt_clust_3="90.60346" pt_clust_4="14000.00000" pt_clust_5="36.73864" pt_clust_6="57.75255"></scales>
<clustering>
<clus scale="   36.739">  2  5  1 -1</clus>
<clus scale="   57.753">  2  6  1 -1</clus>
<clus scale="   90.603">  2  3  1 -1</clus>
<clus scale="   90.603">  1  3  2 -1</clus>
</clustering>
</event>
<event>
 6    0  0.4081161E+002  0.7830891E+02  0.7546771E-02  0.1333920E+00
         -2   -1    0    0    0  501 -0.00000000000E+00  0.00000000000E+00  0.15875782719E+03  0.15875782719E+03  0.00000000000E+00 0.  1.
         21   -1    0    0  505  502  0.00000000000E+00 -0.00000000000E+00 -0.65965052155E+03  0.65965052155E+03  0.00000000000E+00 0. -1.
         21    1    1    2  503  501 -0.35200500727E+02 -0.22055563144E+02  0.91024974205E+01  0.42525034701E+02  0.00000000000E+00 0.  1.
         21    1    1    2  504  502  0.23847237016E+02 -0.62846912160E+02  0.20474325638E+02  0.70268222488E+02  0.00000000000E+00 0.  1.
         21    1    1    2  505  503 -0.48890405476E+02  0.62190527382E+02 -0.60326707722E+03  0.60843167234E+03  0.00000000000E+00 0. -1.
         -2    1    1    2    0  504  0.60243669187E+02  0.22711947922E+02  0.72797559806E+02  0.97183419209E+02  0.00000000000E+00 0.  1.
<scales pt_clust_3="41.53942" pt_clust_4="78.30891" pt_clust_5="14000.00000" pt_clust_6="38.71027"></scales>
<clustering>
<clus scale="   41.539">  1  3  2 -1</clus>
<clus scale="   38.710">  1  6  2 -1</clus>
<clus scale="   78.309">  1  4  2 -1</clus>
<clus scale="   78.309">  2  3  1 -1</clus>
</clustering>
</event>
<event>
 6    0  0.4081161E+002  0.1351949E+03  0.7546771E-02  0.1219945E+00
         21   -1    0    0  505  502  0.00000000000E+00  0.00000000000E+00  0.97253749030E+03  0.97253749030E+03  0.00000000000E+00 0. -1.
          2   -1    0    0  504    0 -0.00000000000E+00 -0.00000000000E+00 -0.46203923411E+03  0.46203923411E+03  0.00000000000E+00 0.  1.
         21    1    1    2  503  502  0.40857474713E+02 -0.15291962196E+03 -0.52285982280E+02  0.16669603464E+03  0.00000000000E+00 0.  1.
         21    1    1    2  504  503 -0.34465409777E+02 -0.50993174740E+01 -0.64543270595E+02  0.73346447009E+02  0.00000000000E+00 0.  1.
         21    1    1    2  505  501  0.44745266462E+02  0.12772638456E+03  0.90271606506E+03  0.91280472298E+03  0.00000000000E+00 0. -1.
          2    1    1    2  501    0 -0.51137331399E+02  0.30292554873E+02 -0.27538855599E+03  0.28172951978E+03  0.00000000000E+00 0.  1.
<scales pt_clust_3="135.19491" pt_clust_4="34.84060" pt_clust_5="14000.00000" pt_clust_6="80.13223"></scales>
<clustering>
<clus scale="   34.841">  2  4  1 -1</clus>
<clus scale="   80.132">  2  6  1 -1</clus>
<clus scale="  135.195">  2  3  1 -1</clus>
<clus scale="  135.195">  1  3  2 -1</clus>
</clustering>
</event>
<event>
 6    0  0.4081161E+002  0.9312050E+02  0.7546771E-02  0.1295466E+00
         21   -1    0    0  504  502  0.00000000000E+00  0.00000000000E+00  0.10137915048E+03  0.10137915048E+03  0.00000000000E+00 0. -1.
          1   -1    0    0  503    0 -0.00000000000E+00 -0.00000000000E+00 -0.12978512006E+04  0.12978512006E+04  0.00000000000E+00 0. -1.
         21    1    1    2  503  505  0.88966838496E+02 -0.11735866201E+02 -0.17363660186E+03  0.19545459425E+03  0.00000000000E+00 0. -1.
         21    1    1    2  504  501 -0.71790587965E+02 -0.24260811283E+01  0.54052742805E+02  0.89897015494E+02  0.00000000000E+00 0. -1.
         21    1    1    2  505  502  0.69552886873E+02  0.56855706838E+02 -0.10932961303E+03  0.14150314398E+03  0.00000000000E+00 0. -1.
          1    1    1    2  501    0 -0.86729137404E+02 -0.42693759509E+02 -0.96755857804E+03  0.97237559734E+03  0.00000000000E+00 0. -1.
<scales pt_clust_3="14000.00000" pt_clust_4="71.83157" pt_clust_5="63.24637" pt_clust_6="93.12050"></scales>
<clustering>
<clus scale="   71.832">  1  4  2 -1</clus>
<clus scale="   63.246">  1  5  2 -1</clus>
<clus scale="   93.120">  2  6  1 -1</clus>
<clus scale="   71.832">  1  3  2 -1</clus>
</clustering>
</event>
<event>
 6    0  0.4081161E+002  0.6989850E+02  0.7546771E-02  0.1360439E+00
          2   -1    0    0  505    0 -0.00000000000E+00  0.00000000000E+00  0.39750170808E+03  0.39750170808E+03  0.00000000000E+00 0.  1.
         21   -1    0    0  503  502  0.00000000000E+00 -0.00000000000E+00 -0.40319926271E+03  0.40319926271E+03  0.00000000000E+00 0.  1.
         21    1    1    2  503  504  0.45297482589E+02  0.55836744647E+02 -0.25978729416E+03  0.26955341250E+03  0.00000000000E+00 0.  1.
         21    1    1    2  504  501 -0.88425881089E+02  0.59598000806E+00 -0.11597100042E+03  0.14583814514E+03  0.00000000000E+00 0.  1.
         21    1    1    2  505  502  0.17876739810E+01 -0.64697176897E+02  0.24086885978E+03  0.24941276649E+03  0.00000000000E+00 0.  1.
          2    1    1    2  501    0  0.41340724518E+02  0.82644522419E+01  0.12919188017E+03  0.13589664667E+03  0.00000000000E+00 0.  1.
<scales pt_clust_3="14000.00000" pt_clust_4="69.89850" pt_clust_5="69.69731" pt_clust_6="42.15871"></scales>
<clustering>
<clus scale="   42.159">  1  6  2 -1</clus>
<clus scale="   69.697">  1  5  2 -1</clus>
<clus scale="   69.898">  1  4  2 -1</clus>
<clus scale="   69.898">  2  3  1 -1</clus>
</clustering>
</event>
<event>
 6    0  0.4081161E+002  0.1087877E+03  0.7546771E-02  0.1262831E+00
          2   -1    0    0  502    0 -0.00000000000E+00  0.00000000000E+00  0.21832719714E+04  0.21832719714E+04  0.00000000000E+00 0.  1.
         21   -1    0    0  504  502  0.00000000000E+00 -0.00000000000E+00 -0.18432512559E+03  0.18432512559E+03  0.00000000000E+00 0.  1.
         21    1    1    2  503  505  0.62724752735E+02 -0.90005387613E+02 -0.58351534261E+02  0.12425886671E+03  0.00000000000E+00 0.  1.
         21    1    1    2  504  503 -0.49137107723E+02 -0.91135196464E+01 -0.84825402876E+02  0.98452326376E+02  0.00000000000E+00 0.  1.
         21    1    1    2  505  501 -0.16559579834E+02  0.40388702513E+02  0.57286705954E+03  0.57452774945E+03  0.00000000000E+00 0.  1.
          2    1    1    2  501    0  0.29719348230E+01  0.58730204746E+02  0.15692567234E+04  0.15703581545E+04  0.00000000000E+00 0.  1.
<scales pt_clust_3="100.01357" pt_clust_4="49.97511" pt_clust_5="36.87750" pt_clust_6="36.87750"></scales>
<clustering>
<clus scale="   36.878">  5  6 -1 -1</clus>
<clus scale="   49.975">  2  4  1 -1</clus>
<clus scale="  100.014">  2  3  1 -1</clus>
<clus scale="   49.975">  2  3  1 -1</clus>
</clustering>
</event>
<event>
 6    0  0.4081161E+002  0.9181361E+02  0.7546771E-02  0.1298518E+00
          2   -1    0    0  505    0 -0.00000000000E+00  0.00000000000E+00  0.18215991946E+04  0.18215991946E+04  0.00000000000E+00 0.  1.
         21   -1    0    0  501  502  0.00000000000E+00 -0.00000000000E+00 -0.24525139218E+03  0.24525139218E+03  0.00000000000E+00 0.  1.
         21    1    1    2  503  502 -0.32754333882E+02  0.53571011099E+01 -0.12762609872E+03  0.13187102030E+03  0.00000000000E+00 0.  1.
         21    1    1    2  504  503  0.88351664786E+02 -0.83505732393E+02 -0.66503663223E+02  0.13857114142E+03  0.00000000000E+00 0.  1.
         21    1    1    2  505  504 -0.72852861403E+02  0.15155361612E+02  0.99969074028E+02  0.12462359392E+03  0.00000000000E+00 0.  1.
          2    1    1    2  501    0  0.17255530500E+02  0.62993269672E+02  0.16705084903E+04  0.16717848311E+04  0.00000000000E+00 0.  1.
<scales pt_clust_3="33.18953" pt_clust_4="14000.00000" pt_clust_5="91.81361" pt_clust_6="65.29489"></scales>
<clustering>
<clus scale="   33.190">  2  3  1 -1</clus>
<clus scale="   65.295">  1  6  2 -1</clus>
<clus scale="   91.814">  1  5  2 -1</clus>
<clus scale="   33.190">  2  3  1 -1</clus>
</clustering>
</event>
<event>
 6    0  0.4081161E+002  0.8444143E+02  0.7546771E-02  0.1316900E+00
          2   -1    0    0  505    0 -0.00000000000E+00  0.00000000000E+00  0.20147588898E+04  0.20147588898E+04  0.00000000000E+00 0. -1.
         21   -1    0    0  504  502  0.00000000000E+00 -0.00000000000E+00 -0.35526277773E+03  0.35526277773E+03  0.00000000000E+00 0.  1.
         21    1    1    2  503  502  0.74149120319E+02 -0.54164085748E+02 -0.30307844943E+03  0.31668341721E+03  0.00000000000E+00 0.  1.
         21    1    1    2  504  501 -0.45399775996E+02  0.39227054161E+02 -0.17021591135E+02  0.62366946401E+02  0.00000000000E+00 0.  1.
         21    1    1    2  505  503  0.42567341430E+02 -0.12301009365E+02  0.94951484998E+02  0.10478109510E+03  0.00000000000E+00 0.  1.
          2    1    1    2  501    0 -0.71316685753E+02  0.27238040953E+02  0.18846446677E+04  0.18861902088E+04  0.00000000000E+00 0. -1.
<scales pt_clust_3="84.44143" pt_clust_4="14000.00000" pt_clust_5="44.30907" pt_clust_6="33.06714"></scales>
<clustering>
<clus scale="   44.309">  1  5  2 -1</clus>
<clus scale="   33.067">  1  6  2 -1</clus>
<clus scale="   84.441">  2  3  1 -1</clus>
<clus scale="   84.441">  2  3  1 -1</clus>
</clustering>
</event>
<event>
 6    0  0.4081161E+002  0.9775218E+02  0.7546771E-02  0.1285095E+00
          2   -1    0    0  503    0 -0.00000000000E+00  0.00000000000E+00  0.66567136130E+03  0.66567136130E+03  0.00000000000E+00 0. -1.
         21   -1    0    0  504  502  0.00000000000E+00 -0.00000000000E+00 -0.18029774402E+03  0.18029774402E+03  0.00000000000E+00 0. -1.
         21    1    1    2  503  505 -0.58974010756E+01 -0.41100161245E+02  0.13377822595E+03  0.14007361041E+03  0.00000000000E+00 0. -1.
         21    1    1    2  504  501  0.48841506335E+02  0.56494635192E+02 -0.97076035703E+02  0.12247813378E+03  0.00000000000E+00 0. -1.
         21    1    1    2  505  502 -0.10200444101E+03  0.32054778371E+02 -0.19902015203E+02  0.10875893072E+03  0.00000000000E+00 0. -1.
          2    1    1    2  501    0  0.59060335748E+02 -0.47449252318E+02  0.46857344222E+03  0.47465843041E+03  0.00000000000E+00 0. -1.
<scales pt_clust_3="41.52111" pt_clust_4="73.84269" pt_clust_5="14000.00000" pt_clust_6="97.75218"></scales>
<clustering>
<clus scale="   41.521">  1  3  2 -1</clus>
<clus scale="   73.843">  2  4  1 -1</clus>
<clus scale="   97.752">  1  6  2 -1</clus>
<clus scale="   73.843">  2  3  1 -1</clus>
</clustering>
</event>
<event>
 6    0  0.4081161E+002  0.1115940E+03  0.7546771E-02  0.1257646E+00
          2   -1    0    0  505    0 -0.00000000000E+00  0.00000000000E+00  0.33540387631E+04  0.33540387631E+04  0.00000000000E+00 0.  1.
         21   -1    0    0  503  502  0.00000000000E+00 -0.00000000000E+00 -0.55383320402E+02  0.55383320402E+02  0.00000000000E+00 0.  1.
         21    1    1    2  503  501  0.52391252613E+02 -0.23152108807E+02  0.16464356207E+03  0.17432259183E+03  0.00000000000E+00 0.  1.
         21    1    1    2  504  502 -0.15918989647E+03  0.60362032578E+02  0.98135547143E+02  0.19650848258E+03  0.00000000000E+00 0.  1.
         21    1    1    2  505  504  0.17406995035E+02 -0.27210526837E+02  0.12847481477E+04  0.12851541617E+04  0.00000000000E+00 0.  1.
          2    1    1    2  501    0  0.89391648817E+02 -0.99993969343E+01  0.17511281858E+04  0.17534368474E+04  0.00000000000E+00 0.  1.
<scales pt_clust_3="59.50188" pt_clust_4="111.59405" pt_clust_5="32.30195" pt_clust_6="14000.00000"></scales>
<clustering>
<clus scale="   32.302">  1  5  2 -1</clus>
<clus scale="   59.502">  2  3  1 -1</clus>
<clus scale="  111.594">  2  4  1 -1</clus>
<clus scale="   59.502">  2  3  1 -1</clus>
</clustering>
</event>
<event>
 6    0  0.4081161E+002  0.8713058E+02  0.7546771E-02  0.1309953E+00
         21   -1    0    0  504  502  0.00000000000E+00  0.00000000000E+00  0.25865247339E+03  0.25865247339E+03  0.00000000000E+00 0. -1.
          2   -1    0    0  503    0 -0.00000000000E+00 -0.00000000000E+00 -0.15500855344E+04  0.15500855344E+04  0.00000000000E+00 0. -1.
         21    1    1    2  503  502  0.48457022081E+02  0.39541252175E+02 -0.53795940616E+03  0.54158278803E+03  0.00000000000E+00 0. -1.
         21    1    1    2  504  505 -0.32729217488E+02  0.48151763895E+02  0.20015988534E+03  0.20845568772E+03  0.00000000000E+00 0. -1.
         21    1    1    2  505  501 -0.56673523678E+02 -0.27798143563E+02  0.31742834939E+02  0.70655733253E+02  0.00000000000E+00 0. -1.
          2    1    1    2  501    0  0.40945719085E+02 -0.59894872506E+02 -0.98537637518E+03  0.98804379884E+03  0.00000000000E+00 0. -1.
<scales pt_clust_3="62.74205" pt_clust_4="58.22194" pt_clust_5="14000.00000" pt_clust_6="87.13058"></scales>
<clustering>
<clus scale="   58.222">  1  4  2 -1</clus>
<clus scale="   62.742">  2  3  1 -1</clus>
<clus scale="   87.131">  2  6  1 -1</clus>
<clus scale="   58.222">  1  3  2 -1</clus>
</clustering>
</event>
<event>
 6    0  0.4081161E+002  0.9167510E+02  0.7546771E-02  0.1298845E+00
         21   -1    0    0  503  502  0.00000000000E+00  0.00000000000E+00  0.68545568701E+03  0.68545568701E+03  0.00000000000E+00 0.  1.
          2   -1    0    0  504    0 -0.00000000000E+00 -0.00000000000E+00 -0.22315073907E+03  0.22315073907E+03  0.00000000000E+00 0. -1.
         21    1    1    2  503  505  0.28695445359E+02  0.67893707876E+02  0.61629718734E+03  0.62068930011E+03  0.00000000000E+00 0.  1.
         21    1    1    2  504  502  0.53600380478E+02 -0.79767850701E+02  0.12422672228E+02  0.96903217584E+02  0.00000000000E+00 0.  1.
         21    1    1    2  505  501 -0.37028000367E+02  0.18442180779E+02 -0.44289050205E+02  0.60602861410E+02  0.00000000000E+00 0.  1.
          2    1    1    2  501    0 -0.45267825470E+02 -0.65680379533E+01 -0.12212586142E+03  0.13041104698E+03  0.00000000000E+00 0. -1.
<scales pt_clust_3="73.70878" pt_clust_4="80.78077" pt_clust_5="41.21990" pt_clust_6="41.21990"></scales>
<clustering>
<clus scale="   41.220">  5  6 -1 -1</clus>
<clus scale="   73.709">  1  3  2 -1</clus>
<clus scale="   80.781">  1  4  2 -1</clus>
<clus scale="   73.709">  1  3  2 -1</clus>
</clustering>
</event>
<event>
 6    0  0.4081161E+002  0.7510353E+02  0.7546771E-02  0.1343551E+00
         21   -1    0    0  503  502  0.00000000000E+00  0.00000000000E+00  0.39880718961E+03  0.39880718961E+03  0.00000000000E+00 0.  1.
          3   -1    0    0  504    0 -0.00000000000E+00 -0.00000000000E+00 -0.87102950157E+02  0.87102950157E+02  0.00000000000E+00 0. -1.
         21    1    1    2  503  501 -0.36749996776E+02 -0.45311509562E+02  0.50757473902E+02  0.77330565229E+02  0.00000000000E+00 0. -1.
         21    1    1    2  504  505  0.39031368350E+02  0.20954025531E+02  0.35052953062E+02  0.56490958742E+02  0.00000000000E+00 0. -1.
         21    1    1    2  505  502  0.59460973592E+02  0.58574928422E+02  0.26044770186E+03  0.27349521939E+03  0.00000000000E+00 0.  1.
          3    1    1    2  501    0 -0.61742345166E+02 -0.34217444391E+02 -0.34553889381E+02  0.78593396405E+02  0.00000000000E+00 0. -1.
<scales pt_clust_3="14000.00000" pt_clust_4="44.30033" pt_clust_5="75.10353" pt_clust_6="37.78453"></scales>
<clustering>
<clus scale="   44.300">  2  4  1 -1</clus>
<clus scale="   37.785">  2  6  1 -1</clus>
<clus scale="   75.104">  1  5  2 -1</clus>
<clus scale="   75.104">  1  3  2 -1</clus>
</clustering>
</event>
<event>
 6    0  0.4081161E+002  0.8148821E+02  0.7546771E-02  0.1324880E+00
          1   -1    0    0  503    0 -0.00000000000E+00  0.00000000000E+00  0.42548745011E+03  0.42548745011E+03  0.00000000000E+00 0. -1.
         21   -1    0    0  505  502  0.00000000000E+00 -0.00000000000E+00 -0.16423430757E+04  0.16423430757E+04  0.00000000000E+00 0. -1.
         21    1    1    2  503  504 -0.67804461857E+02 -0.21959902916E+02  0.24091452628E+03  0.25123592768E+03  0.00000000000E+00 0. -1.
         21    1    1    2  504  502  0.11337844642E+02 -0.41176790577E+02 -0.28821025229E+03  0.29135755410E+03  0.00000000000E+00 0. -1.
         21    1    1    2  505  501 -0.75833522061E+02  0.47953921895E+02 -0.13207314904E+04  0.13237756499E+04  0.00000000000E+00 0. -1.
          1    1    1    2  501    0  0.13230013928E+03  0.15182771598E+02  0.15117159086E+03  0.20146139404E+03  0.00000000000E+00 0. -1.
<scales pt_clust_3="81.48821" pt_clust_4="42.70919" pt_clust_5="65.20592" pt_clust_6="14000.00000"></scales>
<clustering>
<clus scale="   42.709">  2  4  1 -1</clus>
<clus scale="   65.206">  2  5  1 -1</clus>
<clus scale="   81.488">  1  3  2 -1</clus>
<clus scale="   42.709">  2  3  1 -1</clus>
</clustering>
</event>
<event>
 6    0  0.4081161E+002  0.1198189E+03  0.7546771E-02  0.1243396E+00
         21   -1    0    0  505  502  0.00000000000E+00  0.00000000000E+00  0.27266892554E+03  0.27266892554E+03  0.00000000000E+00 0.  1.
          2   -1    0    0  503    0 -0.00000000000E+00 -0.00000000000E+00 -0.12283587066E+04  0.12283587066E+04  0.00000000000E+00 0. -1.
         21    1    1    2  503  504 -0.54278653472E+02  0.23559737395E+02 -0.20237556172E+03  0.21084852722E+03  0.00000000000E+00 0.  1.
         21    1    1    2  504  502  0.11320344548E+03 -0.37791906988E+02  0.19073799430E+03  0.22499829060E+03  0.00000000000E+00 0.  1.
         21    1    1    2  505  501 -0.18268531959E+02 -0.38124910444E+02  0.51948385060E+02  0.66976733024E+02  0.00000000000E+00 0.  1.
          2    1    1    2  501    0 -0.40656260047E+02  0.52357080037E+02 -0.99600059872E+03  0.99820408132E+03  0.00000000000E+00 0. -1.
<scales pt_clust_3="59.20853" pt_clust_4="119.81888" pt_clust_5="42.27586" pt_clust_6="14000.00000"></scales>
<clustering>
<clus scale="   42.276">  1  5  2 -1</clus>
<clus scale="   59.209">  2  3  1 -1</clus>
<clus scale="  119.819">  1  4  2 -1</clus>
<clus scale="   42.276">  1  3  2 -1</clus>
</clustering>
</event>
<event>
 6    0  0.4081161E+002  0.9758542E+02  0.7546771E-02  0.1285457E+00
         21   -1    0    0  503  502  0.00000000000E+00  0.00000000000E+00  0.11623530457E+04  0.11623530457E+04  0.00000000000E+00 0.  1.
          1   -1    0    0  505    0 -0.00000000000E+00 -0.00000000000E+00 -0.60264108507E+02  0.60264108507E+02  0.00000000000E+00 0. -1.
         21    1    1    2  503  504  0.30816634542E+02  0.14928035134E+02  0.22040766164E+03  0.22305167228E+03  0.00000000000E+00 0.  1.
         21    1    1    2  504  501 -0.80198863846E+02 -0.19655016594E+02  0.42287756723E+02  0.92770856459E+02  0.00000000000E+00 0. -1.
         21    1    1    2  505  502  0.70444280447E+02 -0.42685129028E+02  0.84988293745E+03  0.85386499182E+03  0.00000000000E+00 0.  1.
          1    1    1    2  501    0 -0.21062051144E+02  0.47412110488E+02 -0.10489418586E+02  0.52929633681E+02  0.00000000000E+00 0. -1.
<scales pt_clust_3="34.24195" pt_clust_4="14000.00000" pt_clust_5="97.58542" pt_clust_6="51.91111"></scales>
<clustering>
<clus scale="   34.242">  1  3  2 -1</clus>
<clus scale="   51.911">  2  6  1 -1</clus>
<clus scale="   97.585">  1  5  2 -1</clus>
<clus scale="   34.242">  1  3  2 -1</clus>
</clustering>
</event>
<event>
 6    0  0.4081161E+002  0.1334962E+03  0.7546771E-02  0.1222358E+00
         -4   -1    0    0    0  501 -0.00000000000E+00  0.00000000000E+00  0.10436614401E+03  0.10436614401E+03  0.00000000000E+00 0.  1.
         21   -1    0    0  503  502  0.00000000000E+00 -0.00000000000E+00 -0.34500214938E+03  0.34500214938E+03  0.00000000000E+00 0.  1.
         21    1    1    2  503  504  0.13000622256E+02 -0.29858507352E+02 -0.79653412287E+02  0.86053545711E+02  0.00000000000E+00 0. -1.
         21    1    1    2  504  501 -0.72598195459E+02  0.12607796249E+03 -0.18304660187E+03  0.23382089100E+03  0.00000000000E+00 0.  1.
         21    1    1    2  505  502  0.19040093926E+02 -0.44022647064E+02 -0.19095596154E+02  0.51625191755E+02  0.00000000000E+00 0. -1.
         -4    1    1    2    0  505  0.40557479277E+02 -0.52196808070E+02  0.41159604940E+02  0.77868664923E+02  0.00000000000E+00 0.  1.
<scales pt_clust_3="32.56604" pt_clust_4="119.78922" pt_clust_5="51.58330" pt_clust_6="51.58330"></scales>
<clustering>
<clus scale="   32.566">  2  3  1 -1</clus>
<clus scale="   51.583">  5  6 -1 -1</clus>
<clus scale="  119.789">  2  4  1 -1</clus>
<clus scale="   32.566">  2  3  1 -1</clus>
</clustering>
</event>
<event>
 6    0  0.4081161E+002  0.1630939E+03  0.7546771E-02  0.1185247E+00
          2   -1    0    0  502    0 -0.00000000000E+00  0.00000000000E+00  0.20781705468E+04  0.20781705468E+04  0.00000000000E+00 0.  1.
         21   -1    0    0  504  502  0.00000000000E+00 -0.00000000000E+00 -0.67221062801E+02  0.67221062801E+02  0.00000000000E+00 0.  1.
         21    1    1    2  503  501 -0.55068600765E+02  0.15035490074E+02  0.32976153069E+03  0.33466592876E+03  0.00000000000E+00 0.  1.
         21    1    1    2  504  505 -0.42952878677E+02  0.24649253805E+02 -0.36232072001E+02  0.61362028497E+02  0.00000000000E+00 0.  1.
         21    1    1    2  505  503  0.17999618293E+03 -0.16804188504E+02  0.55217845559E+03  0.58101811799E+03  0.00000000000E+00 0.  1.
          2    1    1    2  501    0 -0.81974703485E+02 -0.22880555375E+02  0.11652415697E+04  0.11683455343E+04  0.00000000000E+00 0.  1.
<scales pt_clust_3="61.02321" pt_clust_4="49.52308" pt_clust_5="146.39961" pt_clust_6="61.02321"></scales>
<clustering>
<clus scale="   49.523">  2  4  1 -1</clus>
<clus scale="   61.023">  3  6 -1 -1</clus>
<clus scale="  146.400">  2  5  1 -1</clus>
<clus scale="   49.523">  2  3  1 -1</clus>
</clustering>
</event>
<event>
 6    0  0.4081161E+002  0.2740840E+03  0.7546771E-02  0.1098965E+00
         21   -1    0    0  504  502  0.00000000000E+00  0.00000000000E+00  0.43287296711E+03  0.43287296711E+03  0.00000000000E+00 0.  1.
          2   -1    0    0  505    0 -0.00000000000E+00 -0.00000000000E+00 -0.57445762315E+03  0.57445762315E+03  0.00000000000E+00 0. -1.
         21    1    1    2  503  502 -0.26935311871E+03  0.29398663612E+02  0.32667532014E+03  0.42441977896E+03  0.00000000000E+00 0.  1.
         21    1    1    2  504  501  0.10345835154E+03 -0.28373242844E+02 -0.16705301193E+03  0.19853307082E+03  0.00000000000E+00 0.  1.
         21    1    1    2  505  503  0.90690585756E+02 -0.39883537809E+01 -0.19577754801E+02  0.92865374569E+02  0.00000000000E+00 0.  1.
          2    1    1    2  501    0  0.75204181413E+02  0.29629330127E+01 -0.28162920945E+03  0.29151236593E+03  0.00000000000E+00 0. -1.
<scales pt_clust_3="262.41043" pt_clust_4="66.28537" pt_clust_5="90.77824" pt_clust_6="66.28537"></scales>
<clustering>
<clus scale="   66.285">  4  6 -1 -1</clus>
<clus scale="   90.778">  2  5  1 -1</clus>
<clus scale="  262.410">  1  3  2 -1</clus>
<clus scale="  262.410">  1  3  2 -1</clus>
</clustering>
</event>
<event>
 6    0  0.4081161E+002  0.1259722E+03  0.7546771E-02  0.1233558E+00
         21   -1    0    0  504  502  0.00000000000E+00  0.00000000000E+00  0.47177342851E+03  0.47177342851E+03  0.00000000000E+00 0. -1.
         -2   -1    0    0    0  501 -0.00000000000E+00 -0.00000000000E+00 -0.63392682015E+03  0.63392682015E+03  0.00000000000E+00 0.  1.
         21    1    1    2  503  501  0.34225661147E+02  0.94286198819E+02 -0.21994424251E+03  0.24173694997E+03  0.00000000000E+00 0.  1.
         21    1    1    2  504  503 -0.38404344568E+02  0.33609003341E+02  0.12608916722E+03  0.13602550084E+03  0.00000000000E+00 0.  1.
         21    1    1    2  505  502  0.10980428577E+03  0.14901611270E+02  0.29958472307E+03  0.31942142303E+03  0.00000000000E+00 0. -1.
         -2    1    1    2    0  505 -0.10562560235E+03 -0.14279681343E+03 -0.36788303943E+03  0.40851637482E+03  0.00000000000E+00 0.  1.
<scales pt_clust_3="125.97216" pt_clust_4="51.03390" pt_clust_5="87.61718" pt_clust_6="14000.00000"></scales>
<clustering>
<clus scale="   51.034">  1  4  2 -1</clus>
<clus scale="   87.617">  1  5  2 -1</clus>
<clus scale="  125.972">  2  3  1 -1</clus>
<clus scale="   51.034">  1  3  2 -1</clus>
</clustering>
</event>
<event>
 6    0  0.4081161E+002  0.8306790E+02  0.7546771E-02  0.1320564E+00
         21   -1    0    0  503  502  0.00000000000E+00  0.00000000000E+00  0.20396508811E+03  0.20396508811E+03  0.00000000000E+00 0. -1.
          1   -1    0    0  504    0 -0.00000000000E+00 -0.00000000000E+00 -0.13292743702E+04  0.13292743702E+04  0.00000000000E+00 0. -1.
         21    1    1    2  503  505  0.48287400610E+02 -0.29340386726E+01  0.18703627719E+03  0.19319122813E+03  0.00000000000E+00 0. -1.
         21    1    1    2  504  502 -0.61127358996E+02 -0.91567119301E+02 -0.82285661482E+03  0.83018919525E+03  0.00000000000E+00 0. -1.
         21    1    1    2  505  501 -0.14080317401E+02  0.77806160453E+02 -0.15624537587E+03  0.17511331024E+03  0.00000000000E+00 0.  1.
          1    1    1    2  501    0  0.26920275786E+02  0.16694997521E+02 -0.33324356864E+03  0.33474572474E+03  0.00000000000E+00 0. -1.
<scales pt_clust_3="48.45645" pt_clust_4="83.06790" pt_clust_5="14000.00000" pt_clust_6="31.67687"></scales>
<clustering>
<clus scale="   31.677">  2  6  1 -1</clus>
<clus scale="   48.456">  1  3  2 -1</clus>
<clus scale="   83.068">  2  4  1 -1</clus>
<clus scale="   48.456">  1  3  2 -1</clus>
</clustering>
</event>
<event>
 6    0  0.4081161E+002  0.1130332E+03  0.7546771E-02  0.1255054E+00
          2   -1    0    0  505    0 -0.00000000000E+00  0.00000000000E+00  0.29587749235E+04  0.29587749235E+04  0.00000000000E+00 0.  1.
         21   -1    0    0  501  502  0.00000000000E+00 -0.00000000000E+00 -0.12484598817E+03  0.12484598817E+03  0.00000000000E+00 0. -1.
         21    1    1    2  503  504 -0.34269063549E+02 -0.10115437928E+03 -0.36119034768E+02  0.11274378846E+03  0.00000000000E+00 0. -1.
         21    1    1    2  504  502  0.60232358173E+02 -0.10130032338E+02 -0.29677230374E+02  0.67906498429E+02  0.00000000000E+00 0. -1.
         21    1    1    2  505  503 -0.26298508100E+02  0.21498759319E+02  0.34500454530E+03  0.34667267625E+03  0.00000000000E+00 0. -1.
          2    1    1    2  501    0  0.33521347512E+00  0.89785652297E+02  0.25547206551E+04  0.25562979485E+04  0.00000000000E+00 0.  1.
<scales pt_clust_3="113.03324" pt_clust_4="60.86259" pt_clust_5="33.96775" pt_clust_6="14000.00000"></scales>
<clustering>
<clus scale="   33.968">  1  5  2 -1</clus>
<clus scale="   60.863">  2  4  1 -1</clus>
<clus scale="  113.033">  2  3  1 -1</clus>
<clus scale="   60.863">  2  3  1 -1</clus>
</clustering>
</event>
<event>
 6    0  0.4081161E+002  0.1889513E+03  0.7546771E-02  0.1159411E+00
         21   -1    0    0  504  502  0.00000000000E+00  0.00000000000E+00  0.13870363953E+04  0.13870363953E+04  0.00000000000E+00 0.  1.
          2   -1    0    0  505    0 -0.00000000000E+00 -0.00000000000E+00 -0.51129490974E+03  0.51129490974E+03  0.00000000000E+00 0.  1.
         21    1    1    2  503  502 -0.18787998827E+02 -0.24003030385E+02  0.11972520991E+04  0.11976400641E+04  0.00000000000E+00 0.  1.
         21    1    1    2  504  501  0.54739602578E+02  0.11089509247E+02  0.84848769471E+02  0.10158107593E+03  0.00000000000E+00 0.  1.
         21    1    1    2  505  503  0.40601118774E+02  0.18614040200E+03 -0.52274823284E+02  0.19755849071E+03  0.00000000000E+00 0.  1.
          2    1    1    2  501    0 -0.76552722525E+02 -0.17322688086E+03 -0.35408455980E+03  0.40155167421E+03  0.00000000000E+00 0.  1.
<scales pt_clust_3="30.48171" pt_clust_4="45.50777" pt_clust_5="14000.00000" pt_clust_6="188.95134"></scales>
<clustering>
<clus scale="   30.482">  1  3  2 -1</clus>
<clus scale="   45.508">  1  4  2 -1</clus>
<clus scale="  188.951">  2  6  1 -1</clus>
<clus scale="   30.482">  1  3  2 -1</clus>
</clustering>
</event>
<event>
 6    0  0.4081161E+002  0.2039418E+03  0.7546771E-02  0.1146455E+00
          3   -1    0    0  504    0 -0.00000000000E+00  0.00000000000E+00  0.12381583163E+04  0.12381583163E+04  0.00000000000E+00 0. -1.
         21   -1    0    0  505  502  0.00000000000E+00 -0.00000000000E+00 -0.29364294775E+03  0.29364294775E+03  0.00000000000E+00 0.  1.
         21    1    1    2  503  501  0.65428310159E+02  0.97090149669E+01  0.25787681882E+03  0.26622468411E+03  0.00000000000E+00 0. -1.
         21    1    1    2  504  502 -0.20538954018E+03 -0.53835138029E+02 -0.79714144789E+02  0.22679821467E+03  0.00000000000E+00 0.  1.
         21    1    1    2  505  503  0.98674316409E+01  0.55434651925E+02 -0.12542854234E+03  0.13748703966E+03  0.00000000000E+00 0. -1.
          3    1    1    2  501    0  0.13009379838E+03 -0.11308528863E+02  0.89178123683E+03  0.90129132558E+03  0.00000000000E+00 0. -1.
<scales pt_clust_3="39.93524" pt_clust_4="196.07073" pt_clust_5="56.30601" pt_clust_6="39.93524"></scales>
<clustering>
<clus scale="   39.935">  3  6 -1 -1</clus>
<clus scale="   56.306">  2  5  1 -1</clus>
<clus scale="  196.071">  2  4  1 -1</clus>
<clus scale="   56.306">  2  3  1 -1</clus>
</clustering>
</event>
<event>
 6    0  0.4081161E+002  0.1438787E+03  0.7546771E-02  0.1208203E+00
         21   -1    0    0  503  502  0.00000000000E+00  0.00000000000E+00  0.37652664411E+03  0.37652664411E+03  0.00000000000E+00 0. -1.
          1   -1    0    0  502    0 -0.00000000000E+00 -0.00000000000E+00 -0.13317424763E+04  0.13317424763E+04  0.00000000000E+00 0.  1.
         21    1    1    2  503  504 -0.29432395609E+02 -0.58938076881E+02  0.32840706987E+03  0.33494949822E+03  0.00000000000E+00 0. -1.
         21    1    1    2  504  505 -0.78650766512E+02 -0.35380159717E+02 -0.54328718557E+01  0.86413048038E+02  0.00000000000E+00 0.  1.
         21    1    1    2  505  501  0.62952618609E+02  0.28964311520E+02 -0.52931848766E+03  0.53383520389E+03  0.00000000000E+00 0. -1.
          1    1    1    2  501    0  0.45130543512E+02  0.65353925078E+02 -0.74887154257E+03  0.75307137029E+03  0.00000000000E+00 0.  1.
<scales pt_clust_3="65.87839" pt_clust_4="137.55071" pt_clust_5="39.41854" pt_clust_6="39.41854"></scales>
<clustering>
<clus scale="   39.419">  5  6 -1 -1</clus>
<clus scale="   65.878">  1  3  2 -1</clus>
<clus scale="  137.551">  1  4  2 -1</clus>
<clus scale="   65.878">  1  3  2 -1</clus>
</clustering>
</event>
<event>
 6    0  0.4081161E+002  0.1475207E+03  0.7546771E-02  0.1203553E+00
         21   -1    0    0  504  502  0.00000000000E+00  0.00000000000E+00  0.21533835548E+03  0.21533835548E+03  0.00000000000E+00 0.  1.
          1   -1    0    0  503    0 -0.00000000000E+00 -0.00000000000E+00 -0.44413876066E+03  0.44413876066E+03  0.00000000000E+00 0. -1.
         21    1    1    2  503  502 -0.19372739604E+02  0.17565008950E+03 -0.27965411840E+02  0.17891428462E+03  0.00000000000E+00 0.  1.
         21    1    1    2  504  505 -0.91638258361E+02 -0.92465864916E+02  0.87030704321E+02  0.15659454034E+03  0.00000000000E+00 0.  1.
         21    1    1    2  505  501  0.53142274690E+02 -0.41235515857E+02 -0.19819282266E+03  0.20929611578E+03  0.00000000000E+00 0. -1.
          1    1    1    2  501    0  0.57868723275E+02 -0.41948708729E+02 -0.89672875005E+02  0.11467217539E+03  0.00000000000E+00 0. -1.
<scales pt_clust_3="137.53772" pt_clust_4="130.18259" pt_clust_5="51.75071" pt_clust_6="51.75071"></scales>
<clustering>
<clus scale="   51.751">  5  6 -1 -1</clus>
<clus scale="  130.183">  1  4  2 -1</clus>
<clus scale="  137.538">  1  3  2 -1</clus>
<clus scale="  130.183">  1  3  2 -1</clus>
</clustering>
</event>
<event>
 6    0  0.4081161E+002  0.8869532E+02  0.7546771E-02  0.1306042E+00
         21   -1    0    0  504  502  0.00000000000E+00  0.00000000000E+00  0.35210592766E+03  0.35210592766E+03  0.00000000000E+00 0.  1.
         -2   -1    0    0    0  501 -0.00000000000E+00 -0.00000000000E+00 -0.20938825886E+03  0.20938825886E+03  0.00000000000E+00 0. -1.
         21    1    1    2  503  505 -0.34458552914E+02 -0.11122351033E+03  0.22979581073E+03  0.25761245263E+03  0.00000000000E+00 0.  1.
         21    1    1    2  504  503 -0.15282406036E+02  0.34070069977E+02  0.87172640584E+02  0.94833490228E+02  0.00000000000E+00 0. -1.
         21    1    1    2  505  501 -0.85728454729E+01  0.47711919326E+02 -0.92220600822E+02  0.10418522036E+03  0.00000000000E+00 0. -1.
         -2    1    1    2    0  502  0.58313804423E+02  0.29441521026E+02 -0.82030181701E+02  0.10486302330E+03  0.00000000000E+00 0. -1.
<scales pt_clust_3="14000.00000" pt_clust_4="37.34062" pt_clust_5="49.30664" pt_clust_6="88.69532"></scales>
<clustering>
<clus scale="   37.341">  1  4  2 -1</clus>
<clus scale="   49.307">  2  5  1 -1</clus>
<clus scale="   88.695">  2  6  1 -1</clus>
<clus scale="   37.341">  1  3  2 -1</clus>
</clustering>
</event>
<event>
 6    0  0.4081161E+002  0.1558111E+03  0.7546771E-02  0.1193509E+00
          4   -1    0    0  505    0 -0.00000000000E+00  0.00000000000E+00  0.22283872659E+03  0.22283872659E+03  0.00000000000E+00 0.  1.
         21   -1    0    0  504  502  0.00000000000E+00 -0.00000000000E+00 -0.15577082882E+04  0.15577082882E+04  0.00000000000E+00 0. -1.
         21    1    1    2  503  502  0.14822231374E+03  0.83565185345E+02 -0.72364519816E+03  0.74338103777E+03  0.00000000000E+00 0.  1.
         21    1    1    2  504  501 -0.12349877951E+03  0.75365641201E+02 -0.77276947881E+03  0.78619628325E+03  0.00000000000E+00 0. -1.
         21    1    1    2  505  503 -0.38661566451E+02 -0.12260344960E+02  0.15216079965E+02  0.43319301338E+02  0.00000000000E+00 0.  1.
          4    1    1    2  501    0  0.13938032223E+02 -0.14667048159E+03  0.14632903535E+03  0.20765039248E+03  0.00000000000E+00 0.  1.
<scales pt_clust_3="155.81107" pt_clust_4="145.60564" pt_clust_5="40.55900" pt_clust_6="14000.00000"></scales>
<clustering>
<clus scale="   40.559">  1  5  2 -1</clus>
<clus scale="  145.606">  2  4  1 -1</clus>
<clus scale="  155.811">  2  3  1 -1</clus>
<clus scale="  145.606">  2  3  1 -1</clus>
</clustering>
</event>
<event>
 6    0  0.4081161E+002  0.1017960E+03  0.7546771E-02  0.1276564E+00
          3   -1    0    0  504    0 -0.00000000000E+00  0.00000000000E+00  0.19244990557E+03  0.19244990557E+03  0.00000000000E+00 0. -1.
         21   -1    0    0  503  502  0.00000000000E+00 -0.00000000000E+00 -0.16101497390E+04  0.16101497390E+04  0.00000000000E+00 0.  1.
         21    1    1    2  503  501 -0.15683613405E+03 -0.28499252774E+02 -0.14162913858E+04  0.14252336895E+04  0.00000000000E+00 0.  1.
         21    1    1    2  504  505  0.12425540843E+02  0.38729985094E+02  0.94158087837E+02  0.10256778888E+03  0.00000000000E+00 0. -1.
         21    1    1    2  505  502  0.62469555424E+02 -0.13719881558E+02 -0.15882635824E+03  0.17122059624E+03  0.00000000000E+00 0.  1.
          3    1    1    2  501    0  0.81941037787E+02  0.34891492387E+01  0.63259822690E+02  0.10357756998E+03  0.00000000000E+00 0. -1.
<scales pt_clust_3="14000.00000" pt_clust_4="40.67439" pt_clust_5="64.26595" pt_clust_6="101.79603"></scales>
<clustering>
<clus scale="   40.674">  1  4  2 -1</clus>
<clus scale="   64.266">  2  5  1 -1</clus>
<clus scale="  101.796">  1  6  2 -1</clus>
<clus scale="   64.266">  2  3  1 -1</clus>
</clustering>
</event>
<event>
 6    0  0.4081161E+002  0.1285019E+03  0.7546771E-02  0.1229696E+00
         21   -1    0    0  505  502  0.00000000000E+00  0.00000000000E+00  0.39452284274E+02  0.39452284274E+02  0.00000000000E+00 0. -1.
          2   -1    0    0  504    0 -0.00000000000E+00 -0.00000000000E+00 -0.25404528047E+04  0.25404528047E+04  0.00000000000E+00 0. -1.
         21    1    1    2  503  502 -0.26896297965E+01 -0.91465022107E+02 -0.36578800755E+02  0.98544878315E+02  0.00000000000E+00 0. -1.
         21    1    1    2  504  503  0.14430061592E+02 -0.30912137933E+02 -0.47419415023E+02  0.58415647478E+02  0.00000000000E+00 0.  1.
         21    1    1    2  505  501  0.25882008089E+02  0.89717010805E+02 -0.84330138528E+03  0.84845521201E+03  0.00000000000E+00 0. -1.
          2    1    1    2  501    0 -0.37622439884E+02  0.32660149235E+02 -0.15737009194E+04  0.15744893512E+04  0.00000000000E+00 0. -1.
<scales pt_clust_3="30.32653" pt_clust_4="30.32653" pt_clust_5="118.51517" pt_clust_6="49.82101"></scales>
<clustering>
<clus scale="   30.327">  3  4 -1 -1</clus>
<clus scale="   49.821">  2  6  1 -1</clus>
<clus scale="  118.515">  2  5  1 -1</clus>
<clus scale="  128.502">  1  3  2 -1</clus>
</clustering>
</event>
<event>
 6    0  0.4081161E+002  0.1546194E+03  0.7546771E-02  0.1194909E+00
         -2   -1    0    0    0  501 -0.00000000000E+00  0.00000000000E+00  0.31450617966E+03  0.31450617966E+03  0.00000000000E+00 0. -1.
         21   -1    0    0  503  502  0.00000000000E+00 -0.00000000000E+00 -0.23637885151E+03  0.23637885151E+03  0.00000000000E+00 0. -1.
         21    1    1    2  503  504 -0.29215730768E+02  0.32496208737E+02 -0.89298161805E+02  0.99416921137E+02  0.00000000000E+00 0. -1.
         21    1    1    2  504  501 -0.90558922928E+02  0.52945737834E+02 -0.99126446055E+02  0.14432678887E+03  0.00000000000E+00 0. -1.
         21    1    1    2  505  502  0.42360482212E+02 -0.46384753532E+02  0.82550783239E+02  0.10373325227E+03  0.00000000000E+00 0. -1.
         -2    1    1    2    0  505  0.77414171484E+02 -0.39057193039E+02  0.18400115277E+03  0.20340806890E+03  0.00000000000E+00 0. -1.
<scales pt_clust_3="30.68894" pt_clust_4="30.68894" pt_clust_5="34.46438" pt_clust_6="152.59704"></scales>
<clustering>
<clus scale="   30.689">  3  4 -1 -1</clus>
<clus scale="   34.464">  5  6 -1 -1</clus>
<clus scale="  152.597">  1  5  2 -1</clus>
<clus scale="  154.619">  2  3  1 -1</clus>
</clustering>
</event>
<event>
 6    0  0.4081161E+002  0.1379079E+03  0.7546771E-02  0.1216172E+00
          2   -1    0    0  503    0 -0.00000000000E+00  0.00000000000E+00  0.23255411672E+04  0.23255411672E+04  0.00000000000E+00 0. -1.
         21   -1    0    0  505  502  0.00000000000E+00 -0.00000000000E+00 -0.91983506001E+02  0.91983506001E+02  0.00000000000E+00 0. -1.
         21    1    1    2  503  504  0.38937224609E+02 -0.14715495739E+02  0.39552998384E+03  0.39771424590E+03  0.00000000000E+00 0.  1.
         21    1    1    2  504  502  0.13129986115E+03 -0.52258113472E+02 -0.20086117441E+02  0.14273757765E+03  0.00000000000E+00 0. -1.
         21    1    1    2  505  501 -0.10327259434E+03  0.54365908695E+02  0.38302629476E+03  0.40041231655E+03  0.00000000000E+00 0. -1.
          2    1    1    2  501    0 -0.66964491413E+02  0.12607700516E+02  0.14750875000E+04  0.14766605331E+04  0.00000000000E+00 0. -1.
<scales pt_clust_3="41.62515" pt_clust_4="14000.00000" pt_clust_5="137.90791" pt_clust_6="37.19690"></scales>
<clustering>
<clus scale="   41.625">  1  3  2 -1</clus>
<clus scale="   37.197">  1  6  2 -1</clus>
<clus scale="  137.908">  1  5  2 -1</clus>
<clus scale="  137.908">  2  3  1 -1</clus>
</clustering>
</event>
<event>
 6    0  0.4081161E+002  0.1176879E+03  0.7546771E-02  0.1246961E+00
         -4   -1    0    0    0  501 -0.00000000000E+00  0.00000000000E+00  0.50446764718E+03  0.50446764718E+03  0.00000000000E+00 0. -1.
         21   -1    0    0  505  502  0.00000000000E+00 -0.00000000000E+00 -0.87674030419E+03  0.87674030419E+03  0.00000000000E+00 0.  1.
         21    1    1    2  503  502  0.45483383449E+02  0.12231441194E+03  0.25087473046E+03  0.28278557941E+03  0.00000000000E+00 0. -1.
         21    1    1    2  504  501 -0.52688952557E+02  0.36093515488E+02 -0.12209488856E+01  0.63877682316E+02  0.00000000000E+00 0. -1.
         21    1    1    2  505  504  0.80506378053E+02 -0.87121031062E+02 -0.81098125654E+03  0.81961085243E+03  0.00000000000E+00 0.  1.
         -4    1    1    2    0  503 -0.73300808945E+02 -0.71286896369E+02  0.18905481795E+03  0.21493383721E+03  0.00000000000E+00 0. -1.
<scales pt_clust_3="117.68794" pt_clust_4="63.86601" pt_clust_5="14000.00000" pt_clust_6="110.90084"></scales>
<clustering>
<clus scale="   63.866">  1  4  2 -1</clus>
<clus scale="  110.901">  1  6  2 -1</clus>
<clus scale="  117.688">  1  3  2 -1</clus>
<clus scale="  117.688">  2  3  1 -1</clus>
</clustering>
</event>
<event>
 6    0  0.4081161E+002  0.1243400E+03  0.7546771E-02  0.1236104E+00
          1   -1    0    0  504    0 -0.00000000000E+00  0.00000000000E+00  0.28752768654E+04  0.28752768654E+04  0.00000000000E+00 0.  1.
         21   -1    0    0  505  502  0.00000000000E+00 -0.00000000000E+00 -0.79553547484E+02  0.79553547484E+02  0.00000000000E+00 0. -1.
         21    1    1    2  503  501 -0.85145693269E+01  0.42566747777E+02  0.62637231871E+03  0.62787475467E+03  0.00000000000E+00 0. -1.
         21    1    1    2  504  502 -0.82175117361E+01 -0.53789743013E+02  0.79816492610E+02  0.96599878080E+02  0.00000000000E+00 0.  1.
         21    1    1    2  505  503  0.58019911823E+02 -0.51912477086E+02 -0.48019014159E+02  0.91471531997E+02  0.00000000000E+00 0. -1.
          1    1    1    2  501    0 -0.41287830760E+02  0.63135472322E+02  0.21375535207E+04  0.21388842481E+04  0.00000000000E+00 0.  1.
<scales pt_clust_3="34.06101" pt_clust_4="54.41382" pt_clust_5="115.94973" pt_clust_6="34.06101"></scales>
<clustering>
<clus scale="   34.061">  3  6 -1 -1</clus>
<clus scale="   54.414">  2  4  1 -1</clus>
<clus scale="  115.950">  2  5  1 -1</clus>
<clus scale="   54.414">  2  3  1 -1</clus>
</clustering>
</event>
<event>
 6    0  0.4081161E+002  0.8879723E+02  0.7546771E-02  0.1305791E+00
          1   -1    0    0  505    0 -0.00000000000E+00  0.00000000000E+00  0.21007303479E+03  0.21007303479E+03  0.00000000000E+00 0. -1.
         21   -1    0    0  503  502  0.00000000000E+00 -0.00000000000E+00 -0.62800959994E+03  0.62800959994E+03  0.00000000000E+00 0. -1.
         21    1    1    2  503  501 -0.63560851950E+02 -0.96423950459E+01 -0.48452196441E+03  0.48876834153E+03  0.00000000000E+00 0. -1.
         21    1    1    2  504  502 -0.25118592127E+02  0.60642183881E+02 -0.77899931169E+02  0.10186666487E+03  0.00000000000E+00 0. -1.
         21    1    1    2  505  504 -0.32952000242E+02 -0.17140712689E+02 -0.18325772417E+02  0.41418260298E+02  0.00000000000E+00 0. -1.
          1    1    1    2  501    0  0.12163144432E+03 -0.33859076146E+02  0.16281110284E+03  0.20602936804E+03  0.00000000000E+00 0. -1.
<scales pt_clust_3="64.66413" pt_clust_4="14000.00000" pt_clust_5="37.14348" pt_clust_6="88.79723"></scales>
<clustering>
<clus scale="   37.143">  1  5  2 -1</clus>
<clus scale="   64.664">  2  3  1 -1</clus>
<clus scale="   88.797">  1  6  2 -1</clus>
<clus scale="   64.664">  2  3  1 -1</clus>
</clustering>
</event>
<event>
 6    0  0.4081161E+002  0.9492287E+02  0.7546771E-02  0.1291350E+00
          2   -1    0    0  505    0 -0.00000000000E+00  0.00000000000E+00  0.48681070757E+03  0.48681070757E+03  0.00000000000E+00 0.  1.
         21   -1    0    0  504  502  0.00000000000E+00 -0.00000000000E+00 -0.68753222549E+03  0.68753222549E+03  0.00000000000E+00 0. -1.
         21    1    1    2  503  501 -0.42210174882E+02 -0.27992582688E+02  0.91944232852E+02  0.10497154616E+03  0.00000000000E+00 0. -1.
         21    1    1    2  504  503 -0.37923378784E+02  0.65702169903E+02 -0.17551363534E+03  0.19120667870E+03  0.00000000000E+00 0. -1.
         21    1    1    2  505  502  0.72766198674E+02 -0.83335434818E+02 -0.49006557596E+03  0.50239823159E+03  0.00000000000E+00 0. -1.
          2    1    1    2  501    0  0.73673549920E+01  0.45625847602E+02  0.37291346053E+03  0.37576647660E+03  0.00000000000E+00 0.  1.
<scales pt_clust_3="37.70412" pt_clust_4="94.92287" pt_clust_5="14000.00000" pt_clust_6="46.21684"></scales>
<clustering>
<clus scale="   46.217">  1  6  2 -1</clus>
<clus scale="   37.704">  1  3  2 -1</clus>
<clus scale="   94.923">  1  4  2 -1</clus>
<clus scale="   94.923">  2  3  1 -1</clus>
</clustering>
</event>
<event>
 6    0  0.4081161E+002  0.6414799E+02  0.7546771E-02  0.1381205E+00
          2   -1    0    0  504    0 -0.00000000000E+00  0.00000000000E+00  0.25552635308E+04  0.25552635308E+04  0.00000000000E+00 0. -1.
         21   -1    0    0  503  502  0.00000000000E+00 -0.00000000000E+00 -0.20305199997E+03  0.20305199997E+03  0.00000000000E+00 0.  1.
         21    1    1    2  503  501  0.26652533122E+02  0.41340932182E+02 -0.52768639176E+01  0.49469945303E+02  0.00000000000E+00 0. -1.
         21    1    1    2  504  505 -0.23561246506E+02  0.23826240523E+02  0.10992264031E+03  0.11491653026E+03  0.00000000000E+00 0. -1.
         21    1    1    2  505  502 -0.57621392578E+02 -0.96731838294E+02 -0.15442423408E+03  0.19111283969E+03  0.00000000000E+00 0.  1.
          2    1    1    2  501    0  0.54530105962E+02  0.31564665589E+02  0.24019899885E+04  0.24028162155E+04  0.00000000000E+00 0. -1.
<scales pt_clust_3="49.25425" pt_clust_4="33.50854" pt_clust_5="14000.00000" pt_clust_6="64.14799"></scales>
<clustering>
<clus scale="   33.509">  1  4  2 -1</clus>
<clus scale="   49.254">  2  3  1 -1</clus>
<clus scale="   64.148">  1  6  2 -1</clus>
<clus scale="   49.254">  2  3  1 -1</clus>
</clustering>
</event>
<event>
 6    0  0.4081161E+002  0.1193138E+03  0.7546771E-02  0.1244233E+00
         21   -1    0    0  505  502  0.00000000000E+00  0.00000000000E+00  0.28745124788E+03  0.28745124788E+03  0.00000000000E+00 0. -1.
         -2   -1    0    0    0  501 -0.00000000000E+00 -0.00000000000E+00 -0.28998496061E+03  0.28998496061E+03  0.00000000000E+00 0.  1.
         21    1    1    2  503  504  0.48348317973E+02  0.33951795171E+01 -0.79116466227E+02  0.92782015084E+02  0.00000000000E+00 0.  1.
         21    1    1    2  504  502  0.67808700046E+02  0.41138467413E+02  0.14081120059E+02  0.80552288889E+02  0.00000000000E+00 0.  1.
         21    1    1    2  505  501 -0.12876613344E+03 -0.72231475842E+02  0.20821296401E+03  0.25524643308E+03  0.00000000000E+00 0. -1.
         -2    1    1    2    0  503  0.12609115416E+02  0.27697828912E+02 -0.14571133057E+03  0.14885547143E+03  0.00000000000E+00 0.  1.
<scales pt_clust_3="59.43658" pt_clust_4="14000.00000" pt_clust_5="119.31380" pt_clust_6="30.43287"></scales>
<clustering>
<clus scale="   30.433">  2  6  1 -1</clus>
<clus scale="   59.437">  2  3  1 -1</clus>
<clus scale="  119.314">  1  5  2 -1</clus>
<clus scale="  119.314">  1  3  2 -1</clus>
</clustering>
</event>
<event>
 6    0  0.4081161E+002  0.5031607E+03  0.7546771E-02  0.1012957E+00
         21   -1    0    0  503  502  0.00000000000E+00  0.00000000000E+00  0.19398790768E+03  0.19398790768E+03  0.00000000000E+00 0. -1.
          2   -1    0    0  505    0 -0.00000000000E+00 -0.00000000000E+00 -0.25314031981E+04  0.25314031981E+04  0.00000000000E+00 0. -1.
         21    1    1    2  503  504 -0.53138673913E+03  0.23604000866E+02 -0.53063402921E+03  0.75133314071E+03  0.00000000000E+00 0. -1.
         21    1    1    2  504  501  0.96710425105E+02 -0.15652844656E+02 -0.51590493352E+03  0.52512457408E+03  0.00000000000E+00 0. -1.
         21    1    1    2  505  502  0.52296875545E+02  0.59359150474E+02  0.20139820815E+02  0.81633842977E+02  0.00000000000E+00 0. -1.
          2    1    1    2  501    0  0.38237943848E+03 -0.67310306684E+02 -0.13110161485E+04  0.13672995480E+04  0.00000000000E+00 0. -1.
<scales pt_clust_3="495.93572" pt_clust_4="42.67812" pt_clust_5="79.11050" pt_clust_6="42.67812"></scales>
<clustering>
<clus scale="   42.678">  4  6 -1 -1</clus>
<clus scale="   79.111">  1  5  2 -1</clus>
<clus scale="  495.936">  1  3  2 -1</clus>
<clus scale="   79.111">  1  3  2 -1</clus>
</clustering>
</event>
<event>
 6    0  0.4081161E+002  0.1667535E+03  0.7546771E-02  0.1181276E+00
         21   -1    0    0  505  502  0.00000000000E+00  0.00000000000E+00  0.45250815646E+02  0.45250815646E+02  0.00000000000E+00 0.  1.
          2   -1    0    0  503    0 -0.00000000000E+00 -0.00000000000E+00 -0.12970432667E+04  0.12970432667E+04  0.00000000000E+00 0. -1.
         21    1    1    2  503  502  0.37458770252E+02  0.12510179624E+02 -0.52809943267E+02  0.65943568078E+02  0.00000000000E+00 0.  1.
         21    1    1    2  504  501  0.38918238651E+02 -0.32536484060E+02 -0.37305575623E+03  0.37648884360E+03  0.00000000000E+00 0. -1.
         21    1    1    2  505  504 -0.10145856497E+03  0.13127178357E+03 -0.18346345344E+03  0.24735593851E+03  0.00000000000E+00 0.  1.
          2    1    1    2  501    0  0.25081556068E+02 -0.11124547913E+03 -0.64246329808E+03  0.65250573213E+03  0.00000000000E+00 0. -1.
<scales pt_clust_3="39.49258" pt_clust_4="35.17613" pt_clust_5="158.19314" pt_clust_6="35.17613"></scales>
<clustering>
<clus scale="   35.176">  4  6 -1 -1</clus>
<clus scale="   39.493">  1  3  2 -1</clus>
<clus scale="  158.193">  1  5  2 -1</clus>
<clus scale="   39.493">  1  3  2 -1</clus>
</clustering>
</event>
<event>
 6    0  0.4081161E+002  0.9938361E+02  0.7546771E-02  0.1281597E+00
         21   -1    0    0  505  502  0.00000000000E+00  0.00000000000E+00  0.19370997040E+04  0.19370997040E+04  0.00000000000E+00 0. -1.
          2   -1    0    0  504    0 -0.00000000000E+00 -0.00000000000E+00 -0.22878243055E+03  0.22878243055E+03  0.00000000000E+00 0. -1.
         21    1    1    2  503  502 -0.11541364703E+02 -0.28800168254E+02  0.20387928344E+03  0.20622661081E+03  0.00000000000E+00 0.  1.
         21    1    1    2  504  503 -0.64345934195E+01  0.35887239296E+02 -0.24402407809E+02  0.43872262805E+02  0.00000000000E+00 0. -1.
         21    1    1    2  505  501  0.10419873190E+03 -0.78681798695E+01  0.17110307489E+04  0.17142186289E+04  0.00000000000E+00 0. -1.
          2    1    1    2  501    0 -0.86222773780E+02  0.78110882807E+00 -0.18219035109E+03  0.20156463202E+03  0.00000000000E+00 0. -1.
<scales pt_clust_3="31.02665" pt_clust_4="36.31177" pt_clust_5="99.38361" pt_clust_6="14000.00000"></scales>
<clustering>
<clus scale="   31.027">  1  3  2 -1</clus>
<clus scale="   36.312">  2  4  1 -1</clus>
<clus scale="   99.384">  1  5  2 -1</clus>
<clus scale="   31.027">  1  3  2 -1</clus>
</clustering>
</event>
<event>
 6    0  0.4081161E+002  0.1409386E+03  0.7546771E-02  0.1212072E+00
         21   -1    0    0  505  502  0.00000000000E+00  0.00000000000E+00  0.20072771106E+02  0.20072771106E+02  0.00000000000E+00 0.  1.
          2   -1    0    0  504    0 -0.00000000000E+00 -0.00000000000E+00 -0.21307076307E+04  0.21307076307E+04  0.00000000000E+00 0.  1.
         21    1    1    2  503  501 -0.16497437543E+02 -0.88183012431E+02 -0.94789357121E+03  0.95212952453E+03  0.00000000000E+00 0.  1.
         21    1    1    2  504  502  0.69561324395E+02  0.72458739279E+02 -0.29191683759E+03  0.30871424784E+03  0.00000000000E+00 0.  1.
         21    1    1    2  505  503 -0.21742540012E+01  0.48415742680E+02 -0.61245683478E+02  0.78101506159E+02  0.00000000000E+00 0.  1.
          2    1    1    2  501    0 -0.50889632850E+02 -0.32691469527E+02 -0.80957876727E+03  0.81183512324E+03  0.00000000000E+00 0.  1.
<scales pt_clust_3="51.61598" pt_clust_4="127.09485" pt_clust_5="48.46454" pt_clust_6="51.61598"></scales>
<clustering>
<clus scale="   48.465">  1  5  2 -1</clus>
<clus scale="   51.616">  3  6 -1 -1</clus>
<clus scale="  127.095">  1  4  2 -1</clus>
<clus scale="   48.465">  1  3  2 -1</clus>
</clustering>
</event>
<event>
 6    0  0.4081161E+002  0.9324082E+02  0.7546771E-02  0.1295188E+00
          3   -1    0    0  505    0 -0.00000000000E+00  0.00000000000E+00  0.57650949438E+03  0.57650949438E+03  0.00000000000E+00 0.  1.
         21   -1    0    0  501  502  0.00000000000E+00 -0.00000000000E+00 -0.13140444166E+03  0.13140444166E+03  0.00000000000E+00 0.  1.
         21    1    1    2  503  502  0.39270453739E+02 -0.14529450118E+02 -0.54460170795E+01  0.42224786082E+02  0.00000000000E+00 0.  1.
         21    1    1    2  504  503 -0.72250722547E+02  0.10315315240E+03 -0.62380759231E+02  0.14054216051E+03  0.00000000000E+00 0.  1.
         21    1    1    2  505  504 -0.91948840001E+01 -0.36601541937E+02  0.10127054237E+03  0.10807377811E+03  0.00000000000E+00 0.  1.
          3    1    1    2  501    0  0.42175152808E+02 -0.52022160343E+02  0.41166128666E+03  0.41707321134E+03  0.00000000000E+00 0.  1.
<scales pt_clust_3="42.05643" pt_clust_4="93.24082" pt_clust_5="37.73882" pt_clust_6="14000.00000"></scales>
<clustering>
<clus scale="   37.739">  1  5  2 -1</clus>
<clus scale="   42.056">  2  3  1 -1</clus>
<clus scale="   93.241">  2  4  1 -1</clus>
<clus scale="   42.056">  2  3  1 -1</clus>
</clustering>
</event>
<event>
 6    0  0.4081161E+002  0.1008140E+03  0.7546771E-02  0.1278593E+00
         21   -1    0    0  505  502  0.00000000000E+00  0.00000000000E+00  0.47731776273E+02  0.47731776273E+02  0.00000000000E+00 0.  1.
          2   -1    0    0  502    0 -0.00000000000E+00 -0.00000000000E+00 -0.10780951622E+04  0.10780951622E+04  0.00000000000E+00 0.  1.
         21    1    1    2  503  501 -0.40524726969E+02  0.26034299186E+02 -0.28226040739E+03  0.28634066391E+03  0.00000000000E+00 0.  1.
         21    1    1    2  504  503 -0.40183688945E+02  0.80568885056E+02 -0.10487831391E+03  0.13822277245E+03  0.00000000000E+00 0.  1.
         21    1    1    2  505  504  0.85494555165E+02 -0.76158045312E+02 -0.86024468193E+02  0.14321164742E+03  0.00000000000E+00 0.  1.
          2    1    1    2  501    0 -0.47861392505E+01 -0.30445138930E+02 -0.55720019645E+03  0.55805185471E+03  0.00000000000E+00 0.  1.
<scales pt_clust_3="44.15220" pt_clust_4="100.81402" pt_clust_5="14000.00000" pt_clust_6="30.81905"></scales>
<clustering>
<clus scale="   30.819">  2  6  1 -1</clus>
<clus scale="   44.152">  2  3  1 -1</clus>
<clus scale="  100.814">  2  4  1 -1</clus>
<clus scale="  100.814">  1  3  2 -1</clus>
</clustering>
</event>
<event>
 6    0  0.4081161E+002  0.1402894E+03  0.7546771E-02  0.1212940E+00
         21   -1    0    0  504  502  0.00000000000E+00  0.00000000000E+00  0.17913495568E+03  0.17913495568E+03  0.00000000000E+00 0.  1.
          2   -1    0    0  503    0 -0.00000000000E+00 -0.00000000000E+00 -0.56305287836E+03  0.56305287836E+03  0.00000000000E+00 0.  1.
         21    1    1    2  503  505 -0.14722885252E+03 -0.95763210945E+02 -0.31433123073E+03  0.36007089607E+03  0.00000000000E+00 0.  1.
         21    1    1    2  504  501  0.87972560710E+02 -0.14790616560E+02  0.10249051779E+03  0.13587582571E+03  0.00000000000E+00 0.  1.
         21    1    1    2  505  502 -0.22895548211E+02  0.30356685988E+02  0.15905918943E+01  0.38056070404E+02  0.00000000000E+00 0. -1.
          2    1    1    2  501    0  0.82151840020E+02  0.80197141517E+02 -0.17366780164E+03  0.20818504186E+03  0.00000000000E+00 0.  1.
<scales pt_clust_3="140.28939" pt_clust_4="71.28538" pt_clust_5="38.02282" pt_clust_6="14000.00000"></scales>
<clustering>
<clus scale="   38.023">  1  5  2 -1</clus>
<clus scale="   71.285">  1  4  2 -1</clus>
<clus scale="  140.289">  1  3  2 -1</clus>
<clus scale="   38.023">  1  3  2 -1</clus>
</clustering>
</event>
<event>
 6    0  0.4081161E+002  0.1060215E+03  0.7546771E-02  0.1268120E+00
         21   -1    0    0  504  502  0.00000000000E+00  0.00000000000E+00  0.28368341810E+03  0.28368341810E+03  0.00000000000E+00 0.  1.
          2   -1    0    0  505    0 -0.00000000000E+00 -0.00000000000E+00 -0.30984831179E+04  0.30984831179E+04  0.00000000000E+00 0. -1.
         21    1    1    2  503  502  0.48778518304E+01 -0.10017446610E+03  0.18431064279E+03  0.20983119440E+03  0.00000000000E+00 0.  1.
         21    1    1    2  504  501  0.53696877519E+02  0.99241100120E+01  0.76489893481E+02  0.93981628095E+02  0.00000000000E+00 0.  1.
         21    1    1    2  505  503 -0.29025107995E+02  0.54617592408E+02 -0.83990372821E+03  0.84217801619E+03  0.00000000000E+00 0.  1.
          2    1    1    2  501    0 -0.29549621354E+02  0.35632763680E+02 -0.22356965078E+04  0.22361756973E+04  0.00000000000E+00 0. -1.
<scales pt_clust_3="14000.00000" pt_clust_4="54.37883" pt_clust_5="106.02148" pt_clust_6="46.29119"></scales>
<clustering>
<clus scale="   46.291">  2  6  1 -1</clus>
<clus scale="   54.379">  1  4  2 -1</clus>
<clus scale="  106.021">  2  5  1 -1</clus>
<clus scale="   54.379">  1  3  2 -1</clus>
</clustering>
</event>
<event>
 6    0  0.4081161E+002  0.3201650E+03  0.7546771E-02  0.1075573E+00
          3   -1    0    0  503    0 -0.00000000000E+00  0.00000000000E+00  0.55745566485E+03  0.55745566485E+03  0.00000000000E+00 0.  1.
         21   -1    0    0  505  502  0.00000000000E+00 -0.00000000000E+00 -0.24691838015E+03  0.24691838015E+03  0.00000000000E+00 0.  1.
         21    1    1    2  503  502 -0.62436679369E+02 -0.31280363278E+03  0.15957862330E+03  0.35666481271E+03  0.00000000000E+00 0.  1.
         21    1    1    2  504  501  0.17746241578E+02  0.79477197009E+02  0.13404070256E+02  0.82530134096E+02  0.00000000000E+00 0. -1.
         21    1    1    2  505  504 -0.20767421011E+02  0.26668780034E+02 -0.61949497277E+02  0.70570885051E+02  0.00000000000E+00 0.  1.
          3    1    1    2  501    0  0.65457858802E+02  0.20665765574E+03  0.19950408842E+03  0.29460821314E+03  0.00000000000E+00 0.  1.
<scales pt_clust_3="307.24302" pt_clust_4="55.94960" pt_clust_5="33.80103" pt_clust_6="55.94960"></scales>
<clustering>
<clus scale="   33.801">  2  5  1 -1</clus>
<clus scale="   55.950">  4  6 -1 -1</clus>
<clus scale="  307.243">  2  3  1 -1</clus>
<clus scale="   33.801">  2  3  1 -1</clus>
</clustering>
</event>
<event>
 6    0  0.4081161E+002  0.1044858E+03  0.7546771E-02  0.1271136E+00
         21   -1    0    0  503  502  0.00000000000E+00  0.00000000000E+00  0.61722016921E+03  0.61722016921E+03  0.00000000000E+00 0. -1.
          2   -1    0    0  502    0 -0.00000000000E+00 -0.00000000000E+00 -0.18687569496E+03  0.18687569496E+03  0.00000000000E+00 0. -1.
         21    1    1    2  503  505 -0.33187170433E+02  0.76168767738E+02  0.22613323557E+03  0.24091349006E+03  0.00000000000E+00 0.  1.
         21    1    1    2  504  501 -0.17019394767E+02  0.39167883063E+02 -0.57187233365E+02  0.71373402062E+02  0.00000000000E+00 0. -1.
         21    1    1    2  505  504  0.84865415701E+02 -0.12251718296E+03  0.35861366361E+03  0.38835081901E+03  0.00000000000E+00 0. -1.
          2    1    1    2  501    0 -0.34658850501E+02  0.71805321575E+01 -0.97215191560E+02  0.10345815304E+03  0.00000000000E+00 0. -1.
<scales pt_clust_3="104.48579" pt_clust_4="61.71802" pt_clust_5="14000.00000" pt_clust_6="35.39486"></scales>
<clustering>
<clus scale="   35.395">  2  6  1 -1</clus>
<clus scale="   61.718">  2  4  1 -1</clus>
<clus scale="  104.486">  1  3  2 -1</clus>
<clus scale="  104.486">  1  3  2 -1</clus>
</clustering>
</event>
<event>
 6    0  0.4081161E+002  0.5609660E+02  0.7546771E-02  0.1414983E+00
          2   -1    0    0  505    0 -0.00000000000E+00  0.00000000000E+00  0.91099150484E+03  0.91099150484E+03  0.00000000000E+00 0.  1.
         21   -1    0    0  504  502  0.00000000000E+00 -0.00000000000E+00 -0.99464916544E+03  0.99464916544E+03  0.00000000000E+00 0.  1.
         21    1    1    2  503  502  0.82787299277E+02 -0.24080057522E+02 -0.35633447278E+03  0.36661675164E+03  0.00000000000E+00 0. -1.
         21    1    1    2  504  501 -0.35504147813E+02 -0.44507477065E+01 -0.62357845626E+03  0.62460423051E+03  0.00000000000E+00 0.  1.
         21    1    1    2  505  503  0.30282135555E+02 -0.33634329465E+02  0.78238352452E+02  0.90385372969E+02  0.00000000000E+00 0.  1.
          2    1    1    2  501    0 -0.77565287019E+02  0.62165134694E+02  0.81801691598E+03  0.82403431516E+03  0.00000000000E+00 0.  1.
<scales pt_clust_3="56.09660" pt_clust_4="35.78203" pt_clust_5="44.92531" pt_clust_6="14000.00000"></scales>
<clustering>
<clus scale="   35.782">  2  4  1 -1</clus>
<clus scale="   44.925">  1  5  2 -1</clus>
<clus scale="   56.097">  2  3  1 -1</clus>
<clus scale="   35.782">  2  3  1 -1</clus>
</clustering>
</event>
<event>
 6    0  0.4081161E+002  0.1252049E+03  0.7546771E-02  0.1234749E+00
         21   -1    0    0  503  502  0.00000000000E+00  0.00000000000E+00  0.24523731289E+03  0.24523731289E+03  0.00000000000E+00 0.  1.
          2   -1    0    0  502    0 -0.00000000000E+00 -0.00000000000E+00 -0.76822931067E+03  0.76822931067E+03  0.00000000000E+00 0.  1.
         21    1    1    2  503  505 -0.42740054189E+02 -0.28233481437E+02  0.20730675760E+03  0.21354140923E+03  0.00000000000E+00 0.  1.
         21    1    1    2  504  501 -0.38928017733E+02  0.31805068845E+02 -0.17698070364E+03  0.18398131001E+03  0.00000000000E+00 0.  1.
         21    1    1    2  505  504  0.10252175568E+03 -0.70317483740E+02 -0.10653675001E+03  0.16372335817E+03  0.00000000000E+00 0.  1.
          2    1    1    2  501    0 -0.20853683757E+02  0.66745896331E+02 -0.44678130173E+03  0.45222054617E+03  0.00000000000E+00 0.  1.
<scales pt_clust_3="51.22345" pt_clust_4="41.42923" pt_clust_5="115.27644" pt_clust_6="41.42923"></scales>
<clustering>
<clus scale="   41.429">  4  6 -1 -1</clus>
<clus scale="   51.223">  1  3  2 -1</clus>
<clus scale="  115.276">  1  5  2 -1</clus>
<clus scale="   51.223">  1  3  2 -1</clus>
</clustering>
</event>
<event>
 6    0  0.4081161E+002  0.1063499E+03  0.7546771E-02  0.1267483E+00
          1   -1    0    0  504    0 -0.00000000000E+00  0.00000000000E+00  0.35908655274E+03  0.35908655274E+03  0.00000000000E+00 0.  1.
         21   -1    0    0  503  502  0.00000000000E+00 -0.00000000000E+00 -0.39607916149E+03  0.39607916149E+03  0.00000000000E+00 0.  1.
         21    1    1    2  503  501  0.32407193957E+02  0.30592213379E+02 -0.51680544003E+02  0.68242130448E+02  0.00000000000E+00 0. -1.
         21    1    1    2  504  505 -0.68599729965E+02 -0.81999157703E+02  0.19949846565E+03  0.22633917605E+03  0.00000000000E+00 0.  1.
         21    1    1    2  505  502 -0.62755582637E+01 -0.48229676469E+02 -0.29915703080E+03  0.30308482872E+03  0.00000000000E+00 0.  1.
          1    1    1    2  501    0  0.42468094272E+02  0.99636620793E+02  0.11434650040E+03  0.15749957901E+03  0.00000000000E+00 0.  1.
<scales pt_clust_3="44.56579" pt_clust_4="106.34990" pt_clust_5="30.84615" pt_clust_6="14000.00000"></scales>
<clustering>
<clus scale="   44.566">  2  3  1 -1</clus>
<clus scale="   30.846">  2  5  1 -1</clus>
<clus scale="  106.350">  1  4  2 -1</clus>
<clus scale="   44.566">  2  3  1 -1</clus>
</clustering>
</event>
<event>
 6    0  0.4081161E+002  0.1402892E+03  0.7546771E-02  0.1212940E+00
          1   -1    0    0  502    0 -0.00000000000E+00  0.00000000000E+00  0.24603536584E+04  0.24603536584E+04  0.00000000000E+00 0.  1.
         21   -1    0    0  503  502  0.00000000000E+00 -0.00000000000E+00 -0.12609801253E+02  0.12609801253E+02  0.00000000000E+00 0. -1.
         21    1    1    2  503  504  0.43778395512E+02 -0.22141165371E+02  0.22126942854E+03  0.22664275662E+03  0.00000000000E+00 0. -1.
         21    1    1    2  504  505 -0.11347226770E+03 -0.83895550303E+02  0.72995171615E+03  0.74346750219E+03  0.00000000000E+00 0. -1.
         21    1    1    2  505  501  0.23446815903E+02  0.32539449906E+02  0.78945272348E+03  0.79047085436E+03  0.00000000000E+00 0.  1.
          1    1    1    2  501    0  0.46247056287E+02  0.73497265768E+02  0.70706998894E+03  0.71238234646E+03  0.00000000000E+00 0.  1.
<scales pt_clust_3="49.05894" pt_clust_4="129.59390" pt_clust_5="36.51264" pt_clust_6="36.51264"></scales>
<clustering>
<clus scale="   36.513">  5  6 -1 -1</clus>
<clus scale="   49.059">  2  3  1 -1</clus>
<clus scale="  129.594">  2  4  1 -1</clus>
<clus scale="   49.059">  2  3  1 -1</clus>
</clustering>
</event>
<event>
 6    0  0.4081161E+002  0.1042966E+03  0.7546771E-02  0.1271512E+00
         21   -1    0    0  504  502  0.00000000000E+00  0.00000000000E+00  0.94849219782E+03  0.94849219782E+03  0.00000000000E+00 0. -1.
         -1   -1    0    0    0  501 -0.00000000000E+00 -0.00000000000E+00 -0.74716471102E+03  0.74716471102E+03  0.00000000000E+00 0. -1.
         21    1    1    2  503  505  0.63310535551E+02 -0.10224890587E+03  0.68467179640E+03  0.69515360278E+03  0.00000000000E+00 0. -1.
         21    1    1    2  504  501 -0.53544791809E+02 -0.28269499035E+02 -0.89886715323E+02  0.10837818460E+03  0.00000000000E+00 0. -1.
         21    1    1    2  505  502 -0.52023577395E+02 -0.10613378434E+01  0.23907459842E+03  0.24467170382E+03  0.00000000000E+00 0. -1.
         -1    1    1    2    0  503  0.42257833654E+02  0.13157974275E+03 -0.63253219270E+03  0.64745341764E+03  0.00000000000E+00 0. -1.
<scales pt_clust_3="14000.00000" pt_clust_4="61.15843" pt_clust_5="52.03440" pt_clust_6="104.29658"></scales>
<clustering>
<clus scale="   52.034">  1  5  2 -1</clus>
<clus scale="   61.158">  2  4  1 -1</clus>
<clus scale="  104.297">  2  6  1 -1</clus>
<clus scale="   52.034">  1  3  2 -1</clus>
</clustering>
</event>
<event>
 6    0  0.4081161E+002  0.1048078E+03  0.7546771E-02  0.1270499E+00
         21   -1    0    0  503  502  0.00000000000E+00  0.00000000000E+00  0.11444142878E+03  0.11444142878E+03  0.00000000000E+00 0.  1.
          2   -1    0    0  505    0 -0.00000000000E+00 -0.00000000000E+00 -0.93410568714E+03  0.93410568714E+03  0.00000000000E+00 0.  1.
         21    1    1    2  503  504 -0.58371107083E+02 -0.11643735800E+03  0.43445080643E+02  0.13730374909E+03  0.00000000000E+00 0.  1.
         21    1    1    2  504  501  0.39684773149E+02  0.57385201021E+02 -0.46978087158E+02  0.84112324835E+02  0.00000000000E+00 0.  1.
         21    1    1    2  505  502 -0.20599935558E+02  0.66431957374E+02 -0.71517470525E+03  0.71854883017E+03  0.00000000000E+00 0.  1.
          2    1    1    2  501    0  0.39286269492E+02 -0.73798003910E+01 -0.10095654660E+03  0.10858221183E+03  0.00000000000E+00 0.  1.
<scales pt_clust_3="14000.00000" pt_clust_4="104.80779" pt_clust_5="61.52080" pt_clust_6="39.97340"></scales>
<clustering>
<clus scale="   39.973">  2  6  1 -1</clus>
<clus scale="   61.521">  2  5  1 -1</clus>
<clus scale="  104.808">  2  4  1 -1</clus>
<clus scale="  104.808">  1  3  2 -1</clus>
</clustering>
</event>
<event>
 6    0  0.4081161E+002  0.8759784E+02  0.7546771E-02  0.1308775E+00
         -2   -1    0    0    0  501 -0.00000000000E+00  0.00000000000E+00  0.19756127952E+03  0.19756127952E+03  0.00000000000E+00 0.  1.
         21   -1    0    0  503  502  0.00000000000E+00 -0.00000000000E+00 -0.16769982793E+04  0.16769982793E+04  0.00000000000E+00 0.  1.
         21    1    1    2  503  504  0.58846877081E+02  0.26100761763E+02 -0.14936654041E+04  0.14950520206E+04  0.00000000000E+00 0.  1.
         21    1    1    2  504  501 -0.13781692010E+02  0.28113229026E+02 -0.59267192314E+01  0.31865572045E+02  0.00000000000E+00 0. -1.
         21    1    1    2  505  502 -0.29951768778E+02 -0.11091364418E+03 -0.13764162775E+03  0.17928793213E+03  0.00000000000E+00 0. -1.
         -2    1    1    2    0  505 -0.15113416293E+02  0.56699653387E+02  0.15779675135E+03  0.16835403406E+03  0.00000000000E+00 0.  1.
<scales pt_clust_3="64.37110" pt_clust_4="31.30956" pt_clust_5="87.59784" pt_clust_6="14000.00000"></scales>
<clustering>
<clus scale="   31.310">  1  4  2 -1</clus>
<clus scale="   64.371">  2  3  1 -1</clus>
<clus scale="   87.598">  2  5  1 -1</clus>
<clus scale="   64.371">  2  3  1 -1</clus>
</clustering>
</event>
<event>
 6    0  0.4081161E+002  0.1333987E+03  0.7546771E-02  0.1222498E+00
         21   -1    0    0  503  502  0.00000000000E+00  0.00000000000E+00  0.10327518627E+03  0.10327518627E+03  0.00000000000E+00 0.  1.
          1   -1    0    0  505    0 -0.00000000000E+00 -0.00000000000E+00 -0.19171310021E+04  0.19171310021E+04  0.00000000000E+00 0. -1.
         21    1    1    2  503  501 -0.77219815259E+02  0.85208398683E+02 -0.64262584891E+01  0.11517233988E+03  0.00000000000E+00 0.  1.
         21    1    1    2  504  502 -0.51481461317E+02 -0.27734856312E+02  0.25741401339E+02  0.63891962381E+02  0.00000000000E+00 0.  1.
         21    1    1    2  505  504  0.50860969332E+02 -0.49385299446E+02 -0.41486782755E+03  0.42088129008E+03  0.00000000000E+00 0.  1.
          1    1    1    2  501    0  0.77840307244E+02 -0.80882429249E+01 -0.14183031311E+04  0.14204605960E+04  0.00000000000E+00 0. -1.
<scales pt_clust_3="133.39871" pt_clust_4="58.47703" pt_clust_5="70.04528" pt_clust_6="14000.00000"></scales>
<clustering>
<clus scale="   58.477">  1  4  2 -1</clus>
<clus scale="   70.045">  2  5  1 -1</clus>
<clus scale="  133.399">  1  3  2 -1</clus>
<clus scale="   58.477">  1  3  2 -1</clus>
</clustering>
</event>
<event>
 6    0  0.4081161E+002  0.3042466E+03  0.7546771E-02  0.1083137E+00
          2   -1    0    0  503    0 -0.00000000000E+00  0.00000000000E+00  0.26623375324E+04  0.26623375324E+04  0.00000000000E+00 0.  1.
         21   -1    0    0  505  502  0.00000000000E+00 -0.00000000000E+00 -0.35537141691E+03  0.35537141691E+03  0.00000000000E+00 0.  1.
         21    1    1    2  503  504 -0.36432801445E+02  0.69173789132E+02  0.41312404130E+03  0.42045669887E+03  0.00000000000E+00 0.  1.
         21    1    1    2  504  502 -0.29437445465E+02 -0.28657479305E+03 -0.25102628739E+03  0.38210714750E+03  0.00000000000E+00 0.  1.
         21    1    1    2  505  501 -0.80626351777E+02 -0.15908318390E+01  0.33372789604E+02  0.87274752551E+02  0.00000000000E+00 0.  1.
          2    1    1    2  501    0  0.14649659869E+03  0.21899183576E+03  0.21114955719E+04  0.21278703503E+04  0.00000000000E+00 0.  1.
<scales pt_clust_3="78.18160" pt_clust_4="304.24663" pt_clust_5="81.60551" pt_clust_6="14000.00000"></scales>
<clustering>
<clus scale="   78.182">  1  3  2 -1</clus>
<clus scale="   81.606">  2  5  1 -1</clus>
<clus scale="  304.247">  2  4  1 -1</clus>
<clus scale="   81.606">  2  3  1 -1</clus>
</clustering>
</event>
<event>
 6    0  0.4081161E+002  0.1060533E+03  0.7546771E-02  0.1268058E+00
         21   -1    0    0  505  502  0.00000000000E+00  0.00000000000E+00  0.38480508022E+03  0.38480508022E+03  0.00000000000E+00 0.  1.
         -2   -1    0    0    0  501 -0.00000000000E+00 -0.00000000000E+00 -0.13657448549E+03  0.13657448549E+03  0.00000000000E+00 0.  1.
         21    1    1    2  503  501  0.51497475761E+02 -0.19718122864E+02 -0.11856653094E+01  0.55156143640E+02  0.00000000000E+00 0.  1.
         21    1    1    2  504  502 -0.90182246521E+02 -0.73095343759E+01  0.45337793303E+02  0.10120169160E+03  0.00000000000E+00 0.  1.
         21    1    1    2  505  503  0.96013220045E+02  0.68143983352E+02  0.25307893409E+03  0.27912557706E+03  0.00000000000E+00 0.  1.
         -2    1    1    2    0  504 -0.57328449285E+02 -0.41116326112E+02 -0.49000467353E+02  0.85896153413E+02  0.00000000000E+00 0.  1.
<scales pt_clust_3="55.14340" pt_clust_4="106.05327" pt_clust_5="14000.00000" pt_clust_6="59.07091"></scales>
<clustering>
<clus scale="   55.143">  2  3  1 -1</clus>
<clus scale="   59.071">  2  6  1 -1</clus>
<clus scale="  106.053">  2  4  1 -1</clus>
<clus scale="  106.053">  1  3  2 -1</clus>
</clustering>
</event>
<event>
 6    0  0.4081161E+002  0.1050961E+03  0.7546771E-02  0.1269930E+00
          2   -1    0    0  504    0 -0.00000000000E+00  0.00000000000E+00  0.15470736744E+04  0.15470736744E+04  0.00000000000E+00 0. -1.
         21   -1    0    0  505  502  0.00000000000E+00 -0.00000000000E+00 -0.55437408865E+03  0.55437408865E+03  0.00000000000E+00 0.  1.
         21    1    1    2  503  501 -0.10235462345E+03 -0.87742153545E+02  0.32653579382E+03  0.35327153734E+03  0.00000000000E+00 0. -1.
         21    1    1    2  504  502  0.35368778872E+02  0.32694337778E+02 -0.49969092313E+03  0.50200686141E+03  0.00000000000E+00 0.  1.
         21    1    1    2  505  503  0.15614335042E+02 -0.32259717399E+02 -0.29567863950E+02  0.46462408505E+02  0.00000000000E+00 0. -1.
          2    1    1    2  501    0  0.51371509538E+02  0.87307533166E+02  0.11954225790E+04  0.11997069558E+04  0.00000000000E+00 0. -1.
<scales pt_clust_3="105.09605" pt_clust_4="50.53360" pt_clust_5="35.83988" pt_clust_6="14000.00000"></scales>
<clustering>
<clus scale="   35.840">  2  5  1 -1</clus>
<clus scale="   50.534">  2  4  1 -1</clus>
<clus scale="  105.096">  2  3  1 -1</clus>
<clus scale="   35.840">  2  3  1 -1</clus>
</clustering>
</event>
<event>
 6    0  0.4081161E+002  0.9090102E+02  0.7546771E-02  0.1300684E+00
          1   -1    0    0  503    0 -0.00000000000E+00  0.00000000000E+00  0.79133688100E+03  0.79133688100E+03  0.00000000000E+00 0.  1.
         21   -1    0    0  504  502  0.00000000000E+00 -0.00000000000E+00 -0.22717086144E+03  0.22717086144E+03  0.00000000000E+00 0. -1.
         21    1    1    2  503  502  0.26817239825E+02  0.11942326143E+03 -0.15607820236E+03  0.19834688042E+03  0.00000000000E+00 0. -1.
         21    1    1    2  504  505 -0.51086120029E+02 -0.96937500133E+01  0.23875514931E+02  0.57217136088E+02  0.00000000000E+00 0. -1.
         21    1    1    2  505  501 -0.23932036039E+02 -0.67023530966E+02  0.80532129988E+01  0.71622275108E+02  0.00000000000E+00 0.  1.
          1    1    1    2  501    0  0.48200916243E+02 -0.42705980448E+02  0.68831549399E+03  0.69132145082E+03  0.00000000000E+00 0.  1.
<scales pt_clust_3="14000.00000" pt_clust_4="51.99770" pt_clust_5="90.90102" pt_clust_6="64.17176"></scales>
<clustering>
<clus scale="   51.998">  2  4  1 -1</clus>
<clus scale="   64.172">  1  6  2 -1</clus>
<clus scale="   90.901">  1  5  2 -1</clus>
<clus scale="   51.998">  2  3  1 -1</clus>
</clustering>
</event>
<event>
 6    0  0.4081161E+002  0.6782611E+02  0.7546771E-02  0.1367645E+00
          2   -1    0    0  504    0 -0.00000000000E+00  0.00000000000E+00  0.10742465242E+04  0.10742465242E+04  0.00000000000E+00 0.  1.
         21   -1    0    0  503  502  0.00000000000E+00 -0.00000000000E+00 -0.10303293369E+03  0.10303293369E+03  0.00000000000E+00 0. -1.
         21    1    1    2  503  501  0.74971095321E+02 -0.63066209297E+00 -0.56771432389E+02  0.94042854082E+02  0.00000000000E+00 0. -1.
         21    1    1    2  504  505 -0.39696285523E+02  0.39021548612E+02  0.88659180938E+03  0.88833749937E+03  0.00000000000E+00 0.  1.
         21    1    1    2  505  502 -0.14534737953E+02  0.39366195989E+02  0.14040340517E+02  0.44250278596E+02  0.00000000000E+00 0. -1.
          2    1    1    2  501    0 -0.20740071845E+02 -0.77757082508E+02  0.12735287298E+03  0.15064882580E+03  0.00000000000E+00 0.  1.
<scales pt_clust_3="14000.00000" pt_clust_4="56.04108" pt_clust_5="41.96375" pt_clust_6="67.82611"></scales>
<clustering>
<clus scale="   41.964">  2  5  1 -1</clus>
<clus scale="   56.041">  1  4  2 -1</clus>
<clus scale="   67.826">  1  6  2 -1</clus>
<clus scale="   41.964">  2  3  1 -1</clus>
</clustering>
</event>
<event>
 6    0  0.4081161E+002  0.1041374E+03  0.7546771E-02  0.1271829E+00
          4   -1    0    0  504    0 -0.00000000000E+00  0.00000000000E+00  0.88522136639E+03  0.88522136639E+03  0.00000000000E+00 0.  1.
         21   -1    0    0  505  502  0.00000000000E+00 -0.00000000000E+00 -0.17199748019E+04  0.17199748019E+04  0.00000000000E+00 0. -1.
         21    1    1    2  503  502 -0.40039193568E+02  0.97827918192E+02 -0.16245847721E+04  0.16280200000E+04  0.00000000000E+00 0. -1.
         21    1    1    2  504  503 -0.60247882014E+01 -0.43767693802E+02  0.38191725907E+03  0.38446417502E+03  0.00000000000E+00 0.  1.
         21    1    1    2  505  501 -0.35744324674E+02 -0.96238990669E+02 -0.57918496047E+02  0.11787345866E+03  0.00000000000E+00 0. -1.
          4    1    1    2  501    0  0.81808306444E+02  0.42178766280E+02  0.46583257359E+03  0.47483853460E+03  0.00000000000E+00 0.  1.
<scales pt_clust_3="14000.00000" pt_clust_4="44.18042" pt_clust_5="104.13739" pt_clust_6="76.17294"></scales>
<clustering>
<clus scale="   44.180">  1  4  2 -1</clus>
<clus scale="   76.173">  1  6  2 -1</clus>
<clus scale="  104.137">  1  5  2 -1</clus>
<clus scale="  104.137">  2  3  1 -1</clus>
</clustering>
</event>
<event>
 6    0  0.4081161E+002  0.7481710E+02  0.7546771E-02  0.1344438E+00
         21   -1    0    0  505  502  0.00000000000E+00  0.00000000000E+00  0.92956690479E+02  0.92956690479E+02  0.00000000000E+00 0. -1.
          1   -1    0    0  503    0 -0.00000000000E+00 -0.00000000000E+00 -0.16809204367E+04  0.16809204367E+04  0.00000000000E+00 0. -1.
         21    1    1    2  503  504  0.46809770362E+02 -0.52201259664E+02 -0.10682003941E+04  0.10704990463E+04  0.00000000000E+00 0. -1.
         21    1    1    2  504  502 -0.32653579598E+02 -0.11572613168E+02 -0.34956976022E+01  0.34819556830E+02  0.00000000000E+00 0.  1.
         21    1    1    2  505  501  0.38360512767E+02  0.86707092131E+02  0.44593740769E+02  0.10477714675E+03  0.00000000000E+00 0. -1.
          1    1    1    2  501    0 -0.52516703531E+02 -0.22933219300E+02 -0.56086139527E+03  0.56378137731E+03  0.00000000000E+00 0. -1.
<scales pt_clust_3="14000.00000" pt_clust_4="34.64364" pt_clust_5="74.81710" pt_clust_6="57.95838"></scales>
<clustering>
<clus scale="   34.644">  1  4  2 -1</clus>
<clus scale="   57.958">  2  6  1 -1</clus>
<clus scale="   74.817">  1  5  2 -1</clus>
<clus scale="   34.644">  1  3  2 -1</clus>
</clustering>
</event>
<event>
 6    0  0.4081161E+002  0.8677001E+02  0.7546771E-02  0.1310868E+00
         21   -1    0    0  504  502  0.00000000000E+00  0.00000000000E+00  0.69671437870E+03  0.69671437870E+03  0.00000000000E+00 0. -1.
          1   -1    0    0  505    0 -0.00000000000E+00 -0.00000000000E+00 -0.43047433347E+02  0.43047433347E+02  0.00000000000E+00 0. -1.
         21    1    1    2  503  502  0.29102773999E+02  0.21122866096E+02  0.18186673129E+03  0.18538784986E+03  0.00000000000E+00 0. -1.
         21    1    1    2  504  501 -0.89949989508E+02  0.29941679379E+02  0.34241941578E+03  0.35530066293E+03  0.00000000000E+00 0. -1.
         21    1    1    2  505  503  0.29540087414E+01  0.40778645628E+02  0.49962752666E+02  0.64559280981E+02  0.00000000000E+00 0. -1.
          1    1    1    2  501    0  0.57893206767E+02 -0.91843191103E+02  0.79418045618E+02  0.13451401827E+03  0.00000000000E+00 0. -1.
<scales pt_clust_3="35.96035" pt_clust_4="86.77001" pt_clust_5="43.57954" pt_clust_6="14000.00000"></scales>
<clustering>
<clus scale="   35.960">  1  3  2 -1</clus>
<clus scale="   43.580">  2  5  1 -1</clus>
<clus scale="   86.770">  1  4  2 -1</clus>
<clus scale="   35.960">  1  3  2 -1</clus>
</clustering>
</event>
<event>
 6    0  0.4081161E+002  0.7367936E+02  0.7546771E-02  0.1348010E+00
          2   -1    0    0  504    0 -0.00000000000E+00  0.00000000000E+00  0.26187770825E+04  0.26187770825E+04  0.00000000000E+00 0.  1.
         21   -1    0    0  505  502  0.00000000000E+00 -0.00000000000E+00 -0.10772632394E+03  0.10772632394E+03  0.00000000000E+00 0. -1.
         21    1    1    2  503  502 -0.15261465770E+02 -0.31039993372E+02  0.10076024528E+02  0.36026653970E+02  0.00000000000E+00 0. -1.
         21    1    1    2  504  503  0.60390092217E+02 -0.23337893662E+02  0.17703720701E+03  0.18850409329E+03  0.00000000000E+00 0.  1.
         21    1    1    2  505  501  0.70481822661E+02 -0.17231000871E+02 -0.71976801572E+02  0.10220202875E+03  0.00000000000E+00 0. -1.
          2    1    1    2  501    0 -0.11561044911E+03  0.71608887905E+02  0.23959143286E+04  0.23997706304E+04  0.00000000000E+00 0.  1.
<scales pt_clust_3="34.58892" pt_clust_4="64.59204" pt_clust_5="14000.00000" pt_clust_6="73.67936"></scales>
<clustering>
<clus scale="   34.589">  2  3  1 -1</clus>
<clus scale="   64.592">  1  4  2 -1</clus>
<clus scale="   73.679">  1  6  2 -1</clus>
<clus scale="   34.589">  2  3  1 -1</clus>
</clustering>
</event>
<event>
 6    0  0.4081161E+002  0.1833415E+03  0.7546771E-02  0.1164608E+00
         21   -1    0    0  504  502  0.00000000000E+00  0.00000000000E+00  0.16886087179E+03  0.16886087179E+03  0.00000000000E+00 0.  1.
          1   -1    0    0  505    0 -0.00000000000E+00 -0.00000000000E+00 -0.50431821020E+03  0.50431821020E+03  0.00000000000E+00 0.  1.
         21    1    1    2  503  501 -0.71046706467E+02  0.48377833144E+01  0.17788019336E+02  0.73399266203E+02  0.00000000000E+00 0.  1.
         21    1    1    2  504  503 -0.86677439716E+02 -0.75586166089E+02  0.70295618271E+02  0.13478768864E+03  0.00000000000E+00 0.  1.
         21    1    1    2  505  502  0.28053912132E+02  0.12760217753E+02 -0.18351157124E+03  0.18608154643E+03  0.00000000000E+00 0.  1.
          1    1    1    2  501    0  0.12967023405E+03  0.57988165022E+02 -0.24002940478E+03  0.27891058072E+03  0.00000000000E+00 0.  1.
<scales pt_clust_3="59.19662" pt_clust_4="59.19662" pt_clust_5="30.81956" pt_clust_6="167.07258"></scales>
<clustering>
<clus scale="   30.820">  2  5  1 -1</clus>
<clus scale="   59.197">  3  4 -1 -1</clus>
<clus scale="  167.073">  2  6  1 -1</clus>
<clus scale="  183.341">  1  3  2 -1</clus>
</clustering>
</event>
<event>
 6    0  0.4081161E+002  0.1500368E+03  0.7546771E-02  0.1200428E+00
          2   -1    0    0  504    0 -0.00000000000E+00  0.00000000000E+00  0.21816722031E+04  0.21816722031E+04  0.00000000000E+00 0. -1.
         21   -1    0    0  503  502  0.00000000000E+00 -0.00000000000E+00 -0.61297600748E+03  0.61297600748E+03  0.00000000000E+00 0.  1.
         21    1    1    2  503  501 -0.12857581489E+02  0.37644014759E+02 -0.22068327456E+02  0.45490661961E+02  0.00000000000E+00 0.  1.
         21    1    1    2  504  505  0.94935590008E+02  0.32905635943E+02 -0.31291545246E+03  0.32865122473E+03  0.00000000000E+00 0.  1.
         21    1    1    2  505  502  0.15240030119E+01  0.54724910103E+02 -0.25285747643E+03  0.25871614128E+03  0.00000000000E+00 0.  1.
          2    1    1    2  501    0 -0.83602011531E+02 -0.12527456080E+03  0.21565374520E+04  0.21617901827E+04  0.00000000000E+00 0. -1.
<scales pt_clust_3="39.77926" pt_clust_4="14000.00000" pt_clust_5="71.47023" pt_clust_6="150.03677"></scales>
<clustering>
<clus scale="   39.779">  2  3  1 -1</clus>
<clus scale="   71.470">  2  5  1 -1</clus>
<clus scale="  150.037">  1  6  2 -1</clus>
<clus scale="   39.779">  2  3  1 -1</clus>
</clustering>
</event>
<event>
 6    0  0.4081161E+002  0.9093801E+02  0.7546771E-02  0.1300596E+00
          1   -1    0    0  504    0 -0.00000000000E+00  0.00000000000E+00  0.91161680479E+03  0.91161680479E+03  0.00000000000E+00 0. -1.
         21   -1    0    0  503  502  0.00000000000E+00 -0.00000000000E+00 -0.25821747969E+03  0.25821747969E+03  0.00000000000E+00 0.  1.
         21    1    1    2  503  501 -0.41705276571E+02  0.46068655807E+02  0.28740304253E+03  0.29404448642E+03  0.00000000000E+00 0. -1.
         21    1    1    2  504  505  0.15953091311E+03  0.37991586654E+02  0.83254593372E+01  0.16420349011E+03  0.00000000000E+00 0.  1.
         21    1    1    2  505  502 -0.64946723989E+02 -0.53266133374E+02 -0.16510405138E+03  0.18524228919E+03  0.00000000000E+00 0.  1.
          1    1    1    2  501    0 -0.52878912545E+02 -0.30794109087E+02  0.52277487462E+03  0.52634401875E+03  0.00000000000E+00 0. -1.
<scales pt_clust_3="84.59281" pt_clust_4="90.93801" pt_clust_5="14000.00000" pt_clust_6="61.19196"></scales>
<clustering>
<clus scale="   61.192">  1  6  2 -1</clus>
<clus scale="   84.593">  1  3  2 -1</clus>
<clus scale="   90.938">  1  4  2 -1</clus>
<clus scale="   90.938">  2  3  1 -1</clus>
</clustering>
</event>
<event>
 6    0  0.4081161E+002  0.1349401E+03  0.7546771E-02  0.1220304E+00
         21   -1    0    0  503  502  0.00000000000E+00  0.00000000000E+00  0.43011922116E+03  0.43011922116E+03  0.00000000000E+00 0.  1.
         -2   -1    0    0    0  501 -0.00000000000E+00 -0.00000000000E+00 -0.57976729976E+03  0.57976729976E+03  0.00000000000E+00 0.  1.
         21    1    1    2  503  504  0.54171200119E+02 -0.37361230203E+01  0.12185176079E+03  0.13340288283E+03  0.00000000000E+00 0.  1.
         21    1    1    2  504  501  0.55380958005E+02 -0.57014654236E+02  0.28703102221E+03  0.29783305562E+03  0.00000000000E+00 0.  1.
         21    1    1    2  505  502 -0.43658026724E+02  0.68500650076E+02 -0.24293184211E+03  0.25615277134E+03  0.00000000000E+00 0. -1.
         -2    1    1    2    0  505 -0.65894131400E+02 -0.77498728196E+01 -0.31559901950E+03  0.32249781114E+03  0.00000000000E+00 0.  1.
<scales pt_clust_3="45.92252" pt_clust_4="45.92252" pt_clust_5="122.97101" pt_clust_6="66.34830"></scales>
<clustering>
<clus scale="   45.923">  3  4 -1 -1</clus>
<clus scale="   66.348">  2  6  1 -1</clus>
<clus scale="  122.971">  2  5  1 -1</clus>
<clus scale="  134.940">  1  3  2 -1</clus>
</clustering>
</event>
<event>
 6    0  0.4081161E+002  0.1195240E+03  0.7546771E-02  0.1243884E+00
         21   -1    0    0  504  502  0.00000000000E+00  0.00000000000E+00  0.45897090293E+02  0.45897090293E+02  0.00000000000E+00 0. -1.
          4   -1    0    0  503    0 -0.00000000000E+00 -0.00000000000E+00 -0.14046605120E+04  0.14046605120E+04  0.00000000000E+00 0.  1.
         21    1    1    2  503  502  0.35585483669E+02 -0.38307396005E+02 -0.15327289260E+03  0.16194555518E+03  0.00000000000E+00 0.  1.
         21    1    1    2  504  505  0.19092560278E+02  0.29309866859E+02 -0.77566523628E+02  0.85089128219E+02  0.00000000000E+00 0. -1.
         21    1    1    2  505  501 -0.10855128680E+03  0.62276094457E+02 -0.70995597289E+02  0.14388213455E+03  0.00000000000E+00 0. -1.
          4    1    1    2  501    0  0.53873242853E+02 -0.53278565311E+02 -0.10569284082E+04  0.10596407843E+04  0.00000000000E+00 0.  1.
<scales pt_clust_3="51.53141" pt_clust_4="34.97991" pt_clust_5="119.52396" pt_clust_6="14000.00000"></scales>
<clustering>
<clus scale="   34.980">  1  4  2 -1</clus>
<clus scale="   51.531">  2  3  1 -1</clus>
<clus scale="  119.524">  1  5  2 -1</clus>
<clus scale="   34.980">  1  3  2 -1</clus>
</clustering>
</event>
<event>
 6    0  0.4081161E+002  0.1558483E+03  0.7546771E-02  0.1193465E+00
         21   -1    0    0  503  502  0.00000000000E+00  0.00000000000E+00  0.34753703146E+03  0.34753703146E+03  0.00000000000E+00 0. -1.
          2   -1    0    0  502    0 -0.00000000000E+00 -0.00000000000E+00 -0.92999896397E+03  0.92999896397E+03  0.00000000000E+00 0.  1.
         21    1    1    2  503  505  0.18605281386E+02 -0.47477869001E+02  0.23055033275E+03  0.23612234217E+03  0.00000000000E+00 0. -1.
         21    1    1    2  504  501 -0.42903583562E+02  0.42069726878E+02 -0.23254554971E+03  0.24018328854E+03  0.00000000000E+00 0.  1.
         21    1    1    2  505  504  0.70503673859E+02 -0.73806451383E+02  0.82937777988E+02  0.13151743349E+03  0.00000000000E+00 0. -1.
          2    1    1    2  501    0 -0.46205371683E+02  0.79214593505E+02 -0.66340449354E+03  0.66971293122E+03  0.00000000000E+00 0.  1.
<scales pt_clust_3="50.99318" pt_clust_4="40.75029" pt_clust_5="147.49345" pt_clust_6="40.75029"></scales>
<clustering>
<clus scale="   40.750">  4  6 -1 -1</clus>
<clus scale="   50.993">  1  3  2 -1</clus>
<clus scale="  147.493">  1  5  2 -1</clus>
<clus scale="   50.993">  1  3  2 -1</clus>
</clustering>
</event>
<event>
 6    0  0.4081161E+002  0.1322858E+03  0.7546771E-02  0.1224103E+00
         21   -1    0    0  504  502  0.00000000000E+00  0.00000000000E+00  0.18839849938E+03  0.18839849938E+03  0.00000000000E+00 0. -1.
          1   -1    0    0  503    0 -0.00000000000E+00 -0.00000000000E+00 -0.41956247833E+03  0.41956247833E+03  0.00000000000E+00 0.  1.
         21    1    1    2  503  505 -0.11582137983E+03  0.11679470052E+01 -0.14704838747E+03  0.18718756471E+03  0.00000000000E+00 0. -1.
         21    1    1    2  504  501 -0.78429503965E+02 -0.41778983528E+02  0.63632007790E+02  0.10929639963E+03  0.00000000000E+00 0. -1.
         21    1    1    2  505  502  0.41732668488E+02 -0.11319203074E+02  0.43549896432E+02  0.61370460782E+02  0.00000000000E+00 0. -1.
          1    1    1    2  501    0  0.15251821531E+03  0.51930239597E+02 -0.19129749571E+03  0.25010655259E+03  0.00000000000E+00 0.  1.
<scales pt_clust_3="14000.00000" pt_clust_4="71.35113" pt_clust_5="43.24049" pt_clust_6="132.28578"></scales>
<clustering>
<clus scale="   43.240">  1  5  2 -1</clus>
<clus scale="   71.351">  1  4  2 -1</clus>
<clus scale="  132.286">  1  6  2 -1</clus>
<clus scale="   43.240">  1  3  2 -1</clus>
</clustering>
</event>
<event>
 6    0  0.4081161E+002  0.2145406E+03  0.7546771E-02  0.1138020E+00
          2   -1    0    0  504    0 -0.00000000000E+00  0.00000000000E+00  0.31308829659E+04  0.31308829659E+04  0.00000000000E+00 0. -1.
         21   -1    0    0  505  502  0.00000000000E+00 -0.00000000000E+00 -0.12150865453E+03  0.12150865453E+03  0.00000000000E+00 0. -1.
         21    1    1    2  503  501  0.13801613344E+03  0.14427864558E+02  0.96211102616E+03  0.97206699513E+03  0.00000000000E+00 0.  1.
         21    1    1    2  504  502 -0.23082046567E+03  0.32021791763E+02  0.77796454060E+02  0.24567411501E+03  0.00000000000E+00 0. -1.
         21    1    1    2  505  503  0.34017254533E+01 -0.37345401899E+02 -0.20444542034E+02  0.42711006521E+02  0.00000000000E+00 0. -1.
          2    1    1    2  501    0  0.89402606778E+02 -0.91042544224E+01  0.19899113732E+04  0.19919395038E+04  0.00000000000E+00 0. -1.
<scales pt_clust_3="14000.00000" pt_clust_4="214.54061" pt_clust_5="37.50001" pt_clust_6="89.94675"></scales>
<clustering>
<clus scale="   37.500">  2  5  1 -1</clus>
<clus scale="   89.947">  1  6  2 -1</clus>
<clus scale="  214.541">  2  4  1 -1</clus>
<clus scale="   37.500">  2  3  1 -1</clus>
</clustering>
</event>
<event>
 6    0  0.4081161E+002  0.9864436E+02  0.7546771E-02  0.1283173E+00
         21   -1    0    0  501  502  0.00000000000E+00  0.00000000000E+00  0.78726327669E+02  0.78726327669E+02  0.00000000000E+00 0.  1.
          2   -1    0    0  505    0 -0.00000000000E+00 -0.00000000000E+00 -0.85686803014E+03  0.85686803014E+03  0.00000000000E+00 0. -1.
         21    1    1    2  503  502  0.28142184503E+00 -0.40620137792E+02  0.49299953506E+02  0.63879262740E+02  0.00000000000E+00 0.  1.
         21    1    1    2  504  503 -0.23853045768E+02  0.12850767857E+03 -0.24794649873E+03  0.28028674153E+03  0.00000000000E+00 0.  1.
         21    1    1    2  505  504  0.31511625081E+02 -0.26610637826E+01 -0.19249409586E+03  0.19507444917E+03  0.00000000000E+00 0.  1.
          2    1    1    2  501    0 -0.79400011582E+01 -0.85226476994E+02 -0.38700106138E+03  0.39635390437E+03  0.00000000000E+00 0. -1.
<scales pt_clust_3="40.65424" pt_clust_4="98.64436" pt_clust_5="31.62378" pt_clust_6="14000.00000"></scales>
<clustering>
<clus scale="   31.624">  2  5  1 -1</clus>
<clus scale="   40.654">  1  3  2 -1</clus>
<clus scale="   98.644">  1  4  2 -1</clus>
<clus scale="   40.654">  1  3  2 -1</clus>
</clustering>
</event>
<event>
 6    0  0.4081161E+002  0.9740794E+02  0.7546771E-02  0.1285843E+00
         -1   -1    0    0    0  501 -0.00000000000E+00  0.00000000000E+00  0.79772605968E+03  0.79772605968E+03  0.00000000000E+00 0. -1.
         21   -1    0    0  505  502  0.00000000000E+00 -0.00000000000E+00 -0.10311760947E+03  0.10311760947E+03  0.00000000000E+00 0.  1.
         21    1    1    2  503  501  0.17857624757E+02 -0.11730543469E+03  0.38433149179E+02  0.12472596652E+03  0.00000000000E+00 0.  1.
         21    1    1    2  504  502  0.60636689589E+02  0.52418655633E+02  0.56893725155E+01  0.80354791658E+02  0.00000000000E+00 0.  1.
         21    1    1    2  505  503 -0.27296541025E+02 -0.16795491603E+02 -0.56835374075E+01  0.32549843126E+02  0.00000000000E+00 0.  1.
         -1    1    1    2    0  504 -0.51197773321E+02  0.81682270659E+02  0.65616946593E+03  0.66321306784E+03  0.00000000000E+00 0. -1.
<scales pt_clust_3="97.40794" pt_clust_4="66.13348" pt_clust_5="32.04980" pt_clust_6="14000.00000"></scales>
<clustering>
<clus scale="   32.050">  2  5  1 -1</clus>
<clus scale="   66.133">  2  4  1 -1</clus>
<clus scale="   97.408">  2  3  1 -1</clus>
<clus scale="   32.050">  2  3  1 -1</clus>
</clustering>
</event>
<event>
 6    0  0.4081161E+002  0.1371017E+03  0.7546771E-02  0.1217283E+00
         21   -1    0    0  504  502  0.00000000000E+00  0.00000000000E+00  0.13338890269E+03  0.13338890269E+03  0.00000000000E+00 0.  1.
          1   -1    0    0  503    0 -0.00000000000E+00 -0.00000000000E+00 -0.38874890016E+03  0.38874890016E+03  0.00000000000E+00 0.  1.
         21    1    1    2  503  505 -0.82353851340E+01 -0.30095227169E+02 -0.14171589880E+03  0.14511009696E+03  0.00000000000E+00 0.  1.
         21    1    1    2  504  501  0.12972176302E+03 -0.47940954655E+01 -0.27252471630E+02  0.13264017628E+03  0.00000000000E+00 0.  1.
         21    1    1    2  505  502 -0.14366310921E+03 -0.29642860571E+02 -0.18021898363E+02  0.14779234402E+03  0.00000000000E+00 0.  1.
          1    1    1    2  501    0  0.22176731315E+02  0.64532183206E+02 -0.68369728675E+02  0.96595185595E+02  0.00000000000E+00 0.  1.
<scales pt_clust_3="31.20167" pt_clust_4="14000.00000" pt_clust_5="137.10170" pt_clust_6="57.77166"></scales>
<clustering>
<clus scale="   31.202">  2  3  1 -1</clus>
<clus scale="   57.772">  2  6  1 -1</clus>
<clus scale="  137.102">  2  5  1 -1</clus>
<clus scale="  137.102">  1  3  2 -1</clus>
</clustering>
</event>
<event>
 6    0  0.4081161E+002  0.3139958E+03  0.7546771E-02  0.1078446E+00
         21   -1    0    0  501  502  0.00000000000E+00  0.00000000000E+00  0.67754510552E+03  0.67754510552E+03  0.00000000000E+00 0.  1.
          2   -1    0    0  505    0 -0.00000000000E+00 -0.00000000000E+00 -0.20556034337E+04  0.20556034337E+04  0.00000000000E+00 0. -1.
         21    1    1    2  503  504 -0.27250810111E+02  0.65111587398E+02  0.20181860073E+03  0.21380568997E+03  0.00000000000E+00 0.  1.
         21    1    1    2  504  502 -0.15302112489E+03  0.18228741584E+03  0.42210040774E+03  0.48457498992E+03  0.00000000000E+00 0.  1.
         21    1    1    2  505  503  0.16867362829E+02  0.26525435561E+02 -0.71313823598E+02  0.77934383276E+02  0.00000000000E+00 0. -1.
          2    1    1    2  501    0  0.16340457217E+03 -0.27392443880E+03 -0.19306635131E+04  0.19568334761E+04  0.00000000000E+00 0. -1.
<scales pt_clust_3="37.56081" pt_clust_4="37.56081" pt_clust_5="31.43416" pt_clust_6="306.32819"></scales>
<clustering>
<clus scale="   31.434">  2  5  1 -1</clus>
<clus scale="   37.561">  3  4 -1 -1</clus>
<clus scale="  306.328">  2  6  1 -1</clus>
<clus scale="  313.996">  1  3  2 -1</clus>
</clustering>
</event>
<event>
 6    0  0.4081161E+002  0.8196236E+02  0.7546771E-02  0.1323573E+00
         21   -1    0    0  503  502  0.00000000000E+00  0.00000000000E+00  0.14390533702E+03  0.14390533702E+03  0.00000000000E+00 0.  1.
          1   -1    0    0  504    0 -0.00000000000E+00 -0.00000000000E+00 -0.21899416613E+04  0.21899416613E+04  0.00000000000E+00 0. -1.
         21    1    1    2  503  505  0.25530121838E+02 -0.26907762577E+02  0.12470666122E+03  0.13010598049E+03  0.00000000000E+00 0.  1.
         21    1    1    2  504  502  0.70418696467E+02  0.19228174846E+00 -0.11626300523E+04  0.11647606915E+04  0.00000000000E+00 0. -1.
         21    1    1    2  505  501  0.29791222574E+02  0.33405338273E+02 -0.32597296607E+02  0.55371629140E+02  0.00000000000E+00 0. -1.
          1    1    1    2  501    0 -0.12574004088E+03 -0.66898574444E+01 -0.97551563657E+03  0.98360869723E+03  0.00000000000E+00 0. -1.
<scales pt_clust_3="37.09198" pt_clust_4="81.96236" pt_clust_5="49.67796" pt_clust_6="14000.00000"></scales>
<clustering>
<clus scale="   37.092">  1  3  2 -1</clus>
<clus scale="   49.678">  1  5  2 -1</clus>
<clus scale="   81.962">  2  4  1 -1</clus>
<clus scale="   37.092">  1  3  2 -1</clus>
</clustering>
</event>
<event>
 6    0  0.4081161E+002  0.9943625E+02  0.7546771E-02  0.1281486E+00
          2   -1    0    0  504    0 -0.00000000000E+00  0.00000000000E+00  0.11358630928E+04  0.11358630928E+04  0.00000000000E+00 0. -1.
         21   -1    0    0  505  502  0.00000000000E+00 -0.00000000000E+00 -0.46320173637E+02  0.46320173637E+02  0.00000000000E+00 0.  1.
         21    1    1    2  503  502 -0.38813760795E+02 -0.37175092517E+02 -0.15626169657E+02  0.55970284159E+02  0.00000000000E+00 0.  1.
         21    1    1    2  504  503  0.11234547917E+03 -0.40958039333E+01  0.42571332839E+03  0.44030684785E+03  0.00000000000E+00 0. -1.
         21    1    1    2  505  501 -0.20145168626E+02  0.30328806587E+02  0.19272978719E+03  0.19613881615E+03  0.00000000000E+00 0. -1.
          2    1    1    2  501    0 -0.53386549752E+02  0.10942089863E+02  0.48672597326E+03  0.48976731830E+03  0.00000000000E+00 0. -1.
<scales pt_clust_3="53.74473" pt_clust_4="90.50234" pt_clust_5="33.67069" pt_clust_6="33.67069"></scales>
<clustering>
<clus scale="   33.671">  5  6 -1 -1</clus>
<clus scale="   53.745">  2  3  1 -1</clus>
<clus scale="   90.502">  2  4  1 -1</clus>
<clus scale="   53.745">  2  3  1 -1</clus>
</clustering>
</event>
<event>
 6    0  0.4081161E+002  0.1934770E+03  0.7546771E-02  0.1155362E+00
         21   -1    0    0  503  502  0.00000000000E+00  0.00000000000E+00  0.38344522874E+03  0.38344522874E+03  0.00000000000E+00 0.  1.
          1   -1    0    0  505    0 -0.00000000000E+00 -0.00000000000E+00 -0.30322697289E+03  0.30322697289E+03  0.00000000000E+00 0.  1.
         21    1    1    2  503  501 -0.16544033352E+02  0.16301582603E+03  0.11418606676E+03  0.19971560385E+03  0.00000000000E+00 0.  1.
         21    1    1    2  504  502  0.12662269496E+03  0.36538822886E+02  0.13327674067E+03  0.18743287348E+03  0.00000000000E+00 0.  1.
         21    1    1    2  505  504  0.16318133148E+02 -0.39118737041E+02 -0.15708432985E+02  0.45203007909E+02  0.00000000000E+00 0.  1.
          1    1    1    2  501    0 -0.12639679475E+03 -0.16043591188E+03 -0.15153611861E+03  0.25432071639E+03  0.00000000000E+00 0.  1.
<scales pt_clust_3="193.47698" pt_clust_4="132.33498" pt_clust_5="42.38581" pt_clust_6="14000.00000"></scales>
<clustering>
<clus scale="   42.386">  2  5  1 -1</clus>
<clus scale="  132.335">  1  4  2 -1</clus>
<clus scale="  193.477">  1  3  2 -1</clus>
<clus scale="  132.335">  1  3  2 -1</clus>
</clustering>
</event>
<event>
 6    0  0.4081161E+002  0.1536971E+03  0.7546771E-02  0.1196002E+00
         -1   -1    0    0    0  501 -0.00000000000E+00  0.00000000000E+00  0.72615369746E+03  0.72615369746E+03  0.00000000000E+00 0. -1.
         21   -1    0    0  503  502  0.00000000000E+00 -0.00000000000E+00 -0.25423593072E+03  0.25423593072E+03  0.00000000000E+00 0. -1.
         21    1    1    2  503  505 -0.38653711778E+02  0.11537407235E+03 -0.20907559380E+03  0.24190471249E+03  0.00000000000E+00 0. -1.
         21    1    1    2  504  502 -0.30065777739E+02  0.29622710564E+02  0.10908590213E+02  0.43594188978E+02  0.00000000000E+00 0.  1.
         21    1    1    2  505  501  0.27142341384E+02 -0.48427845839E+02  0.93024507847E+02  0.10833061436E+03  0.00000000000E+00 0. -1.
         -1    1    1    2    0  504  0.41577148133E+02 -0.96568937075E+02  0.57706026248E+03  0.58656011234E+03  0.00000000000E+00 0. -1.
<scales pt_clust_3="14000.00000" pt_clust_4="42.20730" pt_clust_5="54.21256" pt_clust_6="153.69709"></scales>
<clustering>
<clus scale="   42.207">  2  4  1 -1</clus>
<clus scale="   54.213">  1  5  2 -1</clus>
<clus scale="  153.697">  1  6  2 -1</clus>
<clus scale="   42.207">  2  3  1 -1</clus>
</clustering>
</event>
<event>
 6    0  0.4081161E+002  0.9399628E+02  0.7546771E-02  0.1293453E+00
         21   -1    0    0  503  502  0.00000000000E+00  0.00000000000E+00  0.74444436811E+02  0.74444436811E+02  0.00000000000E+00 0.  1.
          1   -1    0    0  504    0 -0.00000000000E+00 -0.00000000000E+00 -0.81528056213E+03  0.81528056213E+03  0.00000000000E+00 0.  1.
         21    1    1    2  503  501 -0.17417144973E+00  0.33226570991E+02  0.87821366346E+01  0.34368026993E+02  0.00000000000E+00 0. -1.
         21    1    1    2  504  505  0.18525551468E+02  0.69640123942E+02 -0.20534561334E+03  0.21762298555E+03  0.00000000000E+00 0.  1.
         21    1    1    2  505  502  0.28963078194E+02 -0.12638188294E+03 -0.47385676915E+02  0.13804579896E+03  0.00000000000E+00 0.  1.
          1    1    1    2  501    0 -0.47314458212E+02  0.23515188011E+02 -0.49688697170E+03  0.49968818744E+03  0.00000000000E+00 0.  1.
<scales pt_clust_3="33.22703" pt_clust_4="14000.00000" pt_clust_5="93.99628" pt_clust_6="53.23750"></scales>
<clustering>
<clus scale="   33.227">  1  3  2 -1</clus>
<clus scale="   53.237">  2  6  1 -1</clus>
<clus scale="   93.996">  1  5  2 -1</clus>
<clus scale="   33.227">  1  3  2 -1</clus>
</clustering>
</event>
<event>
 6    0  0.4081161E+002  0.1369438E+03  0.7546771E-02  0.1217502E+00
          4   -1    0    0  504    0 -0.00000000000E+00  0.00000000000E+00  0.22523556139E+03  0.22523556139E+03  0.00000000000E+00 0. -1.
         21   -1    0    0  505  502  0.00000000000E+00 -0.00000000000E+00 -0.45989768765E+03  0.45989768765E+03  0.00000000000E+00 0. -1.
         21    1    1    2  503  502 -0.30528999520E+02  0.19319255294E+03 -0.26895813624E+03  0.33255655365E+03  0.00000000000E+00 0. -1.
         21    1    1    2  504  503  0.47582093986E+02 -0.42332492180E+02  0.27895175308E+02  0.69528672990E+02  0.00000000000E+00 0. -1.
         21    1    1    2  505  501  0.31960104845E+02 -0.95680684253E+02 -0.10744044114E+03  0.14737601580E+03  0.00000000000E+00 0. -1.
          4    1    1    2  501    0 -0.49013199311E+02 -0.55179376508E+02  0.11384127581E+03  0.13567200661E+03  0.00000000000E+00 0. -1.
<scales pt_clust_3="136.94376" pt_clust_4="63.68748" pt_clust_5="14000.00000" pt_clust_6="86.47707"></scales>
<clustering>
<clus scale="   63.687">  1  4  2 -1</clus>
<clus scale="   86.477">  1  6  2 -1</clus>
<clus scale="  136.944">  1  3  2 -1</clus>
<clus scale="  136.944">  2  3  1 -1</clus>
</clustering>
</event>
<event>
 6    0  0.4081161E+002  0.1689375E+03  0.7546771E-02  0.1178960E+00
         21   -1    0    0  505  502  0.00000000000E+00  0.00000000000E+00  0.28084230451E+03  0.28084230451E+03  0.00000000000E+00 0.  1.
          2   -1    0    0  502    0 -0.00000000000E+00 -0.00000000000E+00 -0.63788083510E+03  0.63788083510E+03  0.00000000000E+00 0. -1.
         21    1    1    2  503  504 -0.39862596885E+02  0.15156384288E+03  0.16231407718E+03  0.22562465457E+03  0.00000000000E+00 0.  1.
         21    1    1    2  504  501  0.22793395545E+02 -0.37707243399E+02 -0.90021577880E+02  0.10022604237E+03  0.00000000000E+00 0. -1.
         21    1    1    2  505  503 -0.40311178703E+02 -0.11031355617E+02  0.69081033609E+02  0.80739526501E+02  0.00000000000E+00 0.  1.
          2    1    1    2  501    0  0.57380380043E+02 -0.10282524386E+03 -0.49841206349E+03  0.51213291617E+03  0.00000000000E+00 0. -1.
<scales pt_clust_3="161.20712" pt_clust_4="30.90257" pt_clust_5="41.79332" pt_clust_6="30.90257"></scales>
<clustering>
<clus scale="   30.903">  4  6 -1 -1</clus>
<clus scale="   41.793">  1  5  2 -1</clus>
<clus scale="  161.207">  1  3  2 -1</clus>
<clus scale="   41.793">  1  3  2 -1</clus>
</clustering>
</event>
<event>
 6    0  0.4081161E+002  0.9857387E+02  0.7546771E-02  0.1283324E+00
         21   -1    0    0  505  502  0.00000000000E+00  0.00000000000E+00  0.12296092739E+04  0.12296092739E+04  0.00000000000E+00 0.  1.
          2   -1    0    0  504    0 -0.00000000000E+00 -0.00000000000E+00 -0.26481998258E+03  0.26481998258E+03  0.00000000000E+00 0.  1.
         21    1    1    2  503  501 -0.25020082406E+02 -0.97810419233E+02 -0.19595573216E+03  0.22043486929E+03  0.00000000000E+00 0.  1.
         21    1    1    2  504  502  0.11897906911E+03 -0.58811155001E+01  0.56145336852E+03  0.57395164555E+03  0.00000000000E+00 0.  1.
         21    1    1    2  505  503 -0.30051228823E+02  0.50043514437E+02  0.61274975364E+03  0.61552391528E+03  0.00000000000E+00 0.  1.
          2    1    1    2  501    0 -0.63907757880E+02  0.53648020296E+02 -0.13458098640E+02  0.84518826411E+02  0.00000000000E+00 0.  1.
<scales pt_clust_3="98.57387" pt_clust_4="14000.00000" pt_clust_5="58.37319" pt_clust_6="86.63357"></scales>
<clustering>
<clus scale="   58.373">  1  5  2 -1</clus>
<clus scale="   86.634">  2  6  1 -1</clus>
<clus scale="   98.574">  2  3  1 -1</clus>
<clus scale="   58.373">  1  3  2 -1</clus>
</clustering>
</event>
<event>
 6    0  0.4081161E+002  0.1618086E+03  0.7546771E-02  0.1186670E+00
         21   -1    0    0  505  502  0.00000000000E+00  0.00000000000E+00  0.59520548746E+02  0.59520548746E+02  0.00000000000E+00 0. -1.
          2   -1    0    0  502    0 -0.00000000000E+00 -0.00000000000E+00 -0.15498101888E+04  0.15498101888E+04  0.00000000000E+00 0.  1.
         21    1    1    2  503  501  0.68203335024E+02 -0.14685562649E+02 -0.16912354675E+03  0.18294844827E+03  0.00000000000E+00 0.  1.
         21    1    1    2  504  503  0.60099787574E+02 -0.46569715256E+02 -0.32031637185E+03  0.32921619176E+03  0.00000000000E+00 0.  1.
         21    1    1    2  505  504 -0.11957137478E+03  0.10298347976E+03 -0.82955074641E+02  0.17828195416E+03  0.00000000000E+00 0. -1.
          2    1    1    2  501    0 -0.87317478140E+01 -0.41728201854E+02 -0.91789464682E+03  0.91888414336E+03  0.00000000000E+00 0.  1.
<scales pt_clust_3="45.31714" pt_clust_4="45.31714" pt_clust_5="153.73589" pt_clust_6="42.63199"></scales>
<clustering>
<clus scale="   42.632">  2  6  1 -1</clus>
<clus scale="   45.317">  3  4 -1 -1</clus>
<clus scale="  153.736">  1  5  2 -1</clus>
<clus scale="  153.736">  1  3  2 -1</clus>
</clustering>
</event>
<event>
 6    0  0.4081161E+002  0.1709468E+03  0.7546771E-02  0.1176864E+00
          2   -1    0    0  503    0 -0.00000000000E+00  0.00000000000E+00  0.85402459866E+03  0.85402459866E+03  0.00000000000E+00 0.  1.
         21   -1    0    0  501  502  0.00000000000E+00 -0.00000000000E+00 -0.25094636496E+03  0.25094636496E+03  0.00000000000E+00 0.  1.
         21    1    1    2  503  505 -0.21620728533E+02  0.27188704747E+02  0.87704399763E+02  0.94333150620E+02  0.00000000000E+00 0. -1.
         21    1    1    2  504  502  0.39552477907E+02 -0.82464006743E+02 -0.19762985007E+03  0.21776654599E+03  0.00000000000E+00 0.  1.
         21    1    1    2  505  504 -0.97820213236E+02 -0.11734415032E+03  0.26008911359E+03  0.30163685243E+03  0.00000000000E+00 0.  1.
          2    1    1    2  501    0  0.79888463863E+02  0.17261945231E+03  0.45291457042E+03  0.49123441458E+03  0.00000000000E+00 0.  1.
<scales pt_clust_3="34.73732" pt_clust_4="91.01198" pt_clust_5="170.94682" pt_clust_6="14000.00000"></scales>
<clustering>
<clus scale="   34.737">  1  3  2 -1</clus>
<clus scale="   91.012">  2  4  1 -1</clus>
<clus scale="  170.947">  1  5  2 -1</clus>
<clus scale="   91.012">  2  3  1 -1</clus>
</clustering>
</event>
<event>
 6    0  0.4081161E+002  0.9205131E+02  0.7546771E-02  0.1297959E+00
          2   -1    0    0  505    0 -0.00000000000E+00  0.00000000000E+00  0.65515811053E+03  0.65515811053E+03  0.00000000000E+00 0. -1.
         21   -1    0    0  503  502  0.00000000000E+00 -0.00000000000E+00 -0.26390640574E+03  0.26390640574E+03  0.00000000000E+00 0. -1.
         21    1    1    2  503  504  0.73141417376E+02  0.43064178633E+01 -0.54911720576E+02  0.91561505160E+02  0.00000000000E+00 0.  1.
         21    1    1    2  504  501 -0.14155935595E+03 -0.16579640628E+02  0.62100190400E+01  0.14266218867E+03  0.00000000000E+00 0. -1.
         21    1    1    2  505  502  0.33996197688E+01  0.31717819667E+02 -0.11827562722E+03  0.12250184281E+03  0.00000000000E+00 0. -1.
          2    1    1    2  501    0  0.65018318803E+02 -0.19444596902E+02  0.55822903353E+03  0.56233897963E+03  0.00000000000E+00 0. -1.
<scales pt_clust_3="92.05131" pt_clust_4="14000.00000" pt_clust_5="31.89949" pt_clust_6="67.78164"></scales>
<clustering>
<clus scale="   31.899">  2  5  1 -1</clus>
<clus scale="   67.782">  1  6  2 -1</clus>
<clus scale="   92.051">  2  3  1 -1</clus>
<clus scale="   31.899">  2  3  1 -1</clus>
</clustering>
</event>
<event>
 6    0  0.4081161E+002  0.3380707E+03  0.7546771E-02  0.1067621E+00
         21   -1    0    0  505  502  0.00000000000E+00  0.00000000000E+00  0.60811970739E+03  0.60811970739E+03  0.00000000000E+00 0.  1.
         -2   -1    0    0    0  501 -0.00000000000E+00 -0.00000000000E+00 -0.72656340669E+03  0.72656340669E+03  0.00000000000E+00 0. -1.
         21    1    1    2  503  504 -0.26243049935E+03  0.14516354470E+03  0.45003067904E+02  0.30326143477E+03  0.00000000000E+00 0.  1.
         21    1    1    2  504  501 -0.28443785980E+02 -0.36307465784E+02 -0.17473917672E+03  0.18072371431E+03  0.00000000000E+00 0. -1.
         21    1    1    2  505  503  0.40215731501E+03  0.96245005519E+02  0.27650677133E+03  0.49744306377E+03  0.00000000000E+00 0.  1.
         -2    1    1    2    0  502 -0.11128302968E+03 -0.20510108443E+03 -0.26521436181E+03  0.35325490123E+03  0.00000000000E+00 0. -1.
<scales pt_clust_3="338.07074" pt_clust_4="46.12246" pt_clust_5="14000.00000" pt_clust_6="259.00618"></scales>
<clustering>
<clus scale="   46.122">  2  4  1 -1</clus>
<clus scale="  259.006">  2  6  1 -1</clus>
<clus scale="  338.071">  2  3  1 -1</clus>
<clus scale="  338.071">  1  3  2 -1</clus>
</clustering>
</event>
<event>
 6    0  0.4081161E+002  0.1405010E+03  0.7546771E-02  0.1212656E+00
         21   -1    0    0  503  502  0.00000000000E+00  0.00000000000E+00  0.37766911437E+02  0.37766911437E+02  0.00000000000E+00 0. -1.
          2   -1    0    0  504    0 -0.00000000000E+00 -0.00000000000E+00 -0.25948018010E+04  0.25948018010E+04  0.00000000000E+00 0. -1.
         21    1    1    2  503  501  0.30989921299E+02  0.96003598549E+02 -0.80486592115E+03  0.81116349597E+03  0.00000000000E+00 0. -1.
         21    1    1    2  504  505 -0.53761309702E+02 -0.16847690549E+03 -0.56949465713E+03  0.59632114720E+03  0.00000000000E+00 0. -1.
         21    1    1    2  505  502 -0.15439320381E+02  0.27463200056E+02  0.83531350059E+01  0.32594092034E+02  0.00000000000E+00 0. -1.
          2    1    1    2  501    0  0.38210708784E+02  0.45010106885E+02 -0.11910274463E+04  0.11924899772E+04  0.00000000000E+00 0. -1.
<scales pt_clust_3="140.50097" pt_clust_4="14000.00000" pt_clust_5="31.50555" pt_clust_6="59.51799"></scales>
<clustering>
<clus scale="   31.506">  1  5  2 -1</clus>
<clus scale="   59.518">  2  6  1 -1</clus>
<clus scale="  140.501">  2  3  1 -1</clus>
<clus scale="   31.506">  1  3  2 -1</clus>
</clustering>
</event>
<event>
 6    0  0.4081161E+002  0.1058833E+03  0.7546771E-02  0.1268389E+00
         21   -1    0    0  503  502  0.00000000000E+00  0.00000000000E+00  0.23774763542E+04  0.23774763542E+04  0.00000000000E+00 0.  1.
          4   -1    0    0  502    0 -0.00000000000E+00 -0.00000000000E+00 -0.22264204031E+03  0.22264204031E+03  0.00000000000E+00 0.  1.
         21    1    1    2  503  504  0.16687100626E+02  0.57017022594E+02  0.93224412212E+03  0.93413516336E+03  0.00000000000E+00 0.  1.
         21    1    1    2  504  505  0.43537889510E+02 -0.13163174748E+03  0.14281588392E+04  0.14348728636E+04  0.00000000000E+00 0.  1.
         21    1    1    2  505  501 -0.20029970086E+02  0.26984175386E+02 -0.30888237771E+02  0.45644590649E+02  0.00000000000E+00 0.  1.
          4    1    1    2  501    0 -0.40195020051E+02  0.47630549502E+02 -0.17468040965E+03  0.18546577689E+03  0.00000000000E+00 0.  1.
<scales pt_clust_3="59.40876" pt_clust_4="96.18808" pt_clust_5="32.50196" pt_clust_6="32.50196"></scales>
<clustering>
<clus scale="   32.502">  5  6 -1 -1</clus>
<clus scale="   59.409">  1  3  2 -1</clus>
<clus scale="   96.188">  1  4  2 -1</clus>
<clus scale="   59.409">  1  3  2 -1</clus>
</clustering>
</event>
<event>
 6    0  0.4081161E+002  0.1086544E+03  0.7546771E-02  0.1263082E+00
         21   -1    0    0  505  502  0.00000000000E+00  0.00000000000E+00  0.10778680655E+03  0.10778680655E+03  0.00000000000E+00 0. -1.
          2   -1    0    0  504    0 -0.00000000000E+00 -0.00000000000E+00 -0.10396161904E+04  0.10396161904E+04  0.00000000000E+00 0.  1.
         21    1    1    2  503  501  0.42930338524E+02  0.48935459099E+02 -0.48634116012E+03  0.49067852730E+03  0.00000000000E+00 0. -1.
         21    1    1    2  504  502 -0.46470477596E+02  0.20978934300E+02  0.58408019873E+01  0.51319937063E+02  0.00000000000E+00 0. -1.
         21    1    1    2  505  503 -0.12797717327E+01 -0.11058090545E+03  0.36044074615E+02  0.11631401369E+03  0.00000000000E+00 0. -1.
          2    1    1    2  501    0  0.48199108049E+01  0.40666512050E+02 -0.48737310036E+03  0.48909051892E+03  0.00000000000E+00 0.  1.
<scales pt_clust_3="30.91546" pt_clust_4="50.98648" pt_clust_5="101.42222" pt_clust_6="30.91546"></scales>
<clustering>
<clus scale="   30.915">  3  6 -1 -1</clus>
<clus scale="   50.986">  1  4  2 -1</clus>
<clus scale="  101.422">  1  5  2 -1</clus>
<clus scale="   50.986">  1  3  2 -1</clus>
</clustering>
</event>
<event>
 6    0  0.4081161E+002  0.7637558E+02  0.7546771E-02  0.1339663E+00
          1   -1    0    0  503    0 -0.00000000000E+00  0.00000000000E+00  0.15165915284E+04  0.15165915284E+04  0.00000000000E+00 0. -1.
         21   -1    0    0  505  502  0.00000000000E+00 -0.00000000000E+00 -0.45266948368E+02  0.45266948368E+02  0.00000000000E+00 0. -1.
         21    1    1    2  503  504  0.41369032661E+02 -0.12660107437E+02  0.53276815832E+03  0.53452182902E+03  0.00000000000E+00 0. -1.
         21    1    1    2  504  502  0.44226182570E+00 -0.31616431203E+02  0.63642575007E+02  0.71064559881E+02  0.00000000000E+00 0.  1.
         21    1    1    2  505  501  0.59468484797E+01  0.10660854626E+03  0.34517294901E+02  0.11221493122E+03  0.00000000000E+00 0. -1.
          1    1    1    2  501    0 -0.47758142966E+02 -0.62332007617E+02  0.84039655183E+03  0.84405715667E+03  0.00000000000E+00 0. -1.
<scales pt_clust_3="43.47164" pt_clust_4="31.61952" pt_clust_5="76.37558" pt_clust_6="14000.00000"></scales>
<clustering>
<clus scale="   31.620">  2  4  1 -1</clus>
<clus scale="   43.472">  1  3  2 -1</clus>
<clus scale="   76.376">  2  5  1 -1</clus>
<clus scale="   31.620">  2  3  1 -1</clus>
</clustering>
</event>
<event>
 6    0  0.4081161E+002  0.1138807E+03  0.7546771E-02  0.1253548E+00
         21   -1    0    0  505  502  0.00000000000E+00  0.00000000000E+00  0.42604707105E+03  0.42604707105E+03  0.00000000000E+00 0. -1.
          2   -1    0    0  503    0 -0.00000000000E+00 -0.00000000000E+00 -0.10526503526E+04  0.10526503526E+04  0.00000000000E+00 0.  1.
         21    1    1    2  503  504  0.30472826625E+02 -0.94780076622E+01 -0.33454111701E+02  0.46234223055E+02  0.00000000000E+00 0. -1.
         21    1    1    2  504  502 -0.10895820040E+03 -0.46423118960E+02  0.13398440520E+03  0.17882621800E+03  0.00000000000E+00 0. -1.
         21    1    1    2  505  501 -0.57308197075E+01  0.41516298678E+02  0.25972622953E+03  0.26308584085E+03  0.00000000000E+00 0. -1.
          2    1    1    2  501    0  0.84216193478E+02  0.14384827945E+02 -0.98685980459E+03  0.99055114176E+03  0.00000000000E+00 0.  1.
<scales pt_clust_3="31.91278" pt_clust_4="14000.00000" pt_clust_5="41.88751" pt_clust_6="113.88069"></scales>
<clustering>
<clus scale="   31.913">  2  3  1 -1</clus>
<clus scale="   41.888">  1  5  2 -1</clus>
<clus scale="  113.881">  2  6  1 -1</clus>
<clus scale="   41.888">  1  3  2 -1</clus>
</clustering>
</event>
<event>
 6    0  0.4081161E+002  0.1333530E+03  0.7546771E-02  0.1222564E+00
         -1   -1    0    0    0  501 -0.00000000000E+00  0.00000000000E+00  0.21551416898E+04  0.21551416898E+04  0.00000000000E+00 0. -1.
         21   -1    0    0  505  502  0.00000000000E+00 -0.00000000000E+00 -0.93052751488E+03  0.93052751488E+03  0.00000000000E+00 0.  1.
         21    1    1    2  503  504 -0.13131262169E+03  0.17705778694E+03  0.60213232747E+03  0.64121432011E+03  0.00000000000E+00 0.  1.
         21    1    1    2  504  502 -0.18306383681E+02  0.53145994108E+02 -0.10323913723E+03  0.11754973343E+03  0.00000000000E+00 0.  1.
         21    1    1    2  505  501  0.47737211738E+02 -0.16051546581E+03 -0.78929719208E+03  0.80686684996E+03  0.00000000000E+00 0.  1.
         -1    1    1    2    0  503  0.10188179363E+03 -0.69688315237E+02  0.15150181768E+04  0.15200383012E+04  0.00000000000E+00 0. -1.
<scales pt_clust_3="14000.00000" pt_clust_4="56.21050" pt_clust_5="112.83831" pt_clust_6="133.35299"></scales>
<clustering>
<clus scale="   56.211">  2  4  1 -1</clus>
<clus scale="  112.838">  2  5  1 -1</clus>
<clus scale="  133.353">  1  6  2 -1</clus>
<clus scale="   56.211">  2  3  1 -1</clus>
</clustering>
</event>
<event>
 6    0  0.4081161E+002  0.9194209E+02  0.7546771E-02  0.1298216E+00
          2   -1    0    0  505    0 -0.00000000000E+00  0.00000000000E+00  0.16502004070E+04  0.16502004070E+04  0.00000000000E+00 0. -1.
         21   -1    0    0  503  502  0.00000000000E+00 -0.00000000000E+00 -0.68496992703E+02  0.68496992703E+02  0.00000000000E+00 0.  1.
         21    1    1    2  503  504  0.72926293498E+01  0.83402055776E+02 -0.10577972821E+02  0.84385892538E+02  0.00000000000E+00 0.  1.
         21    1    1    2  504  501  0.10951182323E+03 -0.13187153044E+02  0.55654340215E+03  0.56736875039E+03  0.00000000000E+00 0. -1.
         21    1    1    2  505  502 -0.42001002148E+02 -0.14877150832E+02  0.23383135341E+02  0.50320818920E+02  0.00000000000E+00 0.  1.
          2    1    1    2  501    0 -0.74803450433E+02 -0.55337751900E+02  0.10123548496E+04  0.10166219378E+04  0.00000000000E+00 0. -1.
<scales pt_clust_3="76.27222" pt_clust_4="91.94209" pt_clust_5="44.55798" pt_clust_6="14000.00000"></scales>
<clustering>
<clus scale="   44.558">  2  5  1 -1</clus>
<clus scale="   76.272">  2  3  1 -1</clus>
<clus scale="   91.942">  2  4  1 -1</clus>
<clus scale="   44.558">  2  3  1 -1</clus>
</clustering>
</event>
<event>
 6    0  0.4081161E+002  0.7948793E+02  0.7546771E-02  0.1330511E+00
         21   -1    0    0  504  502  0.00000000000E+00  0.00000000000E+00  0.16354729466E+02  0.16354729466E+02  0.00000000000E+00 0. -1.
          2   -1    0    0  505    0 -0.00000000000E+00 -0.00000000000E+00 -0.12848981000E+04  0.12848981000E+04  0.00000000000E+00 0. -1.
         21    1    1    2  503  502 -0.19837178570E+02  0.33602589037E+02 -0.59750808460E+02  0.71363903728E+02  0.00000000000E+00 0. -1.
         21    1    1    2  504  501  0.86635609589E+02 -0.61252533567E+01 -0.36916011079E+03  0.37923928459E+03  0.00000000000E+00 0. -1.
         21    1    1    2  505  503 -0.47698249501E+01  0.39951387948E+02 -0.36860344308E+03  0.37079288407E+03  0.00000000000E+00 0. -1.
          2    1    1    2  501    0 -0.62028606069E+02 -0.67428723628E+02 -0.47102900816E+03  0.47985675704E+03  0.00000000000E+00 0. -1.
<scales pt_clust_3="39.02112" pt_clust_4="79.48793" pt_clust_5="43.97221" pt_clust_6="14000.00000"></scales>
<clustering>
<clus scale="   39.021">  1  3  2 -1</clus>
<clus scale="   43.972">  2  5  1 -1</clus>
<clus scale="   79.488">  1  4  2 -1</clus>
<clus scale="   39.021">  1  3  2 -1</clus>
</clustering>
</event>
<event>
 6    0  0.4081161E+002  0.1070862E+03  0.7546771E-02  0.1266063E+00
         21   -1    0    0  505  502  0.00000000000E+00  0.00000000000E+00  0.63884479480E+03  0.63884479480E+03  0.00000000000E+00 0. -1.
         -2   -1    0    0    0  501 -0.00000000000E+00 -0.00000000000E+00 -0.67395584835E+03  0.67395584835E+03  0.00000000000E+00 0.  1.
         21    1    1    2  503  502  0.96684440839E+02  0.33521896751E+02  0.29804426314E+02  0.10658284332E+03  0.00000000000E+00 0. -1.
         21    1    1    2  504  501 -0.26837563136E+02 -0.24332500336E+02 -0.51699885771E+02  0.63128468668E+02  0.00000000000E+00 0. -1.
         21    1    1    2  505  504 -0.76415118651E+02 -0.77794087754E+02  0.55758253182E+03  0.56814564175E+03  0.00000000000E+00 0. -1.
         -2    1    1    2    0  503  0.65682409473E+01  0.68604691339E+02 -0.57079812591E+03  0.57494368942E+03  0.00000000000E+00 0.  1.
<scales pt_clust_3="14000.00000" pt_clust_4="36.22603" pt_clust_5="107.08617" pt_clust_6="49.52779"></scales>
<clustering>
<clus scale="   36.226">  2  4  1 -1</clus>
<clus scale="   49.528">  2  6  1 -1</clus>
<clus scale="  107.086">  1  5  2 -1</clus>
<clus scale="  107.086">  1  3  2 -1</clus>
</clustering>
</event>
<event>
 6    0  0.4081161E+002  0.1273105E+03  0.7546771E-02  0.1231502E+00
         21   -1    0    0  503  502  0.00000000000E+00  0.00000000000E+00  0.28589422590E+03  0.28589422590E+03  0.00000000000E+00 0.  1.
          1   -1    0    0  504    0 -0.00000000000E+00 -0.00000000000E+00 -0.17465193872E+03  0.17465193872E+03  0.00000000000E+00 0.  1.
         21    1    1    2  503  501 -0.15592146041E+02 -0.45239859250E+02 -0.26038127681E+02  0.54477004105E+02  0.00000000000E+00 0.  1.
         21    1    1    2  504  505  0.65767889965E+02  0.11881296149E+03  0.62169387179E+02  0.14935517356E+03  0.00000000000E+00 0.  1.
         21    1    1    2  505  502  0.14248463401E+02 -0.36957109913E+02  0.14773786061E+03  0.15295529458E+03  0.00000000000E+00 0.  1.
          1    1    1    2  501    0 -0.64424207325E+02 -0.36615992323E+02 -0.72626832925E+02  0.10375869238E+03  0.00000000000E+00 0.  1.
<scales pt_clust_3="37.69791" pt_clust_4="118.35199" pt_clust_5="39.60867" pt_clust_6="37.69791"></scales>
<clustering>
<clus scale="   37.698">  3  6 -1 -1</clus>
<clus scale="   39.609">  1  5  2 -1</clus>
<clus scale="  118.352">  1  4  2 -1</clus>
<clus scale="   39.609">  1  3  2 -1</clus>
</clustering>
</event>
<event>
 6    0  0.4081161E+002  0.1787373E+03  0.7546771E-02  0.1169031E+00
          2   -1    0    0  503    0 -0.00000000000E+00  0.00000000000E+00  0.12351095170E+04  0.12351095170E+04  0.00000000000E+00 0. -1.
         21   -1    0    0  505  502  0.00000000000E+00 -0.00000000000E+00 -0.11446857554E+03  0.11446857554E+03  0.00000000000E+00 0.  1.
         21    1    1    2  503  502 -0.34977945632E+02  0.38211578538E+02  0.35228073494E+02  0.62646616646E+02  0.00000000000E+00 0.  1.
         21    1    1    2  504  501 -0.71876620741E+01 -0.11177441802E+03  0.51693655204E+03  0.52893154741E+03  0.00000000000E+00 0. -1.
         21    1    1    2  505  504  0.34734796362E+02  0.12763698450E+03 -0.46795160789E+02  0.14031212693E+03  0.00000000000E+00 0.  1.
          2    1    1    2  501    0  0.74308113447E+01 -0.54074145020E+02  0.61527147677E+03  0.61768780160E+03  0.00000000000E+00 0. -1.
<scales pt_clust_3="51.80330" pt_clust_4="50.98921" pt_clust_5="163.13155" pt_clust_6="50.98921"></scales>
<clustering>
<clus scale="   50.989">  4  6 -1 -1</clus>
<clus scale="   51.803">  2  3  1 -1</clus>
<clus scale="  163.132">  2  5  1 -1</clus>
<clus scale="   51.803">  2  3  1 -1</clus>
</clustering>
</event>
<event>
 6    0  0.4081161E+002  0.6732927E+02  0.7546771E-02  0.1369418E+00
         21   -1    0    0  503  502  0.00000000000E+00  0.00000000000E+00  0.16742317946E+03  0.16742317946E+03  0.00000000000E+00 0.  1.
         -1   -1    0    0    0  501 -0.00000000000E+00 -0.00000000000E+00 -0.54657323850E+03  0.54657323850E+03  0.00000000000E+00 0. -1.
         21    1    1    2  503  501  0.12988292481E+02 -0.52378619159E+02  0.12068669633E+03  0.13220247410E+03  0.00000000000E+00 0.  1.
         21    1    1    2  504  505 -0.45908961119E+02  0.82805397487E+02 -0.16256656112E+03  0.18812828963E+03  0.00000000000E+00 0. -1.
         21    1    1    2  505  502  0.40491624631E+02  0.33165901337E+02 -0.20478167206E+01  0.52380742932E+02  0.00000000000E+00 0. -1.
         -1    1    1    2    0  504 -0.75709559927E+01 -0.63592679665E+02 -0.33522237753E+03  0.34128491130E+03  0.00000000000E+00 0. -1.
<scales pt_clust_3="54.06786" pt_clust_4="14000.00000" pt_clust_5="52.34070" pt_clust_6="67.32927"></scales>
<clustering>
<clus scale="   52.341">  1  5  2 -1</clus>
<clus scale="   54.068">  1  3  2 -1</clus>
<clus scale="   67.329">  2  6  1 -1</clus>
<clus scale="   52.341">  1  3  2 -1</clus>
</clustering>
</event>
<event>
 6    0  0.4081161E+002  0.7826399E+02  0.7546771E-02  0.1334051E+00
         21   -1    0    0  505  502  0.00000000000E+00  0.00000000000E+00  0.11950303327E+03  0.11950303327E+03  0.00000000000E+00 0. -1.
          2   -1    0    0  503    0 -0.00000000000E+00 -0.00000000000E+00 -0.32567730940E+03  0.32567730940E+03  0.00000000000E+00 0. -1.
         21    1    1    2  503  502 -0.21273266538E+02  0.12412865656E+03  0.27947864191E+02  0.12900216417E+03  0.00000000000E+00 0. -1.
         21    1    1    2  504  501  0.20267949008E+02 -0.44283202788E+02 -0.66705566044E+02  0.82591914540E+02  0.00000000000E+00 0. -1.
         21    1    1    2  505  504 -0.21133116514E+02 -0.46011769151E+02  0.10008323722E+02  0.51612576546E+02  0.00000000000E+00 0. -1.
          2    1    1    2  501    0  0.22138434045E+02 -0.33833684619E+02 -0.17742489800E+03  0.18197368741E+03  0.00000000000E+00 0. -1.
<scales pt_clust_3="78.26399" pt_clust_4="14000.00000" pt_clust_5="53.91872" pt_clust_6="40.43301"></scales>
<clustering>
<clus scale="   40.433">  2  6  1 -1</clus>
<clus scale="   53.919">  1  5  2 -1</clus>
<clus scale="   78.264">  1  3  2 -1</clus>
<clus scale="   53.919">  1  3  2 -1</clus>
</clustering>
</event>
<event>
 6    0  0.4081161E+002  0.1073496E+03  0.7546771E-02  0.1265558E+00
          2   -1    0    0  505    0 -0.00000000000E+00  0.00000000000E+00  0.13197043713E+04  0.13197043713E+04  0.00000000000E+00 0.  1.
         21   -1    0    0  503  502  0.00000000000E+00 -0.00000000000E+00 -0.33403293095E+04  0.33403293095E+04  0.00000000000E+00 0.  1.
         21    1    1    2  503  504 -0.11383925953E+03  0.17975372732E+02 -0.29765799943E+04  0.29788103252E+04  0.00000000000E+00 0.  1.
         21    1    1    2  504  501  0.75318356372E+02 -0.17811209818E+02 -0.34770788982E+03  0.35621744854E+03  0.00000000000E+00 0.  1.
         21    1    1    2  505  502  0.14308324952E+02  0.70081997030E+02  0.12511375499E+03  0.14411684898E+03  0.00000000000E+00 0.  1.
          2    1    1    2  501    0  0.24212578206E+02 -0.70246159944E+02  0.11785491909E+04  0.11808890580E+04  0.00000000000E+00 0.  1.
<scales pt_clust_3="107.34958" pt_clust_4="14000.00000" pt_clust_5="71.52772" pt_clust_6="38.45909"></scales>
<clustering>
<clus scale="   71.528">  1  5  2 -1</clus>
<clus scale="   38.459">  1  6  2 -1</clus>
<clus scale="  107.350">  2  3  1 -1</clus>
<clus scale="  107.350">  2  3  1 -1</clus>
</clustering>
</event>
<event>
 6    0  0.4081162E+002  0.7816395E+02  0.7546771E-02  0.1334344E+00
          2   -1    0    0  504    0 -0.00000000000E+00  0.00000000000E+00  0.18681972908E+04  0.18681972908E+04  0.00000000000E+00 0. -1.
         21   -1    0    0  503  502  0.00000000000E+00 -0.00000000000E+00 -0.35242577269E+03  0.35242577269E+03  0.00000000000E+00 0.  1.
         21    1    1    2  503  501  0.18719577903E+02  0.90104868234E+02  0.16747599226E+03  0.19109557258E+03  0.00000000000E+00 0.  1.
         21    1    1    2  504  505 -0.34989875607E+01 -0.39303946520E+02  0.38588744338E+02  0.55191795727E+02  0.00000000000E+00 0.  1.
         21    1    1    2  505  502  0.42045180315E+02 -0.66243754728E+02 -0.32713866465E+03  0.33641601944E+03  0.00000000000E+00 0.  1.
          2    1    1    2  501    0 -0.57265770657E+02  0.15442833014E+02  0.16368454461E+04  0.16379196757E+04  0.00000000000E+00 0. -1.
<scales pt_clust_3="14000.00000" pt_clust_4="39.45939" pt_clust_5="78.16395" pt_clust_6="63.60213"></scales>
<clustering>
<clus scale="   39.459">  1  4  2 -1</clus>
<clus scale="   63.602">  1  6  2 -1</clus>
<clus scale="   78.164">  2  5  1 -1</clus>
<clus scale="   78.164">  2  3  1 -1</clus>
</clustering>
</event>
<event>
 6    0  0.4081161E+002  0.1313642E+03  0.7546771E-02  0.1225446E+00
          2   -1    0    0  505    0 -0.00000000000E+00  0.00000000000E+00  0.80203999854E+03  0.80203999854E+03  0.00000000000E+00 0. -1.
         21   -1    0    0  504  502  0.00000000000E+00 -0.00000000000E+00 -0.22037838307E+03  0.22037838307E+03  0.00000000000E+00 0.  1.
         21    1    1    2  503  501  0.13616921170E+03 -0.42995301304E+01  0.21530858873E+03  0.25479075446E+03  0.00000000000E+00 0. -1.
         21    1    1    2  504  503 -0.99063948615E+02 -0.36117711435E+02 -0.17722853637E+03  0.20622344459E+03  0.00000000000E+00 0.  1.
         21    1    1    2  505  502 -0.85525484618E+02  0.30890583754E+02  0.34494978802E+03  0.35673406473E+03  0.00000000000E+00 0.  1.
          2    1    1    2  501    0  0.48420221528E+02  0.95266578118E+01  0.19863177508E+03  0.20467011783E+03  0.00000000000E+00 0. -1.
<scales pt_clust_3="45.26742" pt_clust_4="107.70076" pt_clust_5="90.93314" pt_clust_6="45.26742"></scales>
<clustering>
<clus scale="   45.267">  3  6 -1 -1</clus>
<clus scale="   90.933">  1  5  2 -1</clus>
<clus scale="  107.701">  2  4  1 -1</clus>
<clus scale="  107.701">  2  3  1 -1</clus>
</clustering>
</event>
<event>
 6    0  0.4081161E+002  0.1060186E+03  0.7546771E-02  0.1268126E+00
         21   -1    0    0  505  502  0.00000000000E+00  0.00000000000E+00  0.96585189116E+02  0.96585189116E+02  0.00000000000E+00 0.  1.
          3   -1    0    0  503    0 -0.00000000000E+00 -0.00000000000E+00 -0.34879663723E+03  0.34879663723E+03  0.00000000000E+00 0. -1.
         21    1    1    2  503  504 -0.37096711276E+01 -0.55339755939E+02 -0.32677031298E+02  0.64374207736E+02  0.00000000000E+00 0.  1.
         21    1    1    2  504  502 -0.47100667103E+02 -0.68854010667E+01 -0.15660856760E+02  0.50111316326E+02  0.00000000000E+00 0.  1.
         21    1    1    2  505  501 -0.45425332206E+02 -0.17447290190E+02  0.35937168063E+02  0.60492551520E+02  0.00000000000E+00 0.  1.
          3    1    1    2  501    0  0.96235670437E+02  0.79672447195E+02 -0.23981072812E+03  0.27040375077E+03  0.00000000000E+00 0. -1.
<scales pt_clust_3="58.21165" pt_clust_4="47.60128" pt_clust_5="14000.00000" pt_clust_6="106.01855"></scales>
<clustering>
<clus scale="   47.601">  1  4  2 -1</clus>
<clus scale="   58.212">  1  3  2 -1</clus>
<clus scale="  106.019">  2  6  1 -1</clus>
<clus scale="   47.601">  1  3  2 -1</clus>
</clustering>
</event>
<event>
 6    0  0.4081161E+002  0.8566657E+02  0.7546771E-02  0.1313699E+00
         21   -1    0    0  503  502  0.00000000000E+00  0.00000000000E+00  0.19299888744E+04  0.19299888744E+04  0.00000000000E+00 0. -1.
         -1   -1    0    0    0  501 -0.00000000000E+00 -0.00000000000E+00 -0.16103313185E+04  0.16103313185E+04  0.00000000000E+00 0. -1.
         21    1    1    2  503  501  0.85076613017E+02  0.17090735567E+02  0.67380132346E+03  0.67936613606E+03  0.00000000000E+00 0. -1.
         21    1    1    2  504  502 -0.21603446293E+02  0.21723517332E+02  0.12220348339E+04  0.12224188134E+04  0.00000000000E+00 0. -1.
         21    1    1    2  505  504 -0.31508445173E+02  0.40735639391E+02  0.79319228079E+01  0.52106523903E+02  0.00000000000E+00 0. -1.
         -1    1    1    2    0  505 -0.31964721550E+02 -0.79549892291E+02 -0.15841105243E+04  0.15864287195E+04  0.00000000000E+00 0. -1.
<scales pt_clust_3="85.66657" pt_clust_4="30.63691" pt_clust_5="52.78893" pt_clust_6="14000.00000"></scales>
<clustering>
<clus scale="   30.637">  1  4  2 -1</clus>
<clus scale="   52.789">  1  5  2 -1</clus>
<clus scale="   85.667">  1  3  2 -1</clus>
<clus scale="   30.637">  1  3  2 -1</clus>
</clustering>
</event>
<event>
 6    0  0.4081161E+002  0.1493489E+03  0.7546771E-02  0.1201275E+00
          2   -1    0    0  505    0 -0.00000000000E+00  0.00000000000E+00  0.95369756250E+03  0.95369756250E+03  0.00000000000E+00 0.  1.
         21   -1    0    0  504  502  0.00000000000E+00 -0.00000000000E+00 -0.60390809145E+02  0.60390809145E+02  0.00000000000E+00 0.  1.
         21    1    1    2  503  501  0.53183518191E+02  0.31502480864E+02  0.14879894187E+03  0.16112733477E+03  0.00000000000E+00 0.  1.
         21    1    1    2  504  503 -0.14169017187E+03 -0.37360582013E+02  0.60110543870E+02  0.15838306531E+03  0.00000000000E+00 0.  1.
         21    1    1    2  505  502  0.19592403264E+02 -0.25406936125E+02  0.36197222726E+03  0.36339134273E+03  0.00000000000E+00 0.  1.
          2    1    1    2  501    0  0.68914250418E+02  0.31265037274E+02  0.32242504036E+03  0.33118662883E+03  0.00000000000E+00 0.  1.
<scales pt_clust_3="33.83473" pt_clust_4="144.33199" pt_clust_5="32.08387" pt_clust_6="33.83473"></scales>
<clustering>
<clus scale="   32.084">  1  5  2 -1</clus>
<clus scale="   33.835">  3  6 -1 -1</clus>
<clus scale="  144.332">  2  4  1 -1</clus>
<clus scale="  144.332">  2  3  1 -1</clus>
</clustering>
</event>
<event>
 6    0  0.4081161E+002  0.1942634E+03  0.7546771E-02  0.1154671E+00
         21   -1    0    0  505  502  0.00000000000E+00  0.00000000000E+00  0.79813183108E+02  0.79813183108E+02  0.00000000000E+00 0. -1.
          2   -1    0    0  503    0 -0.00000000000E+00 -0.00000000000E+00 -0.10658835287E+04  0.10658835287E+04  0.00000000000E+00 0.  1.
         21    1    1    2  503  502  0.14309103275E+03  0.11941724761E+03 -0.94523764870E+02  0.20897431614E+03  0.00000000000E+00 0. -1.
         21    1    1    2  504  501 -0.59663862855E+02 -0.53323427882E+02 -0.24788392070E+03  0.26047956279E+03  0.00000000000E+00 0. -1.
         21    1    1    2  505  504 -0.36517425916E+02  0.29293162855E+02 -0.35217838695E+02  0.58582488407E+02  0.00000000000E+00 0. -1.
          2    1    1    2  501    0 -0.46909743979E+02 -0.95386982586E+02 -0.60844482132E+03  0.61766034446E+03  0.00000000000E+00 0.  1.
<scales pt_clust_3="182.70249" pt_clust_4="57.74684" pt_clust_5="46.81465" pt_clust_6="57.74684"></scales>
<clustering>
<clus scale="   46.815">  1  5  2 -1</clus>
<clus scale="   57.747">  4  6 -1 -1</clus>
<clus scale="  182.702">  1  3  2 -1</clus>
<clus scale="   46.815">  1  3  2 -1</clus>
</clustering>
</event>
<event>
 6    0  0.4081161E+002  0.7528977E+02  0.7546771E-02  0.1342976E+00
         21   -1    0    0  505  502  0.00000000000E+00  0.00000000000E+00  0.78516154926E+03  0.78516154926E+03  0.00000000000E+00 0. -1.
          3   -1    0    0  503    0 -0.00000000000E+00 -0.00000000000E+00 -0.77945142456E+03  0.77945142456E+03  0.00000000000E+00 0. -1.
         21    1    1    2  503  502 -0.10766623271E+01 -0.60974846203E+02 -0.33554457854E+03  0.34104142748E+03  0.00000000000E+00 0. -1.
         21    1    1    2  504  501 -0.62736412883E+01  0.99793875897E+02 -0.10470993214E+03  0.14478379098E+03  0.00000000000E+00 0. -1.
         21    1    1    2  505  504  0.57880206679E+02 -0.48291059822E+02  0.75840708784E+03  0.76214398618E+03  0.00000000000E+00 0. -1.
          3    1    1    2  501    0 -0.50529903063E+02  0.94720301283E+01 -0.31244245246E+03  0.31664376918E+03  0.00000000000E+00 0. -1.
<scales pt_clust_3="66.00878" pt_clust_4="75.28977" pt_clust_5="14000.00000" pt_clust_6="51.41002"></scales>
<clustering>
<clus scale="   51.410">  2  6  1 -1</clus>
<clus scale="   66.009">  2  3  1 -1</clus>
<clus scale="   75.290">  2  4  1 -1</clus>
<clus scale="   75.290">  1  3  2 -1</clus>
</clustering>
</event>
<event>
 6    0  0.4081161E+002  0.5703300E+02  0.7546771E-02  0.1410722E+00
         21   -1    0    0  504  502  0.00000000000E+00  0.00000000000E+00  0.47958240551E+03  0.47958240551E+03  0.00000000000E+00 0.  1.
         -2   -1    0    0    0  501 -0.00000000000E+00 -0.00000000000E+00 -0.15006610723E+04  0.15006610723E+04  0.00000000000E+00 0.  1.
         21    1    1    2  503  501 -0.35914104717E+01  0.10146821230E+03  0.26368960513E+03  0.28256132819E+03  0.00000000000E+00 0.  1.
         21    1    1    2  504  503  0.78728296077E+01 -0.45301802624E+02  0.20057215883E+03  0.20577518234E+03  0.00000000000E+00 0.  1.
         21    1    1    2  505  502  0.33054959127E+02 -0.84865444022E+02 -0.10821366562E+04  0.10859624840E+04  0.00000000000E+00 0. -1.
         -2    1    1    2    0  505 -0.37336378263E+02  0.28699034342E+02 -0.40320377450E+03  0.40594448326E+03  0.00000000000E+00 0.  1.
<scales pt_clust_3="14000.00000" pt_clust_4="45.98081" pt_clust_5="57.03300" pt_clust_6="46.92426"></scales>
<clustering>
<clus scale="   45.981">  1  4  2 -1</clus>
<clus scale="   46.924">  2  6  1 -1</clus>
<clus scale="   57.033">  2  5  1 -1</clus>
<clus scale="   45.981">  1  3  2 -1</clus>
</clustering>
</event>
<event>
 6    0  0.4081161E+002  0.1502000E+03  0.7546771E-02  0.1200227E+00
          1   -1    0    0  504    0 -0.00000000000E+00  0.00000000000E+00  0.10065339544E+04  0.10065339544E+04  0.00000000000E+00 0. -1.
         21   -1    0    0  503  502  0.00000000000E+00 -0.00000000000E+00 -0.70328624057E+03  0.70328624057E+03  0.00000000000E+00 0. -1.
         21    1    1    2  503  505  0.61291279785E+02  0.67202202109E+02 -0.58491669546E+03  0.59194619483E+03  0.00000000000E+00 0. -1.
         21    1    1    2  504  502  0.64603296383E+01 -0.16414851461E+03  0.66058618638E+02  0.17705991021E+03  0.00000000000E+00 0. -1.
         21    1    1    2  505  501  0.39780497922E+02  0.15421882809E+03  0.61844632479E+02  0.17085284170E+03  0.00000000000E+00 0. -1.
          1    1    1    2  501    0 -0.10753210735E+03 -0.57272515590E+02  0.76026115815E+03  0.76996124821E+03  0.00000000000E+00 0. -1.
<scales pt_clust_3="90.95470" pt_clust_4="14000.00000" pt_clust_5="150.20004" pt_clust_6="118.22168"></scales>
<clustering>
<clus scale="   90.955">  2  3  1 -1</clus>
<clus scale="  118.222">  1  6  2 -1</clus>
<clus scale="  150.200">  1  5  2 -1</clus>
<clus scale="   90.955">  2  3  1 -1</clus>
</clustering>
</event>
<event>
 6    0  0.4081161E+002  0.2120721E+03  0.7546771E-02  0.1139936E+00
         21   -1    0    0  501  502  0.00000000000E+00  0.00000000000E+00  0.85233455160E+03  0.85233455160E+03  0.00000000000E+00 0.  1.
         -2   -1    0    0    0  501 -0.00000000000E+00 -0.00000000000E+00 -0.73686247704E+03  0.73686247704E+03  0.00000000000E+00 0. -1.
         21    1    1    2  503  504  0.17109558111E+03 -0.14215456302E+03  0.32602921607E+03  0.39468552975E+03  0.00000000000E+00 0.  1.
         21    1    1    2  504  502 -0.52430389539E+01  0.33153056705E+02  0.47550322370E+03  0.47668640675E+03  0.00000000000E+00 0.  1.
         21    1    1    2  505  503 -0.90630157073E+02  0.27429191408E+02 -0.23599445757E+03  0.25428246089E+03  0.00000000000E+00 0. -1.
         -2    1    1    2    0  505 -0.75222385083E+02  0.81572314906E+02 -0.45006590764E+03  0.46354263126E+03  0.00000000000E+00 0. -1.
<scales pt_clust_3="199.42145" pt_clust_4="33.56508" pt_clust_5="66.62625" pt_clust_6="66.62625"></scales>
<clustering>
<clus scale="   33.565">  1  4  2 -1</clus>
<clus scale="   66.626">  5  6 -1 -1</clus>
<clus scale="  199.421">  1  3  2 -1</clus>
<clus scale="   33.565">  1  3  2 -1</clus>
</clustering>
</event>
<event>
 6    0  0.4081161E+002  0.8927024E+02  0.7546771E-02  0.1304629E+00
          1   -1    0    0  505    0 -0.00000000000E+00  0.00000000000E+00  0.73879407558E+03  0.73879407558E+03  0.00000000000E+00 0.  1.
         21   -1    0    0  503  502  0.00000000000E+00 -0.00000000000E+00 -0.32773996122E+03  0.32773996122E+03  0.00000000000E+00 0. -1.
         21    1    1    2  503  501  0.13050188831E+02  0.91738219052E+02 -0.28306417393E+03  0.29784481669E+03  0.00000000000E+00 0. -1.
         21    1    1    2  504  502  0.30277141566E+02 -0.69682080610E+02  0.22770661644E+02  0.79314567964E+02  0.00000000000E+00 0.  1.
         21    1    1    2  505  504  0.58982993846E+01  0.31758465757E+02  0.30615552243E+02  0.44505079732E+02  0.00000000000E+00 0.  1.
          1    1    1    2  501    0 -0.49225629782E+02 -0.53814604198E+02  0.64073207441E+03  0.64486957241E+03  0.00000000000E+00 0.  1.
<scales pt_clust_3="14000.00000" pt_clust_4="89.27024" pt_clust_5="32.30155" pt_clust_6="50.30214"></scales>
<clustering>
<clus scale="   32.302">  1  5  2 -1</clus>
<clus scale="   50.302">  1  6  2 -1</clus>
<clus scale="   89.270">  1  4  2 -1</clus>
<clus scale="   89.270">  2  3  1 -1</clus>
</clustering>
</event>
<event>
 6    0  0.4081161E+002  0.1665649E+03  0.7546771E-02  0.1181478E+00
         21   -1    0    0  503  502  0.00000000000E+00  0.00000000000E+00  0.48491829000E+03  0.48491829000E+03  0.00000000000E+00 0. -1.
          2   -1    0    0  505    0 -0.00000000000E+00 -0.00000000000E+00 -0.27471199139E+04  0.27471199139E+04  0.00000000000E+00 0.  1.
         21    1    1    2  503  504  0.14673110107E+03  0.13103485012E+02  0.21855448200E+03  0.26356740873E+03  0.00000000000E+00 0. -1.
         21    1    1    2  504  501 -0.26174204606E+02  0.48079798452E+02 -0.49734394659E+03  0.50034763637E+03  0.00000000000E+00 0. -1.
         21    1    1    2  505  502 -0.50209758501E+02 -0.12900350315E+03  0.22141734495E+03  0.26112940148E+03  0.00000000000E+00 0. -1.
          2    1    1    2  501    0 -0.70347137961E+02  0.67820219685E+02 -0.22048295043E+04  0.22069937574E+04  0.00000000000E+00 0.  1.
<scales pt_clust_3="150.12328" pt_clust_4="54.00949" pt_clust_5="138.43021" pt_clust_6="54.00949"></scales>
<clustering>
<clus scale="   54.009">  4  6 -1 -1</clus>
<clus scale="  138.430">  1  5  2 -1</clus>
<clus scale="  150.123">  1  3  2 -1</clus>
<clus scale="  138.430">  1  3  2 -1</clus>
</clustering>
</event>
<event>
 6    0  0.4081161E+002  0.1233168E+03  0.7546771E-02  0.1237724E+00
         21   -1    0    0  505  502  0.00000000000E+00  0.00000000000E+00  0.25581501585E+03  0.25581501585E+03  0.00000000000E+00 0.  1.
          2   -1    0    0  503    0 -0.00000000000E+00 -0.00000000000E+00 -0.16642378972E+04  0.16642378972E+04  0.00000000000E+00 0.  1.
         21    1    1    2  503  504 -0.31748424121E+02  0.37343003345E+02 -0.15543373594E+03  0.16297885937E+03  0.00000000000E+00 0. -1.
         21    1    1    2  504  502  0.44539574887E+02 -0.33101929260E+02  0.69141055671E+02  0.88656624294E+02  0.00000000000E+00 0.  1.
         21    1    1    2  505  501  0.59814422697E+02  0.10034362862E+03  0.15037488516E+03  0.19041852602E+03  0.00000000000E+00 0.  1.
          2    1    1    2  501    0 -0.72605573463E+02 -0.10458470270E+03 -0.14725050862E+04  0.14779989034E+04  0.00000000000E+00 0.  1.
<scales pt_clust_3="49.01492" pt_clust_4="55.18376" pt_clust_5="123.31681" pt_clust_6="14000.00000"></scales>
<clustering>
<clus scale="   49.015">  2  3  1 -1</clus>
<clus scale="   55.184">  1  4  2 -1</clus>
<clus scale="  123.317">  1  5  2 -1</clus>
<clus scale="   55.184">  1  3  2 -1</clus>
</clustering>
</event>
<event>
 6    0  0.4081161E+002  0.6938008E+02  0.7546771E-02  0.1362214E+00
          1   -1    0    0  505    0 -0.00000000000E+00  0.00000000000E+00  0.75997580057E+03  0.75997580057E+03  0.00000000000E+00 0. -1.
         21   -1    0    0  503  502  0.00000000000E+00 -0.00000000000E+00 -0.71276593673E+03  0.71276593673E+03  0.00000000000E+00 0.  1.
         21    1    1    2  503  501  0.17309313366E+02  0.57120509093E+02 -0.45534394844E+03  0.45923901867E+03  0.00000000000E+00 0.  1.
         21    1    1    2  504  502  0.25767717394E+02 -0.11138462061E+03 -0.23920082441E+03  0.26511798009E+03  0.00000000000E+00 0. -1.
         21    1    1    2  505  504 -0.58979891634E+02  0.22792293618E+02  0.42594713599E+03  0.43061476858E+03  0.00000000000E+00 0. -1.
          1    1    1    2  501    0  0.15902860873E+02  0.31471817904E+02  0.31580750070E+03  0.31776996995E+03  0.00000000000E+00 0. -1.
<scales pt_clust_3="59.83818" pt_clust_4="69.38008" pt_clust_5="14000.00000" pt_clust_6="35.26154"></scales>
<clustering>
<clus scale="   35.262">  1  6  2 -1</clus>
<clus scale="   59.838">  2  3  1 -1</clus>
<clus scale="   69.380">  2  4  1 -1</clus>
<clus scale="   59.838">  2  3  1 -1</clus>
</clustering>
</event>
<event>
 6    0  0.4081161E+002  0.1583812E+03  0.7546771E-02  0.1190537E+00
         21   -1    0    0  504  502  0.00000000000E+00  0.00000000000E+00  0.28500221466E+03  0.28500221466E+03  0.00000000000E+00 0.  1.
          1   -1    0    0  505    0 -0.00000000000E+00 -0.00000000000E+00 -0.12110332224E+04  0.12110332224E+04  0.00000000000E+00 0. -1.
         21    1    1    2  503  501  0.88451434609E+00  0.35348397309E+02 -0.49357036271E+03  0.49483532059E+03  0.00000000000E+00 0.  1.
         21    1    1    2  504  503 -0.61614402518E+02 -0.18895069673E+03  0.84549698242E+02  0.21597998024E+03  0.00000000000E+00 0.  1.
         21    1    1    2  505  502  0.35378034045E+02  0.45760169741E+02  0.12287906692E+03  0.13581186809E+03  0.00000000000E+00 0.  1.
          1    1    1    2  501    0  0.25351854128E+02  0.10784212968E+03 -0.63988941015E+03  0.64940826809E+03  0.00000000000E+00 0. -1.
<scales pt_clust_3="32.79917" pt_clust_4="147.35719" pt_clust_5="57.84115" pt_clust_6="32.79917"></scales>
<clustering>
<clus scale="   32.799">  3  6 -1 -1</clus>
<clus scale="   57.841">  1  5  2 -1</clus>
<clus scale="  147.357">  1  4  2 -1</clus>
<clus scale="   57.841">  1  3  2 -1</clus>
</clustering>
</event>
<event>
 6    0  0.4081161E+002  0.1651525E+03  0.7546771E-02  0.1182999E+00
         21   -1    0    0  503  502  0.00000000000E+00  0.00000000000E+00  0.50631881341E+03  0.50631881341E+03  0.00000000000E+00 0. -1.
         -3   -1    0    0    0  501 -0.00000000000E+00 -0.00000000000E+00 -0.12021131029E+04  0.12021131029E+04  0.00000000000E+00 0.  1.
         21    1    1    2  503  505 -0.25636124685E+02 -0.95589555001E+02  0.28128757095E+03  0.29818999226E+03  0.00000000000E+00 0. -1.
         21    1    1    2  504  501  0.95442070758E+00  0.18695268951E+03 -0.53019210611E+03  0.56218848122E+03  0.00000000000E+00 0.  1.
         21    1    1    2  505  504 -0.47344875569E+02 -0.45960065541E+02  0.19225476890E+03  0.20326278811E+03  0.00000000000E+00 0. -1.
         -3    1    1    2    0  502  0.72026579547E+02 -0.45403068968E+02 -0.63914452323E+03  0.64479065472E+03  0.00000000000E+00 0.  1.
<scales pt_clust_3="35.12051" pt_clust_4="159.45322" pt_clust_5="35.12051" pt_clust_6="85.14263"></scales>
<clustering>
<clus scale="   35.121">  3  5 -1 -1</clus>
<clus scale="   85.143">  2  6  1 -1</clus>
<clus scale="  159.453">  2  4  1 -1</clus>
<clus scale="  165.153">  1  3  2 -1</clus>
</clustering>
</event>
<event>
 6    0  0.4081161E+002  0.1056756E+03  0.7546771E-02  0.1268794E+00
         -2   -1    0    0    0  501 -0.00000000000E+00  0.00000000000E+00  0.56362047853E+03  0.56362047853E+03  0.00000000000E+00 0.  1.
         21   -1    0    0  503  502  0.00000000000E+00 -0.00000000000E+00 -0.13540602742E+03  0.13540602742E+03  0.00000000000E+00 0. -1.
         21    1    1    2  503  505  0.10381014241E+03 -0.70475012632E+02 -0.65374860006E+02  0.14148196137E+03  0.00000000000E+00 0. -1.
         21    1    1    2  504  502 -0.51650908917E+02 -0.26267161589E+02  0.16375499494E+02  0.60215755028E+02  0.00000000000E+00 0. -1.
         21    1    1    2  505  501 -0.28277501074E+02  0.21086052572E+02  0.41565216816E+02  0.54515189892E+02  0.00000000000E+00 0. -1.
         -2    1    1    2    0  504 -0.23881732422E+02  0.75656121649E+02  0.43564859480E+03  0.44281359966E+03  0.00000000000E+00 0.  1.
<scales pt_clust_3="14000.00000" pt_clust_4="59.15519" pt_clust_5="35.27377" pt_clust_6="105.67557"></scales>
<clustering>
<clus scale="   35.274">  1  5  2 -1</clus>
<clus scale="   59.155">  2  4  1 -1</clus>
<clus scale="  105.676">  1  6  2 -1</clus>
<clus scale="   59.155">  2  3  1 -1</clus>
</clustering>
</event>
<event>
 6    0  0.4081161E+002  0.1078950E+03  0.7546771E-02  0.1264518E+00
          2   -1    0    0  504    0 -0.00000000000E+00  0.00000000000E+00  0.11657835459E+04  0.11657835459E+04  0.00000000000E+00 0.  1.
         21   -1    0    0  503  502  0.00000000000E+00 -0.00000000000E+00 -0.16348189873E+04  0.16348189873E+04  0.00000000000E+00 0. -1.
         21    1    1    2  503  501  0.10155845914E+03 -0.87922787620E+02  0.24189499627E+03  0.27669066921E+03  0.00000000000E+00 0.  1.
         21    1    1    2  504  505 -0.35507762610E+02  0.58912071132E+02  0.23430178731E+03  0.24419000976E+03  0.00000000000E+00 0.  1.
         21    1    1    2  505  502 -0.10136696570E+03 -0.36884751119E+02 -0.16085707568E+04  0.16121834964E+04  0.00000000000E+00 0. -1.
          2    1    1    2  501    0  0.35316269168E+02  0.65895467607E+02  0.66333853176E+03  0.66753835788E+03  0.00000000000E+00 0.  1.
<scales pt_clust_3="98.56243" pt_clust_4="68.78542" pt_clust_5="107.89498" pt_clust_6="14000.00000"></scales>
<clustering>
<clus scale="   68.785">  1  4  2 -1</clus>
<clus scale="  107.895">  2  5  1 -1</clus>
<clus scale="   98.562">  2  3  1 -1</clus>
<clus scale="  107.895">  2  3  1 -1</clus>
</clustering>
</event>
<event>
 6    0  0.4081161E+002  0.1681840E+03  0.7546771E-02  0.1179755E+00
         21   -1    0    0  503  502  0.00000000000E+00  0.00000000000E+00  0.85835379293E+02  0.85835379293E+02  0.00000000000E+00 0.  1.
          2   -1    0    0  504    0 -0.00000000000E+00 -0.00000000000E+00 -0.18706621546E+04  0.18706621546E+04  0.00000000000E+00 0.  1.
         21    1    1    2  503  501  0.10188129893E+03  0.15757512122E+03 -0.42180621004E+02  0.19232504436E+03  0.00000000000E+00 0.  1.
         21    1    1    2  504  505 -0.30086958568E+02 -0.22307772042E+01 -0.16377775672E+03  0.16653334513E+03  0.00000000000E+00 0.  1.
         21    1    1    2  505  502  0.16587423100E+02 -0.36423424956E+02 -0.63607426719E+02  0.75151268947E+02  0.00000000000E+00 0. -1.
          2    1    1    2  501    0 -0.88381763458E+02 -0.11892091906E+03 -0.15152609708E+04  0.15224878754E+04  0.00000000000E+00 0.  1.
<scales pt_clust_3="168.18396" pt_clust_4="30.16954" pt_clust_5="39.61467" pt_clust_6="14000.00000"></scales>
<clustering>
<clus scale="   30.170">  2  4  1 -1</clus>
<clus scale="   39.615">  1  5  2 -1</clus>
<clus scale="  168.184">  1  3  2 -1</clus>
<clus scale="   39.615">  1  3  2 -1</clus>
</clustering>
</event>
<event>
 6    0  0.4081161E+002  0.9452926E+02  0.7546771E-02  0.1292240E+00
         21   -1    0    0  505  502  0.00000000000E+00  0.00000000000E+00  0.37643683230E+03  0.37643683230E+03  0.00000000000E+00 0. -1.
          2   -1    0    0  503    0 -0.00000000000E+00 -0.00000000000E+00 -0.56377865050E+03  0.56377865050E+03  0.00000000000E+00 0.  1.
         21    1    1    2  503  504 -0.38143839127E+02  0.80218667662E+02  0.17527637281E+03  0.19649883961E+03  0.00000000000E+00 0. -1.
         21    1    1    2  504  502  0.60592738745E+02  0.19418821451E+02  0.17776550330E+03  0.18880981113E+03  0.00000000000E+00 0. -1.
         21    1    1    2  505  501  0.95615075945E+01 -0.56602549830E+02 -0.14578449440E+03  0.15667925798E+03  0.00000000000E+00 0.  1.
          2    1    1    2  501    0 -0.32010407212E+02 -0.43034939283E+02 -0.39459919992E+03  0.39822757407E+03  0.00000000000E+00 0.  1.
<scales pt_clust_3="14000.00000" pt_clust_4="62.19778" pt_clust_5="94.52926" pt_clust_6="53.63462"></scales>
<clustering>
<clus scale="   53.635">  2  6  1 -1</clus>
<clus scale="   62.198">  1  4  2 -1</clus>
<clus scale="   94.529">  2  5  1 -1</clus>
<clus scale="   62.198">  1  3  2 -1</clus>
</clustering>
</event>
<event>
 6    0  0.4081161E+002  0.1692538E+03  0.7546771E-02  0.1178628E+00
         21   -1    0    0  505  502  0.00000000000E+00  0.00000000000E+00  0.29173921575E+03  0.29173921575E+03  0.00000000000E+00 0.  1.
          2   -1    0    0  502    0 -0.00000000000E+00 -0.00000000000E+00 -0.11154411760E+04  0.11154411760E+04  0.00000000000E+00 0.  1.
         21    1    1    2  503  504 -0.10971484672E+03 -0.84526849448E+02  0.18199535719E+03  0.22870165261E+03  0.00000000000E+00 0.  1.
         21    1    1    2  504  501  0.11710293656E+03  0.41617499168E+02 -0.65600931473E+03  0.66767756814E+03  0.00000000000E+00 0.  1.
         21    1    1    2  505  503 -0.45572500210E+02  0.46324939827E+02  0.66425278278E+02  0.92925617671E+02  0.00000000000E+00 0.  1.
          2    1    1    2  501    0  0.38184410372E+02 -0.34155895465E+01 -0.41611328098E+03  0.41787555332E+03  0.00000000000E+00 0.  1.
<scales pt_clust_3="158.87626" pt_clust_4="32.41008" pt_clust_5="64.98348" pt_clust_6="32.41008"></scales>
<clustering>
<clus scale="   32.410">  4  6 -1 -1</clus>
<clus scale="   64.983">  1  5  2 -1</clus>
<clus scale="  158.876">  1  3  2 -1</clus>
<clus scale="   64.983">  1  3  2 -1</clus>
</clustering>
</event>
<event>
 6    0  0.4081161E+002  0.8672461E+02  0.7546771E-02  0.1310983E+00
          2   -1    0    0  503    0 -0.00000000000E+00  0.00000000000E+00  0.22124381508E+04  0.22124381508E+04  0.00000000000E+00 0.  1.
         21   -1    0    0  504  502  0.00000000000E+00 -0.00000000000E+00 -0.34287384326E+03  0.34287384326E+03  0.00000000000E+00 0. -1.
         21    1    1    2  503  502 -0.79479539783E+02  0.26886538938E+02 -0.36151436375E+02  0.91360875500E+02  0.00000000000E+00 0. -1.
         21    1    1    2  504  505  0.67068797220E+02 -0.58133309548E+02 -0.26889973448E+03  0.28316915870E+03  0.00000000000E+00 0. -1.
         21    1    1    2  505  501  0.45819844001E+02  0.26750351882E+02  0.23671034931E+03  0.24258365340E+03  0.00000000000E+00 0.  1.
          2    1    1    2  501    0 -0.33409101438E+02  0.44964187286E+01  0.19379051291E+04  0.19381983064E+04  0.00000000000E+00 0.  1.
<scales pt_clust_3="14000.00000" pt_clust_4="86.72461" pt_clust_5="34.90011" pt_clust_6="33.71032"></scales>
<clustering>
<clus scale="   33.710">  1  6  2 -1</clus>
<clus scale="   34.900">  1  5  2 -1</clus>
<clus scale="   86.725">  2  4  1 -1</clus>
<clus scale="   86.725">  2  3  1 -1</clus>
</clustering>
</event>
<event>
 6    0  0.4081161E+002  0.1290032E+03  0.7546771E-02  0.1228942E+00
         21   -1    0    0  505  502  0.00000000000E+00  0.00000000000E+00  0.16127233355E+03  0.16127233355E+03  0.00000000000E+00 0. -1.
          2   -1    0    0  503    0 -0.00000000000E+00 -0.00000000000E+00 -0.15540465146E+04  0.15540465146E+04  0.00000000000E+00 0. -1.
         21    1    1    2  503  504 -0.18441396292E+02  0.63420403953E+02 -0.64856629675E+02  0.92566814505E+02  0.00000000000E+00 0. -1.
         21    1    1    2  504  502 -0.97678860650E+01 -0.53421341973E+02  0.95148178837E+02  0.10955559006E+03  0.00000000000E+00 0. -1.
         21    1    1    2  505  501  0.66193111641E+02  0.11335758171E+03 -0.60514986902E+02  0.14454595463E+03  0.00000000000E+00 0. -1.
          2    1    1    2  501    0 -0.37983829284E+02 -0.12335664369E+03 -0.13625507433E+04  0.13686504889E+04  0.00000000000E+00 0. -1.
<scales pt_clust_3="54.92410" pt_clust_4="54.30701" pt_clust_5="129.00316" pt_clust_6="14000.00000"></scales>
<clustering>
<clus scale="   54.307">  1  4  2 -1</clus>
<clus scale="   54.924">  1  3  2 -1</clus>
<clus scale="  129.003">  1  5  2 -1</clus>
<clus scale="   54.307">  1  3  2 -1</clus>
</clustering>
</event>
<event>
 6    0  0.4081161E+002  0.3972213E+03  0.7546771E-02  0.1044746E+00
          1   -1    0    0  504    0 -0.00000000000E+00  0.00000000000E+00  0.19991059096E+03  0.19991059096E+03  0.00000000000E+00 0. -1.
         21   -1    0    0  503  502  0.00000000000E+00 -0.00000000000E+00 -0.13744403306E+04  0.13744403306E+04  0.00000000000E+00 0. -1.
         21    1    1    2  503  501  0.89611993332E+02 -0.10097398743E+03 -0.10277559922E+03  0.16967285959E+03  0.00000000000E+00 0. -1.
         21    1    1    2  504  505 -0.18812791466E+03  0.35184599865E+03 -0.66128450329E+03  0.77232435759E+03  0.00000000000E+00 0. -1.
         21    1    1    2  505  502 -0.13726625409E+02 -0.40246746968E+02 -0.39054986023E+03  0.39285800770E+03  0.00000000000E+00 0.  1.
          1    1    1    2  501    0  0.11224254674E+03 -0.21062526425E+03 -0.19919776944E+02  0.23949569673E+03  0.00000000000E+00 0. -1.
<scales pt_clust_3="90.91365" pt_clust_4="378.49622" pt_clust_5="42.52318" pt_clust_6="90.91365"></scales>
<clustering>
<clus scale="   42.523">  2  5  1 -1</clus>
<clus scale="   90.914">  3  6 -1 -1</clus>
<clus scale="  378.496">  2  4  1 -1</clus>
<clus scale="   42.523">  2  3  1 -1</clus>
</clustering>
</event>
<event>
 6    0  0.4081161E+002  0.5228654E+02  0.7546771E-02  0.1433385E+00
          1   -1    0    0  505    0 -0.00000000000E+00  0.00000000000E+00  0.22666464931E+04  0.22666464931E+04  0.00000000000E+00 0.  1.
         21   -1    0    0  504  502  0.00000000000E+00 -0.00000000000E+00 -0.10168017963E+04  0.10168017963E+04  0.00000000000E+00 0. -1.
         21    1    1    2  503  502 -0.70921876413E+01 -0.49366181022E+02 -0.51659139944E+03  0.51899324941E+03  0.00000000000E+00 0. -1.
         21    1    1    2  504  501  0.34856386415E+02  0.89971804505E+02 -0.48469848086E+03  0.49420897465E+03  0.00000000000E+00 0. -1.
         21    1    1    2  505  503 -0.77135389437E+02 -0.53490803675E+02  0.22932105153E+03  0.24778877912E+03  0.00000000000E+00 0.  1.
          1    1    1    2  501    0  0.49371190663E+02  0.12885180191E+02  0.20218135256E+04  0.20224572862E+04  0.00000000000E+00 0.  1.
<scales pt_clust_3="49.87303" pt_clust_4="50.04890" pt_clust_5="52.28654" pt_clust_6="14000.00000"></scales>
<clustering>
<clus scale="   49.873">  2  3  1 -1</clus>
<clus scale="   50.049">  2  4  1 -1</clus>
<clus scale="   52.287">  2  5  1 -1</clus>
<clus scale="   49.873">  2  3  1 -1</clus>
</clustering>
</event>
<event>
 6    0  0.4081161E+002  0.1038432E+03  0.7546771E-02  0.1272416E+00
         21   -1    0    0  505  502  0.00000000000E+00  0.00000000000E+00  0.71155552953E+03  0.71155552953E+03  0.00000000000E+00 0. -1.
          2   -1    0    0  504    0 -0.00000000000E+00 -0.00000000000E+00 -0.15854789208E+04  0.15854789208E+04  0.00000000000E+00 0.  1.
         21    1    1    2  503  502 -0.78292937294E+02 -0.20092536636E+02  0.38550267411E+03  0.39388552373E+03  0.00000000000E+00 0. -1.
         21    1    1    2  504  503  0.11506335686E+01  0.56183922834E+02 -0.43508774596E+03  0.43870183933E+03  0.00000000000E+00 0. -1.
         21    1    1    2  505  501  0.19064705833E+02 -0.66246327901E+02  0.31539301172E+03  0.32283864517E+03  0.00000000000E+00 0. -1.
          2    1    1    2  501    0  0.58077597893E+02  0.30154941703E+02 -0.11397313312E+04  0.11416084422E+04  0.00000000000E+00 0.  1.
<scales pt_clust_3="14000.00000" pt_clust_4="56.19570" pt_clust_5="68.76109" pt_clust_6="103.84323"></scales>
<clustering>
<clus scale="   56.196">  2  4  1 -1</clus>
<clus scale="   68.761">  1  5  2 -1</clus>
<clus scale="  103.843">  2  6  1 -1</clus>
<clus scale="   68.761">  1  3  2 -1</clus>
</clustering>
</event>
<event>
 6    0  0.4081161E+002  0.7006900E+02  0.7546771E-02  0.1359859E+00
         -4   -1    0    0    0  501 -0.00000000000E+00  0.00000000000E+00  0.17035217272E+04  0.17035217272E+04  0.00000000000E+00 0. -1.
         21   -1    0    0  504  502  0.00000000000E+00 -0.00000000000E+00 -0.27737280993E+02  0.27737280993E+02  0.00000000000E+00 0. -1.
         21    1    1    2  503  502 -0.49975024023E+02 -0.35616019950E+02  0.50296247424E+02  0.79345550651E+02  0.00000000000E+00 0.  1.
         21    1    1    2  504  505  0.85153478710E+02  0.53559373829E+02  0.21540486812E+03  0.23773720506E+03  0.00000000000E+00 0. -1.
         21    1    1    2  505  501  0.30815396969E+02  0.75455546878E+01  0.26172698506E+03  0.26364282428E+03  0.00000000000E+00 0. -1.
         -4    1    1    2    0  503 -0.65993851655E+02 -0.25488908567E+02  0.11483563456E+04  0.11505334282E+04  0.00000000000E+00 0. -1.
<scales pt_clust_3="70.06900" pt_clust_4="14000.00000" pt_clust_5="31.72576" pt_clust_6="45.75899"></scales>
<clustering>
<clus scale="   31.726">  1  5  2 -1</clus>
<clus scale="   45.759">  1  6  2 -1</clus>
<clus scale="   70.069">  2  3  1 -1</clus>
<clus scale="   70.069">  2  3  1 -1</clus>
</clustering>
</event>
<event>
 6    0  0.4081161E+002  0.1159963E+03  0.7546771E-02  0.1249852E+00
         21   -1    0    0  501  502  0.00000000000E+00  0.00000000000E+00  0.46417863514E+03  0.46417863514E+03  0.00000000000E+00 0. -1.
          2   -1    0    0  503    0 -0.00000000000E+00 -0.00000000000E+00 -0.90486085040E+03  0.90486085040E+03  0.00000000000E+00 0.  1.
         21    1    1    2  503  504 -0.96544152475E+02  0.12782269819E+03 -0.19139211976E+03  0.24958036593E+03  0.00000000000E+00 0.  1.
         21    1    1    2  504  505  0.10110147928E+03 -0.49457904266E+02  0.33503679635E+03  0.35343634266E+03  0.00000000000E+00 0. -1.
         21    1    1    2  505  502 -0.18215446076E+02 -0.28832574087E+02  0.86630000113E+02  0.93101432447E+02  0.00000000000E+00 0. -1.
          2    1    1    2  501    0  0.13658119272E+02 -0.49532219832E+02 -0.67095689196E+03  0.67292134451E+03  0.00000000000E+00 0.  1.
<scales pt_clust_3="115.99635" pt_clust_4="14000.00000" pt_clust_5="34.10454" pt_clust_6="51.44106"></scales>
<clustering>
<clus scale="   34.105">  1  5  2 -1</clus>
<clus scale="   51.441">  2  6  1 -1</clus>
<clus scale="  115.996">  2  3  1 -1</clus>
<clus scale="   34.105">  1  3  2 -1</clus>
</clustering>
</event>
<event>
 6    0  0.4081161E+002  0.1949526E+03  0.7546771E-02  0.1154069E+00
          2   -1    0    0  504    0 -0.00000000000E+00  0.00000000000E+00  0.19095076555E+04  0.19095076555E+04  0.00000000000E+00 0.  1.
         21   -1    0    0  505  502  0.00000000000E+00 -0.00000000000E+00 -0.71200287380E+03  0.71200287380E+03  0.00000000000E+00 0.  1.
         21    1    1    2  503  502 -0.14832753101E+03 -0.14544146741E+03 -0.58656598105E+03  0.62226515813E+03  0.00000000000E+00 0.  1.
         21    1    1    2  504  503  0.28510452590E+02 -0.32164657678E+02  0.24517917246E+02  0.49482717958E+02  0.00000000000E+00 0. -1.
         21    1    1    2  505  501  0.13192531332E+03  0.78523498708E+02 -0.30837031999E+02  0.15659230724E+03  0.00000000000E+00 0.  1.
          2    1    1    2  501    0 -0.12108234900E+02  0.99082626383E+02  0.17903898775E+04  0.17931703460E+04  0.00000000000E+00 0.  1.
<scales pt_clust_3="194.95259" pt_clust_4="42.98152" pt_clust_5="14000.00000" pt_clust_6="69.96962"></scales>
<clustering>
<clus scale="   42.982">  1  4  2 -1</clus>
<clus scale="   69.970">  1  6  2 -1</clus>
<clus scale="  194.953">  2  3  1 -1</clus>
<clus scale="  194.953">  2  3  1 -1</clus>
</clustering>
</event>
<event>
 6    0  0.4081161E+002  0.1214415E+03  0.7546771E-02  0.1240738E+00
         21   -1    0    0  501  502  0.00000000000E+00  0.00000000000E+00  0.40588416680E+02  0.40588416680E+02  0.00000000000E+00 0.  1.
          2   -1    0    0  504    0 -0.00000000000E+00 -0.00000000000E+00 -0.95996133871E+03  0.95996133871E+03  0.00000000000E+00 0. -1.
         21    1    1    2  503  502  0.31924444782E+02 -0.31583519308E+02 -0.12439846975E+02  0.46598698043E+02  0.00000000000E+00 0.  1.
         21    1    1    2  504  505 -0.77417602140E+02  0.19774923334E+02 -0.67892986103E+03  0.68361560025E+03  0.00000000000E+00 0. -1.
         21    1    1    2  505  503  0.74440430572E+02 -0.25025370547E+02 -0.68885514618E+02  0.10446463995E+03  0.00000000000E+00 0.  1.
          2    1    1    2  501    0 -0.28947273214E+02  0.36833966521E+02 -0.15911769941E+03  0.16587081715E+03  0.00000000000E+00 0. -1.
<scales pt_clust_3="31.07063" pt_clust_4="114.27940" pt_clust_5="31.07063" pt_clust_6="46.84747"></scales>
<clustering>
<clus scale="   31.071">  3  5 -1 -1</clus>
<clus scale="   46.847">  2  6  1 -1</clus>
<clus scale="  114.279">  2  4  1 -1</clus>
<clus scale="  121.442">  1  3  2 -1</clus>
</clustering>
</event>
<event>
 6    0  0.4081161E+002  0.9104066E+02  0.7546771E-02  0.1300351E+00
         -1   -1    0    0    0  501 -0.00000000000E+00  0.00000000000E+00  0.10069197043E+03  0.10069197043E+03  0.00000000000E+00 0.  1.
         21   -1    0    0  503  502  0.00000000000E+00 -0.00000000000E+00 -0.15400516743E+04  0.15400516743E+04  0.00000000000E+00 0.  1.
         21    1    1    2  503  505 -0.41364895249E+02  0.50591107318E+02 -0.36567386561E+03  0.37146721347E+03  0.00000000000E+00 0.  1.
         21    1    1    2  504  502  0.38000431720E+02 -0.14432340367E+03 -0.11337147959E+04  0.11434957438E+04  0.00000000000E+00 0.  1.
         21    1    1    2  505  501  0.30534644763E+02  0.42730919793E+02  0.24578555952E+02  0.57986217757E+02  0.00000000000E+00 0.  1.
         -1    1    1    2    0  504 -0.27170181234E+02  0.51001376559E+02  0.35450401592E+02  0.67794469777E+02  0.00000000000E+00 0.  1.
<scales pt_clust_3="66.06598" pt_clust_4="14000.00000" pt_clust_5="52.51948" pt_clust_6="91.04066"></scales>
<clustering>
<clus scale="   52.519">  1  5  2 -1</clus>
<clus scale="   66.066">  2  3  1 -1</clus>
<clus scale="   91.041">  1  6  2 -1</clus>
<clus scale="   66.066">  2  3  1 -1</clus>
</clustering>
</event>
<event>
 6    0  0.4081161E+002  0.9302263E+02  0.7546771E-02  0.1295693E+00
          2   -1    0    0  505    0 -0.00000000000E+00  0.00000000000E+00  0.17134276296E+04  0.17134276296E+04  0.00000000000E+00 0. -1.
         21   -1    0    0  504  502  0.00000000000E+00 -0.00000000000E+00 -0.15316333990E+03  0.15316333990E+03  0.00000000000E+00 0. -1.
         21    1    1    2  503  502  0.92389619161E+02  0.31373972214E+02 -0.11365701746E+03  0.14979347609E+03  0.00000000000E+00 0. -1.
         21    1    1    2  504  501 -0.36906681702E+02  0.40133950781E+02  0.34079673852E+02  0.64298221822E+02  0.00000000000E+00 0. -1.
         21    1    1    2  505  503  0.48464066229E+02  0.27587731560E+01  0.92912361063E+03  0.93039081056E+03  0.00000000000E+00 0. -1.
          2    1    1    2  501    0 -0.10394700369E+03 -0.74266696151E+02  0.71071802268E+03  0.72210846104E+03  0.00000000000E+00 0. -1.
<scales pt_clust_3="93.02263" pt_clust_4="52.64487" pt_clust_5="48.54252" pt_clust_6="14000.00000"></scales>
<clustering>
<clus scale="   48.543">  1  5  2 -1</clus>
<clus scale="   52.645">  2  4  1 -1</clus>
<clus scale="   93.023">  2  3  1 -1</clus>
<clus scale="   52.645">  2  3  1 -1</clus>
</clustering>
</event>
<event>
 6    0  0.4081161E+002  0.1247887E+03  0.7546771E-02  0.1235400E+00
         21   -1    0    0  503  502  0.00000000000E+00  0.00000000000E+00  0.16944734664E+03  0.16944734664E+03  0.00000000000E+00 0. -1.
          2   -1    0    0  505    0 -0.00000000000E+00 -0.00000000000E+00 -0.21030101144E+03  0.21030101144E+03  0.00000000000E+00 0. -1.
         21    1    1    2  503  504  0.51502441168E+02 -0.10592497374E+03  0.11105539868E+03  0.16188237422E+03  0.00000000000E+00 0. -1.
         21    1    1    2  504  501 -0.25573836706E+02  0.34902978928E+02 -0.10145029941E+03  0.11029234929E+03  0.00000000000E+00 0.  1.
         21    1    1    2  505  502 -0.33987892913E+02  0.21297735243E+02 -0.63318516864E+01  0.40606190869E+02  0.00000000000E+00 0. -1.
          2    1    1    2  501    0  0.80592884504E+01  0.49724259568E+02 -0.44126912389E+02  0.66967443709E+02  0.00000000000E+00 0. -1.
<scales pt_clust_3="113.19203" pt_clust_4="48.82686" pt_clust_5="40.10948" pt_clust_6="48.82686"></scales>
<clustering>
<clus scale="   40.109">  2  5  1 -1</clus>
<clus scale="   48.827">  4  6 -1 -1</clus>
<clus scale="  113.192">  1  3  2 -1</clus>
<clus scale="  113.192">  1  3  2 -1</clus>
</clustering>
</event>
<event>
 6    0  0.4081161E+002  0.1562830E+03  0.7546771E-02  0.1192958E+00
          1   -1    0    0  503    0 -0.00000000000E+00  0.00000000000E+00  0.25305255460E+03  0.25305255460E+03  0.00000000000E+00 0. -1.
         21   -1    0    0  505  502  0.00000000000E+00 -0.00000000000E+00 -0.57236003429E+03  0.57236003429E+03  0.00000000000E+00 0. -1.
         21    1    1    2  503  504  0.11139393761E+03  0.96894573015E+02  0.16258532932E+03  0.21961593050E+03  0.00000000000E+00 0. -1.
         21    1    1    2  504  502  0.24762941243E+02 -0.17470696247E+03 -0.31501872368E+03  0.36107135342E+03  0.00000000000E+00 0. -1.
         21    1    1    2  505  501 -0.10246053486E+03  0.30385751621E+02 -0.14994662106E+03  0.18413431042E+03  0.00000000000E+00 0. -1.
          1    1    1    2  501    0 -0.33696344001E+02  0.47426637830E+02 -0.16927464273E+02  0.60590994558E+02  0.00000000000E+00 0. -1.
<scales pt_clust_3="156.28301" pt_clust_4="14000.00000" pt_clust_5="110.28833" pt_clust_6="58.17843"></scales>
<clustering>
<clus scale="   58.178">  1  6  2 -1</clus>
<clus scale="  110.288">  2  5  1 -1</clus>
<clus scale="  156.283">  1  3  2 -1</clus>
<clus scale="  110.288">  2  3  1 -1</clus>
</clustering>
</event>
<event>
 6    0  0.4081161E+002  0.7962585E+02  0.7546771E-02  0.1330117E+00
          1   -1    0    0  504    0 -0.00000000000E+00  0.00000000000E+00  0.25673056033E+04  0.25673056033E+04  0.00000000000E+00 0. -1.
         21   -1    0    0  505  502  0.00000000000E+00 -0.00000000000E+00 -0.47992820361E+02  0.47992820361E+02  0.00000000000E+00 0.  1.
         21    1    1    2  503  501  0.19639155152E+02  0.10426536193E+03  0.13546782405E+03  0.17207118721E+03  0.00000000000E+00 0.  1.
         21    1    1    2  504  502 -0.42076184390E+01 -0.37789749415E+02  0.53631545851E+03  0.53766164105E+03  0.00000000000E+00 0.  1.
         21    1    1    2  505  503  0.33267031968E+02 -0.42379019016E+02 -0.32634740433E+01  0.53975243692E+02  0.00000000000E+00 0.  1.
          1    1    1    2  501    0 -0.48698568681E+02 -0.24096593500E+02  0.18507929744E+04  0.18515903517E+04  0.00000000000E+00 0. -1.
<scales pt_clust_3="14000.00000" pt_clust_4="38.02327" pt_clust_5="54.21630" pt_clust_6="79.62585"></scales>
<clustering>
<clus scale="   38.023">  1  4  2 -1</clus>
<clus scale="   54.216">  2  5  1 -1</clus>
<clus scale="   79.626">  1  6  2 -1</clus>
<clus scale="   54.216">  2  3  1 -1</clus>
</clustering>
</event>
<event>
 6    0  0.4081161E+002  0.7993628E+02  0.7546771E-02  0.1329232E+00
          2   -1    0    0  505    0 -0.00000000000E+00  0.00000000000E+00  0.72304087657E+03  0.72304087657E+03  0.00000000000E+00 0. -1.
         21   -1    0    0  504  502  0.00000000000E+00 -0.00000000000E+00 -0.33380912796E+03  0.33380912796E+03  0.00000000000E+00 0. -1.
         21    1    1    2  503  501  0.77205006296E+02 -0.10404405735E+03  0.16413266642E+03  0.20910598043E+03  0.00000000000E+00 0.  1.
         21    1    1    2  504  503 -0.58302170861E+02  0.26028280805E+02 -0.30017930242E+03  0.30689449022E+03  0.00000000000E+00 0. -1.
         21    1    1    2  505  502  0.22776009073E+02  0.61540944841E+02  0.16152248523E+03  0.17434318947E+03  0.00000000000E+00 0. -1.
          2    1    1    2  501    0 -0.41678844507E+02  0.16474831701E+02  0.36375589938E+03  0.36650634441E+03  0.00000000000E+00 0. -1.
<scales pt_clust_3="79.93628" pt_clust_4="64.26841" pt_clust_5="14000.00000" pt_clust_6="44.81681"></scales>
<clustering>
<clus scale="   44.817">  1  6  2 -1</clus>
<clus scale="   64.268">  2  4  1 -1</clus>
<clus scale="   79.936">  2  3  1 -1</clus>
<clus scale="   64.268">  2  3  1 -1</clus>
</clustering>
</event>
<event>
 6    0  0.4081161E+002  0.1210058E+03  0.7546771E-02  0.1241447E+00
         21   -1    0    0  503  502  0.00000000000E+00  0.00000000000E+00  0.19175543089E+03  0.19175543089E+03  0.00000000000E+00 0. -1.
          1   -1    0    0  505    0 -0.00000000000E+00 -0.00000000000E+00 -0.51030981229E+03  0.51030981229E+03  0.00000000000E+00 0.  1.
         21    1    1    2  503  501  0.14053873656E+03  0.54096477696E+02  0.83624091269E+02  0.17225142674E+03  0.00000000000E+00 0. -1.
         21    1    1    2  504  502 -0.37219470072E+02  0.83332986177E+01  0.41916689072E+02  0.56672229893E+02  0.00000000000E+00 0. -1.
         21    1    1    2  505  504 -0.35238437284E+02  0.20460514330E+01 -0.23939545341E+02  0.42650153808E+02  0.00000000000E+00 0. -1.
          1    1    1    2  501    0 -0.68080829208E+02 -0.64475827747E+02 -0.42015561640E+03  0.43049143274E+03  0.00000000000E+00 0.  1.
<scales pt_clust_3="14000.00000" pt_clust_4="38.67982" pt_clust_5="35.29779" pt_clust_6="121.00577"></scales>
<clustering>
<clus scale="   35.298">  2  5  1 -1</clus>
<clus scale="   38.680">  1  4  2 -1</clus>
<clus scale="  121.006">  2  6  1 -1</clus>
<clus scale="   38.680">  1  3  2 -1</clus>
</clustering>
</event>
<event>
 6    0  0.4081161E+002  0.7064897E+02  0.7546771E-02  0.1357900E+00
          2   -1    0    0  503    0 -0.00000000000E+00  0.00000000000E+00  0.43676802435E+03  0.43676802435E+03  0.00000000000E+00 0. -1.
         21   -1    0    0  505  502  0.00000000000E+00 -0.00000000000E+00 -0.24912023217E+03  0.24912023217E+03  0.00000000000E+00 0.  1.
         21    1    1    2  503  504 -0.30396416737E+02 -0.66788068489E+02  0.23636416918E+03  0.24749264376E+03  0.00000000000E+00 0. -1.
         21    1    1    2  504  502 -0.26138501498E+02 -0.22485094766E+02 -0.27673249058E+02  0.44210965388E+02  0.00000000000E+00 0.  1.
         21    1    1    2  505  501  0.76188295428E+02  0.14749495127E+02 -0.19176506189E+03  0.20687204482E+03  0.00000000000E+00 0.  1.
          2    1    1    2  501    0 -0.19653377194E+02  0.74523668128E+02  0.17072193394E+03  0.18731260255E+03  0.00000000000E+00 0. -1.
<scales pt_clust_3="14000.00000" pt_clust_4="34.47899" pt_clust_5="52.12807" pt_clust_6="70.64897"></scales>
<clustering>
<clus scale="   34.479">  2  4  1 -1</clus>
<clus scale="   52.128">  2  5  1 -1</clus>
<clus scale="   70.649">  2  6  1 -1</clus>
<clus scale="   34.479">  2  3  1 -1</clus>
</clustering>
</event>
<event>
 6    0  0.4081161E+002  0.2410162E+03  0.7546771E-02  0.1119118E+00
         21   -1    0    0  505  502  0.00000000000E+00  0.00000000000E+00  0.22764682379E+03  0.22764682379E+03  0.00000000000E+00 0.  1.
          2   -1    0    0  504    0 -0.00000000000E+00 -0.00000000000E+00 -0.12185928347E+04  0.12185928347E+04  0.00000000000E+00 0.  1.
         21    1    1    2  503  501 -0.11151545131E+02 -0.15354285826E+03  0.80260798228E+02  0.17361325414E+03  0.00000000000E+00 0.  1.
         21    1    1    2  504  502  0.52168387224E+02 -0.37584515544E+01 -0.15009779282E+03  0.15894972159E+03  0.00000000000E+00 0. -1.
         21    1    1    2  505  503 -0.70359393315E+02 -0.51486957815E+02  0.62788732432E+02  0.10744196561E+03  0.00000000000E+00 0.  1.
          2    1    1    2  501    0  0.29342551222E+02  0.20878826763E+03 -0.98389774873E+03  0.10062347171E+04  0.00000000000E+00 0.  1.
<scales pt_clust_3="74.31783" pt_clust_4="52.30360" pt_clust_5="74.31783" pt_clust_6="219.63879"></scales>
<clustering>
<clus scale="   52.304">  2  4  1 -1</clus>
<clus scale="   74.318">  3  5 -1 -1</clus>
<clus scale="  219.639">  2  6  1 -1</clus>
<clus scale="  241.016">  1  3  2 -1</clus>
</clustering>
</event>
<event>
 6    0  0.4081161E+002  0.9591426E+02  0.7546771E-02  0.1289130E+00
         21   -1    0    0  505  502  0.00000000000E+00  0.00000000000E+00  0.61971454183E+03  0.61971454183E+03  0.00000000000E+00 0.  1.
         -4   -1    0    0    0  501 -0.00000000000E+00 -0.00000000000E+00 -0.63766979290E+02  0.63766979290E+02  0.00000000000E+00 0.  1.
         21    1    1    2  503  502  0.29412110870E+02  0.92215061849E+02  0.24241541472E+03  0.26102475590E+03  0.00000000000E+00 0. -1.
         21    1    1    2  504  501 -0.90368980462E+01 -0.32985885732E+02  0.13415850807E+02  0.36738525238E+02  0.00000000000E+00 0. -1.
         21    1    1    2  505  504 -0.63932573623E+02 -0.75074814133E+02  0.32032130973E+03  0.33515569987E+03  0.00000000000E+00 0.  1.
         -4    1    1    2    0  503  0.43557360799E+02  0.15845638016E+02 -0.20205012717E+02  0.50562540115E+02  0.00000000000E+00 0.  1.
<scales pt_clust_3="14000.00000" pt_clust_4="34.20138" pt_clust_5="95.91426" pt_clust_6="37.99028"></scales>
<clustering>
<clus scale="   34.201">  2  4  1 -1</clus>
<clus scale="   37.990">  2  6  1 -1</clus>
<clus scale="   95.914">  1  5  2 -1</clus>
<clus scale="   95.914">  1  3  2 -1</clus>
</clustering>
</event>
<event>
 6    0  0.4081161E+002  0.1026116E+03  0.7546771E-02  0.1274898E+00
          2   -1    0    0  505    0 -0.00000000000E+00  0.00000000000E+00  0.43458516765E+04  0.43458516765E+04  0.00000000000E+00 0.  1.
         21   -1    0    0  501  502  0.00000000000E+00 -0.00000000000E+00 -0.85952244365E+02  0.85952244365E+02  0.00000000000E+00 0.  1.
         21    1    1    2  503  502 -0.44501081406E+02  0.10316564318E+02 -0.68764235986E+02  0.82554817523E+02  0.00000000000E+00 0.  1.
         21    1    1    2  504  503  0.64377022433E+02 -0.10565978634E+03  0.43113688775E+03  0.44853919277E+03  0.00000000000E+00 0.  1.
         21    1    1    2  505  504 -0.17616368682E+02 -0.28146190422E+02  0.67311362600E+03  0.67393211675E+03  0.00000000000E+00 0.  1.
          2    1    1    2  501    0 -0.22595723463E+01  0.12348941245E+03  0.32244131543E+04  0.32267777938E+04  0.00000000000E+00 0.  1.
<scales pt_clust_3="45.70159" pt_clust_4="14000.00000" pt_clust_5="33.20459" pt_clust_6="102.61165"></scales>
<clustering>
<clus scale="   33.205">  1  5  2 -1</clus>
<clus scale="   45.702">  2  3  1 -1</clus>
<clus scale="  102.612">  1  6  2 -1</clus>
<clus scale="   45.702">  2  3  1 -1</clus>
</clustering>
</event>
<event>
 6    0  0.4081161E+002  0.1781573E+03  0.7546771E-02  0.1169598E+00
         21   -1    0    0  504  502  0.00000000000E+00  0.00000000000E+00  0.16705482502E+03  0.16705482502E+03  0.00000000000E+00 0. -1.
          1   -1    0    0  503    0 -0.00000000000E+00 -0.00000000000E+00 -0.85681967914E+03  0.85681967914E+03  0.00000000000E+00 0.  1.
         21    1    1    2  503  502 -0.47414592223E+02  0.12148913785E+02  0.42496846575E+02  0.64820688292E+02  0.00000000000E+00 0. -1.
         21    1    1    2  504  505  0.48586145231E+02  0.15937067511E+03  0.35769738678E+02  0.17040862595E+03  0.00000000000E+00 0. -1.
         21    1    1    2  505  501  0.74179588413E+01 -0.88927805433E+02 -0.28878250537E+03  0.30225571310E+03  0.00000000000E+00 0.  1.
          1    1    1    2  501    0 -0.85895118494E+01 -0.82591783466E+02 -0.47924893401E+03  0.48638947682E+03  0.00000000000E+00 0.  1.
<scales pt_clust_3="48.94629" pt_clust_4="170.50347" pt_clust_5="50.02406" pt_clust_6="50.02406"></scales>
<clustering>
<clus scale="   48.946">  1  3  2 -1</clus>
<clus scale="   50.024">  5  6 -1 -1</clus>
<clus scale="  170.503">  1  4  2 -1</clus>
<clus scale="   48.946">  1  3  2 -1</clus>
</clustering>
</event>
<event>
 6    0  0.4081161E+002  0.7388504E+02  0.7546771E-02  0.1347359E+00
         21   -1    0    0  504  502  0.00000000000E+00  0.00000000000E+00  0.25353819663E+03  0.25353819663E+03  0.00000000000E+00 0. -1.
          1   -1    0    0  505    0 -0.00000000000E+00 -0.00000000000E+00 -0.70917515380E+03  0.70917515380E+03  0.00000000000E+00 0.  1.
         21    1    1    2  503  502 -0.22583446579E+02 -0.46110891173E+02  0.50944127652E+02  0.72329319687E+02  0.00000000000E+00 0. -1.
         21    1    1    2  504  501 -0.38287085067E+02  0.43138938364E+02  0.17463610800E+03  0.18391476043E+03  0.00000000000E+00 0. -1.
         21    1    1    2  505  503 -0.60122942178E+02 -0.27620923522E+01 -0.31625168437E+03  0.32192782607E+03  0.00000000000E+00 0. -1.
          1    1    1    2  501    0  0.12099347382E+03  0.57340451619E+01 -0.36496550845E+03  0.38454144424E+03  0.00000000000E+00 0.  1.
<scales pt_clust_3="51.34419" pt_clust_4="59.38470" pt_clust_5="14000.00000" pt_clust_6="73.88504"></scales>
<clustering>
<clus scale="   51.344">  1  3  2 -1</clus>
<clus scale="   59.385">  1  4  2 -1</clus>
<clus scale="   73.885">  1  6  2 -1</clus>
<clus scale="   51.344">  1  3  2 -1</clus>
</clustering>
</event>
<event>
 6    0  0.4081161E+002  0.1030783E+03  0.7546771E-02  0.1273953E+00
          2   -1    0    0  505    0 -0.00000000000E+00  0.00000000000E+00  0.50010177900E+03  0.50010177900E+03  0.00000000000E+00 0.  1.
         21   -1    0    0  504  502  0.00000000000E+00 -0.00000000000E+00 -0.27317624822E+03  0.27317624822E+03  0.00000000000E+00 0.  1.
         21    1    1    2  503  501  0.24971648819E+02 -0.56877595875E+02  0.28364052172E+03  0.29036285871E+03  0.00000000000E+00 0.  1.
         21    1    1    2  504  503  0.32814224803E+02  0.30035739019E+02 -0.13275935452E+03  0.14001416064E+03  0.00000000000E+00 0.  1.
         21    1    1    2  505  502 -0.25956028062E+02  0.79609706363E+02 -0.11494815978E+03  0.14221286923E+03  0.00000000000E+00 0.  1.
          2    1    1    2  501    0 -0.31829845559E+02 -0.52767849508E+02  0.19099252336E+03  0.20068813864E+03  0.00000000000E+00 0.  1.
<scales pt_clust_3="103.07829" pt_clust_4="44.48504" pt_clust_5="14000.00000" pt_clust_6="60.11405"></scales>
<clustering>
<clus scale="   44.485">  2  4  1 -1</clus>
<clus scale="   60.114">  1  6  2 -1</clus>
<clus scale="  103.078">  1  3  2 -1</clus>
<clus scale="   44.485">  2  3  1 -1</clus>
</clustering>
</event>
<event>
 6    0  0.4081161E+002  0.2394193E+03  0.7546771E-02  0.1120180E+00
         -3   -1    0    0    0  501 -0.00000000000E+00  0.00000000000E+00  0.90820760905E+03  0.90820760905E+03  0.00000000000E+00 0.  1.
         21   -1    0    0  505  502  0.00000000000E+00 -0.00000000000E+00 -0.11989897760E+03  0.11989897760E+03  0.00000000000E+00 0.  1.
         21    1    1    2  503  504 -0.83736798033E+02 -0.16331065345E+03  0.45500157238E+03  0.49062068010E+03  0.00000000000E+00 0.  1.
         21    1    1    2  504  502  0.14148449854E+03  0.17930772519E+03  0.55879747446E+02  0.23514180788E+03  0.00000000000E+00 0.  1.
         21    1    1    2  505  501 -0.31302651007E+02  0.16548624318E+02  0.18322367351E+02  0.39867556637E+02  0.00000000000E+00 0. -1.
         -3    1    1    2    0  503 -0.26445049498E+02 -0.32545696050E+02  0.25910494426E+03  0.26247654203E+03  0.00000000000E+00 0.  1.
<scales pt_clust_3="39.19839" pt_clust_4="224.97560" pt_clust_5="35.40781" pt_clust_6="39.19839"></scales>
<clustering>
<clus scale="   35.408">  2  5  1 -1</clus>
<clus scale="   39.198">  3  6 -1 -1</clus>
<clus scale="  224.976">  2  4  1 -1</clus>
<clus scale="   35.408">  2  3  1 -1</clus>
</clustering>
</event>
<event>
 6    0  0.4081161E+002  0.6450045E+02  0.7546771E-02  0.1379861E+00
         -1   -1    0    0    0  501 -0.00000000000E+00  0.00000000000E+00  0.13669598956E+03  0.13669598956E+03  0.00000000000E+00 0.  1.
         21   -1    0    0  504  502  0.00000000000E+00 -0.00000000000E+00 -0.34894201597E+03  0.34894201597E+03  0.00000000000E+00 0.  1.
         21    1    1    2  503  502 -0.53558390958E+01  0.53828034295E+02 -0.13892906027E+03  0.14908865174E+03  0.00000000000E+00 0.  1.
         21    1    1    2  504  501  0.34989462472E+02 -0.34782186561E+02  0.54257591505E+02  0.73334502262E+02  0.00000000000E+00 0.  1.
         21    1    1    2  505  503 -0.57023496347E+01 -0.88490516362E+02 -0.15999566666E+03  0.18292539908E+03  0.00000000000E+00 0.  1.
         -1    1    1    2    0  505 -0.23931273741E+02  0.69444668629E+02  0.32421109027E+02  0.80289452448E+02  0.00000000000E+00 0.  1.
<scales pt_clust_3="64.50045" pt_clust_4="49.33622" pt_clust_5="14000.00000" pt_clust_6="42.67033"></scales>
<clustering>
<clus scale="   49.336">  1  4  2 -1</clus>
<clus scale="   42.670">  1  6  2 -1</clus>
<clus scale="   64.500">  2  3  1 -1</clus>
<clus scale="   64.500">  2  3  1 -1</clus>
</clustering>
</event>
<event>
 6    0  0.4081161E+002  0.2642621E+03  0.7546771E-02  0.1104609E+00
          2   -1    0    0  504    0 -0.00000000000E+00  0.00000000000E+00  0.18141646620E+04  0.18141646620E+04  0.00000000000E+00 0.  1.
         21   -1    0    0  503  502  0.00000000000E+00 -0.00000000000E+00 -0.96563743614E+02  0.96563743614E+02  0.00000000000E+00 0. -1.
         21    1    1    2  503  505  0.55093982658E+01 -0.49002900784E+02  0.62245792794E+02  0.79411437936E+02  0.00000000000E+00 0.  1.
         21    1    1    2  504  502 -0.25315951460E+03  0.15003106854E+02  0.13334488215E+03  0.28652345566E+03  0.00000000000E+00 0. -1.
         21    1    1    2  505  501  0.10650042404E+03 -0.27540886504E+02  0.59555566923E+03  0.60562975150E+03  0.00000000000E+00 0. -1.
          2    1    1    2  501    0  0.14114969230E+03  0.61540680434E+02  0.92645457416E+03  0.93916376047E+03  0.00000000000E+00 0.  1.
<scales pt_clust_3="49.31164" pt_clust_4="249.89840" pt_clust_5="73.21912" pt_clust_6="73.21912"></scales>
<clustering>
<clus scale="   49.312">  2  3  1 -1</clus>
<clus scale="   73.219">  5  6 -1 -1</clus>
<clus scale="  249.898">  2  4  1 -1</clus>
<clus scale="   49.312">  2  3  1 -1</clus>
</clustering>
</event>
<event>
 6    0  0.4081161E+002  0.9271443E+02  0.7546771E-02  0.1296408E+00
          2   -1    0    0  505    0 -0.00000000000E+00  0.00000000000E+00  0.13873690339E+04  0.13873690339E+04  0.00000000000E+00 0.  1.
         21   -1    0    0  501  502  0.00000000000E+00 -0.00000000000E+00 -0.32203476796E+02  0.32203476796E+02  0.00000000000E+00 0.  1.
         21    1    1    2  503  502 -0.84728454831E+01 -0.41893043958E+02 -0.38903890165E+01  0.42917960917E+02  0.00000000000E+00 0.  1.
         21    1    1    2  504  503 -0.83163706296E+02  0.70768741101E+02  0.61464279396E+03  0.62426771575E+03  0.00000000000E+00 0.  1.
         21    1    1    2  505  504  0.25907794839E+02  0.15260681725E+02  0.20862195317E+03  0.21077765912E+03  0.00000000000E+00 0. -1.
          2    1    1    2  501    0  0.65728756940E+02 -0.44136378869E+02  0.53579119902E+03  0.54160917494E+03  0.00000000000E+00 0.  1.
<scales pt_clust_3="42.40994" pt_clust_4="14000.00000" pt_clust_5="30.06829" pt_clust_6="92.71443"></scales>
<clustering>
<clus scale="   30.068">  1  5  2 -1</clus>
<clus scale="   42.410">  2  3  1 -1</clus>
<clus scale="   92.714">  1  6  2 -1</clus>
<clus scale="   42.410">  2  3  1 -1</clus>
</clustering>
</event>
<event>
 6    0  0.4081161E+002  0.1591021E+03  0.7546771E-02  0.1189714E+00
          2   -1    0    0  504    0 -0.00000000000E+00  0.00000000000E+00  0.63993510671E+03  0.63993510671E+03  0.00000000000E+00 0. -1.
         21   -1    0    0  505  502  0.00000000000E+00 -0.00000000000E+00 -0.38663390689E+03  0.38663390689E+03  0.00000000000E+00 0. -1.
         21    1    1    2  503  501  0.95382229533E+02  0.12937047331E+03  0.95228043813E+02  0.18682309655E+03  0.00000000000E+00 0. -1.
         21    1    1    2  504  502  0.67679696424E+01 -0.37546328903E+02  0.42273685893E+02  0.56943803404E+02  0.00000000000E+00 0.  1.
         21    1    1    2  505  503 -0.63902283431E+02  0.43662162157E+02 -0.31771280967E+03  0.32700354075E+03  0.00000000000E+00 0. -1.
          2    1    1    2  501    0 -0.38247915745E+02 -0.13548630657E+03  0.43351227979E+03  0.45579857289E+03  0.00000000000E+00 0. -1.
<scales pt_clust_3="159.10209" pt_clust_4="38.15144" pt_clust_5="77.18400" pt_clust_6="14000.00000"></scales>
<clustering>
<clus scale="   38.151">  1  4  2 -1</clus>
<clus scale="   77.184">  2  5  1 -1</clus>
<clus scale="  159.102">  2  3  1 -1</clus>
<clus scale="   77.184">  2  3  1 -1</clus>
</clustering>
</event>
<event>
 6    0  0.4081161E+002  0.1659595E+03  0.7546771E-02  0.1182128E+00
         21   -1    0    0  505  502  0.00000000000E+00  0.00000000000E+00  0.48453689992E+03  0.48453689992E+03  0.00000000000E+00 0. -1.
         -3   -1    0    0    0  501 -0.00000000000E+00 -0.00000000000E+00 -0.43203521091E+03  0.43203521091E+03  0.00000000000E+00 0.  1.
         21    1    1    2  503  501  0.35043216568E+02  0.32423603811E+02  0.77900036509E+01  0.48373559600E+02  0.00000000000E+00 0.  1.
         21    1    1    2  504  502  0.16189351713E+02 -0.16676555495E+03  0.38047196716E+03  0.41573039728E+03  0.00000000000E+00 0. -1.
         21    1    1    2  505  503  0.93430325930E+02  0.13547511973E+02 -0.41721681031E+02  0.10321559743E+03  0.00000000000E+00 0.  1.
         -3    1    1    2    0  504 -0.14466289421E+03  0.12079443917E+03 -0.29403860077E+03  0.34925255653E+03  0.00000000000E+00 0.  1.
<scales pt_clust_3="40.28478" pt_clust_4="14000.00000" pt_clust_5="147.74273" pt_clust_6="165.95949"></scales>
<clustering>
<clus scale="   40.285">  3  5 -1 -1</clus>
<clus scale="  147.743">  2  3  1 -1</clus>
<clus scale="  165.959">  2  6  1 -1</clus>
<clus scale="  165.959">  1  3  2 -1</clus>
</clustering>
</event>
<event>
 6    0  0.4081161E+002  0.2599555E+03  0.7546771E-02  0.1107170E+00
         21   -1    0    0  505  502  0.00000000000E+00  0.00000000000E+00  0.60769726007E+02  0.60769726007E+02  0.00000000000E+00 0. -1.
          2   -1    0    0  504    0 -0.00000000000E+00 -0.00000000000E+00 -0.32488090487E+04  0.32488090487E+04  0.00000000000E+00 0. -1.
         21    1    1    2  503  502 -0.58448644768E+02  0.15755592105E+01 -0.32585771494E+02  0.66936977568E+02  0.00000000000E+00 0. -1.
         21    1    1    2  504  503 -0.18338325986E+03 -0.58436875521E+02 -0.20663380226E+03  0.28238593565E+03  0.00000000000E+00 0. -1.
         21    1    1    2  505  501  0.49013286989E+02  0.42833785895E+02 -0.61168028216E+03  0.61513397166E+03  0.00000000000E+00 0. -1.
          2    1    1    2  501    0  0.19281861764E+03  0.14027530415E+02 -0.23371394667E+04  0.23451218898E+04  0.00000000000E+00 0. -1.
<scales pt_clust_3="30.61161" pt_clust_4="254.55941" pt_clust_5="44.42248" pt_clust_6="44.42248"></scales>
<clustering>
<clus scale="   30.612">  3  4 -1 -1</clus>
<clus scale="   44.422">  5  6 -1 -1</clus>
<clus scale="  254.559">  1  3  2 -1</clus>
<clus scale="  254.559">  1  3  2 -1</clus>
</clustering>
</event>
<event>
 6    0  0.4081161E+002  0.1370164E+03  0.7546771E-02  0.1217401E+00
         21   -1    0    0  504  502  0.00000000000E+00  0.00000000000E+00  0.19364184063E+03  0.19364184063E+03  0.00000000000E+00 0.  1.
          1   -1    0    0  502    0 -0.00000000000E+00 -0.00000000000E+00 -0.21805382223E+04  0.21805382223E+04  0.00000000000E+00 0. -1.
         21    1    1    2  503  501 -0.75887539015E+02 -0.13147375557E+01 -0.14239122010E+04  0.14259335901E+04  0.00000000000E+00 0. -1.
         21    1    1    2  504  505 -0.39071463099E+01  0.88200556813E+02  0.16054535882E+03  0.18321958479E+03  0.00000000000E+00 0.  1.
         21    1    1    2  505  503  0.13057479355E+03 -0.84045150313E+02 -0.29393465811E+03  0.33243186857E+03  0.00000000000E+00 0.  1.
          1    1    1    2  501    0 -0.50780108223E+02 -0.28406689441E+01 -0.42959488137E+03  0.43259501949E+03  0.00000000000E+00 0. -1.
<scales pt_clust_3="41.56430" pt_clust_4="88.28705" pt_clust_5="127.26104" pt_clust_6="41.56430"></scales>
<clustering>
<clus scale="   41.564">  3  6 -1 -1</clus>
<clus scale="   88.287">  1  4  2 -1</clus>
<clus scale="  127.261">  1  5  2 -1</clus>
<clus scale="   88.287">  1  3  2 -1</clus>
</clustering>
</event>
<event>
 6    0  0.4081161E+002  0.1290500E+03  0.7546771E-02  0.1228872E+00
          1   -1    0    0  505    0 -0.00000000000E+00  0.00000000000E+00  0.21795439620E+04  0.21795439620E+04  0.00000000000E+00 0. -1.
         21   -1    0    0  504  502  0.00000000000E+00 -0.00000000000E+00 -0.13001732940E+03  0.13001732940E+03  0.00000000000E+00 0.  1.
         21    1    1    2  503  502 -0.70793007207E+02 -0.91021154245E+02  0.15334779172E+03  0.19186465442E+03  0.00000000000E+00 0.  1.
         21    1    1    2  504  501 -0.35525373347E+02  0.68761095042E+01 -0.10493932539E+03  0.11100268036E+03  0.00000000000E+00 0.  1.
         21    1    1    2  505  503  0.34330554296E+02 -0.31065746433E+01  0.61655039450E+03  0.61751326036E+03  0.00000000000E+00 0.  1.
          1    1    1    2  501    0  0.71987826257E+02  0.87251619385E+02  0.13845677718E+04  0.13891806963E+04  0.00000000000E+00 0. -1.
<scales pt_clust_3="14000.00000" pt_clust_4="36.11817" pt_clust_5="34.47082" pt_clust_6="129.05000"></scales>
<clustering>
<clus scale="   34.471">  1  5  2 -1</clus>
<clus scale="   36.118">  2  4  1 -1</clus>
<clus scale="  129.050">  1  6  2 -1</clus>
<clus scale="   36.118">  2  3  1 -1</clus>
</clustering>
</event>
<event>
 6    0  0.4081161E+002  0.1443848E+03  0.7546771E-02  0.1207548E+00
          1   -1    0    0  502    0 -0.00000000000E+00  0.00000000000E+00  0.22239658142E+03  0.22239658142E+03  0.00000000000E+00 0. -1.
         21   -1    0    0  503  502  0.00000000000E+00 -0.00000000000E+00 -0.82899340337E+03  0.82899340337E+03  0.00000000000E+00 0. -1.
         21    1    1    2  503  505 -0.84755876131E+02  0.14407741694E+02 -0.66415139353E+03  0.66969262732E+03  0.00000000000E+00 0. -1.
         21    1    1    2  504  501 -0.15239899209E+02 -0.47253636088E+02 -0.20385614388E+02  0.53672468971E+02  0.00000000000E+00 0.  1.
         21    1    1    2  505  504  0.23050692607E+01 -0.76333940328E+02 -0.81368118197E+02  0.11159280644E+03  0.00000000000E+00 0.  1.
          1    1    1    2  501    0  0.97690706080E+02  0.10917983472E+03  0.15930830417E+03  0.21643208205E+03  0.00000000000E+00 0. -1.
<scales pt_clust_3="85.97175" pt_clust_4="31.41093" pt_clust_5="31.41093" pt_clust_6="139.03009"></scales>
<clustering>
<clus scale="   31.411">  4  5 -1 -1</clus>
<clus scale="   85.972">  2  3  1 -1</clus>
<clus scale="  139.030">  1  6  2 -1</clus>
<clus scale="   85.972">  2  3  1 -1</clus>
</clustering>
</event>
<event>
 6    0  0.4081161E+002  0.1109948E+03  0.7546771E-02  0.1258739E+00
         21   -1    0    0  505  502  0.00000000000E+00  0.00000000000E+00  0.33904033446E+03  0.33904033446E+03  0.00000000000E+00 0.  1.
         -1   -1    0    0    0  501 -0.00000000000E+00 -0.00000000000E+00 -0.11585661414E+04  0.11585661414E+04  0.00000000000E+00 0.  1.
         21    1    1    2  503  502  0.29380058195E+02 -0.25452314535E+02  0.22686256777E+03  0.23016870506E+03  0.00000000000E+00 0.  1.
         21    1    1    2  504  501 -0.23483121528E+02  0.20784231324E+02 -0.28589940157E+03  0.28761416705E+03  0.00000000000E+00 0. -1.
         21    1    1    2  505  504  0.76564701624E+02  0.62494929756E+02  0.83782598314E+02  0.12956578854E+03  0.00000000000E+00 0.  1.
         -1    1    1    2    0  503 -0.82461638291E+02 -0.57826846545E+02 -0.84427157142E+03  0.85025781519E+03  0.00000000000E+00 0.  1.
<scales pt_clust_3="38.81223" pt_clust_4="31.35987" pt_clust_5="14000.00000" pt_clust_6="110.99484"></scales>
<clustering>
<clus scale="   31.360">  2  4  1 -1</clus>
<clus scale="   38.812">  1  3  2 -1</clus>
<clus scale="  110.995">  2  6  1 -1</clus>
<clus scale="   38.812">  1  3  2 -1</clus>
</clustering>
</event>
<event>
 6    0  0.1318066E+003  0.9841189E+02  0.7546771E-02  0.1283671E+00
          2   -1    0    0  504    0 -0.00000000000E+00  0.00000000000E+00  0.23601785352E+04  0.23601785352E+04  0.00000000000E+00 0. -1.
         21   -1    0    0  505  502  0.00000000000E+00 -0.00000000000E+00 -0.38115317060E+03  0.38115317060E+03  0.00000000000E+00 0.  1.
         21    1    1    2  503  501  0.15492631101E+02  0.92300645239E+02  0.25630517276E+03  0.27285852069E+03  0.00000000000E+00 0.  1.
         21    1    1    2  504  502 -0.22161301758E+02  0.32430089347E+02  0.49539922526E+02  0.63222131524E+02  0.00000000000E+00 0.  1.
         21    1    1    2  505  503  0.40912881283E+02 -0.90072288092E+02 -0.35905368850E+03  0.37243312441E+03  0.00000000000E+00 0.  1.
          2    1    1    2  501    0 -0.34244210626E+02 -0.34658446495E+02  0.20322339579E+04  0.20328179292E+04  0.00000000000E+00 0. -1.
<scales pt_clust_3="14000.00000" pt_clust_4="39.27893" pt_clust_5="98.41189" pt_clust_6="54.13482"></scales>
<clustering>
<clus scale="   39.279">  1  4  2 -1</clus>
<clus scale="   54.135">  1  6  2 -1</clus>
<clus scale="   98.412">  2  5  1 -1</clus>
<clus scale="   98.412">  2  3  1 -1</clus>
</clustering>
</event>
<event>
 6    0  0.4081161E+002  0.7127075E+02  0.7546771E-02  0.1355824E+00
          2   -1    0    0  503    0 -0.00000000000E+00  0.00000000000E+00  0.72976155489E+03  0.72976155489E+03  0.00000000000E+00 0. -1.
         21   -1    0    0  504  502  0.00000000000E+00 -0.00000000000E+00 -0.37246333055E+03  0.37246333055E+03  0.00000000000E+00 0.  1.
         21    1    1    2  503  505  0.19924162086E+02 -0.23905663181E+02  0.29827770427E+02  0.43106250771E+02  0.00000000000E+00 0.  1.
         21    1    1    2  504  501  0.62537968829E+02  0.14025490984E+02 -0.22475178157E+03  0.23371152146E+03  0.00000000000E+00 0.  1.
         21    1    1    2  505  502 -0.97372615724E+02 -0.51658347779E+02 -0.11260285305E+03  0.15757351841E+03  0.00000000000E+00 0.  1.
          2    1    1    2  501    0  0.14910484809E+02  0.61538519976E+02  0.66482508854E+03  0.66783359481E+03  0.00000000000E+00 0. -1.
<scales pt_clust_3="31.11998" pt_clust_4="14000.00000" pt_clust_5="71.27075" pt_clust_6="51.45038"></scales>
<clustering>
<clus scale="   31.120">  1  3  2 -1</clus>
<clus scale="   51.450">  1  6  2 -1</clus>
<clus scale="   71.271">  1  5  2 -1</clus>
<clus scale="   71.271">  2  3  1 -1</clus>
</clustering>
</event>
<event>
 6    0  0.4081161E+002  0.6588692E+02  0.7546771E-02  0.1374666E+00
          2   -1    0    0  504    0 -0.00000000000E+00  0.00000000000E+00  0.22179534440E+04  0.22179534440E+04  0.00000000000E+00 0.  1.
         21   -1    0    0  505  502  0.00000000000E+00 -0.00000000000E+00 -0.34926776287E+02  0.34926776287E+02  0.00000000000E+00 0.  1.
         21    1    1    2  503  502 -0.66003062812E+02  0.23824056423E+02  0.17511673137E+02  0.72323223525E+02  0.00000000000E+00 0.  1.
         21    1    1    2  504  503 -0.44431934529E+02 -0.36063319377E+02  0.11558799372E+04  0.11572956360E+04  0.00000000000E+00 0.  1.
         21    1    1    2  505  501  0.58414334064E+02  0.34263091207E+02  0.19047347322E+03  0.20215424270E+03  0.00000000000E+00 0.  1.
          2    1    1    2  501    0  0.52020663278E+02 -0.22023828253E+02  0.81916158411E+03  0.82110711804E+03  0.00000000000E+00 0.  1.
<scales pt_clust_3="14000.00000" pt_clust_4="54.30411" pt_clust_5="65.88692" pt_clust_6="56.49069"></scales>
<clustering>
<clus scale="   56.491">  1  6  2 -1</clus>
<clus scale="   54.304">  1  4  2 -1</clus>
<clus scale="   65.887">  1  5  2 -1</clus>
<clus scale="   65.887">  2  3  1 -1</clus>
</clustering>
</event>
<event>
 6    0  0.4081161E+002  0.1837087E+03  0.7546771E-02  0.1164261E+00
         -4   -1    0    0    0  501 -0.00000000000E+00  0.00000000000E+00  0.14214361155E+04  0.14214361155E+04  0.00000000000E+00 0. -1.
         21   -1    0    0  501  502  0.00000000000E+00 -0.00000000000E+00 -0.83708162802E+02  0.83708162802E+02  0.00000000000E+00 0. -1.
         21    1    1    2  503  504 -0.10097750418E+03  0.14166537379E+03  0.11469846583E+03  0.20837771605E+03  0.00000000000E+00 0. -1.
         21    1    1    2  504  502  0.40296108635E+02  0.25752586808E+02 -0.10909217181E+02  0.49050821786E+02  0.00000000000E+00 0. -1.
         21    1    1    2  505  503  0.41051876292E+02 -0.68539995837E+02  0.41735073045E+03  0.42492895851E+03  0.00000000000E+00 0.  1.
         -4    1    1    2    0  505  0.19629519251E+02 -0.98877964757E+02  0.81658797357E+03  0.82278678193E+03  0.00000000000E+00 0. -1.
<scales pt_clust_3="176.83342" pt_clust_4="47.82230" pt_clust_5="44.32344" pt_clust_6="44.32344"></scales>
<clustering>
<clus scale="   44.323">  5  6 -1 -1</clus>
<clus scale="   47.822">  2  4  1 -1</clus>
<clus scale="  176.833">  2  3  1 -1</clus>
<clus scale="   47.822">  2  3  1 -1</clus>
</clustering>
</event>
<event>
 6    0  0.4081161E+002  0.1413873E+03  0.7546771E-02  0.1211474E+00
         21   -1    0    0  503  502  0.00000000000E+00  0.00000000000E+00  0.37500584754E+03  0.37500584754E+03  0.00000000000E+00 0.  1.
          3   -1    0    0  505    0 -0.00000000000E+00 -0.00000000000E+00 -0.29677114787E+03  0.29677114787E+03  0.00000000000E+00 0.  1.
         21    1    1    2  503  504 -0.33991116283E+02  0.16755209189E+02  0.23240577227E+02  0.44455117264E+02  0.00000000000E+00 0. -1.
         21    1    1    2  504  501 -0.37201156717E+02  0.56417385655E+01 -0.48130271376E+02  0.61092375120E+02  0.00000000000E+00 0.  1.
         21    1    1    2  505  502  0.15007355856E+03  0.40119974347E+02  0.30408826371E+03  0.34146940924E+03  0.00000000000E+00 0.  1.
          3    1    1    2  501    0 -0.78881285558E+02 -0.62516922101E+02 -0.20096386989E+03  0.22476009379E+03  0.00000000000E+00 0.  1.
<scales pt_clust_3="37.89635" pt_clust_4="33.22999" pt_clust_5="130.52414" pt_clust_6="33.22999"></scales>
<clustering>
<clus scale="   33.230">  4  6 -1 -1</clus>
<clus scale="   37.896">  1  3  2 -1</clus>
<clus scale="  130.524">  1  5  2 -1</clus>
<clus scale="   37.896">  1  3  2 -1</clus>
</clustering>
</event>
<event>
 6    0  0.4081161E+002  0.9799154E+02  0.7546771E-02  0.1284577E+00
          2   -1    0    0  503    0 -0.00000000000E+00  0.00000000000E+00  0.14568101824E+03  0.14568101824E+03  0.00000000000E+00 0.  1.
         21   -1    0    0  504  502  0.00000000000E+00 -0.00000000000E+00 -0.10758738576E+04  0.10758738576E+04  0.00000000000E+00 0. -1.
         21    1    1    2  503  505 -0.76810355671E+01 -0.46999436701E+02 -0.12202066485E+03  0.13098468616E+03  0.00000000000E+00 0. -1.
         21    1    1    2  504  501 -0.83447813012E+02  0.54826892562E+01 -0.14687917536E+02  0.84907787037E+02  0.00000000000E+00 0. -1.
         21    1    1    2  505  502  0.98762509900E+02  0.92029268490E+01 -0.89416403597E+03  0.89964884841E+03  0.00000000000E+00 0. -1.
          2    1    1    2  501    0 -0.76336613208E+01  0.32313820596E+02  0.10067977898E+03  0.10601355424E+03  0.00000000000E+00 0.  1.
<scales pt_clust_3="44.39748" pt_clust_4="14000.00000" pt_clust_5="97.99154" pt_clust_6="33.20325"></scales>
<clustering>
<clus scale="   33.203">  1  6  2 -1</clus>
<clus scale="   44.397">  1  3  2 -1</clus>
<clus scale="   97.992">  2  5  1 -1</clus>
<clus scale="   97.992">  2  3  1 -1</clus>
</clustering>
</event>
<event>
 6    0  0.4081161E+002  0.1473253E+03  0.7546771E-02  0.1203799E+00
          3   -1    0    0  504    0 -0.00000000000E+00  0.00000000000E+00  0.29439505043E+03  0.29439505043E+03  0.00000000000E+00 0.  1.
         21   -1    0    0  503  502  0.00000000000E+00 -0.00000000000E+00 -0.66213855922E+03  0.66213855922E+03  0.00000000000E+00 0.  1.
         21    1    1    2  503  501 -0.87361822028E+01 -0.41916089967E+02  0.65494556736E+02  0.78248427714E+02  0.00000000000E+00 0. -1.
         21    1    1    2  504  505  0.99870857737E+02  0.14687894290E+03 -0.28610323962E+03  0.33675313779E+03  0.00000000000E+00 0.  1.
         21    1    1    2  505  502 -0.55274053098E+01 -0.49422163120E+02 -0.32913769148E+03  0.33287343296E+03  0.00000000000E+00 0.  1.
          3    1    1    2  501    0 -0.85607270225E+02 -0.55540689811E+02  0.18200286558E+03  0.20865861118E+03  0.00000000000E+00 0.  1.
<scales pt_clust_3="33.42156" pt_clust_4="137.99481" pt_clust_5="49.73030" pt_clust_6="33.42156"></scales>
<clustering>
<clus scale="   33.422">  3  6 -1 -1</clus>
<clus scale="   49.730">  2  5  1 -1</clus>
<clus scale="  137.995">  2  4  1 -1</clus>
<clus scale="   49.730">  2  3  1 -1</clus>
</clustering>
</event>
<event>
 6    0  0.4081161E+002  0.1329533E+03  0.7546771E-02  0.1223138E+00
         21   -1    0    0  505  502  0.00000000000E+00  0.00000000000E+00  0.49105571737E+02  0.49105571737E+02  0.00000000000E+00 0. -1.
          2   -1    0    0  504    0 -0.00000000000E+00 -0.00000000000E+00 -0.24997622450E+04  0.24997622450E+04  0.00000000000E+00 0.  1.
         21    1    1    2  503  502  0.62580328800E+02 -0.41735777059E+02 -0.36644707163E+03  0.37408772894E+03  0.00000000000E+00 0.  1.
         21    1    1    2  504  503 -0.27952027349E+02 -0.25588687331E+02 -0.27196423957E+03  0.27459177766E+03  0.00000000000E+00 0.  1.
         21    1    1    2  505  501  0.19663325234E+02  0.13511302097E+03 -0.65764171591E+02  0.15154900548E+03  0.00000000000E+00 0. -1.
          2    1    1    2  501    0 -0.54291626684E+02 -0.67788556583E+02 -0.17464811904E+04  0.17486393046E+04  0.00000000000E+00 0.  1.
<scales pt_clust_3="73.96819" pt_clust_4="37.89587" pt_clust_5="132.95332" pt_clust_6="14000.00000"></scales>
<clustering>
<clus scale="   37.896">  2  4  1 -1</clus>
<clus scale="   73.968">  2  3  1 -1</clus>
<clus scale="  132.953">  1  5  2 -1</clus>
<clus scale="  132.953">  1  3  2 -1</clus>
</clustering>
</event>
<event>
 6    0  0.4081161E+002  0.8510910E+02  0.7546771E-02  0.1315147E+00
         21   -1    0    0  504  502  0.00000000000E+00  0.00000000000E+00  0.12698504126E+03  0.12698504126E+03  0.00000000000E+00 0. -1.
          1   -1    0    0  502    0 -0.00000000000E+00 -0.00000000000E+00 -0.27950876502E+03  0.27950876502E+03  0.00000000000E+00 0.  1.
         21    1    1    2  503  501 -0.10625485089E+03 -0.55180161718E+02 -0.71543610990E+02  0.13947556008E+03  0.00000000000E+00 0. -1.
         21    1    1    2  504  505  0.44407082881E+02  0.80657482878E+01  0.51948618132E+02  0.68816453201E+02  0.00000000000E+00 0.  1.
         21    1    1    2  505  503  0.62444641369E+02 -0.52953568272E+01 -0.85737472364E+01  0.63252534979E+02  0.00000000000E+00 0. -1.
          1    1    1    2  501    0 -0.59687335848E+00  0.52409770257E+02 -0.12435498367E+03  0.13494925802E+03  0.00000000000E+00 0.  1.
<scales pt_clust_3="14000.00000" pt_clust_4="45.13364" pt_clust_5="85.10910" pt_clust_6="53.13239"></scales>
<clustering>
<clus scale="   45.134">  1  4  2 -1</clus>
<clus scale="   53.132">  2  6  1 -1</clus>
<clus scale="   85.109">  1  5  2 -1</clus>
<clus scale="   45.134">  1  3  2 -1</clus>
</clustering>
</event>
<event>
 6    0  0.4081161E+002  0.1119095E+03  0.7546771E-02  0.1257074E+00
         21   -1    0    0  505  502  0.00000000000E+00  0.00000000000E+00  0.25065403833E+03  0.25065403833E+03  0.00000000000E+00 0.  1.
          2   -1    0    0  503    0 -0.00000000000E+00 -0.00000000000E+00 -0.41055197352E+03  0.41055197352E+03  0.00000000000E+00 0. -1.
         21    1    1    2  503  504  0.75385623149E+02  0.14814032184E+02 -0.17847564307E+03  0.19430903967E+03  0.00000000000E+00 0. -1.
         21    1    1    2  504  502 -0.10829180111E+03  0.40991837137E+02  0.11051310393E+02  0.11631670715E+03  0.00000000000E+00 0.  1.
         21    1    1    2  505  501  0.35520322213E+01  0.39523019394E+02  0.16195156689E+03  0.16674230421E+03  0.00000000000E+00 0.  1.
          2    1    1    2  501    0  0.29354145742E+02 -0.95328888715E+02 -0.15442516940E+03  0.18383796082E+03  0.00000000000E+00 0. -1.
<scales pt_clust_3="77.92453" pt_clust_4="111.90952" pt_clust_5="39.68231" pt_clust_6="14000.00000"></scales>
<clustering>
<clus scale="   39.682">  1  5  2 -1</clus>
<clus scale="   77.925">  2  3  1 -1</clus>
<clus scale="  111.910">  1  4  2 -1</clus>
<clus scale="   39.682">  1  3  2 -1</clus>
</clustering>
</event>
<event>
 6    0  0.4081161E+002  0.7335894E+02  0.7546771E-02  0.1349030E+00
         21   -1    0    0  504  502  0.00000000000E+00  0.00000000000E+00  0.18709426631E+03  0.18709426631E+03  0.00000000000E+00 0. -1.
          2   -1    0    0  505    0 -0.00000000000E+00 -0.00000000000E+00 -0.19220683123E+04  0.19220683123E+04  0.00000000000E+00 0. -1.
         21    1    1    2  503  502 -0.12789570635E+02 -0.70861212782E+02 -0.39688066002E+03  0.40335981814E+03  0.00000000000E+00 0. -1.
         21    1    1    2  504  501  0.46403124338E+02  0.31058315321E+02  0.17577716662E+03  0.18443286367E+03  0.00000000000E+00 0. -1.
         21    1    1    2  505  503  0.33961382725E+02  0.66851679853E+02 -0.92114353652E+03  0.92419042274E+03  0.00000000000E+00 0.  1.
          2    1    1    2  501    0 -0.67574936429E+02 -0.27048782392E+02 -0.59272701610E+03  0.59717947409E+03  0.00000000000E+00 0. -1.
<scales pt_clust_3="73.35894" pt_clust_4="55.83788" pt_clust_5="14000.00000" pt_clust_6="55.51209"></scales>
<clustering>
<clus scale="   55.838">  1  4  2 -1</clus>
<clus scale="   55.512">  1  6  2 -1</clus>
<clus scale="   73.359">  1  3  2 -1</clus>
<clus scale="   55.838">  1  3  2 -1</clus>
</clustering>
</event>
<event>
 6    0  0.4081161E+002  0.1641419E+03  0.7546771E-02  0.1184098E+00
         -1   -1    0    0    0  501 -0.00000000000E+00  0.00000000000E+00  0.85026716859E+03  0.85026716859E+03  0.00000000000E+00 0.  1.
         21   -1    0    0  505  502  0.00000000000E+00 -0.00000000000E+00 -0.20146176792E+03  0.20146176792E+03  0.00000000000E+00 0. -1.
         21    1    1    2  503  501 -0.14134733457E+02 -0.14287762196E+03  0.55188987449E+03  0.57025979966E+03  0.00000000000E+00 0. -1.
         21    1    1    2  504  502  0.10004457428E+02  0.59618581536E+02  0.27383285281E+02  0.66364966251E+02  0.00000000000E+00 0.  1.
         21    1    1    2  505  503  0.16102164233E+03 -0.26522935540E+01 -0.81959642488E+02  0.18069971488E+03  0.00000000000E+00 0. -1.
         -1    1    1    2    0  504 -0.15689136630E+03  0.85911333983E+02  0.15149188339E+03  0.23440445572E+03  0.00000000000E+00 0.  1.
<scales pt_clust_3="140.53090" pt_clust_4="60.45217" pt_clust_5="164.14189" pt_clust_6="14000.00000"></scales>
<clustering>
<clus scale="   60.452">  2  4  1 -1</clus>
<clus scale="  140.531">  1  3  2 -1</clus>
<clus scale="  164.142">  2  5  1 -1</clus>
<clus scale="   60.452">  2  3  1 -1</clus>
</clustering>
</event>
<event>
 6    0  0.4081161E+002  0.1211919E+03  0.7546771E-02  0.1241144E+00
          1   -1    0    0  504    0 -0.00000000000E+00  0.00000000000E+00  0.11889630250E+04  0.11889630250E+04  0.00000000000E+00 0.  1.
         21   -1    0    0  505  502  0.00000000000E+00 -0.00000000000E+00 -0.70681619196E+02  0.70681619196E+02  0.00000000000E+00 0. -1.
         21    1    1    2  503  502  0.11135353458E+03 -0.34246273715E+02 -0.11283010098E+02  0.11704581686E+03  0.00000000000E+00 0. -1.
         21    1    1    2  504  503 -0.10266599342E+02  0.37095623896E+02  0.95663090302E+02  0.10311602795E+03  0.00000000000E+00 0.  1.
         21    1    1    2  505  501 -0.46203234044E+02  0.37024591342E+01  0.30656460824E+03  0.31004887690E+03  0.00000000000E+00 0.  1.
          1    1    1    2  501    0 -0.54883701193E+02 -0.65518093148E+01  0.72733671731E+03  0.72943392244E+03  0.00000000000E+00 0.  1.
<scales pt_clust_3="115.50594" pt_clust_4="38.49011" pt_clust_5="33.59478" pt_clust_6="33.59478"></scales>
<clustering>
<clus scale="   33.595">  5  6 -1 -1</clus>
<clus scale="   38.490">  1  4  2 -1</clus>
<clus scale="  115.506">  2  3  1 -1</clus>
<clus scale="  115.506">  2  3  1 -1</clus>
</clustering>
</event>
<event>
 6    0  0.4081161E+002  0.8902657E+02  0.7546771E-02  0.1305226E+00
         21   -1    0    0  503  502  0.00000000000E+00  0.00000000000E+00  0.28772286308E+03  0.28772286308E+03  0.00000000000E+00 0.  1.
          2   -1    0    0  505    0 -0.00000000000E+00 -0.00000000000E+00 -0.44951356083E+03  0.44951356083E+03  0.00000000000E+00 0.  1.
         21    1    1    2  503  504 -0.15031718517E+02 -0.50099920498E+02 -0.36405216577E+01  0.52432890378E+02  0.00000000000E+00 0. -1.
         21    1    1    2  504  501  0.81258033193E+02  0.10630578686E+03  0.30792417303E+02  0.13730244441E+03  0.00000000000E+00 0.  1.
         21    1    1    2  505  502 -0.24025907538E+02  0.19177523371E+02  0.17283695286E+03  0.17554951982E+03  0.00000000000E+00 0.  1.
          2    1    1    2  501    0 -0.42200407138E+02 -0.75383389734E+02 -0.36177954626E+03  0.37195156929E+03  0.00000000000E+00 0.  1.
<scales pt_clust_3="50.21833" pt_clust_4="14000.00000" pt_clust_5="30.74120" pt_clust_6="89.02657"></scales>
<clustering>
<clus scale="   30.741">  1  5  2 -1</clus>
<clus scale="   50.218">  1  3  2 -1</clus>
<clus scale="   89.027">  2  6  1 -1</clus>
<clus scale="   30.741">  1  3  2 -1</clus>
</clustering>
</event>
<event>
 6    0  0.4081161E+002  0.1505761E+03  0.7546771E-02  0.1199767E+00
         21   -1    0    0  503  502  0.00000000000E+00  0.00000000000E+00  0.51905556645E+03  0.51905556645E+03  0.00000000000E+00 0. -1.
         -4   -1    0    0    0  501 -0.00000000000E+00 -0.00000000000E+00 -0.32654826966E+03  0.32654826966E+03  0.00000000000E+00 0.  1.
         21    1    1    2  503  505  0.69179894940E+01 -0.52503463866E+02  0.11970542985E+03  0.13089637975E+03  0.00000000000E+00 0.  1.
         21    1    1    2  504  501 -0.59991158347E+02  0.16136889676E+02 -0.44008545038E+02  0.76132058455E+02  0.00000000000E+00 0.  1.
         21    1    1    2  505  504 -0.86980704369E+02  0.16751859671E+03  0.31213772323E+03  0.36477127278E+03  0.00000000000E+00 0. -1.
         -4    1    1    2    0  502  0.14005387322E+03 -0.13115202252E+03 -0.19532731125E+03  0.27380412513E+03  0.00000000000E+00 0.  1.
<scales pt_clust_3="52.95727" pt_clust_4="61.32721" pt_clust_5="150.57608" pt_clust_6="14000.00000"></scales>
<clustering>
<clus scale="   52.957">  1  3  2 -1</clus>
<clus scale="   61.327">  2  4  1 -1</clus>
<clus scale="  150.576">  1  5  2 -1</clus>
<clus scale="   52.957">  1  3  2 -1</clus>
</clustering>
</event>
<event>
 6    0  0.4081161E+002  0.8948792E+02  0.7546771E-02  0.1304097E+00
         21   -1    0    0  505  502  0.00000000000E+00  0.00000000000E+00  0.46105822163E+03  0.46105822163E+03  0.00000000000E+00 0.  1.
          2   -1    0    0  503    0 -0.00000000000E+00 -0.00000000000E+00 -0.92570505504E+03  0.92570505504E+03  0.00000000000E+00 0.  1.
         21    1    1    2  503  504 -0.28346595657E+02 -0.19087079631E+02 -0.22766896859E+02  0.41063093975E+02  0.00000000000E+00 0.  1.
         21    1    1    2  504  502  0.86792851412E+02 -0.89176414725E+02  0.21719699476E+03  0.25031972861E+03  0.00000000000E+00 0.  1.
         21    1    1    2  505  501 -0.30728740293E+02  0.70695769219E+02  0.21069648205E+03  0.22435497501E+03  0.00000000000E+00 0.  1.
          2    1    1    2  501    0 -0.27717515462E+02  0.37567725136E+02 -0.86977341335E+03  0.87102547908E+03  0.00000000000E+00 0.  1.
<scales pt_clust_3="34.17376" pt_clust_4="89.48792" pt_clust_5="14000.00000" pt_clust_6="58.48761"></scales>
<clustering>
<clus scale="   34.174">  2  3  1 -1</clus>
<clus scale="   58.488">  2  6  1 -1</clus>
<clus scale="   89.488">  2  4  1 -1</clus>
<clus scale="   89.488">  1  3  2 -1</clus>
</clustering>
</event>
<event>
 6    0  0.4081161E+002  0.1389503E+03  0.7546771E-02  0.1214748E+00
         21   -1    0    0  501  502  0.00000000000E+00  0.00000000000E+00  0.18679356641E+03  0.18679356641E+03  0.00000000000E+00 0. -1.
          1   -1    0    0  503    0 -0.00000000000E+00 -0.00000000000E+00 -0.19580285937E+04  0.19580285937E+04  0.00000000000E+00 0. -1.
         21    1    1    2  503  505 -0.33060723954E+02  0.33091093430E+02 -0.44902494484E+03  0.45145479621E+03  0.00000000000E+00 0. -1.
         21    1    1    2  504  502  0.36894446946E+02 -0.43321815649E+02  0.10492980457E+03  0.11936600778E+03  0.00000000000E+00 0. -1.
         21    1    1    2  505  504  0.10363356002E+03  0.63336981896E+02  0.18972972842E+02  0.12292868557E+03  0.00000000000E+00 0. -1.
          1    1    1    2  501    0 -0.10746728301E+03 -0.53106259676E+02 -0.14461128599E+04  0.14510726705E+04  0.00000000000E+00 0. -1.
<scales pt_clust_3="46.77640" pt_clust_4="56.68003" pt_clust_5="138.95031" pt_clust_6="14000.00000"></scales>
<clustering>
<clus scale="   46.776">  2  3  1 -1</clus>
<clus scale="   56.680">  1  4  2 -1</clus>
<clus scale="  138.950">  1  5  2 -1</clus>
<clus scale="   56.680">  1  3  2 -1</clus>
</clustering>
</event>
<event>
 6    0  0.4081161E+002  0.8653071E+02  0.7546771E-02  0.1311477E+00
         -4   -1    0    0    0  501 -0.00000000000E+00  0.00000000000E+00  0.90764889001E+03  0.90764889001E+03  0.00000000000E+00 0.  1.
         21   -1    0    0  501  502  0.00000000000E+00 -0.00000000000E+00 -0.86415653954E+02  0.86415653954E+02  0.00000000000E+00 0. -1.
         21    1    1    2  503  504  0.61698952152E+02 -0.77453698056E+02  0.82101283608E+02  0.12863303156E+03  0.00000000000E+00 0.  1.
         21    1    1    2  504  502  0.52962715387E+02  0.68812096700E+02 -0.24506016020E+02  0.90225820553E+02  0.00000000000E+00 0. -1.
         21    1    1    2  505  503 -0.68128741832E+02 -0.20411980789E+02  0.29908117551E+03  0.30742108576E+03  0.00000000000E+00 0.  1.
         -4    1    1    2    0  505 -0.46532925707E+02  0.29053582145E+02  0.46455679295E+03  0.46778460608E+03  0.00000000000E+00 0.  1.
<scales pt_clust_3="14000.00000" pt_clust_4="86.53071" pt_clust_5="86.27752" pt_clust_6="54.85822"></scales>
<clustering>
<clus scale="   54.858">  1  6  2 -1</clus>
<clus scale="   86.531">  2  4  1 -1</clus>
<clus scale="   86.278">  1  5  2 -1</clus>
<clus scale="   86.531">  2  3  1 -1</clus>
</clustering>
</event>
<event>
 6    0  0.4081161E+002  0.1619277E+03  0.7546771E-02  0.1186537E+00
         21   -1    0    0  503  502  0.00000000000E+00  0.00000000000E+00  0.11196537707E+04  0.11196537707E+04  0.00000000000E+00 0.  1.
          1   -1    0    0  504    0 -0.00000000000E+00 -0.00000000000E+00 -0.25388530694E+03  0.25388530694E+03  0.00000000000E+00 0. -1.
         21    1    1    2  503  501  0.44547087066E+02 -0.11649935192E+02 -0.53738360648E+02  0.70767049968E+02  0.00000000000E+00 0. -1.
         21    1    1    2  504  505 -0.13661313772E+03  0.96102870202E+01  0.45469369792E+03  0.47487036752E+03  0.00000000000E+00 0.  1.
         21    1    1    2  505  502  0.25427885949E+02  0.99980454306E+02  0.62232360514E+03  0.63081640605E+03  0.00000000000E+00 0.  1.
          1    1    1    2  501    0  0.66638164704E+02 -0.97940806134E+02 -0.15751047865E+03  0.19708525411E+03  0.00000000000E+00 0. -1.
<scales pt_clust_3="32.67335" pt_clust_4="153.21260" pt_clust_5="103.16331" pt_clust_6="32.67335"></scales>
<clustering>
<clus scale="   32.673">  3  6 -1 -1</clus>
<clus scale="  103.163">  1  5  2 -1</clus>
<clus scale="  153.213">  1  4  2 -1</clus>
<clus scale="  103.163">  1  3  2 -1</clus>
</clustering>
</event>
<event>
 6    0  0.4081161E+002  0.8819185E+02  0.7546771E-02  0.1307290E+00
          2   -1    0    0  503    0 -0.00000000000E+00  0.00000000000E+00  0.67812491129E+03  0.67812491129E+03  0.00000000000E+00 0.  1.
         21   -1    0    0  501  502  0.00000000000E+00 -0.00000000000E+00 -0.23435935565E+03  0.23435935565E+03  0.00000000000E+00 0.  1.
         21    1    1    2  503  505 -0.25628005082E+02 -0.78556135350E+02  0.51536583862E+03  0.52194809001E+03  0.00000000000E+00 0.  1.
         21    1    1    2  504  502  0.27822835469E+02  0.32372218541E+02 -0.15093270559E+03  0.15685264526E+03  0.00000000000E+00 0.  1.
         21    1    1    2  505  504  0.58260936042E+02  0.10802869692E+02 -0.55852553690E+02  0.81428167214E+02  0.00000000000E+00 0.  1.
          2    1    1    2  501    0 -0.60455766429E+02  0.35381047117E+02  0.13518497631E+03  0.15225536447E+03  0.00000000000E+00 0.  1.
<scales pt_clust_3="14000.00000" pt_clust_4="42.68572" pt_clust_5="88.19185" pt_clust_6="69.37841"></scales>
<clustering>
<clus scale="   42.686">  2  4  1 -1</clus>
<clus scale="   69.378">  1  6  2 -1</clus>
<clus scale="   88.192">  2  5  1 -1</clus>
<clus scale="   42.686">  2  3  1 -1</clus>
</clustering>
</event>
<event>
 6    0  0.4081161E+002  0.1301355E+03  0.7546771E-02  0.1227255E+00
          1   -1    0    0  505    0 -0.00000000000E+00  0.00000000000E+00  0.47278482976E+03  0.47278482976E+03  0.00000000000E+00 0. -1.
         21   -1    0    0  503  502  0.00000000000E+00 -0.00000000000E+00 -0.39602795947E+03  0.39602795947E+03  0.00000000000E+00 0.  1.
         21    1    1    2  503  501  0.46386486125E+02 -0.27165423329E+02 -0.22264794288E+03  0.22904535095E+03  0.00000000000E+00 0.  1.
         21    1    1    2  504  502  0.88135693499E+02  0.56289849882E+02 -0.12687277361E+03  0.16441760354E+03  0.00000000000E+00 0.  1.
         21    1    1    2  505  504 -0.12814429750E+03  0.39880238761E+02  0.33395133331E+03  0.35990955454E+03  0.00000000000E+00 0. -1.
          1    1    1    2  501    0 -0.63778821241E+01 -0.69004665313E+02  0.92326253470E+02  0.11544028021E+03  0.00000000000E+00 0. -1.
<scales pt_clust_3="53.75562" pt_clust_4="14000.00000" pt_clust_5="130.13549" pt_clust_6="70.92296"></scales>
<clustering>
<clus scale="   53.756">  2  3  1 -1</clus>
<clus scale="   70.923">  1  6  2 -1</clus>
<clus scale="  130.135">  1  5  2 -1</clus>
<clus scale="   53.756">  2  3  1 -1</clus>
</clustering>
</event>
<event>
 6    0  0.4081161E+002  0.1266056E+03  0.7546771E-02  0.1232581E+00
         21   -1    0    0  505  502  0.00000000000E+00  0.00000000000E+00  0.22518688471E+02  0.22518688471E+02  0.00000000000E+00 0.  1.
          2   -1    0    0  503    0 -0.00000000000E+00 -0.00000000000E+00 -0.16433121252E+04  0.16433121252E+04  0.00000000000E+00 0.  1.
         21    1    1    2  503  502  0.16746240795E+02  0.25260731300E+02 -0.41940884421E+02  0.51745327447E+02  0.00000000000E+00 0.  1.
         21    1    1    2  504  501  0.33307674257E+02 -0.96566114241E+01 -0.59818379174E+03  0.59918820083E+03  0.00000000000E+00 0.  1.
         21    1    1    2  505  504 -0.13102193053E+03 -0.31285209445E+02 -0.29516368880E+03  0.32444893866E+03  0.00000000000E+00 0.  1.
          2    1    1    2  501    0  0.80968015476E+02  0.15681089568E+02 -0.68550507179E+03  0.69044834676E+03  0.00000000000E+00 0.  1.
<scales pt_clust_3="30.30744" pt_clust_4="30.05455" pt_clust_5="117.55375" pt_clust_6="30.05455"></scales>
<clustering>
<clus scale="   30.307">  1  3  2 -1</clus>
<clus scale="   30.055">  4  6 -1 -1</clus>
<clus scale="  117.554">  1  5  2 -1</clus>
<clus scale="   30.307">  1  3  2 -1</clus>
</clustering>
</event>
<event>
 6    0  0.4081161E+002  0.1263988E+03  0.7546771E-02  0.1232899E+00
         -2   -1    0    0    0  501 -0.00000000000E+00  0.00000000000E+00  0.26878818607E+03  0.26878818607E+03  0.00000000000E+00 0. -1.
         21   -1    0    0  503  502  0.00000000000E+00 -0.00000000000E+00 -0.25086059326E+04  0.25086059326E+04  0.00000000000E+00 0. -1.
         21    1    1    2  503  504  0.80497717604E+02 -0.97515263388E+02 -0.24178346862E+04  0.24211389218E+04  0.00000000000E+00 0. -1.
         21    1    1    2  504  505  0.29704156624E+02  0.65768743325E+02 -0.34470217216E+02  0.79975373673E+02  0.00000000000E+00 0.  1.
         21    1    1    2  505  501  0.10235797254E+01 -0.34612460802E+02  0.96112571557E+02  0.10216015157E+03  0.00000000000E+00 0. -1.
         -2    1    1    2    0  502 -0.11122545395E+03  0.66358980865E+02  0.11637458527E+03  0.17411967162E+03  0.00000000000E+00 0. -1.
<scales pt_clust_3="14000.00000" pt_clust_4="68.02199" pt_clust_5="34.62759" pt_clust_6="126.39877"></scales>
<clustering>
<clus scale="   34.628">  1  5  2 -1</clus>
<clus scale="   68.022">  1  4  2 -1</clus>
<clus scale="  126.399">  1  6  2 -1</clus>
<clus scale="  126.399">  2  3  1 -1</clus>
</clustering>
</event>
<event>
 6    0  0.4081161E+002  0.1939374E+03  0.7546771E-02  0.1154957E+00
         21   -1    0    0  503  502  0.00000000000E+00  0.00000000000E+00  0.31121325316E+03  0.31121325316E+03  0.00000000000E+00 0. -1.
          2   -1    0    0  504    0 -0.00000000000E+00 -0.00000000000E+00 -0.29031674397E+03  0.29031674397E+03  0.00000000000E+00 0.  1.
         21    1    1    2  503  505 -0.29661799897E+01 -0.52885885679E+02  0.15805821856E+03  0.16669767720E+03  0.00000000000E+00 0. -1.
         21    1    1    2  504  502  0.98180095684E+02 -0.12775682465E+03  0.34572224119E+02  0.16479191762E+03  0.00000000000E+00 0. -1.
         21    1    1    2  505  501 -0.25826018469E+02  0.80987445048E+02 -0.89183533566E+02  0.12320573097E+03  0.00000000000E+00 0.  1.
          2    1    1    2  501    0 -0.69387897225E+02  0.99655265278E+02 -0.82550399923E+02  0.14683467134E+03  0.00000000000E+00 0.  1.
<scales pt_clust_3="52.96900" pt_clust_4="189.41998" pt_clust_5="34.81807" pt_clust_6="34.81807"></scales>
<clustering>
<clus scale="   34.818">  5  6 -1 -1</clus>
<clus scale="   52.969">  1  3  2 -1</clus>
<clus scale="  189.420">  1  4  2 -1</clus>
<clus scale="   52.969">  1  3  2 -1</clus>
</clustering>
</event>
<event>
 6    0  0.4081161E+002  0.1228095E+03  0.7546771E-02  0.1238533E+00
         -1   -1    0    0    0  501 -0.00000000000E+00  0.00000000000E+00  0.11159361412E+04  0.11159361412E+04  0.00000000000E+00 0.  1.
         21   -1    0    0  504  502  0.00000000000E+00 -0.00000000000E+00 -0.86955458916E+03  0.86955458916E+03  0.00000000000E+00 0.  1.
         21    1    1    2  503  502 -0.68049254828E+01  0.29717633412E+02 -0.28293763899E+02  0.41593050165E+02  0.00000000000E+00 0. -1.
         21    1    1    2  504  501  0.10105774893E+03  0.51560223749E+02 -0.82503302292E+03  0.83279686250E+03  0.00000000000E+00 0.  1.
         21    1    1    2  505  503 -0.42970689282E+02 -0.68191714703E+02  0.33487439848E+03  0.34443787952E+03  0.00000000000E+00 0.  1.
         -1    1    1    2    0  505 -0.51282134166E+02 -0.13086142458E+02  0.76483394037E+03  0.76666293816E+03  0.00000000000E+00 0.  1.
<scales pt_clust_3="30.48680" pt_clust_4="14000.00000" pt_clust_5="122.80946" pt_clust_6="52.92464"></scales>
<clustering>
<clus scale="   30.487">  2  3  1 -1</clus>
<clus scale="   52.925">  1  6  2 -1</clus>
<clus scale="  122.809">  1  5  2 -1</clus>
<clus scale="   30.487">  2  3  1 -1</clus>
</clustering>
</event>
<event>
 6    0  0.4081161E+002  0.2360839E+03  0.7546771E-02  0.1122429E+00
         21   -1    0    0  501  502  0.00000000000E+00  0.00000000000E+00  0.60338359699E+03  0.60338359699E+03  0.00000000000E+00 0. -1.
          2   -1    0    0  503    0 -0.00000000000E+00 -0.00000000000E+00 -0.59817701755E+03  0.59817701755E+03  0.00000000000E+00 0.  1.
         21    1    1    2  503  504  0.94930583016E+01 -0.29439924657E+02 -0.51162197370E+02  0.59786267315E+02  0.00000000000E+00 0.  1.
         21    1    1    2  504  505 -0.24742999866E+03 -0.48803847970E+02  0.32988148419E+03  0.41524115093E+03  0.00000000000E+00 0. -1.
         21    1    1    2  505  502  0.21118661495E+02  0.12765793417E+03  0.17985513352E+03  0.22156356892E+03  0.00000000000E+00 0.  1.
          2    1    1    2  501    0  0.21681827886E+03 -0.49414161542E+02 -0.45336784090E+03  0.50496962738E+03  0.00000000000E+00 0.  1.
<scales pt_clust_3="30.93263" pt_clust_4="236.08387" pt_clust_5="128.33758" pt_clust_6="14000.00000"></scales>
<clustering>
<clus scale="   30.933">  2  3  1 -1</clus>
<clus scale="  128.338">  1  5  2 -1</clus>
<clus scale="  236.084">  1  4  2 -1</clus>
<clus scale="  128.338">  1  3  2 -1</clus>
</clustering>
</event>
<event>
 6    0  0.4081161E+002  0.1525485E+03  0.7546771E-02  0.1197376E+00
          2   -1    0    0  504    0 -0.00000000000E+00  0.00000000000E+00  0.18452881071E+03  0.18452881071E+03  0.00000000000E+00 0.  1.
         21   -1    0    0  503  502  0.00000000000E+00 -0.00000000000E+00 -0.28395205470E+03  0.28395205470E+03  0.00000000000E+00 0.  1.
         21    1    1    2  503  505  0.29870081948E+02  0.33440392096E+02 -0.92773290392E+02  0.10304059894E+03  0.00000000000E+00 0.  1.
         21    1    1    2  504  502 -0.81450373800E+01 -0.16803165893E+03 -0.96122950697E+02  0.19375397205E+03  0.00000000000E+00 0.  1.
         21    1    1    2  505  501 -0.17701025661E+02  0.43157157978E+02  0.46090826452E+01  0.46873342499E+02  0.00000000000E+00 0. -1.
          2    1    1    2  501    0 -0.40240189078E+01  0.91434108853E+02  0.84863914454E+02  0.12481295192E+03  0.00000000000E+00 0.  1.
<scales pt_clust_3="44.83839" pt_clust_4="142.78330" pt_clust_5="38.33893" pt_clust_6="38.33893"></scales>
<clustering>
<clus scale="   38.339">  5  6 -1 -1</clus>
<clus scale="   44.838">  2  3  1 -1</clus>
<clus scale="  142.783">  2  4  1 -1</clus>
<clus scale="   44.838">  2  3  1 -1</clus>
</clustering>
</event>
<event>
 6    0  0.4081161E+002  0.1155004E+03  0.7546771E-02  0.1250710E+00
          2   -1    0    0  504    0 -0.00000000000E+00  0.00000000000E+00  0.92689303671E+03  0.92689303671E+03  0.00000000000E+00 0.  1.
         21   -1    0    0  503  502  0.00000000000E+00 -0.00000000000E+00 -0.86147430806E+02  0.86147430806E+02  0.00000000000E+00 0.  1.
         21    1    1    2  503  501 -0.89428813334E+02 -0.14031744393E+03  0.23103888744E+03  0.28471997688E+03  0.00000000000E+00 0.  1.
         21    1    1    2  504  505  0.39432902277E+02 -0.54860812307E+01  0.81646267630E+02  0.90835917385E+02  0.00000000000E+00 0.  1.
         21    1    1    2  505  502 -0.13941809426E+01  0.74917630833E+02 -0.23879293864E+02  0.78643600030E+02  0.00000000000E+00 0.  1.
          2    1    1    2  501    0  0.51390092000E+02  0.70885894332E+02  0.55193974470E+03  0.55884097322E+03  0.00000000000E+00 0.  1.
<scales pt_clust_3="115.50036" pt_clust_4="39.81270" pt_clust_5="74.73902" pt_clust_6="14000.00000"></scales>
<clustering>
<clus scale="   39.813">  1  4  2 -1</clus>
<clus scale="   74.739">  2  5  1 -1</clus>
<clus scale="  115.500">  2  3  1 -1</clus>
<clus scale="   74.739">  2  3  1 -1</clus>
</clustering>
</event>
<event>
 6    0  0.4081161E+002  0.8172601E+02  0.7546771E-02  0.1324223E+00
         21   -1    0    0  504  502  0.00000000000E+00  0.00000000000E+00  0.10494666232E+03  0.10494666232E+03  0.00000000000E+00 0. -1.
          1   -1    0    0  503    0 -0.00000000000E+00 -0.00000000000E+00 -0.77405014761E+03  0.77405014761E+03  0.00000000000E+00 0.  1.
         21    1    1    2  503  505 -0.12954423018E+02  0.57974949037E+02 -0.21740349069E+03  0.22537344466E+03  0.00000000000E+00 0.  1.
         21    1    1    2  504  501  0.29110225920E+02  0.14475972318E+02  0.59868285125E+02  0.68126137359E+02  0.00000000000E+00 0. -1.
         21    1    1    2  505  502  0.59325180114E+02 -0.80261090516E+01  0.44429344181E+01  0.60030284760E+02  0.00000000000E+00 0. -1.
          1    1    1    2  501    0 -0.75480983017E+02 -0.64424812304E+02 -0.51601121414E+03  0.52546694316E+03  0.00000000000E+00 0.  1.
<scales pt_clust_3="60.24008" pt_clust_4="32.51091" pt_clust_5="81.72601" pt_clust_6="14000.00000"></scales>
<clustering>
<clus scale="   32.511">  1  4  2 -1</clus>
<clus scale="   60.240">  2  3  1 -1</clus>
<clus scale="   81.726">  1  5  2 -1</clus>
<clus scale="   32.511">  1  3  2 -1</clus>
</clustering>
</event>
<event>
 6    0  0.4081161E+002  0.1033627E+03  0.7546771E-02  0.1273379E+00
          2   -1    0    0  503    0 -0.00000000000E+00  0.00000000000E+00  0.19278916194E+04  0.19278916194E+04  0.00000000000E+00 0.  1.
         21   -1    0    0  505  502  0.00000000000E+00 -0.00000000000E+00 -0.33441831648E+03  0.33441831648E+03  0.00000000000E+00 0. -1.
         21    1    1    2  503  504 -0.65391878576E+02 -0.15307722083E+02  0.39309849711E+02  0.77818303910E+02  0.00000000000E+00 0. -1.
         21    1    1    2  504  502 -0.52339840338E+02 -0.61016120971E+02 -0.16296731908E+03  0.18171618803E+03  0.00000000000E+00 0. -1.
         21    1    1    2  505  501  0.26521627916E+02  0.21388200367E+02 -0.13924287020E+03  0.14335071944E+03  0.00000000000E+00 0. -1.
          2    1    1    2  501    0  0.91210090998E+02  0.54935642687E+02  0.18563736425E+04  0.18594247245E+04  0.00000000000E+00 0.  1.
<scales pt_clust_3="103.36271" pt_clust_4="50.79512" pt_clust_5="34.07128" pt_clust_6="14000.00000"></scales>
<clustering>
<clus scale="   34.071">  2  5  1 -1</clus>
<clus scale="   50.795">  2  4  1 -1</clus>
<clus scale="  103.363">  2  3  1 -1</clus>
<clus scale="   34.071">  2  3  1 -1</clus>
</clustering>
</event>
<event>
 6    0  0.4081161E+002  0.1150064E+03  0.7546771E-02  0.1251570E+00
         21   -1    0    0  504  502  0.00000000000E+00  0.00000000000E+00  0.22696316089E+03  0.22696316089E+03  0.00000000000E+00 0.  1.
         -2   -1    0    0    0  501 -0.00000000000E+00 -0.00000000000E+00 -0.29775869798E+03  0.29775869798E+03  0.00000000000E+00 0.  1.
         21    1    1    2  503  501  0.33742463833E+01 -0.35524635762E+02 -0.47330246129E+02  0.59275100028E+02  0.00000000000E+00 0.  1.
         21    1    1    2  504  505  0.96046582109E+02  0.71541007330E+02  0.18236112274E+03  0.21817112722E+03  0.00000000000E+00 0.  1.
         21    1    1    2  505  503 -0.31767924292E+02 -0.23798344147E+02 -0.11769938935E+02  0.41401614226E+02  0.00000000000E+00 0.  1.
         -2    1    1    2    0  502 -0.67652904200E+02 -0.12218027422E+02 -0.19405647477E+03  0.20587401740E+03  0.00000000000E+00 0.  1.
<scales pt_clust_3="35.68452" pt_clust_4="115.00640" pt_clust_5="41.84730" pt_clust_6="14000.00000"></scales>
<clustering>
<clus scale="   35.685">  2  3  1 -1</clus>
<clus scale="   41.847">  2  5  1 -1</clus>
<clus scale="  115.006">  1  4  2 -1</clus>
<clus scale="  115.006">  1  3  2 -1</clus>
</clustering>
</event>
<event>
 6    0  0.4081161E+002  0.8961490E+02  0.7546771E-02  0.1303787E+00
         21   -1    0    0  505  502  0.00000000000E+00  0.00000000000E+00  0.30358896098E+03  0.30358896098E+03  0.00000000000E+00 0. -1.
          2   -1    0    0  504    0 -0.00000000000E+00 -0.00000000000E+00 -0.63679235456E+03  0.63679235456E+03  0.00000000000E+00 0.  1.
         21    1    1    2  503  502 -0.54797990547E+02  0.35052974980E+02 -0.60038473743E+02  0.88522026368E+02  0.00000000000E+00 0.  1.
         21    1    1    2  504  503  0.41646800517E+02 -0.10738948224E+02 -0.35761863999E+03  0.36019560335E+03  0.00000000000E+00 0.  1.
         21    1    1    2  505  501  0.80817490533E+02 -0.44210664574E+02  0.27418526973E+03  0.28924662794E+03  0.00000000000E+00 0. -1.
          2    1    1    2  501    0 -0.67666300503E+02  0.19896637818E+02 -0.18973154957E+03  0.20241705789E+03  0.00000000000E+00 0.  1.
<scales pt_clust_3="89.61490" pt_clust_4="43.00908" pt_clust_5="14000.00000" pt_clust_6="40.21399"></scales>
<clustering>
<clus scale="   43.009">  2  4  1 -1</clus>
<clus scale="   40.214">  2  6  1 -1</clus>
<clus scale="   89.615">  2  3  1 -1</clus>
<clus scale="   89.615">  1  3  2 -1</clus>
</clustering>
</event>
<event>
 6    0  0.4081161E+002  0.1098358E+03  0.7546771E-02  0.1260874E+00
         21   -1    0    0  503  502  0.00000000000E+00  0.00000000000E+00  0.15332517596E+03  0.15332517596E+03  0.00000000000E+00 0.  1.
          2   -1    0    0  504    0 -0.00000000000E+00 -0.00000000000E+00 -0.14570257017E+04  0.14570257017E+04  0.00000000000E+00 0.  1.
         21    1    1    2  503  501 -0.59163603639E+02  0.42205640080E+02 -0.10271505251E+03  0.12582539514E+03  0.00000000000E+00 0.  1.
         21    1    1    2  504  505  0.13135469022E+02 -0.17739314211E+03  0.42210482534E+02  0.18281846802E+03  0.00000000000E+00 0.  1.
         21    1    1    2  505  502  0.20663413173E+01  0.35623071901E+02  0.15075745585E+02  0.38736947777E+02  0.00000000000E+00 0.  1.
          2    1    1    2  501    0  0.43961793299E+02  0.99564430130E+02 -0.12582717013E+04  0.12629700667E+04  0.00000000000E+00 0.  1.
<scales pt_clust_3="74.46333" pt_clust_4="14000.00000" pt_clust_5="35.68295" pt_clust_6="109.83580"></scales>
<clustering>
<clus scale="   35.683">  1  5  2 -1</clus>
<clus scale="   74.463">  1  3  2 -1</clus>
<clus scale="  109.836">  2  6  1 -1</clus>
<clus scale="   35.683">  1  3  2 -1</clus>
</clustering>
</event>
<event>
 6    0  0.4081161E+002  0.8842835E+02  0.7546771E-02  0.1306703E+00
          2   -1    0    0  503    0 -0.00000000000E+00  0.00000000000E+00  0.93046793275E+03  0.93046793275E+03  0.00000000000E+00 0. -1.
         21   -1    0    0  504  502  0.00000000000E+00 -0.00000000000E+00 -0.10637229335E+03  0.10637229335E+03  0.00000000000E+00 0. -1.
         21    1    1    2  503  505  0.10856547332E+02  0.29847409590E+02  0.11433722045E+03  0.11866647572E+03  0.00000000000E+00 0.  1.
         21    1    1    2  504  501 -0.36010003205E+02  0.52204585219E+02  0.70790344896E+02  0.95043737191E+02  0.00000000000E+00 0. -1.
         21    1    1    2  505  502  0.10279719088E+03 -0.10799029550E+03 -0.27537335000E+02  0.15161619700E+03  0.00000000000E+00 0. -1.
          2    1    1    2  501    0 -0.77643735008E+02  0.25938300689E+02  0.66650540905E+03  0.67151381619E+03  0.00000000000E+00 0. -1.
<scales pt_clust_3="31.76055" pt_clust_4="65.34763" pt_clust_5="14000.00000" pt_clust_6="88.42835"></scales>
<clustering>
<clus scale="   31.761">  1  3  2 -1</clus>
<clus scale="   65.348">  2  4  1 -1</clus>
<clus scale="   88.428">  1  6  2 -1</clus>
<clus scale="   65.348">  2  3  1 -1</clus>
</clustering>
</event>
<event>
 6    0  0.4081161E+002  0.1196997E+03  0.7546771E-02  0.1243593E+00
         21   -1    0    0  504  502  0.00000000000E+00  0.00000000000E+00  0.42772181660E+03  0.42772181660E+03  0.00000000000E+00 0.  1.
          2   -1    0    0  503    0 -0.00000000000E+00 -0.00000000000E+00 -0.13102585942E+03  0.13102585942E+03  0.00000000000E+00 0.  1.
         21    1    1    2  503  502 -0.30625262934E+02 -0.84272968679E+01  0.79713124342E+02  0.85808555836E+02  0.00000000000E+00 0.  1.
         21    1    1    2  504  505  0.11404225856E+03 -0.55910379341E+02  0.30182399967E+03  0.32745890434E+03  0.00000000000E+00 0.  1.
         21    1    1    2  505  501 -0.37099857521E+02  0.69096722928E+01 -0.72800782752E+01  0.38433612099E+02  0.00000000000E+00 0.  1.
          2    1    1    2  501    0 -0.46317138105E+02  0.57428003916E+02 -0.77561088557E+02  0.10704660375E+03  0.00000000000E+00 0.  1.
<scales pt_clust_3="31.76360" pt_clust_4="107.04807" pt_clust_5="38.81300" pt_clust_6="38.81300"></scales>
<clustering>
<clus scale="   31.764">  1  3  2 -1</clus>
<clus scale="   38.813">  5  6 -1 -1</clus>
<clus scale="  107.048">  1  4  2 -1</clus>
<clus scale="   31.764">  1  3  2 -1</clus>
</clustering>
</event>
<event>
 6    0  0.4081161E+002  0.1026795E+03  0.7546771E-02  0.1274760E+00
         21   -1    0    0  504  502  0.00000000000E+00  0.00000000000E+00  0.19770428015E+03  0.19770428015E+03  0.00000000000E+00 0. -1.
         -2   -1    0    0    0  501 -0.00000000000E+00 -0.00000000000E+00 -0.30855291184E+03  0.30855291184E+03  0.00000000000E+00 0. -1.
         21    1    1    2  503  505 -0.12380057202E+03 -0.26023636485E+02 -0.33350208387E+01  0.12655012309E+03  0.00000000000E+00 0. -1.
         21    1    1    2  504  503 -0.19450917374E+02 -0.25202825826E+02  0.65634791778E+02  0.72948245407E+02  0.00000000000E+00 0.  1.
         21    1    1    2  505  501  0.90091193283E+02 -0.49338763675E+02 -0.16285562411E+03  0.19254269920E+03  0.00000000000E+00 0. -1.
         -2    1    1    2    0  502  0.53160296115E+02  0.10056522599E+03 -0.10292778514E+02  0.11421612430E+03  0.00000000000E+00 0. -1.
<scales pt_clust_3="14000.00000" pt_clust_4="31.83584" pt_clust_5="102.67954" pt_clust_6="101.08087"></scales>
<clustering>
<clus scale="   31.836">  1  4  2 -1</clus>
<clus scale="  101.081">  1  6  2 -1</clus>
<clus scale="  102.680">  2  5  1 -1</clus>
<clus scale="   31.836">  1  3  2 -1</clus>
</clustering>
</event>
<event>
 6    0  0.4081161E+002  0.1983245E+03  0.7546771E-02  0.1151160E+00
          2   -1    0    0  505    0 -0.00000000000E+00  0.00000000000E+00  0.15837772804E+04  0.15837772804E+04  0.00000000000E+00 0. -1.
         21   -1    0    0  504  502  0.00000000000E+00 -0.00000000000E+00 -0.37991370424E+03  0.37991370424E+03  0.00000000000E+00 0. -1.
         21    1    1    2  503  501  0.47052559782E+02 -0.23634255122E+01  0.23981954570E+03  0.24440323988E+03  0.00000000000E+00 0. -1.
         21    1    1    2  504  503 -0.13811542559E+03 -0.43038811208E+02  0.10912327051E+03  0.18120733491E+03  0.00000000000E+00 0. -1.
         21    1    1    2  505  502 -0.35371096971E+02 -0.47690335342E+02 -0.33379784514E+03  0.33903758494E+03  0.00000000000E+00 0. -1.
          2    1    1    2  501    0  0.12643396278E+03  0.93092572062E+02  0.11887186051E+04  0.11990428249E+04  0.00000000000E+00 0. -1.
<scales pt_clust_3="36.68850" pt_clust_4="186.67262" pt_clust_5="59.37577" pt_clust_6="36.68850"></scales>
<clustering>
<clus scale="   36.689">  3  6 -1 -1</clus>
<clus scale="   59.376">  2  5  1 -1</clus>
<clus scale="  186.673">  2  4  1 -1</clus>
<clus scale="   59.376">  2  3  1 -1</clus>
</clustering>
</event>
<event>
 6    0  0.4081161E+002  0.1746082E+03  0.7546771E-02  0.1173126E+00
         21   -1    0    0  504  502  0.00000000000E+00  0.00000000000E+00  0.26162053273E+03  0.26162053273E+03  0.00000000000E+00 0. -1.
          2   -1    0    0  503    0 -0.00000000000E+00 -0.00000000000E+00 -0.67406284272E+03  0.67406284272E+03  0.00000000000E+00 0.  1.
         21    1    1    2  503  502  0.71569347996E+02  0.15475173702E+02 -0.52424848295E+02  0.90055634429E+02  0.00000000000E+00 0.  1.
         21    1    1    2  504  505 -0.12313454555E+02  0.89168045901E+02  0.86231481805E+02  0.12465323914E+03  0.00000000000E+00 0. -1.
         21    1    1    2  505  501 -0.15820615292E+03 -0.19995555435E+01  0.78911147460E+02  0.17680541349E+03  0.00000000000E+00 0. -1.
          2    1    1    2  501    0  0.98950259480E+02 -0.10264366406E+03 -0.52516009096E+03  0.54416908839E+03  0.00000000000E+00 0.  1.
<scales pt_clust_3="73.22331" pt_clust_4="90.22077" pt_clust_5="14000.00000" pt_clust_6="174.60824"></scales>
<clustering>
<clus scale="   73.223">  2  3  1 -1</clus>
<clus scale="   90.221">  1  4  2 -1</clus>
<clus scale="  174.608">  2  6  1 -1</clus>
<clus scale="   90.221">  1  3  2 -1</clus>
</clustering>
</event>
<event>
 6    0  0.5274519E+002  0.1519865E+03  0.7546771E-02  0.1198053E+00
         21   -1    0    0  504  502  0.00000000000E+00  0.00000000000E+00  0.69888279837E+03  0.69888279837E+03  0.00000000000E+00 0. -1.
          3   -1    0    0  505    0 -0.00000000000E+00 -0.00000000000E+00 -0.16672006595E+04  0.16672006595E+04  0.00000000000E+00 0.  1.
         21    1    1    2  503  502 -0.19808636113E+02  0.27389085667E+02 -0.26287697717E+01  0.33903606134E+02  0.00000000000E+00 0. -1.
         21    1    1    2  504  501 -0.11801384770E+03 -0.92823455274E+02  0.67054137266E+03  0.68714568656E+03  0.00000000000E+00 0. -1.
         21    1    1    2  505  503  0.32115272131E+02 -0.13067964943E+02 -0.49986118468E+03  0.50106223801E+03  0.00000000000E+00 0.  1.
          3    1    1    2  501    0  0.10570721169E+03  0.78502334550E+02 -0.11363692794E+04  0.11439719272E+04  0.00000000000E+00 0.  1.
<scales pt_clust_3="33.80154" pt_clust_4="151.98653" pt_clust_5="34.64702" pt_clust_6="14000.00000"></scales>
<clustering>
<clus scale="   33.802">  1  3  2 -1</clus>
<clus scale="   34.647">  2  5  1 -1</clus>
<clus scale="  151.987">  1  4  2 -1</clus>
<clus scale="   33.802">  1  3  2 -1</clus>
</clustering>
</event>
<event>
 6    0  0.4081161E+002  0.1612041E+03  0.7546771E-02  0.1187344E+00
          2   -1    0    0  503    0 -0.00000000000E+00  0.00000000000E+00  0.12596688956E+04  0.12596688956E+04  0.00000000000E+00 0.  1.
         21   -1    0    0  504  502  0.00000000000E+00 -0.00000000000E+00 -0.19355210022E+04  0.19355210022E+04  0.00000000000E+00 0.  1.
         21    1    1    2  503  505  0.63363793899E+02 -0.12279554761E+03  0.26062296788E+03  0.29498821718E+03  0.00000000000E+00 0. -1.
         21    1    1    2  504  501  0.39389377508E+02 -0.20088734664E+02 -0.95934196782E+03  0.96036039670E+03  0.00000000000E+00 0.  1.
         21    1    1    2  505  502  0.59543990302E+02  0.60389357040E+02 -0.94813431642E+03  0.95191966216E+03  0.00000000000E+00 0.  1.
          2    1    1    2  501    0 -0.16229716171E+03  0.82494925237E+02  0.97100120972E+03  0.98792162173E+03  0.00000000000E+00 0.  1.
<scales pt_clust_3="14000.00000" pt_clust_4="44.21629" pt_clust_5="106.07081" pt_clust_6="161.20411"></scales>
<clustering>
<clus scale="   44.216">  2  4  1 -1</clus>
<clus scale="  106.071">  2  5  1 -1</clus>
<clus scale="  161.204">  1  6  2 -1</clus>
<clus scale="   44.216">  2  3  1 -1</clus>
</clustering>
</event>
<event>
 6    0  0.4081161E+002  0.1928228E+03  0.7546771E-02  0.1155940E+00
         21   -1    0    0  501  502  0.00000000000E+00  0.00000000000E+00  0.62123924006E+02  0.62123924006E+02  0.00000000000E+00 0.  1.
          1   -1    0    0  504    0 -0.00000000000E+00 -0.00000000000E+00 -0.78222159649E+03  0.78222159649E+03  0.00000000000E+00 0.  1.
         21    1    1    2  503  505  0.81853919774E+02  0.80134264138E+02 -0.86144151000E+02  0.14332612889E+03  0.00000000000E+00 0.  1.
         21    1    1    2  504  503 -0.35934722397E+02 -0.66230084956E+01 -0.15857593727E+03  0.16273136267E+03  0.00000000000E+00 0.  1.
         21    1    1    2  505  502  0.29206895513E+02  0.76708060097E+02 -0.12220167147E+03  0.14720875565E+03  0.00000000000E+00 0.  1.
          1    1    1    2  501    0 -0.75126092890E+02 -0.15021931574E+03 -0.35317591275E+03  0.39107927329E+03  0.00000000000E+00 0.  1.
<scales pt_clust_3="54.04291" pt_clust_4="36.53996" pt_clust_5="54.04291" pt_clust_6="181.96736"></scales>
<clustering>
<clus scale="   36.540">  2  4  1 -1</clus>
<clus scale="   54.043">  3  5 -1 -1</clus>
<clus scale="  181.967">  2  6  1 -1</clus>
<clus scale="  192.823">  1  3  2 -1</clus>
</clustering>
</event>
<event>
 6    0  0.4081161E+002  0.5849595E+02  0.7546771E-02  0.1404254E+00
          1   -1    0    0  503    0 -0.00000000000E+00  0.00000000000E+00  0.60149624312E+03  0.60149624312E+03  0.00000000000E+00 0. -1.
         21   -1    0    0  505  502  0.00000000000E+00 -0.00000000000E+00 -0.75353860896E+03  0.75353860896E+03  0.00000000000E+00 0.  1.
         21    1    1    2  503  504  0.30829551183E+02 -0.40450783248E+02  0.10169230077E+03  0.11370158806E+03  0.00000000000E+00 0. -1.
         21    1    1    2  504  502 -0.22378557155E+02 -0.71684316529E+02 -0.64630770094E+03  0.65065588859E+03  0.00000000000E+00 0.  1.
         21    1    1    2  505  501  0.27655901811E+02  0.13995943081E+02 -0.90892464638E+02  0.96032158446E+02  0.00000000000E+00 0. -1.
          1    1    1    2  501    0 -0.36106895839E+02  0.98139156696E+02  0.48346549896E+03  0.49464521699E+03  0.00000000000E+00 0. -1.
<scales pt_clust_3="50.91187" pt_clust_4="58.49595" pt_clust_5="30.99573" pt_clust_6="14000.00000"></scales>
<clustering>
<clus scale="   30.996">  2  5  1 -1</clus>
<clus scale="   50.912">  1  3  2 -1</clus>
<clus scale="   58.496">  2  4  1 -1</clus>
<clus scale="   30.996">  2  3  1 -1</clus>
</clustering>
</event>
<event>
 6    0  0.4081161E+002  0.8018457E+02  0.7546771E-02  0.1328528E+00
         21   -1    0    0  505  502  0.00000000000E+00  0.00000000000E+00  0.56474841526E+02  0.56474841526E+02  0.00000000000E+00 0.  1.
          1   -1    0    0  503    0 -0.00000000000E+00 -0.00000000000E+00 -0.90826964365E+03  0.90826964365E+03  0.00000000000E+00 0.  1.
         21    1    1    2  503  504 -0.23777327199E+02  0.45393540823E+02 -0.35279626459E+03  0.35649844200E+03  0.00000000000E+00 0.  1.
         21    1    1    2  504  502  0.23164926352E+02  0.96473247841E+02 -0.16807254975E+03  0.19517193277E+03  0.00000000000E+00 0.  1.
         21    1    1    2  505  501  0.15380382793E+02 -0.48753548645E+02  0.15999203428E+02  0.53567146561E+02  0.00000000000E+00 0.  1.
          1    1    1    2  501    0 -0.14767981946E+02 -0.93113240019E+02 -0.34692519121E+03  0.35950696385E+03  0.00000000000E+00 0.  1.
<scales pt_clust_3="46.95568" pt_clust_4="14000.00000" pt_clust_5="51.12206" pt_clust_6="80.18457"></scales>
<clustering>
<clus scale="   51.122">  1  5  2 -1</clus>
<clus scale="   46.956">  2  3  1 -1</clus>
<clus scale="   80.185">  2  6  1 -1</clus>
<clus scale="   51.122">  1  3  2 -1</clus>
</clustering>
</event>
<event>
 6    0  0.4081161E+002  0.1031046E+03  0.7546771E-02  0.1273900E+00
         21   -1    0    0  505  502  0.00000000000E+00  0.00000000000E+00  0.15862305516E+03  0.15862305516E+03  0.00000000000E+00 0.  1.
          2   -1    0    0  504    0 -0.00000000000E+00 -0.00000000000E+00 -0.11248961591E+04  0.11248961591E+04  0.00000000000E+00 0.  1.
         21    1    1    2  503  502 -0.10899873201E+03  0.12864468164E+02 -0.13837476490E+03  0.17661764827E+03  0.00000000000E+00 0.  1.
         21    1    1    2  504  503 -0.10353794242E+02 -0.29452114635E+02 -0.21251435210E+03  0.21479520004E+03  0.00000000000E+00 0. -1.
         21    1    1    2  505  501  0.96872191674E+02  0.36873235157E+02  0.11859242984E+03  0.15750562341E+03  0.00000000000E+00 0.  1.
          2    1    1    2  501    0  0.22480334574E+02 -0.20285588685E+02 -0.73397641673E+03  0.73460074249E+03  0.00000000000E+00 0.  1.
<scales pt_clust_3="103.10464" pt_clust_4="40.59444" pt_clust_5="14000.00000" pt_clust_6="30.27987"></scales>
<clustering>
<clus scale="   30.280">  2  6  1 -1</clus>
<clus scale="   40.594">  2  4  1 -1</clus>
<clus scale="  103.105">  2  3  1 -1</clus>
<clus scale="  103.105">  1  3  2 -1</clus>
</clustering>
</event>
<event>
 6    0  0.4081161E+002  0.1223036E+03  0.7546771E-02  0.1239344E+00
          2   -1    0    0  503    0 -0.00000000000E+00  0.00000000000E+00  0.68479611286E+03  0.68479611286E+03  0.00000000000E+00 0.  1.
         21   -1    0    0  501  502  0.00000000000E+00 -0.00000000000E+00 -0.18925918796E+03  0.18925918796E+03  0.00000000000E+00 0.  1.
         21    1    1    2  503  504 -0.11299530748E+02  0.56616797759E+02  0.26473423953E+03  0.27095637798E+03  0.00000000000E+00 0.  1.
         21    1    1    2  504  505 -0.43708461241E+02 -0.94958267780E+02  0.85749080291E+02  0.13520505528E+03  0.00000000000E+00 0.  1.
         21    1    1    2  505  502  0.12508429891E+03  0.24526016788E+02 -0.13098193736E+03  0.18276727073E+03  0.00000000000E+00 0.  1.
          2    1    1    2  501    0 -0.70076306925E+02  0.13815453232E+02  0.27603554243E+03  0.28512659684E+03  0.00000000000E+00 0.  1.
<scales pt_clust_3="57.73336" pt_clust_4="92.59705" pt_clust_5="122.30361" pt_clust_6="14000.00000"></scales>
<clustering>
<clus scale="   57.733">  1  3  2 -1</clus>
<clus scale="   92.597">  1  4  2 -1</clus>
<clus scale="  122.304">  2  5  1 -1</clus>
<clus scale="  122.304">  2  3  1 -1</clus>
</clustering>
</event>
<event>
 6    0  0.4081161E+002  0.1077231E+03  0.7546771E-02  0.1264845E+00
         21   -1    0    0  503  502  0.00000000000E+00  0.00000000000E+00  0.12802058851E+03  0.12802058851E+03  0.00000000000E+00 0.  1.
          2   -1    0    0  504    0 -0.00000000000E+00 -0.00000000000E+00 -0.36768085991E+03  0.36768085991E+03  0.00000000000E+00 0. -1.
         21    1    1    2  503  501 -0.16527568422E+02 -0.46069653904E+02 -0.20658633410E+03  0.21230517414E+03  0.00000000000E+00 0. -1.
         21    1    1    2  504  505  0.10364008599E+03  0.50388418357E+02  0.48284239895E+02  0.12494650036E+03  0.00000000000E+00 0.  1.
         21    1    1    2  505  502 -0.48729084770E+02  0.27704706186E+02  0.74425049229E+01  0.56546134500E+02  0.00000000000E+00 0.  1.
          2    1    1    2  501    0 -0.38383432801E+02 -0.32023470638E+02 -0.88800682112E+02  0.10190363943E+03  0.00000000000E+00 0. -1.
<scales pt_clust_3="48.06954" pt_clust_4="96.14744" pt_clust_5="56.05421" pt_clust_6="48.06954"></scales>
<clustering>
<clus scale="   48.070">  3  6 -1 -1</clus>
<clus scale="   56.054">  1  5  2 -1</clus>
<clus scale="   96.147">  1  4  2 -1</clus>
<clus scale="   56.054">  1  3  2 -1</clus>
</clustering>
</event>
<event>
 6    0  0.4081161E+002  0.1549159E+03  0.7546771E-02  0.1194559E+00
          1   -1    0    0  503    0 -0.00000000000E+00  0.00000000000E+00  0.49076528717E+03  0.49076528717E+03  0.00000000000E+00 0. -1.
         21   -1    0    0  505  502  0.00000000000E+00 -0.00000000000E+00 -0.64246512703E+02  0.64246512703E+02  0.00000000000E+00 0. -1.
         21    1    1    2  503  502 -0.11926258381E+03 -0.42178264054E+02  0.10483324290E+03  0.16429418332E+03  0.00000000000E+00 0. -1.
         21    1    1    2  504  501  0.67788854722E+02  0.63142790583E+01  0.98246085079E+02  0.11953029816E+03  0.00000000000E+00 0.  1.
         21    1    1    2  505  504 -0.11114052429E+02 -0.31547246491E+02  0.45509741000E+01  0.33755922262E+02  0.00000000000E+00 0. -1.
          1    1    1    2  501    0  0.62587781516E+02  0.67411231487E+02  0.21888847239E+03  0.23743139613E+03  0.00000000000E+00 0. -1.
<scales pt_clust_3="139.94692" pt_clust_4="57.84097" pt_clust_5="33.44773" pt_clust_6="57.84097"></scales>
<clustering>
<clus scale="   33.448">  2  5  1 -1</clus>
<clus scale="   57.841">  4  6 -1 -1</clus>
<clus scale="  139.947">  2  3  1 -1</clus>
<clus scale="   33.448">  2  3  1 -1</clus>
</clustering>
</event>
<event>
 6    0  0.4081161E+002  0.1514843E+03  0.7546771E-02  0.1198661E+00
         21   -1    0    0  504  502  0.00000000000E+00  0.00000000000E+00  0.58596858022E+03  0.58596858022E+03  0.00000000000E+00 0.  1.
          2   -1    0    0  503    0 -0.00000000000E+00 -0.00000000000E+00 -0.85632737098E+02  0.85632737098E+02  0.00000000000E+00 0.  1.
         21    1    1    2  503  502 -0.16468069176E+03  0.15426151030E+02  0.13365003376E+03  0.21265001270E+03  0.00000000000E+00 0.  1.
         21    1    1    2  504  505  0.35186219057E+02  0.20042830514E+02  0.30141676997E+03  0.30412473475E+03  0.00000000000E+00 0.  1.
         21    1    1    2  505  501  0.46413880231E+02 -0.18366395756E+02  0.37748960771E+01  0.50058192252E+02  0.00000000000E+00 0.  1.
          2    1    1    2  501    0  0.83080592477E+02 -0.17102585787E+02  0.61494143305E+02  0.10476837761E+03  0.00000000000E+00 0.  1.
<scales pt_clust_3="145.81886" pt_clust_4="40.49426" pt_clust_5="31.48320" pt_clust_6="31.48320"></scales>
<clustering>
<clus scale="   31.483">  5  6 -1 -1</clus>
<clus scale="   40.494">  1  4  2 -1</clus>
<clus scale="  145.819">  1  3  2 -1</clus>
<clus scale="   40.494">  1  3  2 -1</clus>
</clustering>
</event>
<event>
 6    0  0.4081161E+002  0.1141853E+03  0.7546771E-02  0.1253010E+00
         21   -1    0    0  503  502  0.00000000000E+00  0.00000000000E+00  0.35775397262E+03  0.35775397262E+03  0.00000000000E+00 0.  1.
          1   -1    0    0  504    0 -0.00000000000E+00 -0.00000000000E+00 -0.59311673774E+03  0.59311673774E+03  0.00000000000E+00 0.  1.
         21    1    1    2  503  501  0.12473100653E+02  0.40853601166E+02  0.10600822814E+02  0.44011048754E+02  0.00000000000E+00 0.  1.
         21    1    1    2  504  505 -0.92400585879E+01 -0.98556640261E+02 -0.13745609423E+03  0.16938998750E+03  0.00000000000E+00 0. -1.
         21    1    1    2  505  502  0.98571549892E+02  0.17610686147E+00  0.29831328836E+03  0.31417701933E+03  0.00000000000E+00 0.  1.
          1    1    1    2  501    0 -0.10180459196E+03  0.57526932234E+02 -0.40682078206E+03  0.42329265478E+03  0.00000000000E+00 0.  1.
<scales pt_clust_3="42.71528" pt_clust_4="96.96808" pt_clust_5="114.18533" pt_clust_6="14000.00000"></scales>
<clustering>
<clus scale="   42.715">  1  3  2 -1</clus>
<clus scale="   96.968">  2  4  1 -1</clus>
<clus scale="  114.185">  1  5  2 -1</clus>
<clus scale="   42.715">  1  3  2 -1</clus>
</clustering>
</event>
<event>
 6    0  0.4081161E+002  0.1183129E+03  0.7546771E-02  0.1245906E+00
          2   -1    0    0  505    0 -0.00000000000E+00  0.00000000000E+00  0.82888304249E+03  0.82888304249E+03  0.00000000000E+00 0. -1.
         21   -1    0    0  501  502  0.00000000000E+00 -0.00000000000E+00 -0.12464406290E+03  0.12464406290E+03  0.00000000000E+00 0. -1.
         21    1    1    2  503  504 -0.28030981835E+02  0.17064041677E+02 -0.56994190898E+02  0.65766672845E+02  0.00000000000E+00 0. -1.
         21    1    1    2  504  502 -0.70230006980E+02  0.29504206129E+02 -0.29307295948E+02  0.81619052038E+02  0.00000000000E+00 0. -1.
         21    1    1    2  505  503  0.41144973884E+02  0.36869318554E+02  0.33392415911E+03  0.33846358676E+03  0.00000000000E+00 0. -1.
          2    1    1    2  501    0  0.57116014931E+02 -0.83437566361E+02  0.45661630733E+03  0.46767779375E+03  0.00000000000E+00 0. -1.
<scales pt_clust_3="32.49297" pt_clust_4="32.49297" pt_clust_5="55.24722" pt_clust_6="107.45777"></scales>
<clustering>
<clus scale="   32.493">  3  4 -1 -1</clus>
<clus scale="   55.247">  1  5  2 -1</clus>
<clus scale="  107.458">  1  6  2 -1</clus>
<clus scale="  118.313">  2  3  1 -1</clus>
</clustering>
</event>
<event>
 6    0  0.4081161E+002  0.1416646E+03  0.7546771E-02  0.1211107E+00
         21   -1    0    0  501  502  0.00000000000E+00  0.00000000000E+00  0.27923118893E+03  0.27923118893E+03  0.00000000000E+00 0. -1.
          4   -1    0    0  505    0 -0.00000000000E+00 -0.00000000000E+00 -0.30091840057E+03  0.30091840057E+03  0.00000000000E+00 0. -1.
         21    1    1    2  503  502 -0.82770962400E+02 -0.12913436008E+03  0.21199687910E+03  0.26166656630E+03  0.00000000000E+00 0. -1.
         21    1    1    2  504  503  0.49688627880E+02  0.45487071378E+02 -0.10820846667E+02  0.68228470053E+02  0.00000000000E+00 0. -1.
         21    1    1    2  505  504 -0.16902343325E+02  0.41659607303E+02 -0.61445822563E+02  0.76136727017E+02  0.00000000000E+00 0. -1.
          4    1    1    2  501    0  0.49984677845E+02  0.41987681399E+02 -0.16141742151E+03  0.17411782613E+03  0.00000000000E+00 0. -1.
<scales pt_clust_3="14000.00000" pt_clust_4="70.39849" pt_clust_5="44.95789" pt_clust_6="141.66457"></scales>
<clustering>
<clus scale="   44.958">  2  5  1 -1</clus>
<clus scale="   70.398">  2  4  1 -1</clus>
<clus scale="  141.665">  2  6  1 -1</clus>
<clus scale="  141.665">  1  3  2 -1</clus>
</clustering>
</event>
<event>
 6    0  0.4081161E+002  0.1203695E+03  0.7546771E-02  0.1242489E+00
          2   -1    0    0  504    0 -0.00000000000E+00  0.00000000000E+00  0.39371044746E+04  0.39371044746E+04  0.00000000000E+00 0. -1.
         21   -1    0    0  503  502  0.00000000000E+00 -0.00000000000E+00 -0.69346302891E+02  0.69346302891E+02  0.00000000000E+00 0. -1.
         21    1    1    2  503  501  0.46776395922E+02 -0.14562158131E+03  0.58997494296E+03  0.60947855539E+03  0.00000000000E+00 0. -1.
         21    1    1    2  504  505  0.12667457093E+02  0.43666220331E+02  0.27693981188E+03  0.28064722103E+03  0.00000000000E+00 0. -1.
         21    1    1    2  505  502 -0.38248697086E+02  0.25556950741E+02 -0.47980771272E+02  0.66470105851E+02  0.00000000000E+00 0. -1.
          2    1    1    2  501    0 -0.21195155929E+02  0.76398410237E+02  0.30488241881E+04  0.30498548952E+04  0.00000000000E+00 0. -1.
<scales pt_clust_3="120.36946" pt_clust_4="45.46651" pt_clust_5="46.03613" pt_clust_6="14000.00000"></scales>
<clustering>
<clus scale="   45.467">  1  4  2 -1</clus>
<clus scale="   46.036">  2  5  1 -1</clus>
<clus scale="  120.369">  2  3  1 -1</clus>
<clus scale="   46.036">  2  3  1 -1</clus>
</clustering>
</event>
<event>
 6    0  0.4081161E+002  0.9926282E+02  0.7546771E-02  0.1281854E+00
          1   -1    0    0  503    0 -0.00000000000E+00  0.00000000000E+00  0.10339059561E+04  0.10339059561E+04  0.00000000000E+00 0. -1.
         21   -1    0    0  505  502  0.00000000000E+00 -0.00000000000E+00 -0.57487685130E+02  0.57487685130E+02  0.00000000000E+00 0. -1.
         21    1    1    2  503  502 -0.14525965443E+02 -0.54635488023E+02  0.34344733032E+01  0.56637759758E+02  0.00000000000E+00 0. -1.
         21    1    1    2  504  501  0.10627606945E+03  0.22737521183E+02  0.40784323866E+03  0.42207547326E+03  0.00000000000E+00 0. -1.
         21    1    1    2  505  504 -0.70788953277E+02  0.10875366756E+03  0.19614504682E+03  0.23518357830E+03  0.00000000000E+00 0. -1.
          1    1    1    2  501    0 -0.20961150728E+02 -0.76855700719E+02  0.36899551217E+03  0.37749682989E+03  0.00000000000E+00 0. -1.
<scales pt_clust_3="56.53353" pt_clust_4="99.26282" pt_clust_5="14000.00000" pt_clust_6="87.44307"></scales>
<clustering>
<clus scale="   56.534">  2  3  1 -1</clus>
<clus scale="   87.443">  1  6  2 -1</clus>
<clus scale="   99.263">  1  4  2 -1</clus>
<clus scale="   56.534">  2  3  1 -1</clus>
</clustering>
</event>
<event>
 6    0  0.4081161E+002  0.1275186E+03  0.7546771E-02  0.1231185E+00
         21   -1    0    0  503  502  0.00000000000E+00  0.00000000000E+00  0.75827530477E+03  0.75827530477E+03  0.00000000000E+00 0.  1.
          1   -1    0    0  505    0 -0.00000000000E+00 -0.00000000000E+00 -0.49844546804E+03  0.49844546804E+03  0.00000000000E+00 0.  1.
         21    1    1    2  503  501 -0.83069454576E+02  0.72630106925E+02  0.60060757566E+03  0.61065958329E+03  0.00000000000E+00 0.  1.
         21    1    1    2  504  502  0.29581738703E+02  0.43877623796E+02  0.12125754362E+03  0.13230161382E+03  0.00000000000E+00 0. -1.
         21    1    1    2  505  504  0.31508103878E+02  0.31109606161E+02 -0.22682449077E+02  0.49749991976E+02  0.00000000000E+00 0.  1.
          1    1    1    2  501    0  0.21979611995E+02 -0.14761733688E+03 -0.43935283348E+03  0.46400958372E+03  0.00000000000E+00 0.  1.
<scales pt_clust_3="14000.00000" pt_clust_4="53.43678" pt_clust_5="44.27830" pt_clust_6="127.51860"></scales>
<clustering>
<clus scale="   44.278">  2  5  1 -1</clus>
<clus scale="   53.437">  1  4  2 -1</clus>
<clus scale="  127.519">  2  6  1 -1</clus>
<clus scale="   53.437">  1  3  2 -1</clus>
</clustering>
</event>
<event>
 6    0  0.4081161E+002  0.1619178E+03  0.7546771E-02  0.1186548E+00
         21   -1    0    0  504  502  0.00000000000E+00  0.00000000000E+00  0.11340922628E+04  0.11340922628E+04  0.00000000000E+00 0. -1.
          1   -1    0    0  505    0 -0.00000000000E+00 -0.00000000000E+00 -0.17247286830E+03  0.17247286830E+03  0.00000000000E+00 0. -1.
         21    1    1    2  503  501 -0.28663982824E+02  0.15869514487E+03  0.56327477823E+02  0.17081732253E+03  0.00000000000E+00 0. -1.
         21    1    1    2  504  503 -0.15894489601E+02 -0.17616604713E+03  0.49571847712E+03  0.52633061807E+03  0.00000000000E+00 0. -1.
         21    1    1    2  505  502 -0.79106787747E+02  0.32626808324E+02  0.46517697228E+03  0.47298203775E+03  0.00000000000E+00 0. -1.
          1    1    1    2  501    0  0.12366526017E+03 -0.15155906070E+02 -0.55603532713E+02  0.13643515277E+03  0.00000000000E+00 0. -1.
<scales pt_clust_3="161.91783" pt_clust_4="14000.00000" pt_clust_5="85.57098" pt_clust_6="119.58534"></scales>
<clustering>
<clus scale="   85.571">  1  5  2 -1</clus>
<clus scale="  119.585">  2  6  1 -1</clus>
<clus scale="  161.918">  2  3  1 -1</clus>
<clus scale="   85.571">  1  3  2 -1</clus>
</clustering>
</event>
<event>
 6    0  0.4081161E+002  0.4599349E+03  0.7546771E-02  0.1024800E+00
         21   -1    0    0  505  502  0.00000000000E+00  0.00000000000E+00  0.78764610968E+03  0.78764610968E+03  0.00000000000E+00 0.  1.
          2   -1    0    0  504    0 -0.00000000000E+00 -0.00000000000E+00 -0.40509032091E+04  0.40509032091E+04  0.00000000000E+00 0.  1.
         21    1    1    2  503  502  0.94117429822E+02 -0.15572635354E+03 -0.11537391838E+03  0.21545284594E+03  0.00000000000E+00 0.  1.
         21    1    1    2  504  503 -0.89894619219E+02 -0.16398915585E+03 -0.72773134465E+03  0.75137633433E+03  0.00000000000E+00 0.  1.
         21    1    1    2  505  501 -0.23224171845E+02  0.61988146250E+03  0.58434662455E+03  0.85220500311E+03  0.00000000000E+00 0.  1.
          2    1    1    2  501    0  0.19001361242E+02 -0.30016595311E+03 -0.30044984609E+04  0.30195151354E+04  0.00000000000E+00 0.  1.
<scales pt_clust_3="181.95820" pt_clust_4="188.49247" pt_clust_5="459.93490" pt_clust_6="14000.00000"></scales>
<clustering>
<clus scale="  181.958">  1  3  2 -1</clus>
<clus scale="  188.492">  2  4  1 -1</clus>
<clus scale="  459.935">  1  5  2 -1</clus>
<clus scale="  181.958">  1  3  2 -1</clus>
</clustering>
</event>
<event>
 6    0  0.4081161E+002  0.1863725E+03  0.7546771E-02  0.1161774E+00
          1   -1    0    0  504    0 -0.00000000000E+00  0.00000000000E+00  0.11386312556E+03  0.11386312556E+03  0.00000000000E+00 0. -1.
         21   -1    0    0  505  502  0.00000000000E+00 -0.00000000000E+00 -0.63876338628E+03  0.63876338628E+03  0.00000000000E+00 0. -1.
         21    1    1    2  503  502  0.18300311540E+03  0.84184610635E+02 -0.17212041050E+03  0.26495777895E+03  0.00000000000E+00 0. -1.
         21    1    1    2  504  503  0.14498881635E+02 -0.34889638911E+02  0.19123195813E+02  0.42346205144E+02  0.00000000000E+00 0. -1.
         21    1    1    2  505  501 -0.29996457646E+02 -0.51397063801E+01 -0.19634040063E+03  0.19868506982E+03  0.00000000000E+00 0. -1.
          1    1    1    2  501    0 -0.16750553939E+03 -0.44155265344E+02 -0.17556264541E+03  0.24663745792E+03  0.00000000000E+00 0. -1.
<scales pt_clust_3="14000.00000" pt_clust_4="37.61242" pt_clust_5="30.43360" pt_clust_6="186.37248"></scales>
<clustering>
<clus scale="   30.434">  2  5  1 -1</clus>
<clus scale="   37.612">  1  4  2 -1</clus>
<clus scale="  186.372">  1  6  2 -1</clus>
<clus scale="   30.434">  2  3  1 -1</clus>
</clustering>
</event>
<event>
 6    0  0.4081161E+002  0.7492124E+02  0.7546771E-02  0.1344115E+00
         21   -1    0    0  504  502  0.00000000000E+00  0.00000000000E+00  0.43219595424E+03  0.43219595424E+03  0.00000000000E+00 0.  1.
          2   -1    0    0  505    0 -0.00000000000E+00 -0.00000000000E+00 -0.13371828844E+04  0.13371828844E+04  0.00000000000E+00 0. -1.
         21    1    1    2  503  502  0.53338683258E+02  0.88893978047E+02  0.44808855898E+02  0.11293798312E+03  0.00000000000E+00 0.  1.
         21    1    1    2  504  501 -0.69650286425E+02 -0.24900482545E+02  0.34261490419E+03  0.35050844356E+03  0.00000000000E+00 0.  1.
         21    1    1    2  505  503  0.67255539030E+01  0.44222902438E+02 -0.11304266240E+03  0.12157113843E+03  0.00000000000E+00 0. -1.
          2    1    1    2  501    0  0.95860492636E+01 -0.10821639794E+03 -0.11793680279E+04  0.11843612736E+04  0.00000000000E+00 0. -1.
<scales pt_clust_3="74.92124" pt_clust_4="14000.00000" pt_clust_5="44.73140" pt_clust_6="67.32537"></scales>
<clustering>
<clus scale="   44.731">  2  5  1 -1</clus>
<clus scale="   67.325">  2  6  1 -1</clus>
<clus scale="   74.921">  2  3  1 -1</clus>
<clus scale="   74.921">  1  3  2 -1</clus>
</clustering>
</event>
<event>
 6    0  0.4081161E+002  0.9321250E+02  0.7546771E-02  0.1295253E+00
         21   -1    0    0  504  502  0.00000000000E+00  0.00000000000E+00  0.26280768762E+03  0.26280768762E+03  0.00000000000E+00 0.  1.
          2   -1    0    0  505    0 -0.00000000000E+00 -0.00000000000E+00 -0.20416174144E+04  0.20416174144E+04  0.00000000000E+00 0. -1.
         21    1    1    2  503  502 -0.78437833140E+02  0.62916321919E+02  0.18204213466E+03  0.20796705513E+03  0.00000000000E+00 0.  1.
         21    1    1    2  504  501  0.28942402417E+02  0.16004252770E+02  0.48019001494E+02  0.58306288416E+02  0.00000000000E+00 0. -1.
         21    1    1    2  505  503 -0.62323102361E+02 -0.54851441255E+02 -0.12056933762E+03  0.14638925804E+03  0.00000000000E+00 0.  1.
          2    1    1    2  501    0  0.11181853308E+03 -0.24069133435E+02 -0.18883015253E+04  0.18917625004E+04  0.00000000000E+00 0. -1.
<scales pt_clust_3="14000.00000" pt_clust_4="33.07263" pt_clust_5="81.03534" pt_clust_6="93.21250"></scales>
<clustering>
<clus scale="   33.073">  1  4  2 -1</clus>
<clus scale="   81.035">  2  5  1 -1</clus>
<clus scale="   93.212">  2  6  1 -1</clus>
<clus scale="   33.073">  1  3  2 -1</clus>
</clustering>
</event>
<event>
 6    0  0.4081161E+002  0.1006918E+03  0.7546771E-02  0.1278848E+00
         21   -1    0    0  501  502  0.00000000000E+00  0.00000000000E+00  0.21673334750E+02  0.21673334750E+02  0.00000000000E+00 0. -1.
          2   -1    0    0  503    0 -0.00000000000E+00 -0.00000000000E+00 -0.25619833106E+04  0.25619833106E+04  0.00000000000E+00 0.  1.
         21    1    1    2  503  504 -0.18722679373E+02  0.45414273658E+02 -0.30985579774E+03  0.31372537412E+03  0.00000000000E+00 0.  1.
         21    1    1    2  504  505  0.86714816133E+02 -0.64768784662E+02 -0.17806292149E+03  0.20837672330E+03  0.00000000000E+00 0. -1.
         21    1    1    2  505  502 -0.36196211728E+02 -0.31936178727E+02 -0.13775574579E+03  0.14596825256E+03  0.00000000000E+00 0. -1.
          2    1    1    2  501    0 -0.31795925032E+02  0.51290689731E+02 -0.19146355108E+04  0.19155862954E+04  0.00000000000E+00 0.  1.
<scales pt_clust_3="47.65564" pt_clust_4="100.69185" pt_clust_5="48.27096" pt_clust_6="14000.00000"></scales>
<clustering>
<clus scale="   48.271">  1  5  2 -1</clus>
<clus scale="   47.656">  2  3  1 -1</clus>
<clus scale="  100.692">  1  4  2 -1</clus>
<clus scale="   48.271">  1  3  2 -1</clus>
</clustering>
</event>
<event>
 6    0  0.4081161E+002  0.8578935E+02  0.7546771E-02  0.1313381E+00
         21   -1    0    0  503  502  0.00000000000E+00  0.00000000000E+00  0.24682776549E+03  0.24682776549E+03  0.00000000000E+00 0. -1.
          2   -1    0    0  504    0 -0.00000000000E+00 -0.00000000000E+00 -0.26034622918E+03  0.26034622918E+03  0.00000000000E+00 0. -1.
         21    1    1    2  503  505 -0.24504088737E+02  0.20784490279E+02  0.17075773647E+03  0.17375456818E+03  0.00000000000E+00 0. -1.
         21    1    1    2  504  502 -0.47000459563E+02 -0.98920178484E+02 -0.39384051476E+02  0.11638448531E+03  0.00000000000E+00 0. -1.
         21    1    1    2  505  501 -0.18622367499E+01  0.71516844361E+02 -0.23985392431E+02  0.75454794434E+02  0.00000000000E+00 0. -1.
          2    1    1    2  501    0  0.73366785050E+02  0.66188438443E+01 -0.12090675625E+03  0.14158014674E+03  0.00000000000E+00 0. -1.
<scales pt_clust_3="32.13169" pt_clust_4="14000.00000" pt_clust_5="85.78935" pt_clust_6="70.61212"></scales>
<clustering>
<clus scale="   32.132">  1  3  2 -1</clus>
<clus scale="   70.612">  2  6  1 -1</clus>
<clus scale="   85.789">  1  5  2 -1</clus>
<clus scale="   32.132">  1  3  2 -1</clus>
</clustering>
</event>
<event>
 6    0  0.4081161E+002  0.6549437E+02  0.7546771E-02  0.1376121E+00
         21   -1    0    0  503  502  0.00000000000E+00  0.00000000000E+00  0.17898707705E+03  0.17898707705E+03  0.00000000000E+00 0.  1.
          2   -1    0    0  504    0 -0.00000000000E+00 -0.00000000000E+00 -0.42202393998E+03  0.42202393998E+03  0.00000000000E+00 0.  1.
         21    1    1    2  503  501 -0.29492859111E+02  0.84466324047E+02  0.12818335443E+03  0.15631814031E+03  0.00000000000E+00 0.  1.
         21    1    1    2  504  505  0.18038795214E+02  0.35441053681E+02 -0.31056734429E+02  0.50457776132E+02  0.00000000000E+00 0. -1.
         21    1    1    2  505  502  0.20371809856E+02 -0.23977642285E+02  0.84299888609E+01  0.32573036066E+02  0.00000000000E+00 0.  1.
          2    1    1    2  501    0 -0.89177459582E+01 -0.95929735443E+02 -0.34859347179E+03  0.36166206452E+03  0.00000000000E+00 0.  1.
<scales pt_clust_3="65.49437" pt_clust_4="39.06575" pt_clust_5="31.46328" pt_clust_6="14000.00000"></scales>
<clustering>
<clus scale="   31.463">  1  5  2 -1</clus>
<clus scale="   39.066">  2  4  1 -1</clus>
<clus scale="   65.494">  1  3  2 -1</clus>
<clus scale="   31.463">  1  3  2 -1</clus>
</clustering>
</event>
<event>
 6    0  0.4081161E+002  0.7544028E+02  0.7546771E-02  0.1342513E+00
         21   -1    0    0  504  502  0.00000000000E+00  0.00000000000E+00  0.86350239594E+02  0.86350239594E+02  0.00000000000E+00 0. -1.
          2   -1    0    0  505    0 -0.00000000000E+00 -0.00000000000E+00 -0.26783344322E+04  0.26783344322E+04  0.00000000000E+00 0.  1.
         21    1    1    2  503  502  0.70045640344E+02 -0.18432327962E+02 -0.16698280407E+03  0.18201483263E+03  0.00000000000E+00 0.  1.
         21    1    1    2  504  501  0.18922683712E+01  0.38610175190E+02  0.70811661868E+02  0.80676004886E+02  0.00000000000E+00 0. -1.
         21    1    1    2  505  503 -0.10321567265E+03  0.34649049321E+02 -0.13173517701E+04  0.13218433031E+04  0.00000000000E+00 0.  1.
          2    1    1    2  501    0  0.31277763934E+02 -0.54826896550E+02 -0.11784612802E+04  0.11801505311E+04  0.00000000000E+00 0.  1.
<scales pt_clust_3="75.44028" pt_clust_4="38.65652" pt_clust_5="14000.00000" pt_clust_6="60.54784"></scales>
<clustering>
<clus scale="   38.657">  1  4  2 -1</clus>
<clus scale="   60.548">  2  6  1 -1</clus>
<clus scale="   75.440">  1  3  2 -1</clus>
<clus scale="   38.657">  1  3  2 -1</clus>
</clustering>
</event>
<event>
 6    0  0.4081161E+002  0.1644813E+03  0.7546771E-02  0.1183728E+00
          2   -1    0    0  505    0 -0.00000000000E+00  0.00000000000E+00  0.14588741450E+03  0.14588741450E+03  0.00000000000E+00 0. -1.
         21   -1    0    0  504  502  0.00000000000E+00 -0.00000000000E+00 -0.54347637458E+03  0.54347637458E+03  0.00000000000E+00 0. -1.
         21    1    1    2  503  501  0.16514265831E+02  0.42038619042E+02  0.22422403519E+02  0.50425495997E+02  0.00000000000E+00 0. -1.
         21    1    1    2  504  503  0.63193965381E+02  0.81000576290E+00 -0.81589114767E+02  0.10320328008E+03  0.00000000000E+00 0. -1.
         21    1    1    2  505  502 -0.24197647014E+02 -0.14987978190E+03 -0.37919439332E+03  0.40845790857E+03  0.00000000000E+00 0. -1.
          2    1    1    2  501    0 -0.55510584198E+02  0.10703115709E+03  0.40772144494E+02  0.12727710443E+03  0.00000000000E+00 0. -1.
<scales pt_clust_3="37.93793" pt_clust_4="63.19916" pt_clust_5="152.35463" pt_clust_6="37.93793"></scales>
<clustering>
<clus scale="   37.938">  3  6 -1 -1</clus>
<clus scale="   63.199">  2  4  1 -1</clus>
<clus scale="  152.355">  2  5  1 -1</clus>
<clus scale="   63.199">  2  3  1 -1</clus>
</clustering>
</event>
<event>
 6    0  0.7312082E+002  0.7266227E+02  0.7546771E-02  0.1351267E+00
         21   -1    0    0  505  502  0.00000000000E+00  0.00000000000E+00  0.90189036683E+03  0.90189036683E+03  0.00000000000E+00 0.  1.
          2   -1    0    0  503    0 -0.00000000000E+00 -0.00000000000E+00 -0.14620279112E+04  0.14620279112E+04  0.00000000000E+00 0. -1.
         21    1    1    2  503  504 -0.16684780986E+02  0.50292749113E+02 -0.26898224447E+02  0.59424380588E+02  0.00000000000E+00 0. -1.
         21    1    1    2  504  502  0.47431010927E+02  0.86629211332E+02  0.64781841993E+02  0.11811438568E+03  0.00000000000E+00 0. -1.
         21    1    1    2  505  501 -0.50017338013E+02 -0.50815163639E+02  0.79117626708E+03  0.79438265373E+03  0.00000000000E+00 0.  1.
          2    1    1    2  501    0  0.19271108072E+02 -0.86106796806E+02 -0.13891974290E+04  0.13919968580E+04  0.00000000000E+00 0. -1.
<scales pt_clust_3="52.98814" pt_clust_4="14000.00000" pt_clust_5="72.66227" pt_clust_6="36.93160"></scales>
<clustering>
<clus scale="   52.988">  2  3  1 -1</clus>
<clus scale="   36.932">  2  6  1 -1</clus>
<clus scale="   72.662">  1  5  2 -1</clus>
<clus scale="   72.662">  1  3  2 -1</clus>
</clustering>
</event>
<event>
 6    0  0.4081161E+002  0.1044300E+03  0.7546771E-02  0.1271247E+00
          4   -1    0    0  502    0 -0.00000000000E+00  0.00000000000E+00  0.44494956723E+03  0.44494956723E+03  0.00000000000E+00 0. -1.
         21   -1    0    0  505  502  0.00000000000E+00 -0.00000000000E+00 -0.32784823869E+03  0.32784823869E+03  0.00000000000E+00 0. -1.
         21    1    1    2  503  501  0.37505150941E+02 -0.47175116554E+02  0.18146007566E+03  0.19120639902E+03  0.00000000000E+00 0. -1.
         21    1    1    2  504  503 -0.47409077430E+02  0.11913933006E+03 -0.10463974437E+03  0.16550310176E+03  0.00000000000E+00 0. -1.
         21    1    1    2  505  504  0.97488866876E+01 -0.34502696032E+02 -0.18462988077E+03  0.18807889222E+03  0.00000000000E+00 0. -1.
          4    1    1    2  501    0  0.15503980150E+00 -0.37461517475E+02  0.22491087802E+03  0.22800941292E+03  0.00000000000E+00 0. -1.
<scales pt_clust_3="35.46018" pt_clust_4="94.24820" pt_clust_5="35.85355" pt_clust_6="35.46018"></scales>
<clustering>
<clus scale="   35.460">  3  6 -1 -1</clus>
<clus scale="   35.854">  2  5  1 -1</clus>
<clus scale="   94.248">  2  4  1 -1</clus>
<clus scale="   35.854">  2  3  1 -1</clus>
</clustering>
</event>
<event>
 6    0  0.4081161E+002  0.2521970E+03  0.7546771E-02  0.1111924E+00
         21   -1    0    0  503  502  0.00000000000E+00  0.00000000000E+00  0.88644420485E+02  0.88644420485E+02  0.00000000000E+00 0.  1.
          2   -1    0    0  504    0 -0.00000000000E+00 -0.00000000000E+00 -0.83009544668E+03  0.83009544668E+03  0.00000000000E+00 0.  1.
         21    1    1    2  503  505 -0.58605032212E+02  0.85414867901E+02 -0.17430030921E+03  0.20275810033E+03  0.00000000000E+00 0.  1.
         21    1    1    2  504  502  0.24636267327E+02 -0.24184672607E+03 -0.34878757766E+03  0.42514651464E+03  0.00000000000E+00 0.  1.
         21    1    1    2  505  501  0.85122316005E+01  0.12642340695E+03 -0.86993632074E+02  0.15369849685E+03  0.00000000000E+00 0.  1.
          2    1    1    2  501    0  0.25456533285E+02  0.30008451215E+02 -0.13136950725E+03  0.13713675534E+03  0.00000000000E+00 0.  1.
<scales pt_clust_3="95.99738" pt_clust_4="228.47605" pt_clust_5="95.99738" pt_clust_6="39.35152"></scales>
<clustering>
<clus scale="   39.352">  2  6  1 -1</clus>
<clus scale="   95.997">  3  5 -1 -1</clus>
<clus scale="  228.476">  2  4  1 -1</clus>
<clus scale="  252.197">  1  3  2 -1</clus>
</clustering>
</event>
<event>
 6    0  0.4081161E+002  0.1007000E+03  0.7546771E-02  0.1278831E+00
          2   -1    0    0  503    0 -0.00000000000E+00  0.00000000000E+00  0.67350864038E+03  0.67350864038E+03  0.00000000000E+00 0.  1.
         21   -1    0    0  504  502  0.00000000000E+00 -0.00000000000E+00 -0.40737056745E+03  0.40737056745E+03  0.00000000000E+00 0. -1.
         21    1    1    2  503  502 -0.47717699888E+02  0.91023173425E+01 -0.59572634199E+02  0.76868262691E+02  0.00000000000E+00 0.  1.
         21    1    1    2  504  505  0.65697511160E+02  0.79021588210E+02 -0.32741784635E+03  0.34316617037E+03  0.00000000000E+00 0. -1.
         21    1    1    2  505  501  0.14032771900E+02 -0.36713859646E+02  0.21691318281E+03  0.22044535616E+03  0.00000000000E+00 0. -1.
          2    1    1    2  501    0 -0.32012583173E+02 -0.51410045906E+02  0.43621537067E+03  0.44039941861E+03  0.00000000000E+00 0.  1.
<scales pt_clust_3="48.57809" pt_clust_4="89.94816" pt_clust_5="36.47335" pt_clust_6="36.47335"></scales>
<clustering>
<clus scale="   36.473">  5  6 -1 -1</clus>
<clus scale="   48.578">  2  3  1 -1</clus>
<clus scale="   89.948">  2  4  1 -1</clus>
<clus scale="   48.578">  2  3  1 -1</clus>
</clustering>
</event>
<event>
 6    0  0.4081161E+002  0.1598985E+03  0.7546771E-02  0.1188811E+00
         -2   -1    0    0    0  501 -0.00000000000E+00  0.00000000000E+00  0.26521494204E+03  0.26521494204E+03  0.00000000000E+00 0. -1.
         21   -1    0    0  503  502  0.00000000000E+00 -0.00000000000E+00 -0.29139802094E+03  0.29139802094E+03  0.00000000000E+00 0. -1.
         21    1    1    2  503  505  0.45763260007E+02 -0.66663879196E+02 -0.12261522508E+03  0.14687696272E+03  0.00000000000E+00 0. -1.
         21    1    1    2  504  501 -0.45024083123E+02  0.46280633943E+02 -0.28128103938E+01  0.64629536912E+02  0.00000000000E+00 0.  1.
         21    1    1    2  505  504 -0.18931216440E+02 -0.13591833539E+03 -0.31176420156E+02  0.14072723270E+03  0.00000000000E+00 0. -1.
         -2    1    1    2    0  502  0.18192039555E+02  0.15630158064E+03  0.13042137673E+03  0.20437923065E+03  0.00000000000E+00 0. -1.
<scales pt_clust_3="77.56741" pt_clust_4="64.56830" pt_clust_5="14000.00000" pt_clust_6="159.89845"></scales>
<clustering>
<clus scale="   64.568">  1  4  2 -1</clus>
<clus scale="   77.567">  2  3  1 -1</clus>
<clus scale="  159.898">  1  6  2 -1</clus>
<clus scale="   77.567">  2  3  1 -1</clus>
</clustering>
</event>
<event>
 6    0  0.4081161E+002  0.9735787E+02  0.7546771E-02  0.1285952E+00
         21   -1    0    0  501  502  0.00000000000E+00  0.00000000000E+00  0.56136270661E+03  0.56136270661E+03  0.00000000000E+00 0. -1.
          2   -1    0    0  504    0 -0.00000000000E+00 -0.00000000000E+00 -0.12125356781E+03  0.12125356781E+03  0.00000000000E+00 0. -1.
         21    1    1    2  503  502  0.18515487744E+02  0.31745126976E+02  0.29607761490E+03  0.29834967809E+03  0.00000000000E+00 0. -1.
         21    1    1    2  504  505 -0.15066966125E+02  0.42590720723E+02  0.19410208719E+02  0.49170511106E+02  0.00000000000E+00 0. -1.
         21    1    1    2  505  503 -0.71137759558E+02  0.48927936905E+02  0.16719032757E+03  0.18816782264E+03  0.00000000000E+00 0. -1.
          2    1    1    2  501    0  0.67689237939E+02 -0.12326378460E+03 -0.42569012385E+02  0.14692826257E+03  0.00000000000E+00 0. -1.
<scales pt_clust_3="36.75019" pt_clust_4="48.39777" pt_clust_5="97.35787" pt_clust_6="14000.00000"></scales>
<clustering>
<clus scale="   36.750">  1  3  2 -1</clus>
<clus scale="   48.398">  2  4  1 -1</clus>
<clus scale="   97.358">  1  5  2 -1</clus>
<clus scale="   36.750">  1  3  2 -1</clus>
</clustering>
</event>
<event>
 6    0  0.4081161E+002  0.9240096E+02  0.7546771E-02  0.1297139E+00
         21   -1    0    0  504  502  0.00000000000E+00  0.00000000000E+00  0.18763789369E+04  0.18763789369E+04  0.00000000000E+00 0.  1.
         -1   -1    0    0    0  501 -0.00000000000E+00 -0.00000000000E+00 -0.17810131907E+04  0.17810131907E+04  0.00000000000E+00 0. -1.
         21    1    1    2  503  502 -0.18398420317E+02  0.44772678355E+02  0.16858228221E+04  0.16865176199E+04  0.00000000000E+00 0.  1.
         21    1    1    2  504  505  0.92210690512E+02 -0.10036812497E+03  0.16408029068E+03  0.21330474384E+03  0.00000000000E+00 0. -1.
         21    1    1    2  505  501 -0.29616696706E+02  0.16118213488E+02 -0.31220722232E+03  0.31402276223E+03  0.00000000000E+00 0.  1.
         -1    1    1    2    0  503 -0.44195573490E+02  0.39477233128E+02 -0.14423301444E+04  0.14435470017E+04  0.00000000000E+00 0. -1.
<scales pt_clust_3="48.41172" pt_clust_4="14000.00000" pt_clust_5="33.71862" pt_clust_6="92.40096"></scales>
<clustering>
<clus scale="   33.719">  2  5  1 -1</clus>
<clus scale="   48.412">  1  3  2 -1</clus>
<clus scale="   92.401">  2  6  1 -1</clus>
<clus scale="   48.412">  1  3  2 -1</clus>
</clustering>
</event>
<event>
 6    0  0.4081161E+002  0.1220161E+03  0.7546771E-02  0.1239808E+00
         21   -1    0    0  503  502  0.00000000000E+00  0.00000000000E+00  0.52635324677E+02  0.52635324677E+02  0.00000000000E+00 0.  1.
          2   -1    0    0  505    0 -0.00000000000E+00 -0.00000000000E+00 -0.20481934592E+04  0.20481934592E+04  0.00000000000E+00 0.  1.
         21    1    1    2  503  504 -0.77928624519E+02 -0.19916961800E+02 -0.19771788966E+02  0.82828011721E+02  0.00000000000E+00 0.  1.
         21    1    1    2  504  501 -0.34259663713E+02  0.24899040987E+02 -0.48372514198E+01  0.42627289395E+02  0.00000000000E+00 0. -1.
         21    1    1    2  505  502  0.23688115796E+02  0.28856513593E+02 -0.53206856653E+03  0.53337677555E+03  0.00000000000E+00 0.  1.
          2    1    1    2  501    0  0.88500172436E+02 -0.33838592780E+02 -0.14388805276E+04  0.14419967072E+04  0.00000000000E+00 0.  1.
<scales pt_clust_3="36.44387" pt_clust_4="36.44387" pt_clust_5="37.33397" pt_clust_6="111.20042"></scales>
<clustering>
<clus scale="   36.444">  3  4 -1 -1</clus>
<clus scale="   37.334">  2  5  1 -1</clus>
<clus scale="  111.200">  2  6  1 -1</clus>
<clus scale="  122.016">  1  3  2 -1</clus>
</clustering>
</event>
<event>
 6    0  0.4081161E+002  0.1240212E+03  0.7546771E-02  0.1236607E+00
         21   -1    0    0  505  502  0.00000000000E+00  0.00000000000E+00  0.87768054980E+02  0.87768054980E+02  0.00000000000E+00 0. -1.
          2   -1    0    0  503    0 -0.00000000000E+00 -0.00000000000E+00 -0.22220209622E+04  0.22220209622E+04  0.00000000000E+00 0.  1.
         21    1    1    2  503  504 -0.31289730469E+02 -0.51345230080E+01 -0.28191886712E+03  0.28369641908E+03  0.00000000000E+00 0.  1.
         21    1    1    2  504  502 -0.45340517796E+02 -0.10392341152E+02 -0.23976704828E+02  0.52332071267E+02  0.00000000000E+00 0. -1.
         21    1    1    2  505  501  0.88024107167E+02  0.12674403156E+03 -0.12885285628E+02  0.15484935765E+03  0.00000000000E+00 0. -1.
          2    1    1    2  501    0 -0.11393858901E+02 -0.11121716740E+03 -0.18154720496E+04  0.18189111691E+04  0.00000000000E+00 0.  1.
<scales pt_clust_3="31.70821" pt_clust_4="47.13893" pt_clust_5="14000.00000" pt_clust_6="124.02120"></scales>
<clustering>
<clus scale="   31.708">  2  3  1 -1</clus>
<clus scale="   47.139">  1  4  2 -1</clus>
<clus scale="  124.021">  2  6  1 -1</clus>
<clus scale="   47.139">  1  3  2 -1</clus>
</clustering>
</event>
<event>
 6    0  0.4081161E+002  0.2259660E+03  0.7546771E-02  0.1129512E+00
         21   -1    0    0  505  502  0.00000000000E+00  0.00000000000E+00  0.53919541532E+03  0.53919541532E+03  0.00000000000E+00 0. -1.
          1   -1    0    0  503    0 -0.00000000000E+00 -0.00000000000E+00 -0.10595748835E+04  0.10595748835E+04  0.00000000000E+00 0.  1.
         21    1    1    2  503  502  0.17560978137E+01  0.59237063987E+02 -0.35565160738E+02  0.69115803458E+02  0.00000000000E+00 0. -1.
         21    1    1    2  504  501  0.19464737779E+02  0.49952554807E+02 -0.16672174575E+03  0.17512930724E+03  0.00000000000E+00 0.  1.
         21    1    1    2  505  504 -0.12134846750E+03 -0.17477481229E+03  0.49179054747E+03  0.53584477991E+03  0.00000000000E+00 0. -1.
          1    1    1    2  501    0  0.10012763191E+03  0.65585193497E+02 -0.80988310914E+03  0.81868040818E+03  0.00000000000E+00 0.  1.
<scales pt_clust_3="59.26309" pt_clust_4="52.90631" pt_clust_5="211.68661" pt_clust_6="52.90631"></scales>
<clustering>
<clus scale="   52.906">  4  6 -1 -1</clus>
<clus scale="   59.263">  2  3  1 -1</clus>
<clus scale="  211.687">  1  5  2 -1</clus>
<clus scale="  211.687">  1  3  2 -1</clus>
</clustering>
</event>
<event>
 6    0  0.4081161E+002  0.1150984E+03  0.7546771E-02  0.1251409E+00
         21   -1    0    0  501  502  0.00000000000E+00  0.00000000000E+00  0.19478373480E+03  0.19478373480E+03  0.00000000000E+00 0.  1.
          1   -1    0    0  503    0 -0.00000000000E+00 -0.00000000000E+00 -0.32170041075E+04  0.32170041075E+04  0.00000000000E+00 0. -1.
         21    1    1    2  503  504  0.14970860632E+02  0.36272426902E+02 -0.20340547356E+04  0.20344332093E+04  0.00000000000E+00 0. -1.
         21    1    1    2  504  505  0.86042074280E+02 -0.89061586453E-01  0.32978486876E+01  0.86105297655E+02  0.00000000000E+00 0.  1.
         21    1    1    2  505  502 -0.13390663974E+03 -0.41827686422E+02  0.11676227079E+03  0.18252115329E+03  0.00000000000E+00 0.  1.
          1    1    1    2  501    0  0.32893704827E+02  0.56443211062E+01 -0.11082257565E+04  0.11087281820E+04  0.00000000000E+00 0. -1.
<scales pt_clust_3="62.62434" pt_clust_4="115.09843" pt_clust_5="14000.00000" pt_clust_6="33.37445"></scales>
<clustering>
<clus scale="   33.374">  2  6  1 -1</clus>
<clus scale="   62.624">  2  3  1 -1</clus>
<clus scale="  115.098">  2  4  1 -1</clus>
<clus scale="  115.098">  1  3  2 -1</clus>
</clustering>
</event>
<event>
 6    0  0.4081161E+002  0.7719340E+02  0.7546771E-02  0.1337210E+00
          1   -1    0    0  503    0 -0.00000000000E+00  0.00000000000E+00  0.94726933858E+03  0.94726933858E+03  0.00000000000E+00 0.  1.
         21   -1    0    0  504  502  0.00000000000E+00 -0.00000000000E+00 -0.38994431906E+03  0.38994431906E+03  0.00000000000E+00 0. -1.
         21    1    1    2  503  505  0.54665228965E+02 -0.29732972445E+02  0.93929767092E+02  0.11267270323E+03  0.00000000000E+00 0.  1.
         21    1    1    2  504  501 -0.49210716483E+02 -0.10992408934E+02 -0.22815126772E+03  0.23365686087E+03  0.00000000000E+00 0. -1.
         21    1    1    2  505  502  0.75085882505E+02  0.30775722168E+02 -0.13653821683E+03  0.15883236283E+03  0.00000000000E+00 0. -1.
          1    1    1    2  501    0 -0.80540394987E+02  0.99496592109E+01  0.82808473698E+03  0.83205173070E+03  0.00000000000E+00 0.  1.
<scales pt_clust_3="14000.00000" pt_clust_4="50.42348" pt_clust_5="35.87117" pt_clust_6="77.19340"></scales>
<clustering>
<clus scale="   50.423">  2  4  1 -1</clus>
<clus scale="   35.871">  2  5  1 -1</clus>
<clus scale="   77.193">  1  6  2 -1</clus>
<clus scale="   50.423">  2  3  1 -1</clus>
</clustering>
</event>
<event>
 6    0  0.4081161E+002  0.8990371E+02  0.7546771E-02  0.1303085E+00
         21   -1    0    0  503  502  0.00000000000E+00  0.00000000000E+00  0.84001320221E+03  0.84001320221E+03  0.00000000000E+00 0.  1.
          1   -1    0    0  505    0 -0.00000000000E+00 -0.00000000000E+00 -0.60138056579E+02  0.60138056579E+02  0.00000000000E+00 0.  1.
         21    1    1    2  503  504 -0.16201145211E+01  0.44455556294E+02  0.54521929042E+03  0.54703107398E+03  0.00000000000E+00 0.  1.
         21    1    1    2  504  501  0.68152477619E+02 -0.12450174813E+03  0.11400274389E+03  0.18204963913E+03  0.00000000000E+00 0.  1.
         21    1    1    2  505  502 -0.16206365182E+02  0.29986029936E+02  0.85117365611E+02  0.91688462700E+02  0.00000000000E+00 0.  1.
          1    1    1    2  501    0 -0.50325997916E+02  0.50060161895E+02  0.35535745711E+02  0.79382082981E+02  0.00000000000E+00 0.  1.
<scales pt_clust_3="67.58449" pt_clust_4="89.90371" pt_clust_5="34.08531" pt_clust_6="14000.00000"></scales>
<clustering>
<clus scale="   34.085">  1  5  2 -1</clus>
<clus scale="   67.584">  1  3  2 -1</clus>
<clus scale="   89.904">  1  4  2 -1</clus>
<clus scale="   34.085">  1  3  2 -1</clus>
</clustering>
</event>
<event>
 6    0  0.4081161E+002  0.9080805E+02  0.7546771E-02  0.1300907E+00
         21   -1    0    0  505  502  0.00000000000E+00  0.00000000000E+00  0.17069113425E+03  0.17069113425E+03  0.00000000000E+00 0. -1.
          2   -1    0    0  503    0 -0.00000000000E+00 -0.00000000000E+00 -0.26547913636E+03  0.26547913636E+03  0.00000000000E+00 0. -1.
         21    1    1    2  503  502 -0.12424553305E+02 -0.28069264372E+02 -0.53681277528E+02  0.61837955046E+02  0.00000000000E+00 0. -1.
         21    1    1    2  504  501  0.68793047013E+02  0.17331563495E+02  0.73362136896E+01  0.71321009820E+02  0.00000000000E+00 0. -1.
         21    1    1    2  505  504 -0.10754155462E+03  0.33041588855E+02  0.96165475752E+02  0.14800247056E+03  0.00000000000E+00 0. -1.
          2    1    1    2  501    0  0.51173060912E+02 -0.22303887978E+02 -0.14460841402E+03  0.15500883519E+03  0.00000000000E+00 0. -1.
<scales pt_clust_3="30.69614" pt_clust_4="90.80805" pt_clust_5="14000.00000" pt_clust_6="59.93485"></scales>
<clustering>
<clus scale="   30.696">  2  3  1 -1</clus>
<clus scale="   59.935">  2  6  1 -1</clus>
<clus scale="   90.808">  2  4  1 -1</clus>
<clus scale="   90.808">  1  3  2 -1</clus>
</clustering>
</event>
<event>
 6    0  0.4081161E+002  0.1531434E+03  0.7546771E-02  0.1196663E+00
          2   -1    0    0  504    0 -0.00000000000E+00  0.00000000000E+00  0.55500448152E+03  0.55500448152E+03  0.00000000000E+00 0. -1.
         21   -1    0    0  501  502  0.00000000000E+00 -0.00000000000E+00 -0.82058363639E+03  0.82058363639E+03  0.00000000000E+00 0. -1.
         21    1    1    2  503  505  0.17525605941E+03 -0.29550182787E+01  0.53620100375E+02  0.18329902798E+03  0.00000000000E+00 0. -1.
         21    1    1    2  504  503  0.16339901643E+02  0.25296986213E+02  0.19635140091E+03  0.19864743275E+03  0.00000000000E+00 0. -1.
         21    1    1    2  505  502 -0.15056934336E+03 -0.19480047769E+02 -0.74511348001E+03  0.76042402482E+03  0.00000000000E+00 0. -1.
          2    1    1    2  501    0 -0.41026617701E+02 -0.28619201655E+01  0.22956282386E+03  0.23321763237E+03  0.00000000000E+00 0. -1.
<scales pt_clust_3="14000.00000" pt_clust_4="30.11528" pt_clust_5="153.14340" pt_clust_6="33.31376"></scales>
<clustering>
<clus scale="   30.115">  1  4  2 -1</clus>
<clus scale="   33.314">  1  6  2 -1</clus>
<clus scale="  153.143">  2  5  1 -1</clus>
<clus scale="  153.143">  2  3  1 -1</clus>
</clustering>
</event>
<event>
 6    0  0.4081161E+002  0.1646526E+03  0.7546771E-02  0.1183542E+00
         21   -1    0    0  503  502  0.00000000000E+00  0.00000000000E+00  0.16988187373E+04  0.16988187373E+04  0.00000000000E+00 0. -1.
          2   -1    0    0  504    0 -0.00000000000E+00 -0.00000000000E+00 -0.11745557838E+04  0.11745557838E+04  0.00000000000E+00 0.  1.
         21    1    1    2  503  505  0.95142131376E+02 -0.18280064625E+03 -0.13387401030E+03  0.24574448532E+03  0.00000000000E+00 0.  1.
         21    1    1    2  504  502 -0.85632212096E+02  0.31942249183E+02  0.16350400998E+04  0.16375925351E+04  0.00000000000E+00 0. -1.
         21    1    1    2  505  501  0.19168845313E+02  0.10431235572E+03 -0.64564604749E+03  0.65429911418E+03  0.00000000000E+00 0.  1.
          2    1    1    2  501    0 -0.28678764592E+02  0.46546041342E+02 -0.33125708849E+03  0.33573838652E+03  0.00000000000E+00 0.  1.
<scales pt_clust_3="155.32117" pt_clust_4="91.39575" pt_clust_5="39.23194" pt_clust_6="39.23194"></scales>
<clustering>
<clus scale="   39.232">  5  6 -1 -1</clus>
<clus scale="   91.396">  1  4  2 -1</clus>
<clus scale="  155.321">  1  3  2 -1</clus>
<clus scale="   91.396">  1  3  2 -1</clus>
</clustering>
</event>
<event>
 6    0  0.4081161E+002  0.7728355E+02  0.7546771E-02  0.1336942E+00
         -3   -1    0    0    0  501 -0.00000000000E+00  0.00000000000E+00  0.77099337862E+02  0.77099337862E+02  0.00000000000E+00 0. -1.
         21   -1    0    0  503  502  0.00000000000E+00 -0.00000000000E+00 -0.51255247976E+03  0.51255247976E+03  0.00000000000E+00 0. -1.
         21    1    1    2  503  501 -0.25424774980E+02  0.79483094601E+02 -0.29515268649E+03  0.30672314855E+03  0.00000000000E+00 0. -1.
         21    1    1    2  504  505 -0.29209332659E+02 -0.67138837827E+02  0.27763214734E+01  0.73270161867E+02  0.00000000000E+00 0. -1.
         21    1    1    2  505  502  0.86375386657E+02 -0.27399420148E+02 -0.14864584233E+03  0.17408912110E+03  0.00000000000E+00 0. -1.
         -3    1    1    2    0  504 -0.31741279018E+02  0.15055163374E+02  0.55690654514E+01  0.35569386105E+02  0.00000000000E+00 0. -1.
<scales pt_clust_3="14000.00000" pt_clust_4="76.20134" pt_clust_5="77.28355" pt_clust_6="35.13071"></scales>
<clustering>
<clus scale="   35.131">  1  6  2 -1</clus>
<clus scale="   76.201">  1  4  2 -1</clus>
<clus scale="   77.284">  1  5  2 -1</clus>
<clus scale="   77.284">  2  3  1 -1</clus>
</clustering>
</event>
<event>
 6    0  0.4081161E+002  0.1845681E+03  0.7546771E-02  0.1163454E+00
         21   -1    0    0  504  502  0.00000000000E+00  0.00000000000E+00  0.57455619254E+02  0.57455619254E+02  0.00000000000E+00 0. -1.
          2   -1    0    0  503    0 -0.00000000000E+00 -0.00000000000E+00 -0.19866354551E+04  0.19866354551E+04  0.00000000000E+00 0.  1.
         21    1    1    2  503  505 -0.53810374485E+02  0.20764805381E+02 -0.23458029089E+03  0.24156706401E+03  0.00000000000E+00 0. -1.
         21    1    1    2  504  501 -0.30105509696E+02 -0.78918890291E+01  0.96235387699E+01  0.32576619299E+02  0.00000000000E+00 0. -1.
         21    1    1    2  505  502  0.19401041259E+03  0.95319068628E+02 -0.38342003323E+03  0.44015529864E+03  0.00000000000E+00 0. -1.
          2    1    1    2  501    0 -0.11009452841E+03 -0.10819198498E+03 -0.13208030505E+04  0.13297920924E+04  0.00000000000E+00 0.  1.
<scales pt_clust_3="60.12913" pt_clust_4="31.12272" pt_clust_5="14000.00000" pt_clust_6="184.56811"></scales>
<clustering>
<clus scale="   31.123">  1  4  2 -1</clus>
<clus scale="   60.129">  2  3  1 -1</clus>
<clus scale="  184.568">  2  6  1 -1</clus>
<clus scale="   31.123">  1  3  2 -1</clus>
</clustering>
</event>
<event>
 6    0  0.4081161E+002  0.1065580E+03  0.7546771E-02  0.1267080E+00
          1   -1    0    0  503    0 -0.00000000000E+00  0.00000000000E+00  0.29717034786E+04  0.29717034786E+04  0.00000000000E+00 0.  1.
         21   -1    0    0  505  502  0.00000000000E+00 -0.00000000000E+00 -0.71071202258E+02  0.71071202258E+02  0.00000000000E+00 0. -1.
         21    1    1    2  503  504 -0.39062493236E+02 -0.13111875135E+03  0.14249165552E+04  0.14314695926E+04  0.00000000000E+00 0. -1.
         21    1    1    2  504  502  0.36245225705E+02  0.10593744421E+02 -0.20044256764E+02  0.42751795711E+02  0.00000000000E+00 0. -1.
         21    1    1    2  505  501 -0.55237703083E+02  0.93593746925E+02  0.47042461011E+02  0.11842291351E+03  0.00000000000E+00 0. -1.
          1    1    1    2  501    0  0.58054970613E+02  0.26931260001E+02  0.14487175170E+04  0.14501303791E+04  0.00000000000E+00 0.  1.
<scales pt_clust_3="14000.00000" pt_clust_4="37.76167" pt_clust_5="106.55799" pt_clust_6="64.66236"></scales>
<clustering>
<clus scale="   37.762">  2  4  1 -1</clus>
<clus scale="   64.662">  1  6  2 -1</clus>
<clus scale="  106.558">  2  5  1 -1</clus>
<clus scale="   37.762">  2  3  1 -1</clus>
</clustering>
</event>
<event>
 6    0  0.4081161E+002  0.1731992E+03  0.7546771E-02  0.1174552E+00
          2   -1    0    0  504    0 -0.00000000000E+00  0.00000000000E+00  0.95866752057E+03  0.95866752057E+03  0.00000000000E+00 0. -1.
         21   -1    0    0  505  502  0.00000000000E+00 -0.00000000000E+00 -0.32994668257E+03  0.32994668257E+03  0.00000000000E+00 0. -1.
         21    1    1    2  503  501  0.80387605969E+02  0.72466787797E+02  0.49513661547E+03  0.50682725904E+03  0.00000000000E+00 0. -1.
         21    1    1    2  504  502 -0.13924214482E+03 -0.13510884578E+03 -0.65079893420E+02  0.20464155890E+03  0.00000000000E+00 0. -1.
         21    1    1    2  505  503 -0.22843440580E+01  0.53072515066E+02 -0.18297057734E+03  0.19052596216E+03  0.00000000000E+00 0. -1.
          2    1    1    2  501    0  0.61138882913E+02  0.95695429119E+01  0.38163469329E+03  0.38661942305E+03  0.00000000000E+00 0. -1.
<scales pt_clust_3="39.72067" pt_clust_4="165.04130" pt_clust_5="53.12165" pt_clust_6="39.72067"></scales>
<clustering>
<clus scale="   39.721">  3  6 -1 -1</clus>
<clus scale="   53.122">  2  5  1 -1</clus>
<clus scale="  165.041">  2  4  1 -1</clus>
<clus scale="   53.122">  2  3  1 -1</clus>
</clustering>
</event>
<event>
 6    0  0.4081161E+002  0.1365718E+03  0.7546771E-02  0.1218018E+00
         21   -1    0    0  505  502  0.00000000000E+00  0.00000000000E+00  0.44970176966E+03  0.44970176966E+03  0.00000000000E+00 0.  1.
          1   -1    0    0  503    0 -0.00000000000E+00 -0.00000000000E+00 -0.14016794070E+04  0.14016794070E+04  0.00000000000E+00 0. -1.
         21    1    1    2  503  504  0.16227391295E+01  0.80877223728E+02  0.18988767505E+03  0.20640030944E+03  0.00000000000E+00 0.  1.
         21    1    1    2  504  502 -0.21432652516E+02  0.39029317303E+02  0.24620959089E+03  0.25020353484E+03  0.00000000000E+00 0.  1.
         21    1    1    2  505  501  0.33331088131E+02 -0.33438662145E+02 -0.38296875738E+03  0.38586807939E+03  0.00000000000E+00 0. -1.
          1    1    1    2  501    0 -0.13521174744E+02 -0.86467878885E+02 -0.10051061459E+04  0.10089092529E+04  0.00000000000E+00 0. -1.
<scales pt_clust_3="135.30057" pt_clust_4="44.11893" pt_clust_5="45.76170" pt_clust_6="45.76170"></scales>
<clustering>
<clus scale="   44.119">  3  4 -1 -1</clus>
<clus scale="   45.762">  5  6 -1 -1</clus>
<clus scale="  135.301">  1  3  2 -1</clus>
<clus scale="  135.301">  1  3  2 -1</clus>
</clustering>
</event>
<event>
 6    0  0.4081161E+002  0.1919142E+03  0.7546771E-02  0.1156746E+00
         21   -1    0    0  505  502  0.00000000000E+00  0.00000000000E+00  0.39505538273E+04  0.39505538273E+04  0.00000000000E+00 0. -1.
          2   -1    0    0  504    0 -0.00000000000E+00 -0.00000000000E+00 -0.37985563490E+04  0.37985563490E+04  0.00000000000E+00 0. -1.
         21    1    1    2  503  501 -0.26925260970E+03 -0.23306858176E+03 -0.90676965719E+03  0.97419153294E+03  0.00000000000E+00 0.  1.
         21    1    1    2  504  502 -0.12333191202E+02  0.52858929835E+02 -0.13890681627E+03  0.14913509873E+03  0.00000000000E+00 0. -1.
         21    1    1    2  505  503  0.93089279731E+02  0.16741819519E+03  0.39060908346E+04  0.39107850969E+04  0.00000000000E+00 0. -1.
          2    1    1    2  501    0  0.18849652117E+03  0.12791456728E+02 -0.27084168828E+04  0.27149984477E+04  0.00000000000E+00 0. -1.
<scales pt_clust_3="191.91419" pt_clust_4="54.27867" pt_clust_5="14000.00000" pt_clust_6="186.73531"></scales>
<clustering>
<clus scale="   54.279">  2  4  1 -1</clus>
<clus scale="  186.735">  2  6  1 -1</clus>
<clus scale="  191.914">  2  3  1 -1</clus>
<clus scale="  191.914">  1  3  2 -1</clus>
</clustering>
</event>
<event>
 6    0  0.4081161E+002  0.1394182E+03  0.7546771E-02  0.1214114E+00
          1   -1    0    0  504    0 -0.00000000000E+00  0.00000000000E+00  0.26303050957E+04  0.26303050957E+04  0.00000000000E+00 0. -1.
         21   -1    0    0  503  502  0.00000000000E+00 -0.00000000000E+00 -0.62162905713E+02  0.62162905713E+02  0.00000000000E+00 0.  1.
         21    1    1    2  503  505  0.28937362028E+02  0.81462886708E+02  0.30961070855E+02  0.91826797507E+02  0.00000000000E+00 0.  1.
         21    1    1    2  504  502  0.35560579344E+02 -0.20440368821E+01  0.85506957421E+03  0.85581114134E+03  0.00000000000E+00 0.  1.
         21    1    1    2  505  501  0.39297399861E+02  0.28109284368E+02 -0.72621944950E+01  0.48858540424E+02  0.00000000000E+00 0.  1.
          1    1    1    2  501    0 -0.10379534123E+03 -0.10752813419E+03  0.16893737394E+04  0.16959715221E+04  0.00000000000E+00 0. -1.
<scales pt_clust_3="37.93949" pt_clust_4="35.61928" pt_clust_5="37.93949" pt_clust_6="129.87977"></scales>
<clustering>
<clus scale="   35.619">  1  4  2 -1</clus>
<clus scale="   37.939">  3  5 -1 -1</clus>
<clus scale="  129.880">  1  6  2 -1</clus>
<clus scale="  139.418">  2  3  1 -1</clus>
</clustering>
</event>
<event>
 6    0  0.4081161E+002  0.1750007E+03  0.7546771E-02  0.1172731E+00
          1   -1    0    0  503    0 -0.00000000000E+00  0.00000000000E+00  0.76702939080E+03  0.76702939080E+03  0.00000000000E+00 0.  1.
         21   -1    0    0  504  502  0.00000000000E+00 -0.00000000000E+00 -0.58720135912E+03  0.58720135912E+03  0.00000000000E+00 0. -1.
         21    1    1    2  503  505 -0.67115867565E+02  0.54070807701E+02  0.28848093811E+02  0.90886767139E+02  0.00000000000E+00 0. -1.
         21    1    1    2  504  501  0.74350193092E+02 -0.19810203905E+03 -0.55193080099E+02  0.21867474746E+03  0.00000000000E+00 0. -1.
         21    1    1    2  505  502  0.44657556406E+02 -0.19808221886E+02 -0.40594937889E+03  0.40887841863E+03  0.00000000000E+00 0. -1.
          1    1    1    2  501    0 -0.51891881933E+02  0.16383945323E+03  0.61212239686E+03  0.63579081668E+03  0.00000000000E+00 0.  1.
<scales pt_clust_3="78.07311" pt_clust_4="14000.00000" pt_clust_5="48.85349" pt_clust_6="175.00075"></scales>
<clustering>
<clus scale="   48.853">  2  5  1 -1</clus>
<clus scale="   78.073">  2  3  1 -1</clus>
<clus scale="  175.001">  1  6  2 -1</clus>
<clus scale="   48.853">  2  3  1 -1</clus>
</clustering>
</event>
<event>
 6    0  0.4081161E+002  0.1117691E+03  0.7546771E-02  0.1257328E+00
         21   -1    0    0  503  502  0.00000000000E+00  0.00000000000E+00  0.34720127393E+03  0.34720127393E+03  0.00000000000E+00 0.  1.
          2   -1    0    0  504    0 -0.00000000000E+00 -0.00000000000E+00 -0.15390144266E+04  0.15390144266E+04  0.00000000000E+00 0. -1.
         21    1    1    2  503  501 -0.13078493337E+02 -0.47997440498E+02  0.15584312888E+03  0.16359059295E+03  0.00000000000E+00 0.  1.
         21    1    1    2  504  505 -0.48767968960E+02 -0.76022623644E+02 -0.51594423387E+03  0.52379023145E+03  0.00000000000E+00 0. -1.
         21    1    1    2  505  502  0.11372278262E+03 -0.21466129199E+01  0.16081642000E+03  0.19697563345E+03  0.00000000000E+00 0.  1.
          2    1    1    2  501    0 -0.51876320320E+02  0.12616667706E+03 -0.99252846770E+03  0.10018592427E+04  0.00000000000E+00 0. -1.
<scales pt_clust_3="49.74737" pt_clust_4="91.31391" pt_clust_5="111.76914" pt_clust_6="14000.00000"></scales>
<clustering>
<clus scale="   49.747">  1  3  2 -1</clus>
<clus scale="   91.314">  2  4  1 -1</clus>
<clus scale="  111.769">  1  5  2 -1</clus>
<clus scale="   49.747">  1  3  2 -1</clus>
</clustering>
</event>
<event>
 6    0  0.4081161E+002  0.2466527E+03  0.7546771E-02  0.1115439E+00
          1   -1    0    0  505    0 -0.00000000000E+00  0.00000000000E+00  0.91900010228E+03  0.91900010228E+03  0.00000000000E+00 0.  1.
         21   -1    0    0  503  502  0.00000000000E+00 -0.00000000000E+00 -0.15507345895E+03  0.15507345895E+03  0.00000000000E+00 0. -1.
         21    1    1    2  503  504  0.14412260036E+02  0.75474520077E+02  0.16439596706E+01  0.76855832723E+02  0.00000000000E+00 0. -1.
         21    1    1    2  504  501  0.10628320402E+03  0.15116484976E+03  0.16208211222E+03  0.24579980139E+03  0.00000000000E+00 0. -1.
         21    1    1    2  505  502  0.10001674245E+03 -0.16817496292E+03  0.40982263869E+03  0.45413738241E+03  0.00000000000E+00 0. -1.
          1    1    1    2  501    0 -0.22071220651E+03 -0.58464406916E+02  0.19037793276E+03  0.29728054470E+03  0.00000000000E+00 0.  1.
<scales pt_clust_3="68.75208" pt_clust_4="68.75208" pt_clust_5="195.66851" pt_clust_6="222.41830"></scales>
<clustering>
<clus scale="   68.752">  3  4 -1 -1</clus>
<clus scale="  195.669">  1  5  2 -1</clus>
<clus scale="  222.418">  1  6  2 -1</clus>
<clus scale="  246.653">  2  3  1 -1</clus>
</clustering>
</event>
<event>
 6    0  0.4081161E+002  0.1673089E+03  0.7546771E-02  0.1180684E+00
         21   -1    0    0  503  502  0.00000000000E+00  0.00000000000E+00  0.35367224514E+03  0.35367224514E+03  0.00000000000E+00 0. -1.
          2   -1    0    0  505    0 -0.00000000000E+00 -0.00000000000E+00 -0.51811434012E+03  0.51811434012E+03  0.00000000000E+00 0. -1.
         21    1    1    2  503  501 -0.35561868390E+02  0.39023768577E+02 -0.17020662045E+03  0.17820716776E+03  0.00000000000E+00 0. -1.
         21    1    1    2  504  502  0.11361694883E+03 -0.14079169228E+03  0.30037302648E+03  0.35064949267E+03  0.00000000000E+00 0. -1.
         21    1    1    2  505  504 -0.36480322356E+02  0.98027480842E+02 -0.10288839060E+03  0.14671817147E+03  0.00000000000E+00 0. -1.
          2    1    1    2  501    0 -0.41574758081E+02  0.37404428586E+01 -0.19172011042E+03  0.19621175337E+03  0.00000000000E+00 0. -1.
<scales pt_clust_3="33.50347" pt_clust_4="14000.00000" pt_clust_5="167.30894" pt_clust_6="95.90918"></scales>
<clustering>
<clus scale="   33.503">  3  6 -1 -1</clus>
<clus scale="   95.909">  2  3  1 -1</clus>
<clus scale="  167.309">  2  5  1 -1</clus>
<clus scale="  167.309">  1  3  2 -1</clus>
</clustering>
</event>
<event>
 6    0  0.4081161E+002  0.1452135E+03  0.7546771E-02  0.1206481E+00
         21   -1    0    0  505  502  0.00000000000E+00  0.00000000000E+00  0.21252514772E+03  0.21252514772E+03  0.00000000000E+00 0.  1.
          1   -1    0    0  503    0 -0.00000000000E+00 -0.00000000000E+00 -0.64566058649E+03  0.64566058649E+03  0.00000000000E+00 0.  1.
         21    1    1    2  503  504 -0.12432219823E+02 -0.13468454288E+03 -0.17232451086E+03  0.21906670953E+03  0.00000000000E+00 0.  1.
         21    1    1    2  504  502 -0.19223545526E+02 -0.45056372803E+02 -0.17578889027E+02  0.52044584465E+02  0.00000000000E+00 0.  1.
         21    1    1    2  505  501 -0.33336802204E+02  0.12191028925E+03  0.14318501575E+03  0.19098536526E+03  0.00000000000E+00 0.  1.
          1    1    1    2  501    0  0.64992567552E+02  0.57830626433E+02 -0.38641705464E+03  0.39608907496E+03  0.00000000000E+00 0.  1.
<scales pt_clust_3="38.67104" pt_clust_4="38.67104" pt_clust_5="130.22217" pt_clust_6="86.99664"></scales>
<clustering>
<clus scale="   38.671">  3  4 -1 -1</clus>
<clus scale="   86.997">  2  6  1 -1</clus>
<clus scale="  130.222">  1  5  2 -1</clus>
<clus scale="  130.222">  1  3  2 -1</clus>
</clustering>
</event>
<event>
 6    0  0.4081161E+002  0.7756641E+02  0.7546771E-02  0.1336103E+00
         21   -1    0    0  505  502  0.00000000000E+00  0.00000000000E+00  0.89403103729E+02  0.89403103729E+02  0.00000000000E+00 0. -1.
          2   -1    0    0  504    0 -0.00000000000E+00 -0.00000000000E+00 -0.74594713161E+03  0.74594713161E+03  0.00000000000E+00 0. -1.
         21    1    1    2  503  502 -0.61306654913E+02 -0.15795941223E+02  0.52587008811E+02  0.82300736276E+02  0.00000000000E+00 0. -1.
         21    1    1    2  504  503 -0.38959104442E+02 -0.74023163684E+02 -0.23135907629E+03  0.24601679366E+03  0.00000000000E+00 0.  1.
         21    1    1    2  505  501  0.80638355150E+02  0.65096100249E+02 -0.18086114215E+03  0.20844855319E+03  0.00000000000E+00 0. -1.
          2    1    1    2  501    0  0.19627404206E+02  0.24723004658E+02 -0.29691081825E+03  0.29858415221E+03  0.00000000000E+00 0. -1.
<scales pt_clust_3="62.47759" pt_clust_4="14000.00000" pt_clust_5="77.56641" pt_clust_6="31.56679"></scales>
<clustering>
<clus scale="   31.567">  2  6  1 -1</clus>
<clus scale="   62.478">  1  3  2 -1</clus>
<clus scale="   77.566">  1  5  2 -1</clus>
<clus scale="   62.478">  1  3  2 -1</clus>
</clustering>
</event>
<event>
 6    0  0.4081161E+002  0.8004553E+02  0.7546771E-02  0.1328922E+00
          1   -1    0    0  505    0 -0.00000000000E+00  0.00000000000E+00  0.10687944274E+04  0.10687944274E+04  0.00000000000E+00 0. -1.
         21   -1    0    0  504  502  0.00000000000E+00 -0.00000000000E+00 -0.27406966605E+03  0.27406966605E+03  0.00000000000E+00 0.  1.
         21    1    1    2  503  501  0.59548044476E+02  0.39388413409E+02 -0.95985363232E+02  0.11962694791E+03  0.00000000000E+00 0.  1.
         21    1    1    2  504  503 -0.43186482030E+02  0.40685845028E+02 -0.15325680748E+03  0.16434128895E+03  0.00000000000E+00 0.  1.
         21    1    1    2  505  502  0.40595013842E+02 -0.13612026770E+01  0.76966571508E+02  0.87026784102E+02  0.00000000000E+00 0.  1.
          1    1    1    2  501    0 -0.56956576288E+02 -0.78713055761E+02  0.96700036058E+03  0.97186907251E+03  0.00000000000E+00 0. -1.
<scales pt_clust_3="80.04553" pt_clust_4="59.16204" pt_clust_5="40.61783" pt_clust_6="14000.00000"></scales>
<clustering>
<clus scale="   40.618">  1  5  2 -1</clus>
<clus scale="   59.162">  2  4  1 -1</clus>
<clus scale="   80.046">  2  3  1 -1</clus>
<clus scale="   59.162">  2  3  1 -1</clus>
</clustering>
</event>
<event>
 6    0  0.4081161E+002  0.9034490E+02  0.7546771E-02  0.1302019E+00
         21   -1    0    0  503  502  0.00000000000E+00  0.00000000000E+00  0.19741986142E+03  0.19741986142E+03  0.00000000000E+00 0.  1.
         -1   -1    0    0    0  501 -0.00000000000E+00 -0.00000000000E+00 -0.76259507859E+03  0.76259507859E+03  0.00000000000E+00 0.  1.
         21    1    1    2  503  501  0.36037925196E+02 -0.33130913676E+02 -0.71073651455E+02  0.86300946835E+02  0.00000000000E+00 0. -1.
         21    1    1    2  504  505 -0.32273515628E+02 -0.59576174831E+02 -0.20074618621E+03  0.21187244204E+03  0.00000000000E+00 0.  1.
         21    1    1    2  505  502  0.83647357075E+02  0.39233794621E+02  0.16665734653E+03  0.19055403994E+03  0.00000000000E+00 0.  1.
         -1    1    1    2    0  504 -0.87411766643E+02  0.53473293887E+02 -0.46001272602E+03  0.47128751120E+03  0.00000000000E+00 0.  1.
<scales pt_clust_3="48.95293" pt_clust_4="14000.00000" pt_clust_5="90.34490" pt_clust_6="70.06429"></scales>
<clustering>
<clus scale="   48.953">  2  3  1 -1</clus>
<clus scale="   70.064">  2  6  1 -1</clus>
<clus scale="   90.345">  1  5  2 -1</clus>
<clus scale="   90.345">  1  3  2 -1</clus>
</clustering>
</event>
<event>
 6    0  0.4081161E+002  0.7648183E+02  0.7546771E-02  0.1339343E+00
          2   -1    0    0  503    0 -0.00000000000E+00  0.00000000000E+00  0.11932336000E+04  0.11932336000E+04  0.00000000000E+00 0. -1.
         21   -1    0    0  504  502  0.00000000000E+00 -0.00000000000E+00 -0.18824841624E+03  0.18824841624E+03  0.00000000000E+00 0.  1.
         21    1    1    2  503  505  0.43672462896E+02 -0.25514609260E+02  0.86756306241E+03  0.86903621705E+03  0.00000000000E+00 0. -1.
         21    1    1    2  504  501 -0.27540054291E+02 -0.13950435058E+02 -0.33961892450E+02  0.45896398197E+02  0.00000000000E+00 0. -1.
         21    1    1    2  505  502  0.69967968315E+02  0.75486749757E+02 -0.12145241412E+03  0.15919941858E+03  0.00000000000E+00 0.  1.
          2    1    1    2  501    0 -0.86100376920E+02 -0.36021705440E+02  0.29283642791E+03  0.30734998240E+03  0.00000000000E+00 0. -1.
<scales pt_clust_3="50.49646" pt_clust_4="30.87182" pt_clust_5="76.48183" pt_clust_6="14000.00000"></scales>
<clustering>
<clus scale="   30.872">  2  4  1 -1</clus>
<clus scale="   50.496">  1  3  2 -1</clus>
<clus scale="   76.482">  2  5  1 -1</clus>
<clus scale="   30.872">  2  3  1 -1</clus>
</clustering>
</event>
<event>
 6    0  0.4081161E+002  0.1359642E+03  0.7546771E-02  0.1218865E+00
          1   -1    0    0  505    0 -0.00000000000E+00  0.00000000000E+00  0.32391455625E+04  0.32391455625E+04  0.00000000000E+00 0. -1.
         21   -1    0    0  503  502  0.00000000000E+00 -0.00000000000E+00 -0.13561158199E+03  0.13561158199E+03  0.00000000000E+00 0. -1.
         21    1    1    2  503  501 -0.19721120261E+02 -0.33955782283E+02  0.40859373748E+01  0.39479268218E+02  0.00000000000E+00 0. -1.
         21    1    1    2  504  502 -0.11776723044E+03  0.44346487552E+02 -0.80694162162E+02  0.14949006432E+03  0.00000000000E+00 0. -1.
         21    1    1    2  505  504  0.60829077995E+02  0.48536347576E+02  0.82514518810E+03  0.82880669351E+03  0.00000000000E+00 0.  1.
          1    1    1    2  501    0  0.76659272710E+02 -0.58927052845E+02  0.23549970172E+04  0.23569811184E+04  0.00000000000E+00 0. -1.
<scales pt_clust_3="39.26726" pt_clust_4="14000.00000" pt_clust_5="77.25217" pt_clust_6="135.96421"></scales>
<clustering>
<clus scale="   39.267">  2  3  1 -1</clus>
<clus scale="   77.252">  1  5  2 -1</clus>
<clus scale="  135.964">  1  6  2 -1</clus>
<clus scale="   39.267">  2  3  1 -1</clus>
</clustering>
</event>
<event>
 6    0  0.8020761E+002  0.1282657E+03  0.7546771E-02  0.1230052E+00
         21   -1    0    0  503  502  0.00000000000E+00  0.00000000000E+00  0.60917401070E+03  0.60917401070E+03  0.00000000000E+00 0.  1.
          2   -1    0    0  504    0 -0.00000000000E+00 -0.00000000000E+00 -0.14492907405E+04  0.14492907405E+04  0.00000000000E+00 0.  1.
         21    1    1    2  503  505  0.11954346198E+03  0.60087643181E+02  0.58512220249E+03  0.60022425476E+03  0.00000000000E+00 0.  1.
         21    1    1    2  504  502 -0.44222935346E+02 -0.56032781907E+02 -0.71710923457E+02  0.10118200039E+03  0.00000000000E+00 0.  1.
         21    1    1    2  505  501 -0.42083629906E+02  0.15054880297E+02 -0.35610796239E+03  0.35890188381E+03  0.00000000000E+00 0. -1.
          2    1    1    2  501    0 -0.33236896733E+02 -0.19109741572E+02 -0.99742004648E+03  0.99815661228E+03  0.00000000000E+00 0.  1.
<scales pt_clust_3="14000.00000" pt_clust_4="128.26574" pt_clust_5="68.40104" pt_clust_6="38.33893"></scales>
<clustering>
<clus scale="   38.339">  2  6  1 -1</clus>
<clus scale="   68.401">  2  5  1 -1</clus>
<clus scale="  128.266">  2  4  1 -1</clus>
<clus scale="  128.266">  1  3  2 -1</clus>
</clustering>
</event>
<event>
 6    0  0.4081161E+002  0.1205161E+03  0.7546771E-02  0.1242248E+00
         21   -1    0    0  501  502  0.00000000000E+00  0.00000000000E+00  0.28771758334E+03  0.28771758334E+03  0.00000000000E+00 0. -1.
         -3   -1    0    0    0  501 -0.00000000000E+00 -0.00000000000E+00 -0.52764442049E+03  0.52764442049E+03  0.00000000000E+00 0.  1.
         21    1    1    2  503  502  0.11714647819E+03 -0.22560813990E+02  0.19379275661E+03  0.22756959418E+03  0.00000000000E+00 0. -1.
         21    1    1    2  504  505 -0.57821379030E+02 -0.38842063714E+02 -0.15773135113E+03  0.17242736707E+03  0.00000000000E+00 0. -1.
         21    1    1    2  505  503 -0.10213897573E+03  0.11114736063E+03 -0.21408449666E+02  0.15246123394E+03  0.00000000000E+00 0. -1.
         -3    1    1    2    0  504  0.42813876572E+02 -0.49744482926E+02 -0.25457979296E+03  0.26290380863E+03  0.00000000000E+00 0.  1.
<scales pt_clust_3="120.51613" pt_clust_4="76.21191" pt_clust_5="14000.00000" pt_clust_6="65.63186"></scales>
<clustering>
<clus scale="   65.632">  2  6  1 -1</clus>
<clus scale="   76.212">  2  4  1 -1</clus>
<clus scale="  120.516">  1  3  2 -1</clus>
<clus scale="  120.516">  1  3  2 -1</clus>
</clustering>
</event>
<event>
 6    0  0.4081161E+002  0.1462685E+03  0.7546771E-02  0.1205135E+00
         21   -1    0    0  505  502  0.00000000000E+00  0.00000000000E+00  0.11773178776E+04  0.11773178776E+04  0.00000000000E+00 0. -1.
         -2   -1    0    0    0  501 -0.00000000000E+00 -0.00000000000E+00 -0.76985975952E+02  0.76985975952E+02  0.00000000000E+00 0.  1.
         21    1    1    2  503  504  0.85463659677E+02  0.61564020561E+02  0.17770963142E+03  0.20657898938E+03  0.00000000000E+00 0.  1.
         21    1    1    2  504  501  0.52675189896E+02 -0.13808241100E+01  0.13014991529E+02  0.54276811902E+02  0.00000000000E+00 0. -1.
         21    1    1    2  505  503 -0.11156044461E+03 -0.12801809480E+03  0.90462253728E+03  0.92042180567E+03  0.00000000000E+00 0. -1.
         -2    1    1    2    0  502 -0.26578404967E+02  0.67834898353E+02  0.49847414146E+01  0.73026246597E+02  0.00000000000E+00 0.  1.
<scales pt_clust_3="146.26848" pt_clust_4="52.69329" pt_clust_5="14000.00000" pt_clust_6="67.20442"></scales>
<clustering>
<clus scale="   52.693">  2  4  1 -1</clus>
<clus scale="   67.204">  2  6  1 -1</clus>
<clus scale="  146.268">  2  3  1 -1</clus>
<clus scale="  146.268">  1  3  2 -1</clus>
</clustering>
</event>
<event>
 6    0  0.4081161E+002  0.8630103E+02  0.7546771E-02  0.1312065E+00
          2   -1    0    0  505    0 -0.00000000000E+00  0.00000000000E+00  0.66920911123E+03  0.66920911123E+03  0.00000000000E+00 0. -1.
         21   -1    0    0  504  502  0.00000000000E+00 -0.00000000000E+00 -0.54738915092E+02  0.54738915092E+02  0.00000000000E+00 0.  1.
         21    1    1    2  503  502 -0.11201030855E+03  0.26041787432E+02  0.35102827827E+02  0.12023598644E+03  0.00000000000E+00 0.  1.
         21    1    1    2  504  501  0.47708592501E+02 -0.27555532074E+02  0.80512829717E+02  0.97558868871E+02  0.00000000000E+00 0. -1.
         21    1    1    2  505  503  0.21953548065E+02  0.27346466632E+02  0.24503823224E+03  0.24753489203E+03  0.00000000000E+00 0. -1.
          2    1    1    2  501    0  0.42348167980E+02 -0.25832721990E+02  0.25381630635E+03  0.25861827899E+03  0.00000000000E+00 0. -1.
<scales pt_clust_3="86.30103" pt_clust_4="14000.00000" pt_clust_5="35.06833" pt_clust_6="56.41428"></scales>
<clustering>
<clus scale="   35.068">  1  5  2 -1</clus>
<clus scale="   56.414">  1  6  2 -1</clus>
<clus scale="   86.301">  2  3  1 -1</clus>
<clus scale="   86.301">  2  3  1 -1</clus>
</clustering>
</event>
<event>
 6    0  0.4081161E+002  0.7507454E+02  0.7546771E-02  0.1343640E+00
          2   -1    0    0  504    0 -0.00000000000E+00  0.00000000000E+00  0.15999951388E+04  0.15999951388E+04  0.00000000000E+00 0.  1.
         21   -1    0    0  503  502  0.00000000000E+00 -0.00000000000E+00 -0.20728518194E+02  0.20728518194E+02  0.00000000000E+00 0. -1.
         21    1    1    2  503  505  0.56235189785E+02  0.48624583406E+02  0.87725369902E+02  0.11498907429E+03  0.00000000000E+00 0. -1.
         21    1    1    2  504  502 -0.52549518392E+02  0.31879168895E+02  0.39412591250E+03  0.39888966921E+03  0.00000000000E+00 0. -1.
         21    1    1    2  505  501 -0.42727088262E+02 -0.68546889196E+02  0.39128374553E+03  0.39953379032E+03  0.00000000000E+00 0. -1.
          2    1    1    2  501    0  0.39041416869E+02 -0.11956863105E+02  0.70613159271E+03  0.70731112322E+03  0.00000000000E+00 0.  1.
<scales pt_clust_3="75.07454" pt_clust_4="44.11902" pt_clust_5="14000.00000" pt_clust_6="40.83135"></scales>
<clustering>
<clus scale="   40.831">  1  6  2 -1</clus>
<clus scale="   44.119">  1  4  2 -1</clus>
<clus scale="   75.075">  2  3  1 -1</clus>
<clus scale="   75.075">  2  3  1 -1</clus>
</clustering>
</event>
<event>
 6    0  0.4081161E+002  0.9874616E+02  0.7546771E-02  0.1282955E+00
          2   -1    0    0  503    0 -0.00000000000E+00  0.00000000000E+00  0.60642913924E+03  0.60642913924E+03  0.00000000000E+00 0. -1.
         21   -1    0    0  504  502  0.00000000000E+00 -0.00000000000E+00 -0.22585372105E+03  0.22585372105E+03  0.00000000000E+00 0. -1.
         21    1    1    2  503  505 -0.31266306763E+02  0.33905113279E+02  0.14453629686E+03  0.15171644524E+03  0.00000000000E+00 0. -1.
         21    1    1    2  504  501  0.99914534249E+02 -0.59215249469E+02 -0.95702899455E+02  0.15049386993E+03  0.00000000000E+00 0. -1.
         21    1    1    2  505  502  0.10698260837E+01  0.54627561021E+02 -0.87993834220E+02  0.10357716839E+03  0.00000000000E+00 0. -1.
          2    1    1    2  501    0 -0.69718053569E+02 -0.29317424832E+02  0.41973585500E+03  0.42649537672E+03  0.00000000000E+00 0. -1.
<scales pt_clust_3="46.12091" pt_clust_4="14000.00000" pt_clust_5="55.20661" pt_clust_6="98.74616"></scales>
<clustering>
<clus scale="   46.121">  1  3  2 -1</clus>
<clus scale="   55.207">  2  5  1 -1</clus>
<clus scale="   98.746">  1  6  2 -1</clus>
<clus scale="   55.207">  2  3  1 -1</clus>
</clustering>
</event>
<event>
 6    0  0.4081161E+002  0.9195117E+02  0.7546771E-02  0.1298194E+00
         21   -1    0    0  503  502  0.00000000000E+00  0.00000000000E+00  0.31519434099E+03  0.31519434099E+03  0.00000000000E+00 0. -1.
         -1   -1    0    0    0  501 -0.00000000000E+00 -0.00000000000E+00 -0.37539166997E+03  0.37539166997E+03  0.00000000000E+00 0. -1.
         21    1    1    2  503  505  0.46563469881E+02 -0.93643718481E+02  0.20967274005E+03  0.23430740633E+03  0.00000000000E+00 0. -1.
         21    1    1    2  504  502 -0.24504324744E+02  0.70348708311E+02  0.62282635017E+02  0.97100614400E+02  0.00000000000E+00 0.  1.
         21    1    1    2  505  501 -0.40135430506E+02 -0.11865421112E+02 -0.23490569469E+02  0.47994248135E+02  0.00000000000E+00 0. -1.
         -1    1    1    2    0  504  0.18076285368E+02  0.35160431282E+02 -0.30866213458E+03  0.31118374209E+03  0.00000000000E+00 0. -1.
<scales pt_clust_3="91.95117" pt_clust_4="14000.00000" pt_clust_5="31.14176" pt_clust_6="39.53490"></scales>
<clustering>
<clus scale="   39.535">  2  6  1 -1</clus>
<clus scale="   31.142">  2  5  1 -1</clus>
<clus scale="   91.951">  1  3  2 -1</clus>
<clus scale="   91.951">  1  3  2 -1</clus>
</clustering>
</event>
<event>
 6    0  0.4081161E+002  0.1104122E+03  0.7546771E-02  0.1259809E+00
         21   -1    0    0  505  502  0.00000000000E+00  0.00000000000E+00  0.58753696314E+02  0.58753696314E+02  0.00000000000E+00 0.  1.
          2   -1    0    0  503    0 -0.00000000000E+00 -0.00000000000E+00 -0.20250067599E+04  0.20250067599E+04  0.00000000000E+00 0.  1.
         21    1    1    2  503  502  0.14087936856E+02 -0.53703455956E+02 -0.42190419582E+03  0.42554163321E+03  0.00000000000E+00 0.  1.
         21    1    1    2  504  501 -0.95826582942E+02  0.67127175849E+02 -0.30708488470E+03  0.32861819509E+03  0.00000000000E+00 0.  1.
         21    1    1    2  505  504  0.24381053193E+02  0.34293028417E+02  0.35256286363E+02  0.54894929465E+02  0.00000000000E+00 0.  1.
          2    1    1    2  501    0  0.57357592893E+02 -0.47716748311E+02 -0.12725202694E+04  0.12747056984E+04  0.00000000000E+00 0.  1.
<scales pt_clust_3="52.10969" pt_clust_4="110.41216" pt_clust_5="42.07669" pt_clust_6="14000.00000"></scales>
<clustering>
<clus scale="   42.077">  1  5  2 -1</clus>
<clus scale="   52.110">  2  3  1 -1</clus>
<clus scale="  110.412">  1  4  2 -1</clus>
<clus scale="   42.077">  1  3  2 -1</clus>
</clustering>
</event>
<event>
 6    0  0.4081161E+002  0.9568502E+02  0.7546771E-02  0.1289641E+00
         -4   -1    0    0    0  501 -0.00000000000E+00  0.00000000000E+00  0.14767629388E+03  0.14767629388E+03  0.00000000000E+00 0. -1.
         21   -1    0    0  503  502  0.00000000000E+00 -0.00000000000E+00 -0.59001123743E+03  0.59001123743E+03  0.00000000000E+00 0. -1.
         21    1    1    2  503  501  0.50519730108E+02 -0.59757065832E+02 -0.64196745044E+02  0.10121448573E+03  0.00000000000E+00 0. -1.
         21    1    1    2  504  502 -0.34744978995E+02 -0.36128629347E+02 -0.25662831637E+03  0.26147769348E+03  0.00000000000E+00 0. -1.
         21    1    1    2  505  504 -0.85404731327E+02  0.65513381045E+02 -0.22335555753E+03  0.24793885599E+03  0.00000000000E+00 0. -1.
         -4    1    1    2    0  505  0.69629980213E+02  0.30372314134E+02  0.10184567539E+03  0.12705649612E+03  0.00000000000E+00 0. -1.
<scales pt_clust_3="95.68502" pt_clust_4="50.12476" pt_clust_5="14000.00000" pt_clust_6="74.20632"></scales>
<clustering>
<clus scale="   50.125">  2  4  1 -1</clus>
<clus scale="   74.206">  1  6  2 -1</clus>
<clus scale="   95.685">  1  3  2 -1</clus>
<clus scale="   50.125">  2  3  1 -1</clus>
</clustering>
</event>
<event>
 6    0  0.4081161E+002  0.8665805E+02  0.7546771E-02  0.1311153E+00
          2   -1    0    0  504    0 -0.00000000000E+00  0.00000000000E+00  0.18940102348E+03  0.18940102348E+03  0.00000000000E+00 0. -1.
         21   -1    0    0  505  502  0.00000000000E+00 -0.00000000000E+00 -0.31183361930E+03  0.31183361930E+03  0.00000000000E+00 0.  1.
         21    1    1    2  503  502 -0.80726089989E+02 -0.13000593926E+02  0.43332365847E+02  0.92538699889E+02  0.00000000000E+00 0. -1.
         21    1    1    2  504  503  0.15615477068E+02 -0.26658244867E+02 -0.42083466006E+01  0.31180367614E+02  0.00000000000E+00 0. -1.
         21    1    1    2  505  501 -0.12237425644E+02  0.87878218473E+02 -0.24086983931E+03  0.25669167372E+03  0.00000000000E+00 0.  1.
          2    1    1    2  501    0  0.77348038565E+02 -0.48219379680E+02  0.79313224241E+02  0.12082390155E+03  0.00000000000E+00 0. -1.
<scales pt_clust_3="78.24400" pt_clust_4="30.89507" pt_clust_5="86.65805" pt_clust_6="14000.00000"></scales>
<clustering>
<clus scale="   30.895">  1  4  2 -1</clus>
<clus scale="   78.244">  1  3  2 -1</clus>
<clus scale="   86.658">  2  5  1 -1</clus>
<clus scale="   86.658">  2  3  1 -1</clus>
</clustering>
</event>
<event>
 6    0  0.4081161E+002  0.7413926E+02  0.7546771E-02  0.1346557E+00
          2   -1    0    0  503    0 -0.00000000000E+00  0.00000000000E+00  0.26913233997E+03  0.26913233997E+03  0.00000000000E+00 0. -1.
         21   -1    0    0  504  502  0.00000000000E+00 -0.00000000000E+00 -0.16392591895E+03  0.16392591895E+03  0.00000000000E+00 0.  1.
         21    1    1    2  503  505  0.63346167560E+01 -0.37343174439E+02  0.28593606941E+02  0.47457711749E+02  0.00000000000E+00 0.  1.
         21    1    1    2  504  501 -0.36568210544E+02 -0.60781040615E+02 -0.56786512621E+02  0.90864057451E+02  0.00000000000E+00 0.  1.
         21    1    1    2  505  502 -0.38417810762E+02  0.41821722234E+02 -0.59582103503E+02  0.82310459190E+02  0.00000000000E+00 0.  1.
          2    1    1    2  501    0  0.68651404550E+02  0.56302492820E+02  0.19298143020E+03  0.21242603053E+03  0.00000000000E+00 0. -1.
<scales pt_clust_3="37.87664" pt_clust_4="14000.00000" pt_clust_5="55.23521" pt_clust_6="74.13926"></scales>
<clustering>
<clus scale="   37.877">  1  3  2 -1</clus>
<clus scale="   55.235">  2  5  1 -1</clus>
<clus scale="   74.139">  1  6  2 -1</clus>
<clus scale="   55.235">  2  3  1 -1</clus>
</clustering>
</event>
<event>
 6    0  0.4081161E+002  0.1451519E+03  0.7546771E-02  0.1206560E+00
         -3   -1    0    0    0  501 -0.00000000000E+00  0.00000000000E+00  0.78213907824E+02  0.78213907824E+02  0.00000000000E+00 0. -1.
         21   -1    0    0  505  502  0.00000000000E+00 -0.00000000000E+00 -0.26308730286E+04  0.26308730286E+04  0.00000000000E+00 0. -1.
         21    1    1    2  503  502 -0.15078142444E+02 -0.30693829757E+02 -0.12454605512E+03  0.12915564800E+03  0.00000000000E+00 0.  1.
         21    1    1    2  504  501  0.10786319480E+03  0.27726943338E+02 -0.11361081056E+03  0.15909326968E+03  0.00000000000E+00 0.  1.
         21    1    1    2  505  504 -0.13326095030E+03 -0.93863799237E+01 -0.23570471687E+04  0.23608299262E+04  0.00000000000E+00 0. -1.
         -3    1    1    2    0  503  0.40475897940E+02  0.12353266342E+02  0.42544913572E+02  0.60008092573E+02  0.00000000000E+00 0. -1.
<scales pt_clust_3="34.19739" pt_clust_4="14000.00000" pt_clust_5="145.15191" pt_clust_6="42.23760"></scales>
<clustering>
<clus scale="   34.197">  2  3  1 -1</clus>
<clus scale="   42.238">  1  6  2 -1</clus>
<clus scale="  145.152">  2  5  1 -1</clus>
<clus scale="   34.197">  2  3  1 -1</clus>
</clustering>
</event>
<event>
 6    0  0.4081161E+002  0.9906052E+02  0.7546771E-02  0.1282284E+00
          1   -1    0    0  503    0 -0.00000000000E+00  0.00000000000E+00  0.38363523971E+03  0.38363523971E+03  0.00000000000E+00 0. -1.
         21   -1    0    0  505  502  0.00000000000E+00 -0.00000000000E+00 -0.13624109571E+03  0.13624109571E+03  0.00000000000E+00 0. -1.
         21    1    1    2  503  502 -0.94606128120E+02  0.60923136614E+02  0.11606971880E+03  0.16166053221E+03  0.00000000000E+00 0. -1.
         21    1    1    2  504  501  0.59270378092E+02 -0.53288199091E+02 -0.40733615282E+01  0.79807281345E+02  0.00000000000E+00 0. -1.
         21    1    1    2  505  504 -0.40397892075E+02  0.45462852062E+02 -0.45016914080E+02  0.75666261669E+02  0.00000000000E+00 0. -1.
          1    1    1    2  501    0  0.75733642103E+02 -0.53097789585E+02  0.18041470080E+03  0.20274226020E+03  0.00000000000E+00 0. -1.
<scales pt_clust_3="14000.00000" pt_clust_4="46.45926" pt_clust_5="60.81826" pt_clust_6="99.06052"></scales>
<clustering>
<clus scale="   60.818">  2  5  1 -1</clus>
<clus scale="   46.459">  2  4  1 -1</clus>
<clus scale="   99.061">  1  6  2 -1</clus>
<clus scale="   60.818">  2  3  1 -1</clus>
</clustering>
</event>
<event>
 6    0  0.4081161E+002  0.1421528E+03  0.7546771E-02  0.1210461E+00
         21   -1    0    0  505  502  0.00000000000E+00  0.00000000000E+00  0.80446160817E+02  0.80446160817E+02  0.00000000000E+00 0. -1.
         -2   -1    0    0    0  501 -0.00000000000E+00 -0.00000000000E+00 -0.10755840861E+04  0.10755840861E+04  0.00000000000E+00 0. -1.
         21    1    1    2  503  501 -0.23686234602E+02 -0.23459414516E+02 -0.92077599594E+02  0.97926840989E+02  0.00000000000E+00 0. -1.
         21    1    1    2  504  502  0.97540104448E+02  0.92240576150E+02 -0.41902748668E+01  0.13431289688E+03  0.00000000000E+00 0. -1.
         21    1    1    2  505  503  0.31266720690E+02 -0.20018268584E+02 -0.31426687750E+02  0.48641295241E+02  0.00000000000E+00 0. -1.
         -2    1    1    2    0  504 -0.10512059054E+03 -0.48762893050E+02 -0.86744336312E+03  0.87514921385E+03  0.00000000000E+00 0. -1.
<scales pt_clust_3="33.33739" pt_clust_4="14000.00000" pt_clust_5="36.85194" pt_clust_6="142.15279"></scales>
<clustering>
<clus scale="   33.337">  2  3  1 -1</clus>
<clus scale="   36.852">  1  5  2 -1</clus>
<clus scale="  142.153">  2  6  1 -1</clus>
<clus scale="   36.852">  1  3  2 -1</clus>
</clustering>
</event>
<event>
 6    0  0.4081161E+002  0.9577822E+02  0.7546771E-02  0.1289433E+00
         21   -1    0    0  501  502  0.00000000000E+00  0.00000000000E+00  0.15259521275E+03  0.15259521275E+03  0.00000000000E+00 0.  1.
          2   -1    0    0  504    0 -0.00000000000E+00 -0.00000000000E+00 -0.10927151511E+04  0.10927151511E+04  0.00000000000E+00 0.  1.
         21    1    1    2  503  505 -0.26808317434E+02  0.79820822406E+02  0.12346115865E+02  0.85102738794E+02  0.00000000000E+00 0.  1.
         21    1    1    2  504  503 -0.41892040289E+02  0.43608124290E+02 -0.98026225309E+02  0.11517704803E+03  0.00000000000E+00 0.  1.
         21    1    1    2  505  502  0.60596183946E+02 -0.88188971580E+02  0.64791382257E+02  0.12508843045E+03  0.00000000000E+00 0.  1.
          2    1    1    2  501    0  0.81041737771E+01 -0.35239975116E+02 -0.91923121112E+03  0.91994214654E+03  0.00000000000E+00 0.  1.
<scales pt_clust_3="95.77822" pt_clust_4="42.91604" pt_clust_5="14000.00000" pt_clust_6="36.15983"></scales>
<clustering>
<clus scale="   36.160">  2  6  1 -1</clus>
<clus scale="   42.916">  2  4  1 -1</clus>
<clus scale="   95.778">  2  3  1 -1</clus>
<clus scale="   95.778">  1  3  2 -1</clus>
</clustering>
</event>
<event>
 6    0  0.4081161E+002  0.1391631E+03  0.7546771E-02  0.1214459E+00
         21   -1    0    0  505  502  0.00000000000E+00  0.00000000000E+00  0.19297309877E+03  0.19297309877E+03  0.00000000000E+00 0.  1.
         -1   -1    0    0    0  501 -0.00000000000E+00 -0.00000000000E+00 -0.65327727322E+03  0.65327727322E+03  0.00000000000E+00 0.  1.
         21    1    1    2  503  504 -0.69454043608E+01 -0.59077925262E+02 -0.16006652608E+02  0.61600753427E+02  0.00000000000E+00 0.  1.
         21    1    1    2  504  502  0.42319434171E+02  0.11236913867E+02 -0.20227466508E+02  0.48232283205E+02  0.00000000000E+00 0. -1.
         21    1    1    2  505  501 -0.79847233256E+02 -0.86062287995E+02  0.12383400249E+03  0.17063750539E+03  0.00000000000E+00 0.  1.
         -1    1    1    2    0  503  0.44473203445E+02  0.13390329939E+03 -0.54790405782E+03  0.56577982996E+03  0.00000000000E+00 0.  1.
<scales pt_clust_3="57.66755" pt_clust_4="43.78587" pt_clust_5="14000.00000" pt_clust_6="139.16314"></scales>
<clustering>
<clus scale="   43.786">  1  4  2 -1</clus>
<clus scale="   57.668">  1  3  2 -1</clus>
<clus scale="  139.163">  2  6  1 -1</clus>
<clus scale="   43.786">  1  3  2 -1</clus>
</clustering>
</event>
<event>
 6    0  0.4081161E+002  0.7909110E+02  0.7546771E-02  0.1331651E+00
         21   -1    0    0  503  502  0.00000000000E+00  0.00000000000E+00  0.66353269266E+03  0.66353269266E+03  0.00000000000E+00 0. -1.
          1   -1    0    0  505    0 -0.00000000000E+00 -0.00000000000E+00 -0.51366029325E+03  0.51366029325E+03  0.00000000000E+00 0. -1.
         21    1    1    2  503  501  0.66546042709E+02 -0.38672647207E+02  0.26074157012E+03  0.27186414959E+03  0.00000000000E+00 0. -1.
         21    1    1    2  504  502 -0.21745127259E+02  0.10454067836E+03  0.37133005933E+03  0.38637755751E+03  0.00000000000E+00 0. -1.
         21    1    1    2  505  504 -0.31286313289E+02  0.11651759273E+01  0.61946578166E+00  0.31314130548E+02  0.00000000000E+00 0.  1.
          1    1    1    2  501    0 -0.13514602161E+02 -0.67033207079E+02 -0.48281869582E+03  0.48763714826E+03  0.00000000000E+00 0. -1.
<scales pt_clust_3="76.65895" pt_clust_4="14000.00000" pt_clust_5="31.30800" pt_clust_6="79.09110"></scales>
<clustering>
<clus scale="   31.308">  2  5  1 -1</clus>
<clus scale="   76.659">  1  3  2 -1</clus>
<clus scale="   79.091">  2  6  1 -1</clus>
<clus scale="   76.659">  1  3  2 -1</clus>
</clustering>
</event>
<event>
 6    0  0.4081161E+002  0.7536014E+02  0.7546771E-02  0.1342759E+00
         21   -1    0    0  505  502  0.00000000000E+00  0.00000000000E+00  0.10956873848E+03  0.10956873848E+03  0.00000000000E+00 0. -1.
          2   -1    0    0  504    0 -0.00000000000E+00 -0.00000000000E+00 -0.19981114195E+04  0.19981114195E+04  0.00000000000E+00 0. -1.
         21    1    1    2  503  501  0.10233826268E+03  0.48676135587E+02 -0.93560864102E+02  0.14695618897E+03  0.00000000000E+00 0. -1.
         21    1    1    2  504  502 -0.49467416356E+02  0.79352194686E+01 -0.40981349853E+03  0.41286450146E+03  0.00000000000E+00 0. -1.
         21    1    1    2  505  503 -0.46217806333E+02  0.42673922937E+00  0.74169574287E+02  0.87392182022E+02  0.00000000000E+00 0. -1.
          2    1    1    2  501    0 -0.66530399896E+01 -0.57038094285E+02 -0.14593378927E+04  0.14604672856E+04  0.00000000000E+00 0. -1.
<scales pt_clust_3="75.36014" pt_clust_4="52.52290" pt_clust_5="46.21978" pt_clust_6="14000.00000"></scales>
<clustering>
<clus scale="   46.220">  1  5  2 -1</clus>
<clus scale="   52.523">  2  4  1 -1</clus>
<clus scale="   75.360">  1  3  2 -1</clus>
<clus scale="   46.220">  1  3  2 -1</clus>
</clustering>
</event>
<event>
 6    0  0.4081161E+002  0.1550584E+03  0.7546771E-02  0.1194391E+00
          2   -1    0    0  504    0 -0.00000000000E+00  0.00000000000E+00  0.53210401084E+03  0.53210401084E+03  0.00000000000E+00 0.  1.
         21   -1    0    0  505  502  0.00000000000E+00 -0.00000000000E+00 -0.23817771498E+03  0.23817771498E+03  0.00000000000E+00 0.  1.
         21    1    1    2  503  502 -0.11908963409E+03 -0.90529149717E+02 -0.14678956990E+03  0.20958302824E+03  0.00000000000E+00 0.  1.
         21    1    1    2  504  503  0.99166954043E+02  0.18216090660E+03  0.16278077651E+03  0.26365557432E+03  0.00000000000E+00 0.  1.
         21    1    1    2  505  501  0.69360185553E+01 -0.55849527995E+02  0.96972502126E+02  0.11212022253E+03  0.00000000000E+00 0.  1.
          2    1    1    2  501    0  0.12986661488E+02 -0.35782228888E+02  0.18096258712E+03  0.18492290074E+03  0.00000000000E+00 0.  1.
<scales pt_clust_3="155.05845" pt_clust_4="14000.00000" pt_clust_5="67.43789" pt_clust_6="38.06601"></scales>
<clustering>
<clus scale="   38.066">  1  6  2 -1</clus>
<clus scale="   67.438">  1  5  2 -1</clus>
<clus scale="  155.058">  2  3  1 -1</clus>
<clus scale="  155.058">  2  3  1 -1</clus>
</clustering>
</event>
<event>
 6    0  0.4081161E+002  0.7331033E+02  0.7546771E-02  0.1349185E+00
         -2   -1    0    0    0  501 -0.00000000000E+00  0.00000000000E+00  0.28751751902E+03  0.28751751902E+03  0.00000000000E+00 0.  1.
         21   -1    0    0  503  502  0.00000000000E+00 -0.00000000000E+00 -0.13862592680E+04  0.13862592680E+04  0.00000000000E+00 0. -1.
         21    1    1    2  503  504 -0.68181758495E+02 -0.17428715298E+02 -0.11496339661E+04  0.11517859039E+04  0.00000000000E+00 0. -1.
         21    1    1    2  504  501 -0.88397283417E+02 -0.38583032983E+01  0.14209253319E+03  0.16738952837E+03  0.00000000000E+00 0.  1.
         21    1    1    2  505  502  0.10923469818E+03  0.36275603738E+02 -0.20238758234E+03  0.23282798843E+03  0.00000000000E+00 0.  1.
         -2    1    1    2    0  505  0.47344343733E+02 -0.14988585142E+02  0.11118726628E+03  0.12177336634E+03  0.00000000000E+00 0.  1.
<scales pt_clust_3="73.31033" pt_clust_4="48.77989" pt_clust_5="14000.00000" pt_clust_6="49.66029"></scales>
<clustering>
<clus scale="   49.660">  1  6  2 -1</clus>
<clus scale="   48.780">  1  4  2 -1</clus>
<clus scale="   73.310">  2  3  1 -1</clus>
<clus scale="   73.310">  2  3  1 -1</clus>
</clustering>
</event>
<event>
 6    0  0.4081161E+002  0.2214869E+03  0.7546771E-02  0.1132779E+00
         -2   -1    0    0    0  501 -0.00000000000E+00  0.00000000000E+00  0.46694414605E+03  0.46694414605E+03  0.00000000000E+00 0.  1.
         21   -1    0    0  501  502  0.00000000000E+00 -0.00000000000E+00 -0.21695779811E+03  0.21695779811E+03  0.00000000000E+00 0.  1.
         21    1    1    2  503  505  0.28748668723E+01  0.14924371190E+03 -0.71386409386E+02  0.16546289568E+03  0.00000000000E+00 0.  1.
         21    1    1    2  504  503  0.10409291014E+02 -0.10629853971E+03  0.23121536820E+03  0.25469251928E+03  0.00000000000E+00 0.  1.
         21    1    1    2  505  502 -0.33109097232E+02  0.63205847572E+02 -0.49770268154E+02  0.86995810698E+02  0.00000000000E+00 0.  1.
         -2    1    1    2    0  504  0.19824939346E+02 -0.10615101976E+03  0.13992765728E+03  0.17675071849E+03  0.00000000000E+00 0.  1.
<scales pt_clust_3="37.91594" pt_clust_4="48.18259" pt_clust_5="37.91594" pt_clust_6="219.99119"></scales>
<clustering>
<clus scale="   37.916">  3  5 -1 -1</clus>
<clus scale="   48.183">  4  6 -1 -1</clus>
<clus scale="  219.991">  1  4  2 -1</clus>
<clus scale="  221.487">  2  3  1 -1</clus>
</clustering>
</event>
<event>
 6    0  0.4081161E+002  0.1621017E+03  0.7546771E-02  0.1186344E+00
          2   -1    0    0  505    0 -0.00000000000E+00  0.00000000000E+00  0.52821879040E+04  0.52821879040E+04  0.00000000000E+00 0. -1.
         21   -1    0    0  504  502  0.00000000000E+00 -0.00000000000E+00 -0.73758476106E+01  0.73758476106E+01  0.00000000000E+00 0.  1.
         21    1    1    2  503  501  0.83917369650E+02  0.42433889467E+02  0.18297523593E+04  0.18321671475E+04  0.00000000000E+00 0. -1.
         21    1    1    2  504  503 -0.13745679221E+02  0.38578932002E+02  0.31461418479E+03  0.31726859750E+03  0.00000000000E+00 0.  1.
         21    1    1    2  505  502 -0.10076785921E+03 -0.13593140816E+03  0.17255154300E+04  0.17337920891E+04  0.00000000000E+00 0.  1.
          2    1    1    2  501    0  0.30596168781E+02  0.54918586689E+02  0.14049300823E+04  0.14063359175E+04  0.00000000000E+00 0. -1.
<scales pt_clust_3="37.83075" pt_clust_4="40.95458" pt_clust_5="155.35836" pt_clust_6="37.83075"></scales>
<clustering>
<clus scale="   37.831">  3  6 -1 -1</clus>
<clus scale="   40.955">  2  4  1 -1</clus>
<clus scale="  155.358">  2  5  1 -1</clus>
<clus scale="   40.955">  2  3  1 -1</clus>
</clustering>
</event>
<event>
 6    0  0.4081161E+002  0.7699093E+02  0.7546771E-02  0.1337814E+00
         21   -1    0    0  505  502  0.00000000000E+00  0.00000000000E+00  0.21905153010E+02  0.21905153010E+02  0.00000000000E+00 0. -1.
          2   -1    0    0  504    0 -0.00000000000E+00 -0.00000000000E+00 -0.28001300998E+04  0.28001300998E+04  0.00000000000E+00 0. -1.
         21    1    1    2  503  502  0.45911001350E+02 -0.69837242374E+02 -0.93570415445E+02  0.12546108207E+03  0.00000000000E+00 0. -1.
         21    1    1    2  504  503  0.41901494918E+02 -0.19874973346E+02 -0.29346562602E+03  0.29710742754E+03  0.00000000000E+00 0.  1.
         21    1    1    2  505  501 -0.37682355488E+02 -0.41142740868E+01 -0.12126503216E+03  0.12705154541E+03  0.00000000000E+00 0. -1.
          2    1    1    2  501    0 -0.50130140779E+02  0.93826489807E+02 -0.22699238731E+04  0.22724151978E+04  0.00000000000E+00 0. -1.
<scales pt_clust_3="14000.00000" pt_clust_4="43.32598" pt_clust_5="37.90629" pt_clust_6="76.99093"></scales>
<clustering>
<clus scale="   37.906">  1  5  2 -1</clus>
<clus scale="   43.326">  2  4  1 -1</clus>
<clus scale="   76.991">  2  6  1 -1</clus>
<clus scale="   37.906">  1  3  2 -1</clus>
</clustering>
</event>
<event>
 6    0  0.4081161E+002  0.1130874E+03  0.7546771E-02  0.1254957E+00
         21   -1    0    0  504  502  0.00000000000E+00  0.00000000000E+00  0.21804038200E+02  0.21804038200E+02  0.00000000000E+00 0. -1.
          2   -1    0    0  505    0 -0.00000000000E+00 -0.00000000000E+00 -0.18815273321E+04  0.18815273321E+04  0.00000000000E+00 0.  1.
         21    1    1    2  503  502  0.28356158524E+02 -0.32616521828E+02 -0.59319294681E+02  0.73394059322E+02  0.00000000000E+00 0. -1.
         21    1    1    2  504  501 -0.57083115877E+02  0.31266671543E+02 -0.17288009808E+03  0.18472578374E+03  0.00000000000E+00 0.  1.
         21    1    1    2  505  503  0.58163161042E+02 -0.85231216421E+02 -0.36287637511E+03  0.37726194768E+03  0.00000000000E+00 0. -1.
          2    1    1    2  501    0 -0.29436203689E+02  0.86581066705E+02 -0.12646475261E+04  0.12679495796E+04  0.00000000000E+00 0.  1.
<scales pt_clust_3="38.11243" pt_clust_4="65.08523" pt_clust_5="38.11243" pt_clust_6="96.54426"></scales>
<clustering>
<clus scale="   38.112">  3  5 -1 -1</clus>
<clus scale="   65.085">  1  4  2 -1</clus>
<clus scale="   96.544">  2  6  1 -1</clus>
<clus scale="   65.085">  1  3  2 -1</clus>
</clustering>
</event>
<event>
 6    0  0.4081161E+002  0.8235730E+02  0.7546771E-02  0.1322492E+00
         21   -1    0    0  501  502  0.00000000000E+00  0.00000000000E+00  0.32425249628E+02  0.32425249628E+02  0.00000000000E+00 0. -1.
          2   -1    0    0  504    0 -0.00000000000E+00 -0.00000000000E+00 -0.10550966193E+04  0.10550966193E+04  0.00000000000E+00 0. -1.
         21    1    1    2  503  502  0.54860638379E+02 -0.38078573244E+02 -0.89688580236E+02  0.11181998394E+03  0.00000000000E+00 0. -1.
         21    1    1    2  504  505  0.20124204049E+02 -0.31759324629E+02 -0.21858212305E+03  0.22179220637E+03  0.00000000000E+00 0. -1.
         21    1    1    2  505  503 -0.12397986716E+03  0.16907420529E+02 -0.21056555641E+03  0.24493820012E+03  0.00000000000E+00 0. -1.
          2    1    1    2  501    0  0.48995024737E+02  0.52930477344E+02 -0.50383510999E+03  0.50897147851E+03  0.00000000000E+00 0. -1.
<scales pt_clust_3="14000.00000" pt_clust_4="37.59838" pt_clust_5="82.35730" pt_clust_6="69.85027"></scales>
<clustering>
<clus scale="   37.598">  2  4  1 -1</clus>
<clus scale="   69.850">  2  6  1 -1</clus>
<clus scale="   82.357">  2  5  1 -1</clus>
<clus scale="   82.357">  1  3  2 -1</clus>
</clustering>
</event>
<event>
 6    0  0.4081161E+002  0.8788028E+02  0.7546771E-02  0.1308068E+00
          2   -1    0    0  503    0 -0.00000000000E+00  0.00000000000E+00  0.11647417038E+04  0.11647417038E+04  0.00000000000E+00 0. -1.
         21   -1    0    0  501  502  0.00000000000E+00 -0.00000000000E+00 -0.19014330502E+03  0.19014330502E+03  0.00000000000E+00 0.  1.
         21    1    1    2  503  504  0.42504620003E+02 -0.31775844421E+02  0.91336237214E+02  0.10563453620E+03  0.00000000000E+00 0.  1.
         21    1    1    2  504  505 -0.66947825068E+02  0.10109232902E+03  0.71726599181E+02  0.14087716386E+03  0.00000000000E+00 0.  1.
         21    1    1    2  505  502  0.69772390926E+02 -0.48382012072E+02 -0.13556422298E+03  0.15995832013E+03  0.00000000000E+00 0.  1.
          2    1    1    2  501    0 -0.45329185861E+02 -0.20934472524E+02  0.94709978539E+03  0.94841498866E+03  0.00000000000E+00 0. -1.
<scales pt_clust_3="46.74174" pt_clust_4="14000.00000" pt_clust_5="87.88028" pt_clust_6="49.92982"></scales>
<clustering>
<clus scale="   49.930">  1  6  2 -1</clus>
<clus scale="   46.742">  1  3  2 -1</clus>
<clus scale="   87.880">  2  5  1 -1</clus>
<clus scale="   87.880">  2  3  1 -1</clus>
</clustering>
</event>
<event>
 6    0  0.4081161E+002  0.2808715E+03  0.7546771E-02  0.1095214E+00
         -2   -1    0    0    0  501 -0.00000000000E+00  0.00000000000E+00  0.63510515778E+03  0.63510515778E+03  0.00000000000E+00 0.  1.
         21   -1    0    0  505  502  0.00000000000E+00 -0.00000000000E+00 -0.13429764126E+04  0.13429764126E+04  0.00000000000E+00 0. -1.
         21    1    1    2  503  504  0.17679610226E+03  0.70250667094E+02 -0.39475835035E+03  0.43820791089E+03  0.00000000000E+00 0. -1.
         21    1    1    2  504  502 -0.24541735228E+02  0.28403345004E+02 -0.83292103213E+03  0.83376644964E+03  0.00000000000E+00 0. -1.
         21    1    1    2  505  501  0.11511221407E+03  0.11324305053E+02  0.51191177550E+01  0.11578111711E+03  0.00000000000E+00 0. -1.
         -2    1    1    2    0  503 -0.26736658110E+03 -0.10997831715E+03  0.51468900987E+03  0.59032609277E+03  0.00000000000E+00 0.  1.
<scales pt_clust_3="14000.00000" pt_clust_4="37.53727" pt_clust_5="113.36701" pt_clust_6="280.87152"></scales>
<clustering>
<clus scale="   37.537">  2  4  1 -1</clus>
<clus scale="  113.367">  2  5  1 -1</clus>
<clus scale="  280.872">  1  6  2 -1</clus>
<clus scale="   37.537">  2  3  1 -1</clus>
</clustering>
</event>
<event>
 6    0  0.4081161E+002  0.7587041E+02  0.7546771E-02  0.1341197E+00
         21   -1    0    0  504  502  0.00000000000E+00  0.00000000000E+00  0.43333323331E+03  0.43333323331E+03  0.00000000000E+00 0.  1.
          3   -1    0    0  505    0 -0.00000000000E+00 -0.00000000000E+00 -0.18521944902E+03  0.18521944902E+03  0.00000000000E+00 0. -1.
         21    1    1    2  503  502  0.67331275368E+02 -0.27910890116E+02  0.27721526538E+03  0.28663709074E+03  0.00000000000E+00 0.  1.
         21    1    1    2  504  501 -0.57976049785E+02  0.79795893020E+02  0.11201251771E+03  0.14924949251E+03  0.00000000000E+00 0.  1.
         21    1    1    2  505  503 -0.38787390351E+02 -0.70627448515E+02 -0.90282935073E+02  0.12101118336E+03  0.00000000000E+00 0. -1.
          3    1    1    2  501    0  0.29432164768E+02  0.18742445611E+02 -0.50831063737E+02  0.61654915709E+02  0.00000000000E+00 0. -1.
<scales pt_clust_3="75.87041" pt_clust_4="14000.00000" pt_clust_5="57.19103" pt_clust_6="34.89315"></scales>
<clustering>
<clus scale="   34.893">  2  6  1 -1</clus>
<clus scale="   57.191">  2  5  1 -1</clus>
<clus scale="   75.870">  1  3  2 -1</clus>
<clus scale="   75.870">  1  3  2 -1</clus>
</clustering>
</event>
<event>
 6    0  0.4081161E+002  0.1680446E+03  0.7546771E-02  0.1179902E+00
         -4   -1    0    0    0  501 -0.00000000000E+00  0.00000000000E+00  0.37674058278E+03  0.37674058278E+03  0.00000000000E+00 0.  1.
         21   -1    0    0  504  502  0.00000000000E+00 -0.00000000000E+00 -0.58831672962E+03  0.58831672962E+03  0.00000000000E+00 0.  1.
         21    1    1    2  503  501  0.31514208670E+02  0.12180331939E+02 -0.70987895757E+01  0.34523885176E+02  0.00000000000E+00 0.  1.
         21    1    1    2  504  503  0.33799029206E+02  0.29231745840E+01 -0.51400906137E+02  0.61587112910E+02  0.00000000000E+00 0.  1.
         21    1    1    2  505  502 -0.10929397406E+03 -0.15326190426E+03 -0.47768062054E+03  0.51343272130E+03  0.00000000000E+00 0.  1.
         -4    1    1    2    0  505  0.43980736187E+02  0.13815839773E+03  0.32460416941E+03  0.35551359302E+03  0.00000000000E+00 0.  1.
<scales pt_clust_3="33.78618" pt_clust_4="34.38066" pt_clust_5="168.04463" pt_clust_6="14000.00000"></scales>
<clustering>
<clus scale="   33.786">  1  3  2 -1</clus>
<clus scale="   34.381">  2  4  1 -1</clus>
<clus scale="  168.045">  2  5  1 -1</clus>
<clus scale="   34.381">  2  3  1 -1</clus>
</clustering>
</event>
<event>
 6    0  0.4081161E+002  0.1835899E+03  0.7546771E-02  0.1164373E+00
         21   -1    0    0  504  502  0.00000000000E+00  0.00000000000E+00  0.87891215582E+03  0.87891215582E+03  0.00000000000E+00 0.  1.
         -2   -1    0    0    0  501 -0.00000000000E+00 -0.00000000000E+00 -0.31985090788E+03  0.31985090788E+03  0.00000000000E+00 0.  1.
         21    1    1    2  503  502 -0.16310960244E+02  0.16566182304E+03  0.75331694801E+03  0.77148967018E+03  0.00000000000E+00 0.  1.
         21    1    1    2  504  505  0.28956177509E+02  0.17359308531E+02  0.65617292779E+02  0.73793190202E+02  0.00000000000E+00 0.  1.
         21    1    1    2  505  501 -0.21330670564E+02  0.24147084977E+02 -0.32690205904E+02  0.45899115260E+02  0.00000000000E+00 0.  1.
         -2    1    1    2    0  503  0.86854532991E+01 -0.20716821655E+03 -0.22718278694E+03  0.30758108806E+03  0.00000000000E+00 0.  1.
<scales pt_clust_3="183.58992" pt_clust_4="33.67851" pt_clust_5="32.21924" pt_clust_6="14000.00000"></scales>
<clustering>
<clus scale="   32.219">  2  5  1 -1</clus>
<clus scale="   33.679">  1  4  2 -1</clus>
<clus scale="  183.590">  1  3  2 -1</clus>
<clus scale="   33.679">  1  3  2 -1</clus>
</clustering>
</event>
<event>
 6    0  0.4081161E+002  0.7949867E+02  0.7546771E-02  0.1330480E+00
          2   -1    0    0  503    0 -0.00000000000E+00  0.00000000000E+00  0.12922594280E+04  0.12922594280E+04  0.00000000000E+00 0. -1.
         21   -1    0    0  505  502  0.00000000000E+00 -0.00000000000E+00 -0.11993521357E+03  0.11993521357E+03  0.00000000000E+00 0. -1.
         21    1    1    2  503  504  0.27267713199E+02 -0.67116632428E+02  0.25069752161E+03  0.26095481960E+03  0.00000000000E+00 0.  1.
         21    1    1    2  504  502  0.70637222887E+02 -0.44555625458E+02  0.81928991825E+02  0.11699222503E+03  0.00000000000E+00 0.  1.
         21    1    1    2  505  501 -0.80591308715E+02  0.13905340352E+01 -0.76587683175E+02  0.11118707587E+03  0.00000000000E+00 0. -1.
          2    1    1    2  501    0 -0.17313627371E+02  0.11028172385E+03  0.91628538412E+03  0.92306052102E+03  0.00000000000E+00 0. -1.
<scales pt_clust_3="72.44426" pt_clust_4="79.49867" pt_clust_5="14000.00000" pt_clust_6="51.19091"></scales>
<clustering>
<clus scale="   72.444">  1  3  2 -1</clus>
<clus scale="   51.191">  1  6  2 -1</clus>
<clus scale="   79.499">  1  4  2 -1</clus>
<clus scale="   79.499">  2  3  1 -1</clus>
</clustering>
</event>
<event>
 6    0  0.4081161E+002  0.1273706E+03  0.7546771E-02  0.1231410E+00
         21   -1    0    0  505  502  0.00000000000E+00  0.00000000000E+00  0.26521716178E+03  0.26521716178E+03  0.00000000000E+00 0.  1.
         -1   -1    0    0    0  501 -0.00000000000E+00 -0.00000000000E+00 -0.14608942235E+04  0.14608942235E+04  0.00000000000E+00 0.  1.
         21    1    1    2  503  502 -0.24528273311E+02 -0.33161241742E+02  0.19805111446E+03  0.20230063787E+03  0.00000000000E+00 0.  1.
         21    1    1    2  504  503  0.42964950056E+02 -0.21131473571E+02 -0.36320302711E+03  0.36634541762E+03  0.00000000000E+00 0. -1.
         21    1    1    2  505  501 -0.92867755495E+02  0.61168519503E+02  0.12375810267E+02  0.11188909003E+03  0.00000000000E+00 0. -1.
         -1    1    1    2    0  504  0.74431078749E+02 -0.68758041893E+01 -0.10429009593E+04  0.10455762398E+04  0.00000000000E+00 0.  1.
<scales pt_clust_3="41.24687" pt_clust_4="34.22000" pt_clust_5="119.97979" pt_clust_6="34.22000"></scales>
<clustering>
<clus scale="   34.220">  4  6 -1 -1</clus>
<clus scale="   41.247">  1  3  2 -1</clus>
<clus scale="  119.980">  1  5  2 -1</clus>
<clus scale="   41.247">  1  3  2 -1</clus>
</clustering>
</event>
<event>
 6    0  0.4081161E+002  0.1885103E+03  0.7546771E-02  0.1159812E+00
         21   -1    0    0  505  502  0.00000000000E+00  0.00000000000E+00  0.55251048104E+02  0.55251048104E+02  0.00000000000E+00 0. -1.
         -2   -1    0    0    0  501 -0.00000000000E+00 -0.00000000000E+00 -0.17357543273E+04  0.17357543273E+04  0.00000000000E+00 0. -1.
         21    1    1    2  503  502  0.97745996381E+02  0.10521271236E+03 -0.24485565497E+03  0.28386314735E+03  0.00000000000E+00 0. -1.
         21    1    1    2  504  501 -0.15799518162E+03 -0.85899625312E+02 -0.12720343806E+04  0.12846838866E+04  0.00000000000E+00 0. -1.
         21    1    1    2  505  504  0.20160228482E+02 -0.50377567546E+02 -0.33535781847E+01  0.54365251871E+02  0.00000000000E+00 0. -1.
         -2    1    1    2    0  503  0.40088956753E+02  0.31064480496E+02 -0.16025966547E+03  0.16809308963E+03  0.00000000000E+00 0. -1.
<scales pt_clust_3="30.16190" pt_clust_4="181.54910" pt_clust_5="54.26172" pt_clust_6="30.16190"></scales>
<clustering>
<clus scale="   30.162">  3  6 -1 -1</clus>
<clus scale="   54.262">  1  5  2 -1</clus>
<clus scale="  181.549">  2  4  1 -1</clus>
<clus scale="   54.262">  1  3  2 -1</clus>
</clustering>
</event>
<event>
 6    0  0.4081161E+002  0.9366850E+02  0.7546771E-02  0.1294203E+00
          1   -1    0    0  504    0 -0.00000000000E+00  0.00000000000E+00  0.29157747863E+04  0.29157747863E+04  0.00000000000E+00 0. -1.
         21   -1    0    0  501  502  0.00000000000E+00 -0.00000000000E+00 -0.63365754383E+02  0.63365754383E+02  0.00000000000E+00 0. -1.
         21    1    1    2  503  505 -0.56058186139E+02  0.14631370844E+03  0.99246914578E+02  0.18547283242E+03  0.00000000000E+00 0. -1.
         21    1    1    2  504  503  0.32029606766E+02 -0.54238166183E+02  0.77703080769E+03  0.77957972683E+03  0.00000000000E+00 0. -1.
         21    1    1    2  505  502 -0.46638719492E+01 -0.70490414434E+02  0.47514139498E+02  0.85136617744E+02  0.00000000000E+00 0. -1.
          1    1    1    2  501    0  0.28692451322E+02 -0.21585127824E+02  0.19286171701E+04  0.19289513637E+04  0.00000000000E+00 0. -1.
<scales pt_clust_3="93.66850" pt_clust_4="14000.00000" pt_clust_5="71.99293" pt_clust_6="35.90508"></scales>
<clustering>
<clus scale="   35.905">  1  6  2 -1</clus>
<clus scale="   71.993">  2  5  1 -1</clus>
<clus scale="   93.668">  2  3  1 -1</clus>
<clus scale="   71.993">  2  3  1 -1</clus>
</clustering>
</event>
<event>
 6    0  0.4081161E+002  0.9937841E+02  0.7546771E-02  0.1281609E+00
         21   -1    0    0  505  502  0.00000000000E+00  0.00000000000E+00  0.38646390706E+03  0.38646390706E+03  0.00000000000E+00 0.  1.
          2   -1    0    0  503    0 -0.00000000000E+00 -0.00000000000E+00 -0.80189162738E+03  0.80189162738E+03  0.00000000000E+00 0. -1.
         21    1    1    2  503  502  0.27903438496E+02 -0.43903194056E+02 -0.67379866898E+02  0.85124255013E+02  0.00000000000E+00 0.  1.
         21    1    1    2  504  501 -0.46663168227E+02  0.17649975646E+03  0.21138342836E+02  0.18378369035E+03  0.00000000000E+00 0.  1.
         21    1    1    2  505  504  0.38516761653E+02 -0.83267856516E+02  0.26634267685E+03  0.28170107981E+03  0.00000000000E+00 0.  1.
          2    1    1    2  501    0 -0.19757031923E+02 -0.49328705886E+02 -0.63552887311E+03  0.63774650927E+03  0.00000000000E+00 0. -1.
<scales pt_clust_3="52.02011" pt_clust_4="99.37841" pt_clust_5="14000.00000" pt_clust_6="87.97396"></scales>
<clustering>
<clus scale="   52.020">  2  3  1 -1</clus>
<clus scale="   87.974">  2  6  1 -1</clus>
<clus scale="   99.378">  2  4  1 -1</clus>
<clus scale="   99.378">  1  3  2 -1</clus>
</clustering>
</event>
<event>
 6    0  0.4081161E+002  0.7430072E+02  0.7546771E-02  0.1346050E+00
          1   -1    0    0  505    0 -0.00000000000E+00  0.00000000000E+00  0.12371742355E+04  0.12371742355E+04  0.00000000000E+00 0. -1.
         21   -1    0    0  503  502  0.00000000000E+00 -0.00000000000E+00 -0.43743640914E+02  0.43743640914E+02  0.00000000000E+00 0.  1.
         21    1    1    2  503  501 -0.84061880232E+02 -0.22658148450E+00  0.45161121412E+02  0.95425247888E+02  0.00000000000E+00 0.  1.
         21    1    1    2  504  502  0.52348419776E+02  0.55224496495E+02  0.75435340159E+02  0.10714752732E+03  0.00000000000E+00 0.  1.
         21    1    1    2  505  504 -0.24271480182E+02 -0.37129016233E+02  0.29772882174E+03  0.30101514894E+03  0.00000000000E+00 0.  1.
          1    1    1    2  501    0  0.55984940638E+02 -0.17868898777E+02  0.77510531131E+03  0.77732995230E+03  0.00000000000E+00 0. -1.
<scales pt_clust_3="14000.00000" pt_clust_4="74.30072" pt_clust_5="44.35841" pt_clust_6="60.41934"></scales>
<clustering>
<clus scale="   44.358">  1  5  2 -1</clus>
<clus scale="   60.419">  1  6  2 -1</clus>
<clus scale="   74.301">  1  4  2 -1</clus>
<clus scale="   74.301">  2  3  1 -1</clus>
</clustering>
</event>
<event>
 6    0  0.4081161E+002  0.2796267E+03  0.7546771E-02  0.1095893E+00
         21   -1    0    0  503  502  0.00000000000E+00  0.00000000000E+00  0.65239228296E+03  0.65239228296E+03  0.00000000000E+00 0.  1.
          1   -1    0    0  504    0 -0.00000000000E+00 -0.00000000000E+00 -0.46536919668E+03  0.46536919668E+03  0.00000000000E+00 0.  1.
         21    1    1    2  503  501  0.15595932509E+03 -0.16258357240E+02 -0.75547949301E+02  0.17405498530E+03  0.00000000000E+00 0.  1.
         21    1    1    2  504  505 -0.13812829463E+03  0.74144438432E+02  0.28068387029E+03  0.32149690289E+03  0.00000000000E+00 0.  1.
         21    1    1    2  505  502 -0.14601204468E+03 -0.41801322592E+02  0.26813460513E+03  0.30816072792E+03  0.00000000000E+00 0.  1.
          1    1    1    2  501    0  0.12818101422E+03 -0.16084758599E+02 -0.28624743984E+03  0.31404886353E+03  0.00000000000E+00 0.  1.
<scales pt_clust_3="254.37349" pt_clust_4="114.29954" pt_clust_5="114.29954" pt_clust_6="129.18627"></scales>
<clustering>
<clus scale="  114.300">  4  5 -1 -1</clus>
<clus scale="  129.186">  2  6  1 -1</clus>
<clus scale="  254.373">  2  3  1 -1</clus>
<clus scale="  279.627">  1  3  2 -1</clus>
</clustering>
</event>
<event>
 6    0  0.4081161E+002  0.8286799E+02  0.7546771E-02  0.1321104E+00
          2   -1    0    0  504    0 -0.00000000000E+00  0.00000000000E+00  0.10935719327E+04  0.10935719327E+04  0.00000000000E+00 0.  1.
         21   -1    0    0  505  502  0.00000000000E+00 -0.00000000000E+00 -0.13968995308E+03  0.13968995308E+03  0.00000000000E+00 0.  1.
         21    1    1    2  503  501  0.46976297301E+02  0.86448335912E+02  0.24277136663E+02  0.10133837701E+03  0.00000000000E+00 0.  1.
         21    1    1    2  504  502  0.42466963910E+02 -0.47810889663E+02  0.25111558049E+03  0.25913000398E+03  0.00000000000E+00 0.  1.
         21    1    1    2  505  503 -0.90567061077E+02 -0.18048013448E+01 -0.75488418997E+02  0.11791586519E+03  0.00000000000E+00 0.  1.
          2    1    1    2  501    0  0.11237998671E+01 -0.36832644904E+02  0.75397768144E+03  0.75487763960E+03  0.00000000000E+00 0.  1.
<scales pt_clust_3="82.86799" pt_clust_4="87.05739" pt_clust_5="14000.00000" pt_clust_6="36.84979"></scales>
<clustering>
<clus scale="   36.850">  1  6  2 -1</clus>
<clus scale="   87.057">  1  4  2 -1</clus>
<clus scale="   82.868">  1  3  2 -1</clus>
<clus scale="   82.868">  2  3  1 -1</clus>
</clustering>
</event>
<event>
 6    0  0.4081161E+002  0.1459156E+03  0.7546771E-02  0.1205584E+00
         21   -1    0    0  503  502  0.00000000000E+00  0.00000000000E+00  0.90536648862E+02  0.90536648862E+02  0.00000000000E+00 0. -1.
          1   -1    0    0  504    0 -0.00000000000E+00 -0.00000000000E+00 -0.11977658982E+04  0.11977658982E+04  0.00000000000E+00 0.  1.
         21    1    1    2  503  505 -0.17935066935E+02  0.41216790863E+02  0.17631916859E+02  0.48284313883E+02  0.00000000000E+00 0. -1.
         21    1    1    2  504  502 -0.78927570705E+02 -0.14276802474E+03 -0.73744172424E+02  0.17902645970E+03  0.00000000000E+00 0. -1.
         21    1    1    2  505  501  0.40067012236E+02  0.51675502212E+02 -0.60418476081E+03  0.60771288302E+03  0.00000000000E+00 0.  1.
          1    1    1    2  501    0  0.56795625404E+02  0.49875731663E+02 -0.44693223300E+03  0.45327889050E+03  0.00000000000E+00 0.  1.
<scales pt_clust_3="44.94987" pt_clust_4="141.87946" pt_clust_5="31.69973" pt_clust_6="31.69973"></scales>
<clustering>
<clus scale="   31.700">  5  6 -1 -1</clus>
<clus scale="   44.950">  1  3  2 -1</clus>
<clus scale="  141.879">  1  4  2 -1</clus>
<clus scale="   44.950">  1  3  2 -1</clus>
</clustering>
</event>
<event>
 6    0  0.4081161E+002  0.1918555E+03  0.7546771E-02  0.1156798E+00
         21   -1    0    0  504  502  0.00000000000E+00  0.00000000000E+00  0.91573037469E+03  0.91573037469E+03  0.00000000000E+00 0.  1.
          4   -1    0    0  503    0 -0.00000000000E+00 -0.00000000000E+00 -0.40887968592E+03  0.40887968592E+03  0.00000000000E+00 0.  1.
         21    1    1    2  503  505 -0.18986791152E+01 -0.18137135701E+03 -0.14587347135E+03  0.23276220434E+03  0.00000000000E+00 0.  1.
         21    1    1    2  504  501  0.36049157127E+02  0.92668856631E+01  0.52750481487E+03  0.52881636379E+03  0.00000000000E+00 0.  1.
         21    1    1    2  505  502 -0.31404172842E+01 -0.30314607961E+02  0.29527721301E+03  0.29684586943E+03  0.00000000000E+00 0.  1.
          4    1    1    2  501    0 -0.31010060727E+02  0.20241907930E+03 -0.17005786775E+03  0.26618562305E+03  0.00000000000E+00 0.  1.
<scales pt_clust_3="14000.00000" pt_clust_4="37.26022" pt_clust_5="30.47684" pt_clust_6="191.85552"></scales>
<clustering>
<clus scale="   30.477">  1  5  2 -1</clus>
<clus scale="   37.260">  1  4  2 -1</clus>
<clus scale="  191.856">  1  6  2 -1</clus>
<clus scale="   30.477">  1  3  2 -1</clus>
</clustering>
</event>
<event>
 6    0  0.4081161E+002  0.1088971E+03  0.7546771E-02  0.1262626E+00
         21   -1    0    0  505  502  0.00000000000E+00  0.00000000000E+00  0.82040645379E+03  0.82040645379E+03  0.00000000000E+00 0.  1.
          1   -1    0    0  503    0 -0.00000000000E+00 -0.00000000000E+00 -0.42676001484E+03  0.42676001484E+03  0.00000000000E+00 0.  1.
         21    1    1    2  503  504 -0.35603294809E+01  0.34958366510E+02 -0.55572158744E+02  0.65749738878E+02  0.00000000000E+00 0. -1.
         21    1    1    2  504  502  0.24999180296E+02  0.24395876026E+02  0.55051444255E+02  0.65198000714E+02  0.00000000000E+00 0. -1.
         21    1    1    2  505  501  0.76839577073E+02  0.15334423852E+02  0.74251975044E+03  0.74664251483E+03  0.00000000000E+00 0.  1.
          1    1    1    2  501    0 -0.98278427888E+02 -0.74688666388E+02 -0.34835259699E+03  0.36957621421E+03  0.00000000000E+00 0.  1.
<scales pt_clust_3="35.28517" pt_clust_4="34.93018" pt_clust_5="108.89714" pt_clust_6="14000.00000"></scales>
<clustering>
<clus scale="   34.930">  1  4  2 -1</clus>
<clus scale="   35.285">  2  3  1 -1</clus>
<clus scale="  108.897">  1  5  2 -1</clus>
<clus scale="   34.930">  1  3  2 -1</clus>
</clustering>
</event>
<event>
 6    0  0.4081161E+002  0.5616113E+02  0.7546771E-02  0.1414686E+00
          2   -1    0    0  503    0 -0.00000000000E+00  0.00000000000E+00  0.58062979858E+02  0.58062979858E+02  0.00000000000E+00 0. -1.
         21   -1    0    0  501  502  0.00000000000E+00 -0.00000000000E+00 -0.62100064657E+03  0.62100064657E+03  0.00000000000E+00 0. -1.
         21    1    1    2  503  504 -0.47602376253E+02 -0.96158909027E+01 -0.30654299221E+02  0.57429414445E+02  0.00000000000E+00 0.  1.
         21    1    1    2  504  505 -0.37822331345E+02 -0.74300908147E+02 -0.38063323669E+03  0.38965730401E+03  0.00000000000E+00 0. -1.
         21    1    1    2  505  502  0.80795843618E+01  0.40656913974E+02 -0.13575390818E+03  0.14194149472E+03  0.00000000000E+00 0. -1.
          2    1    1    2  501    0  0.77345123236E+02  0.43259885075E+02 -0.15896222623E+02  0.90035413249E+02  0.00000000000E+00 0. -1.
<scales pt_clust_3="47.23455" pt_clust_4="14000.00000" pt_clust_5="41.45195" pt_clust_6="56.16113"></scales>
<clustering>
<clus scale="   41.452">  2  5  1 -1</clus>
<clus scale="   47.235">  1  3  2 -1</clus>
<clus scale="   56.161">  1  6  2 -1</clus>
<clus scale="   41.452">  2  3  1 -1</clus>
</clustering>
</event>
<event>
 6    0  0.4081161E+002  0.2435451E+03  0.7546771E-02  0.1117453E+00
         21   -1    0    0  501  502  0.00000000000E+00  0.00000000000E+00  0.13348693245E+04  0.13348693245E+04  0.00000000000E+00 0.  1.
         -4   -1    0    0    0  501 -0.00000000000E+00 -0.00000000000E+00 -0.61299659768E+02  0.61299659768E+02  0.00000000000E+00 0. -1.
         21    1    1    2  503  505  0.54140070625E+02 -0.57372188816E+01  0.90466609712E+02  0.10558537020E+03  0.00000000000E+00 0. -1.
         21    1    1    2  504  502 -0.39117617407E+02  0.42620437199E+02  0.15580698264E+03  0.16620019704E+03  0.00000000000E+00 0.  1.
         21    1    1    2  505  504 -0.15553427642E+03  0.83795410556E+02  0.84936398832E+03  0.86754352434E+03  0.00000000000E+00 0.  1.
         -4    1    1    2    0  503  0.14051182320E+03 -0.12067862887E+03  0.17793208401E+03  0.25683989263E+03  0.00000000000E+00 0. -1.
<scales pt_clust_3="40.00193" pt_clust_4="37.90172" pt_clust_5="241.36570" pt_clust_6="40.00193"></scales>
<clustering>
<clus scale="   37.902">  4  5 -1 -1</clus>
<clus scale="   40.002">  3  6 -1 -1</clus>
<clus scale="  241.366">  1  4  2 -1</clus>
<clus scale="  241.366">  1  3  2 -1</clus>
</clustering>
</event>
<event>
 6    0  0.4081161E+002  0.1175697E+03  0.7546771E-02  0.1247161E+00
         21   -1    0    0  505  502  0.00000000000E+00  0.00000000000E+00  0.73810641293E+02  0.73810641293E+02  0.00000000000E+00 0.  1.
          2   -1    0    0  504    0 -0.00000000000E+00 -0.00000000000E+00 -0.34482519235E+04  0.34482519235E+04  0.00000000000E+00 0. -1.
         21    1    1    2  503  502 -0.30330863380E+02 -0.13713054956E+02  0.15300114678E+01  0.33321915982E+02  0.00000000000E+00 0.  1.
         21    1    1    2  504  503  0.53217512459E+00  0.48454200699E+02 -0.37235757051E+03  0.37549734099E+03  0.00000000000E+00 0.  1.
         21    1    1    2  505  501  0.21198661960E+02 -0.10538581193E+03  0.12825659684E+01  0.10750440736E+03  0.00000000000E+00 0.  1.
          2    1    1    2  501    0  0.86000262951E+01  0.70644666190E+02 -0.30048962892E+04  0.30057389005E+04  0.00000000000E+00 0. -1.
<scales pt_clust_3="33.28677" pt_clust_4="48.07341" pt_clust_5="117.56973" pt_clust_6="14000.00000"></scales>
<clustering>
<clus scale="   33.287">  1  3  2 -1</clus>
<clus scale="   48.073">  2  4  1 -1</clus>
<clus scale="  117.570">  1  5  2 -1</clus>
<clus scale="   33.287">  1  3  2 -1</clus>
</clustering>
</event>
<event>
 6    0  0.4081161E+002  0.1302488E+03  0.7546771E-02  0.1227087E+00
         21   -1    0    0  503  502  0.00000000000E+00  0.00000000000E+00  0.24039835726E+02  0.24039835726E+02  0.00000000000E+00 0.  1.
         -3   -1    0    0    0  501 -0.00000000000E+00 -0.00000000000E+00 -0.38128596620E+04  0.38128596620E+04  0.00000000000E+00 0.  1.
         21    1    1    2  503  504  0.77732952265E+02  0.11361201888E+03 -0.76705344788E+03  0.77930808709E+03  0.00000000000E+00 0.  1.
         21    1    1    2  504  501 -0.26790198758E+02  0.28278925448E+02 -0.21530750725E+04  0.21534274262E+04  0.00000000000E+00 0.  1.
         21    1    1    2  505  502 -0.15285960388E+02 -0.13082662607E+03 -0.23517677966E+03  0.26955033735E+03  0.00000000000E+00 0.  1.
         -3    1    1    2    0  505 -0.35656793119E+02 -0.11064318262E+02 -0.63351452623E+03  0.63461364702E+03  0.00000000000E+00 0.  1.
<scales pt_clust_3="130.24878" pt_clust_4="55.02009" pt_clust_5="14000.00000" pt_clust_6="37.33398"></scales>
<clustering>
<clus scale="   37.334">  2  6  1 -1</clus>
<clus scale="   55.020">  2  4  1 -1</clus>
<clus scale="  130.249">  2  3  1 -1</clus>
<clus scale="  130.249">  1  3  2 -1</clus>
</clustering>
</event>
<event>
 6    0  0.4081161E+002  0.9316930E+02  0.7546771E-02  0.1295353E+00
         21   -1    0    0  504  502  0.00000000000E+00  0.00000000000E+00  0.18971469144E+03  0.18971469144E+03  0.00000000000E+00 0. -1.
          2   -1    0    0  505    0 -0.00000000000E+00 -0.00000000000E+00 -0.10237393822E+04  0.10237393822E+04  0.00000000000E+00 0.  1.
         21    1    1    2  503  501 -0.15617879835E+02  0.10493930931E+03 -0.16221009688E+03  0.19382541717E+03  0.00000000000E+00 0. -1.
         21    1    1    2  504  503  0.63778662601E+02 -0.68360110764E+02  0.15725798738E+03  0.18295053195E+03  0.00000000000E+00 0. -1.
         21    1    1    2  505  502  0.10476450777E+02 -0.50263552983E+02 -0.43762390218E+03  0.44062553324E+03  0.00000000000E+00 0. -1.
          2    1    1    2  501    0 -0.58637233543E+02  0.13684354432E+02 -0.39144867910E+03  0.39605259131E+03  0.00000000000E+00 0.  1.
<scales pt_clust_3="14000.00000" pt_clust_4="93.16930" pt_clust_5="51.34375" pt_clust_6="55.38420"></scales>
<clustering>
<clus scale="   51.344">  2  5  1 -1</clus>
<clus scale="   55.384">  2  6  1 -1</clus>
<clus scale="   93.169">  1  4  2 -1</clus>
<clus scale="   93.169">  1  3  2 -1</clus>
</clustering>
</event>
<event>
 6    0  0.4081161E+002  0.1558656E+03  0.7546771E-02  0.1193445E+00
          2   -1    0    0  504    0 -0.00000000000E+00  0.00000000000E+00  0.19655419311E+04  0.19655419311E+04  0.00000000000E+00 0.  1.
         21   -1    0    0  505  502  0.00000000000E+00 -0.00000000000E+00 -0.17168240450E+03  0.17168240450E+03  0.00000000000E+00 0.  1.
         21    1    1    2  503  501  0.62995367501E+02 -0.41012627133E+02  0.50656656090E+03  0.51211339812E+03  0.00000000000E+00 0.  1.
         21    1    1    2  504  502 -0.21226219595E+03  0.98437547790E+02  0.36535993924E+03  0.43385835919E+03  0.00000000000E+00 0.  1.
         21    1    1    2  505  503  0.14668100176E+03 -0.23831600828E+02 -0.93296796900E+02  0.17546382472E+03  0.00000000000E+00 0.  1.
          2    1    1    2  501    0  0.25858266875E+01 -0.33593319829E+02  0.10152298234E+04  0.10157887536E+04  0.00000000000E+00 0.  1.
<scales pt_clust_3="87.34252" pt_clust_4="155.86556" pt_clust_5="14000.00000" pt_clust_6="33.69269"></scales>
<clustering>
<clus scale="   33.693">  1  6  2 -1</clus>
<clus scale="   87.343">  1  3  2 -1</clus>
<clus scale="  155.866">  1  4  2 -1</clus>
<clus scale="  155.866">  2  3  1 -1</clus>
</clustering>
</event>
<event>
 6    0  0.4081161E+002  0.1055245E+03  0.7546771E-02  0.1269090E+00
          4   -1    0    0  505    0 -0.00000000000E+00  0.00000000000E+00  0.23434074159E+04  0.23434074159E+04  0.00000000000E+00 0.  1.
         21   -1    0    0  501  502  0.00000000000E+00 -0.00000000000E+00 -0.22950336101E+02  0.22950336101E+02  0.00000000000E+00 0.  1.
         21    1    1    2  503  502  0.54411396555E+01  0.37701207309E+02  0.16393609278E+02  0.41469717367E+02  0.00000000000E+00 0.  1.
         21    1    1    2  504  503 -0.97939597488E+02 -0.90096524729E+02  0.58897653974E+03  0.60382357762E+03  0.00000000000E+00 0.  1.
         21    1    1    2  505  504  0.40534138835E+01  0.46593293661E+02  0.35119362147E+03  0.35429412208E+03  0.00000000000E+00 0.  1.
          4    1    1    2  501    0  0.88445043949E+02  0.58020237593E+01  0.13638933094E+04  0.13667703350E+04  0.00000000000E+00 0.  1.
<scales pt_clust_3="38.09182" pt_clust_4="105.52455" pt_clust_5="52.43255" pt_clust_6="14000.00000"></scales>
<clustering>
<clus scale="   38.092">  2  3  1 -1</clus>
<clus scale="   52.433">  1  5  2 -1</clus>
<clus scale="  105.525">  2  4  1 -1</clus>
<clus scale="   38.092">  2  3  1 -1</clus>
</clustering>
</event>
<event>
 6    0  0.4081161E+002  0.2225475E+03  0.7546771E-02  0.1131998E+00
         21   -1    0    0  503  502  0.00000000000E+00  0.00000000000E+00  0.17118491115E+04  0.17118491115E+04  0.00000000000E+00 0.  1.
         -1   -1    0    0    0  501 -0.00000000000E+00 -0.00000000000E+00 -0.67060416263E+03  0.67060416263E+03  0.00000000000E+00 0. -1.
         21    1    1    2  503  504  0.16025164443E+03 -0.17813854472E+01  0.15765383018E+04  0.15846629862E+04  0.00000000000E+00 0.  1.
         21    1    1    2  504  501 -0.25254486957E+02 -0.23745198651E+02 -0.80228079378E+02  0.87396614872E+02  0.00000000000E+00 0.  1.
         21    1    1    2  505  502  0.41616231060E+02 -0.96386206846E+02  0.81237554245E+02  0.13274694640E+03  0.00000000000E+00 0.  1.
         -1    1    1    2    0  505 -0.17661338854E+03  0.12191279094E+03 -0.53630282783E+03  0.57764672659E+03  0.00000000000E+00 0. -1.
<scales pt_clust_3="14000.00000" pt_clust_4="34.66444" pt_clust_5="105.51386" pt_clust_6="222.54752"></scales>
<clustering>
<clus scale="   34.664">  2  4  1 -1</clus>
<clus scale="  105.514">  1  5  2 -1</clus>
<clus scale="  222.548">  2  6  1 -1</clus>
<clus scale="  105.514">  1  3  2 -1</clus>
</clustering>
</event>
<event>
 6    0  0.4775635E+002  0.6198807E+02  0.7546771E-02  0.1389673E+00
         -1   -1    0    0    0  501 -0.00000000000E+00  0.00000000000E+00  0.55038456860E+03  0.55038456860E+03  0.00000000000E+00 0. -1.
         21   -1    0    0  504  502  0.00000000000E+00 -0.00000000000E+00 -0.16563437493E+04  0.16563437493E+04  0.00000000000E+00 0.  1.
         21    1    1    2  503  505  0.36326759958E+02  0.54837144217E+02 -0.62252999338E+02  0.90565897564E+02  0.00000000000E+00 0. -1.
         21    1    1    2  504  501  0.43113859231E+02  0.26960359949E+02  0.30216512835E+02  0.59149839512E+02  0.00000000000E+00 0.  1.
         21    1    1    2  505  502  0.28252080834E+02 -0.52965304061E+02 -0.15585609923E+04  0.15597165993E+04  0.00000000000E+00 0.  1.
         -1    1    1    2    0  503 -0.10769270002E+03 -0.28832200105E+02  0.48463829801E+03  0.49729598159E+03  0.00000000000E+00 0. -1.
<scales pt_clust_3="61.98807" pt_clust_4="50.84944" pt_clust_5="60.02522" pt_clust_6="14000.00000"></scales>
<clustering>
<clus scale="   50.849">  1  4  2 -1</clus>
<clus scale="   60.025">  2  5  1 -1</clus>
<clus scale="   61.988">  2  3  1 -1</clus>
<clus scale="   60.025">  2  3  1 -1</clus>
</clustering>
</event>
<event>
 6    0  0.4081161E+002  0.1108004E+03  0.7546771E-02  0.1259095E+00
         21   -1    0    0  503  502  0.00000000000E+00  0.00000000000E+00  0.14587722722E+03  0.14587722722E+03  0.00000000000E+00 0. -1.
          2   -1    0    0  504    0 -0.00000000000E+00 -0.00000000000E+00 -0.35810151265E+04  0.35810151265E+04  0.00000000000E+00 0.  1.
         21    1    1    2  503  501  0.15432212851E+03 -0.11476681305E+03  0.63887967306E+02  0.20265343099E+03  0.00000000000E+00 0. -1.
         21    1    1    2  504  505 -0.33859272576E+02  0.43982639243E+01 -0.29096922537E+03  0.29296567235E+03  0.00000000000E+00 0.  1.
         21    1    1    2  505  502 -0.60706789948E+02  0.53973692475E+02 -0.13811169643E+03  0.16022894406E+03  0.00000000000E+00 0.  1.
          2    1    1    2  501    0 -0.59756065986E+02  0.56394856649E+02 -0.30699449448E+04  0.30710443063E+04  0.00000000000E+00 0.  1.
<scales pt_clust_3="14000.00000" pt_clust_4="34.14374" pt_clust_5="82.51577" pt_clust_6="110.80042"></scales>
<clustering>
<clus scale="   34.144">  2  4  1 -1</clus>
<clus scale="   82.516">  1  5  2 -1</clus>
<clus scale="  110.800">  2  6  1 -1</clus>
<clus scale="   82.516">  1  3  2 -1</clus>
</clustering>
</event>
<event>
 6    0  0.4081161E+002  0.1005503E+03  0.7546771E-02  0.1279143E+00
         21   -1    0    0  505  502  0.00000000000E+00  0.00000000000E+00  0.12410087150E+03  0.12410087150E+03  0.00000000000E+00 0.  1.
          1   -1    0    0  502    0 -0.00000000000E+00 -0.00000000000E+00 -0.47076256452E+03  0.47076256452E+03  0.00000000000E+00 0. -1.
         21    1    1    2  503  504  0.68412227540E+02  0.47961052241E+02  0.29997252992E+02  0.88771226172E+02  0.00000000000E+00 0.  1.
         21    1    1    2  504  501 -0.20452360961E+02 -0.87483795120E+02 -0.35485975843E+03  0.36605622741E+03  0.00000000000E+00 0. -1.
         21    1    1    2  505  503 -0.12902926560E+02  0.45045088740E+02  0.44637109257E+02  0.64714890530E+02  0.00000000000E+00 0.  1.
          1    1    1    2  501    0 -0.35056940019E+02 -0.55223458616E+01 -0.66436296842E+02  0.75321091903E+02  0.00000000000E+00 0. -1.
<scales pt_clust_3="100.55034" pt_clust_4="14000.00000" pt_clust_5="46.97405" pt_clust_6="35.48923"></scales>
<clustering>
<clus scale="   35.489">  2  6  1 -1</clus>
<clus scale="   46.974">  1  5  2 -1</clus>
<clus scale="  100.550">  1  3  2 -1</clus>
<clus scale="   46.974">  1  3  2 -1</clus>
</clustering>
</event>
<event>
 6    0  0.4081161E+002  0.7587935E+02  0.7546771E-02  0.1341169E+00
          2   -1    0    0  505    0 -0.00000000000E+00  0.00000000000E+00  0.11551407762E+03  0.11551407762E+03  0.00000000000E+00 0.  1.
         21   -1    0    0  501  502  0.00000000000E+00 -0.00000000000E+00 -0.14066425152E+04  0.14066425152E+04  0.00000000000E+00 0.  1.
         21    1    1    2  503  504 -0.40736687575E+02 -0.16325053897E+02 -0.16376882590E+03  0.16954708324E+03  0.00000000000E+00 0.  1.
         21    1    1    2  504  502 -0.60009675556E+01  0.35060642049E+02 -0.11249090258E+04  0.11254712686E+04  0.00000000000E+00 0.  1.
         21    1    1    2  505  503  0.11171467865E+03 -0.42081551155E+02 -0.63287089964E+02  0.13511581006E+03  0.00000000000E+00 0.  1.
          2    1    1    2  501    0 -0.64977023518E+02  0.23345963003E+02  0.60836504018E+02  0.92022430934E+02  0.00000000000E+00 0.  1.
<scales pt_clust_3="44.51163" pt_clust_4="35.57050" pt_clust_5="14000.00000" pt_clust_6="75.87935"></scales>
<clustering>
<clus scale="   35.570">  2  4  1 -1</clus>
<clus scale="   44.512">  2  3  1 -1</clus>
<clus scale="   75.879">  1  6  2 -1</clus>
<clus scale="   35.570">  2  3  1 -1</clus>
</clustering>
</event>
<event>
 6    0  0.4081161E+002  0.9922500E+02  0.7546771E-02  0.1281934E+00
         21   -1    0    0  505  502  0.00000000000E+00  0.00000000000E+00  0.59777426500E+02  0.59777426500E+02  0.00000000000E+00 0. -1.
          1   -1    0    0  503    0 -0.00000000000E+00 -0.00000000000E+00 -0.90541769273E+03  0.90541769273E+03  0.00000000000E+00 0. -1.
         21    1    1    2  503  504  0.60904734085E+01  0.30688306714E+02 -0.13136321541E+03  0.13503762586E+03  0.00000000000E+00 0. -1.
         21    1    1    2  504  502 -0.24312032254E+02 -0.10225339686E+03 -0.82978576554E+02  0.13391144928E+03  0.00000000000E+00 0. -1.
         21    1    1    2  505  501 -0.37815078687E+02  0.95855296334E+02 -0.55160325916E+02  0.11687976543E+03  0.00000000000E+00 0. -1.
          1    1    1    2  501    0  0.56036637532E+02 -0.24290206188E+02 -0.57613814835E+03  0.57936627866E+03  0.00000000000E+00 0. -1.
<scales pt_clust_3="31.28683" pt_clust_4="99.22500" pt_clust_5="14000.00000" pt_clust_6="60.60796"></scales>
<clustering>
<clus scale="   31.287">  2  3  1 -1</clus>
<clus scale="   60.608">  2  6  1 -1</clus>
<clus scale="   99.225">  2  4  1 -1</clus>
<clus scale="   99.225">  1  3  2 -1</clus>
</clustering>
</event>
<event>
 6    0  0.4081161E+002  0.1000877E+03  0.7546771E-02  0.1280112E+00
          4   -1    0    0  504    0 -0.00000000000E+00  0.00000000000E+00  0.43474300972E+03  0.43474300972E+03  0.00000000000E+00 0.  1.
         21   -1    0    0  505  502  0.00000000000E+00 -0.00000000000E+00 -0.33869056918E+03  0.33869056918E+03  0.00000000000E+00 0. -1.
         21    1    1    2  503  502 -0.62328737017E+02  0.68165195893E+01 -0.39471411849E+02  0.74090004392E+02  0.00000000000E+00 0. -1.
         21    1    1    2  504  503  0.20608646800E+02  0.31114265188E+02  0.49568310490E+02  0.62047008195E+02  0.00000000000E+00 0.  1.
         21    1    1    2  505  501 -0.26174896377E+01  0.71336352008E+02 -0.26113803646E+03  0.27071904339E+03  0.00000000000E+00 0. -1.
          4    1    1    2  501    0  0.44337579855E+02 -0.10926713679E+03  0.34709357836E+03  0.36657752292E+03  0.00000000000E+00 0.  1.
<scales pt_clust_3="61.93762" pt_clust_4="37.32042" pt_clust_5="100.08772" pt_clust_6="14000.00000"></scales>
<clustering>
<clus scale="   37.320">  1  4  2 -1</clus>
<clus scale="   61.938">  2  3  1 -1</clus>
<clus scale="  100.088">  2  5  1 -1</clus>
<clus scale="   61.938">  2  3  1 -1</clus>
</clustering>
</event>
<event>
 6    0  0.4081161E+002  0.9267216E+02  0.7546771E-02  0.1296507E+00
         -1   -1    0    0    0  501 -0.00000000000E+00  0.00000000000E+00  0.48921869615E+03  0.48921869615E+03  0.00000000000E+00 0. -1.
         21   -1    0    0  503  502  0.00000000000E+00 -0.00000000000E+00 -0.12363704998E+04  0.12363704998E+04  0.00000000000E+00 0.  1.
         21    1    1    2  503  505  0.72148153646E+02  0.59429316032E+02 -0.11637447269E+04  0.11674926077E+04  0.00000000000E+00 0.  1.
         21    1    1    2  504  502 -0.78678894388E+02 -0.29572813775E+02 -0.28272531067E+02  0.88680639091E+02  0.00000000000E+00 0.  1.
         21    1    1    2  505  501  0.58943538669E+02 -0.29840832767E+01  0.77789409929E+02  0.97644445827E+02  0.00000000000E+00 0.  1.
         -1    1    1    2    0  504 -0.52412797927E+02 -0.26872418980E+02  0.36707604440E+03  0.37177150330E+03  0.00000000000E+00 0. -1.
<scales pt_clust_3="92.67216" pt_clust_4="14000.00000" pt_clust_5="30.60149" pt_clust_6="58.90016"></scales>
<clustering>
<clus scale="   58.900">  1  6  2 -1</clus>
<clus scale="   30.601">  1  5  2 -1</clus>
<clus scale="   92.672">  2  3  1 -1</clus>
<clus scale="   92.672">  2  3  1 -1</clus>
</clustering>
</event>
<event>
 6    0  0.4081161E+002  0.1823586E+03  0.7546771E-02  0.1165540E+00
          1   -1    0    0  504    0 -0.00000000000E+00  0.00000000000E+00  0.17430858206E+04  0.17430858206E+04  0.00000000000E+00 0.  1.
         21   -1    0    0  505  502  0.00000000000E+00 -0.00000000000E+00 -0.13389999086E+03  0.13389999086E+03  0.00000000000E+00 0.  1.
         21    1    1    2  503  501  0.43650810989E+02  0.46584405197E+02  0.40187681076E+03  0.40691580350E+03  0.00000000000E+00 0. -1.
         21    1    1    2  504  502 -0.12672185183E+03 -0.15201633213E+03 -0.41748881155E+02  0.20226310104E+03  0.00000000000E+00 0.  1.
         21    1    1    2  505  503  0.29491565912E+02  0.77157596558E+01  0.27131933014E+02  0.40809645871E+02  0.00000000000E+00 0. -1.
          1    1    1    2  501    0  0.53579474930E+02  0.97716167277E+02  0.12219259672E+04  0.12269972611E+04  0.00000000000E+00 0.  1.
<scales pt_clust_3="39.11905" pt_clust_4="174.91316" pt_clust_5="30.48418" pt_clust_6="39.11905"></scales>
<clustering>
<clus scale="   30.484">  2  5  1 -1</clus>
<clus scale="   39.119">  3  6 -1 -1</clus>
<clus scale="  174.913">  2  4  1 -1</clus>
<clus scale="   30.484">  2  3  1 -1</clus>
</clustering>
</event>
<event>
 6    0  0.4081161E+002  0.7713093E+02  0.7546771E-02  0.1337396E+00
         21   -1    0    0  501  502  0.00000000000E+00  0.00000000000E+00  0.11994444154E+03  0.11994444154E+03  0.00000000000E+00 0.  1.
          1   -1    0    0  505    0 -0.00000000000E+00 -0.00000000000E+00 -0.27404806954E+04  0.27404806954E+04  0.00000000000E+00 0. -1.
         21    1    1    2  503  502  0.70497999140E+02 -0.27455418410E+02  0.91153814311E+02  0.11846005971E+03  0.00000000000E+00 0.  1.
         21    1    1    2  504  503 -0.77403477917E+02  0.65769682747E+02 -0.16485904715E+03  0.19363743179E+03  0.00000000000E+00 0.  1.
         21    1    1    2  505  504  0.36878675023E+02  0.21050586420E+01 -0.10296638990E+04  0.10303262652E+04  0.00000000000E+00 0. -1.
          1    1    1    2  501    0 -0.29973196246E+02 -0.40419322979E+02 -0.15171671220E+04  0.15180013802E+04  0.00000000000E+00 0. -1.
<scales pt_clust_3="77.13093" pt_clust_4="14000.00000" pt_clust_5="36.93871" pt_clust_6="38.64937"></scales>
<clustering>
<clus scale="   36.939">  2  5  1 -1</clus>
<clus scale="   38.649">  2  6  1 -1</clus>
<clus scale="   77.131">  1  3  2 -1</clus>
<clus scale="   77.131">  1  3  2 -1</clus>
</clustering>
</event>
<event>
 6    0  0.4081161E+002  0.7926406E+02  0.7546771E-02  0.1331153E+00
         21   -1    0    0  504  502  0.00000000000E+00  0.00000000000E+00  0.15162383256E+04  0.15162383256E+04  0.00000000000E+00 0. -1.
          1   -1    0    0  505    0 -0.00000000000E+00 -0.00000000000E+00 -0.11496720181E+03  0.11496720181E+03  0.00000000000E+00 0. -1.
         21    1    1    2  503  501  0.33751846369E+02 -0.17198699108E+02  0.10998592940E+03  0.11632663947E+03  0.00000000000E+00 0.  1.
         21    1    1    2  504  503 -0.31630035224E+02 -0.94775819641E+01  0.11572036384E+04  0.11576746280E+04  0.00000000000E+00 0. -1.
         21    1    1    2  505  502  0.20575628064E+02  0.10102014148E+03  0.21901744081E+03  0.24206830613E+03  0.00000000000E+00 0. -1.
          1    1    1    2  501    0 -0.22697439209E+02 -0.74343860410E+02 -0.84935884794E+02  0.11513595378E+03  0.00000000000E+00 0. -1.
<scales pt_clust_3="31.19080" pt_clust_4="33.01944" pt_clust_5="14000.00000" pt_clust_6="79.26406"></scales>
<clustering>
<clus scale="   33.019">  1  4  2 -1</clus>
<clus scale="   31.191">  1  3  2 -1</clus>
<clus scale="   79.264">  2  6  1 -1</clus>
<clus scale="   33.019">  1  3  2 -1</clus>
</clustering>
</event>
<event>
 6    0  0.4081161E+002  0.9186280E+02  0.7546771E-02  0.1298402E+00
         21   -1    0    0  505  502  0.00000000000E+00  0.00000000000E+00  0.20057173059E+02  0.20057173059E+02  0.00000000000E+00 0. -1.
          1   -1    0    0  504    0 -0.00000000000E+00 -0.00000000000E+00 -0.29926790856E+04  0.29926790856E+04  0.00000000000E+00 0.  1.
         21    1    1    2  503  502  0.58473724682E+02  0.67368041589E+02 -0.14550563701E+03  0.17067372354E+03  0.00000000000E+00 0. -1.
         21    1    1    2  504  503  0.50401408570E+02  0.35026820440E+01 -0.17583060291E+04  0.17590317401E+04  0.00000000000E+00 0. -1.
         21    1    1    2  505  501 -0.29335693141E+02  0.15776380279E+02 -0.72307085103E+02  0.79610248228E+02  0.00000000000E+00 0.  1.
          1    1    1    2  501    0 -0.79539440112E+02 -0.86647103912E+02 -0.99650316135E+03  0.10034205468E+04  0.00000000000E+00 0.  1.
<scales pt_clust_3="14000.00000" pt_clust_4="49.90143" pt_clust_5="33.30881" pt_clust_6="91.86280"></scales>
<clustering>
<clus scale="   33.309">  1  5  2 -1</clus>
<clus scale="   49.901">  2  4  1 -1</clus>
<clus scale="   91.863">  2  6  1 -1</clus>
<clus scale="   33.309">  1  3  2 -1</clus>
</clustering>
</event>
<event>
 6    0  0.4081161E+002  0.7586993E+02  0.7546771E-02  0.1341198E+00
         21   -1    0    0  505  502  0.00000000000E+00  0.00000000000E+00  0.11641836985E+03  0.11641836985E+03  0.00000000000E+00 0. -1.
          4   -1    0    0  503    0 -0.00000000000E+00 -0.00000000000E+00 -0.43885757820E+03  0.43885757820E+03  0.00000000000E+00 0. -1.
         21    1    1    2  503  502  0.66974601191E+02  0.60625811055E+02  0.22210667503E+02  0.93029027307E+02  0.00000000000E+00 0.  1.
         21    1    1    2  504  501 -0.31124324650E+02 -0.42703238838E+02 -0.82740106215E+02  0.98174413004E+02  0.00000000000E+00 0.  1.
         21    1    1    2  505  504 -0.26935100863E+02 -0.63567205812E+02  0.24994314734E+02  0.73423464113E+02  0.00000000000E+00 0. -1.
          4    1    1    2  501    0 -0.89151756781E+01  0.45644633596E+02 -0.28690408437E+03  0.29064904362E+03  0.00000000000E+00 0. -1.
<scales pt_clust_3="75.86993" pt_clust_4="39.53334" pt_clust_5="14000.00000" pt_clust_6="46.50713"></scales>
<clustering>
<clus scale="   46.507">  2  6  1 -1</clus>
<clus scale="   39.533">  2  4  1 -1</clus>
<clus scale="   75.870">  2  3  1 -1</clus>
<clus scale="   75.870">  1  3  2 -1</clus>
</clustering>
</event>
<event>
 6    0  0.4081161E+002  0.1052712E+03  0.7546771E-02  0.1269586E+00
         21   -1    0    0  504  502  0.00000000000E+00  0.00000000000E+00  0.36976173864E+02  0.36976173864E+02  0.00000000000E+00 0. -1.
          2   -1    0    0  505    0 -0.00000000000E+00 -0.00000000000E+00 -0.17543368327E+04  0.17543368327E+04  0.00000000000E+00 0.  1.
         21    1    1    2  503  502  0.64136121308E+02 -0.32011356986E+02 -0.99409090203E+02  0.12255748140E+03  0.00000000000E+00 0. -1.
         21    1    1    2  504  501  0.47561055726E+02 -0.16044526326E+02 -0.69597620252E+01  0.50674639952E+02  0.00000000000E+00 0. -1.
         21    1    1    2  505  503 -0.17982909632E+02  0.35059277980E+02 -0.19552601529E+03  0.19945666363E+03  0.00000000000E+00 0. -1.
          2    1    1    2  501    0 -0.93714267401E+02  0.12996605331E+02 -0.14154657913E+04  0.14186242216E+04  0.00000000000E+00 0.  1.
<scales pt_clust_3="14000.00000" pt_clust_4="49.67420" pt_clust_5="39.40226" pt_clust_6="105.27120"></scales>
<clustering>
<clus scale="   39.402">  2  5  1 -1</clus>
<clus scale="   49.674">  1  4  2 -1</clus>
<clus scale="  105.271">  2  6  1 -1</clus>
<clus scale="   49.674">  1  3  2 -1</clus>
</clustering>
</event>
<event>
 6    0  0.4081161E+002  0.9910977E+02  0.7546771E-02  0.1282179E+00
         -1   -1    0    0    0  501 -0.00000000000E+00  0.00000000000E+00  0.57499958090E+03  0.57499958090E+03  0.00000000000E+00 0. -1.
         21   -1    0    0  503  502  0.00000000000E+00 -0.00000000000E+00 -0.15609167480E+03  0.15609167480E+03  0.00000000000E+00 0.  1.
         21    1    1    2  503  504 -0.15083331787E+02  0.59398645949E+02 -0.13132574546E+03  0.14492121121E+03  0.00000000000E+00 0.  1.
         21    1    1    2  504  501  0.73348059293E+02  0.33565631421E+02  0.26044117975E+03  0.27264665324E+03  0.00000000000E+00 0.  1.
         21    1    1    2  505  502 -0.24816466021E+02 -0.78024884475E+02  0.17912773495E+03  0.19695300204E+03  0.00000000000E+00 0. -1.
         -1    1    1    2    0  505 -0.33448261484E+02 -0.14939392895E+02  0.11066473687E+03  0.11657038922E+03  0.00000000000E+00 0. -1.
<scales pt_clust_3="61.28382" pt_clust_4="86.84838" pt_clust_5="31.93993" pt_clust_6="31.93993"></scales>
<clustering>
<clus scale="   31.940">  5  6 -1 -1</clus>
<clus scale="   61.284">  2  3  1 -1</clus>
<clus scale="   86.848">  1  4  2 -1</clus>
<clus scale="   61.284">  2  3  1 -1</clus>
</clustering>
</event>
<event>
 6    0  0.4081161E+002  0.9260080E+02  0.7546771E-02  0.1296673E+00
         21   -1    0    0  504  502  0.00000000000E+00  0.00000000000E+00  0.20357725236E+02  0.20357725236E+02  0.00000000000E+00 0.  1.
          2   -1    0    0  505    0 -0.00000000000E+00 -0.00000000000E+00 -0.29124888184E+04  0.29124888184E+04  0.00000000000E+00 0.  1.
         21    1    1    2  503  502 -0.11105850315E+03 -0.30469669471E+02 -0.21144695624E+03  0.24077418296E+03  0.00000000000E+00 0.  1.
         21    1    1    2  504  501  0.15893581642E+02  0.38321360647E+02 -0.10275838524E+03  0.11081704903E+03  0.00000000000E+00 0.  1.
         21    1    1    2  505  503  0.31417495398E+02 -0.44535649219E+02 -0.83372483220E+03  0.83550438592E+03  0.00000000000E+00 0.  1.
          2    1    1    2  501    0  0.63747426107E+02  0.36683958043E+02 -0.17442009195E+04  0.17457509258E+04  0.00000000000E+00 0.  1.
<scales pt_clust_3="14000.00000" pt_clust_4="41.48654" pt_clust_5="53.32929" pt_clust_6="92.60080"></scales>
<clustering>
<clus scale="   41.487">  1  4  2 -1</clus>
<clus scale="   53.329">  2  5  1 -1</clus>
<clus scale="   92.601">  2  6  1 -1</clus>
<clus scale="   41.487">  1  3  2 -1</clus>
</clustering>
</event>
<event>
 6    0  0.4081161E+002  0.1423105E+03  0.7546771E-02  0.1210253E+00
          2   -1    0    0  505    0 -0.00000000000E+00  0.00000000000E+00  0.67036315656E+03  0.67036315656E+03  0.00000000000E+00 0.  1.
         21   -1    0    0  503  502  0.00000000000E+00 -0.00000000000E+00 -0.71669432174E+02  0.71669432174E+02  0.00000000000E+00 0. -1.
         21    1    1    2  503  504  0.37212496289E+02  0.46636875478E+02 -0.75055079185E+00  0.59668512307E+02  0.00000000000E+00 0. -1.
         21    1    1    2  504  501 -0.14521800970E+02  0.83246140535E+02  0.22852303382E+02  0.87538736495E+02  0.00000000000E+00 0. -1.
         21    1    1    2  505  502  0.14056694367E+02 -0.28254089093E+02  0.69254543977E+02  0.76105690119E+02  0.00000000000E+00 0.  1.
          2    1    1    2  501    0 -0.36747389686E+02 -0.10162892692E+03  0.50733742782E+03  0.51871964981E+03  0.00000000000E+00 0.  1.
<scales pt_clust_3="52.37071" pt_clust_4="52.37071" pt_clust_5="31.55763" pt_clust_6="128.27803"></scales>
<clustering>
<clus scale="   31.558">  1  5  2 -1</clus>
<clus scale="   52.371">  3  4 -1 -1</clus>
<clus scale="  128.278">  1  6  2 -1</clus>
<clus scale="  142.310">  2  3  1 -1</clus>
</clustering>
</event>
<event>
 6    0  0.4081161E+002  0.7024581E+02  0.7546771E-02  0.1359259E+00
          2   -1    0    0  503    0 -0.00000000000E+00  0.00000000000E+00  0.15143594093E+04  0.15143594093E+04  0.00000000000E+00 0. -1.
         21   -1    0    0  501  502  0.00000000000E+00 -0.00000000000E+00 -0.22733613752E+02  0.22733613752E+02  0.00000000000E+00 0. -1.
         21    1    1    2  503  504  0.33588990984E+02 -0.24191144410E+02  0.30724977037E+03  0.31002556858E+03  0.00000000000E+00 0. -1.
         21    1    1    2  504  505  0.57882569983E+02 -0.56212609347E+02  0.19749233895E+03  0.21333886964E+03  0.00000000000E+00 0. -1.
         21    1    1    2  505  502 -0.63529857648E+02 -0.84541605181E+01  0.82054560785E+02  0.10411756138E+03  0.00000000000E+00 0. -1.
          2    1    1    2  501    0 -0.27941703319E+02  0.88857914275E+02  0.90482912544E+03  0.90961102344E+03  0.00000000000E+00 0. -1.
<scales pt_clust_3="41.39362" pt_clust_4="70.24581" pt_clust_5="61.80467" pt_clust_6="14000.00000"></scales>
<clustering>
<clus scale="   41.394">  1  3  2 -1</clus>
<clus scale="   61.805">  2  5  1 -1</clus>
<clus scale="   70.246">  2  4  1 -1</clus>
<clus scale="   61.805">  2  3  1 -1</clus>
</clustering>
</event>
<event>
 6    0  0.4081161E+002  0.2220989E+03  0.7546771E-02  0.1132328E+00
          2   -1    0    0  503    0 -0.00000000000E+00  0.00000000000E+00  0.46955370278E+03  0.46955370278E+03  0.00000000000E+00 0.  1.
         21   -1    0    0  504  502  0.00000000000E+00 -0.00000000000E+00 -0.15690939327E+04  0.15690939327E+04  0.00000000000E+00 0.  1.
         21    1    1    2  503  502  0.70019590960E+02  0.63696591676E+02  0.84198322748E+02  0.12668605473E+03  0.00000000000E+00 0. -1.
         21    1    1    2  504  505  0.41943993054E+01 -0.14019442832E+03 -0.10917356325E+04  0.11007083001E+04  0.00000000000E+00 0.  1.
         21    1    1    2  505  501  0.46409768601E+02 -0.64280899499E+02 -0.42381323953E+03  0.43116535420E+03  0.00000000000E+00 0.  1.
          2    1    1    2  501    0 -0.12062375887E+03  0.14077873614E+03  0.33181031938E+03  0.38008792640E+03  0.00000000000E+00 0.  1.
<scales pt_clust_3="94.65727" pt_clust_4="55.13436" pt_clust_5="55.13436" pt_clust_6="209.64342"></scales>
<clustering>
<clus scale="   55.134">  4  5 -1 -1</clus>
<clus scale="   94.657">  1  3  2 -1</clus>
<clus scale="  209.643">  1  6  2 -1</clus>
<clus scale="  222.099">  2  3  1 -1</clus>
</clustering>
</event>
<event>
 6    0  0.4081161E+002  0.1131694E+03  0.7546771E-02  0.1254811E+00
          1   -1    0    0  503    0 -0.00000000000E+00  0.00000000000E+00  0.19118122953E+04  0.19118122953E+04  0.00000000000E+00 0.  1.
         21   -1    0    0  505  502  0.00000000000E+00 -0.00000000000E+00 -0.49880393073E+02  0.49880393073E+02  0.00000000000E+00 0.  1.
         21    1    1    2  503  502 -0.18689204034E+02  0.10655327800E+03  0.24862929273E+02  0.11100023717E+03  0.00000000000E+00 0.  1.
         21    1    1    2  504  501  0.35478027294E+02 -0.25662592835E+02  0.49798242469E+03  0.49990374513E+03  0.00000000000E+00 0.  1.
         21    1    1    2  505  504 -0.37443986145E+02 -0.18150387329E+02  0.81866670362E+02  0.91834853812E+02  0.00000000000E+00 0. -1.
          1    1    1    2  501    0  0.20655162885E+02 -0.62740297839E+02  0.12572198779E+04  0.12589538523E+04  0.00000000000E+00 0.  1.
<scales pt_clust_3="104.53892" pt_clust_4="35.29217" pt_clust_5="41.61116" pt_clust_6="35.29217"></scales>
<clustering>
<clus scale="   35.292">  4  6 -1 -1</clus>
<clus scale="   41.611">  2  5  1 -1</clus>
<clus scale="  104.539">  2  3  1 -1</clus>
<clus scale="   41.611">  2  3  1 -1</clus>
</clustering>
</event>
<event>
 6    0  0.4081161E+002  0.8080536E+02  0.7546771E-02  0.1326781E+00
          2   -1    0    0  503    0 -0.00000000000E+00  0.00000000000E+00  0.23061283115E+04  0.23061283115E+04  0.00000000000E+00 0. -1.
         21   -1    0    0  504  502  0.00000000000E+00 -0.00000000000E+00 -0.95557871626E+02  0.95557871626E+02  0.00000000000E+00 0. -1.
         21    1    1    2  503  505  0.81789919090E+02  0.26155701945E+02  0.42674783611E+03  0.43530153599E+03  0.00000000000E+00 0.  1.
         21    1    1    2  504  501 -0.15606732676E+02  0.40038949405E+02  0.15342889808E+02  0.45629944575E+02  0.00000000000E+00 0. -1.
         21    1    1    2  505  502 -0.41200125429E+02  0.17281152575E+02 -0.68460439993E+02  0.81749130966E+02  0.00000000000E+00 0. -1.
          2    1    1    2  501    0 -0.24983060986E+02 -0.83475803925E+02  0.18369401540E+04  0.18390055716E+04  0.00000000000E+00 0. -1.
<scales pt_clust_3="80.80536" pt_clust_4="42.97310" pt_clust_5="78.10581" pt_clust_6="14000.00000"></scales>
<clustering>
<clus scale="   42.973">  2  4  1 -1</clus>
<clus scale="   78.106">  2  5  1 -1</clus>
<clus scale="   80.805">  2  3  1 -1</clus>
<clus scale="   42.973">  2  3  1 -1</clus>
</clustering>
</event>
<event>
 6    0  0.4081161E+002  0.1835732E+03  0.7546771E-02  0.1164389E+00
          2   -1    0    0  503    0 -0.00000000000E+00  0.00000000000E+00  0.42235988021E+03  0.42235988021E+03  0.00000000000E+00 0.  1.
         21   -1    0    0  505  502  0.00000000000E+00 -0.00000000000E+00 -0.31577889112E+03  0.31577889112E+03  0.00000000000E+00 0.  1.
         21    1    1    2  503  502  0.78963930560E+02  0.19218605980E+03 -0.20220154269E+03  0.28992455532E+03  0.00000000000E+00 0.  1.
         21    1    1    2  504  501 -0.47750273133E+02 -0.32216950409E+02  0.78018394843E+02  0.96978814242E+02  0.00000000000E+00 0. -1.
         21    1    1    2  505  504 -0.11286796515E+02 -0.42747071582E+02 -0.37389323148E+02  0.57902205397E+02  0.00000000000E+00 0.  1.
          2    1    1    2  501    0 -0.19926860912E+02 -0.11722203781E+03  0.26815346008E+03  0.29333319636E+03  0.00000000000E+00 0.  1.
<scales pt_clust_3="167.63891" pt_clust_4="52.14967" pt_clust_5="44.21203" pt_clust_6="52.14967"></scales>
<clustering>
<clus scale="   44.212">  2  5  1 -1</clus>
<clus scale="   52.150">  4  6 -1 -1</clus>
<clus scale="  167.639">  2  3  1 -1</clus>
<clus scale="   44.212">  2  3  1 -1</clus>
</clustering>
</event>
<event>
 6    0  0.4081161E+002  0.7750925E+02  0.7546771E-02  0.1336272E+00
         21   -1    0    0  505  502  0.00000000000E+00  0.00000000000E+00  0.72099160454E+03  0.72099160454E+03  0.00000000000E+00 0. -1.
          1   -1    0    0  504    0 -0.00000000000E+00 -0.00000000000E+00 -0.33630359295E+04  0.33630359295E+04  0.00000000000E+00 0. -1.
         21    1    1    2  503  501  0.69068047696E+02  0.34470146046E+02 -0.81352655715E+03  0.81718054638E+03  0.00000000000E+00 0. -1.
         21    1    1    2  504  502  0.68800774510E+01  0.52944806735E+02 -0.11664559489E+04  0.11676771680E+04  0.00000000000E+00 0. -1.
         21    1    1    2  505  503 -0.50496360298E+02  0.19490380074E+02  0.71534313818E+03  0.71738801402E+03  0.00000000000E+00 0. -1.
          1    1    1    2  501    0 -0.25451764849E+02 -0.10690533286E+03 -0.13774049571E+04  0.13817818057E+04  0.00000000000E+00 0. -1.
<scales pt_clust_3="14000.00000" pt_clust_4="53.38996" pt_clust_5="54.13313" pt_clust_6="77.50925"></scales>
<clustering>
<clus scale="   53.390">  2  4  1 -1</clus>
<clus scale="   54.133">  1  5  2 -1</clus>
<clus scale="   77.509">  2  6  1 -1</clus>
<clus scale="   54.133">  1  3  2 -1</clus>
</clustering>
</event>
<event>
 6    0  0.4081161E+002  0.6400972E+02  0.7546771E-02  0.1381736E+00
         21   -1    0    0  503  502  0.00000000000E+00  0.00000000000E+00  0.61594803687E+02  0.61594803687E+02  0.00000000000E+00 0. -1.
          2   -1    0    0  502    0 -0.00000000000E+00 -0.00000000000E+00 -0.17850126981E+04  0.17850126981E+04  0.00000000000E+00 0. -1.
         21    1    1    2  503  505  0.24622406514E+02 -0.55977890335E+02  0.35454079021E+02  0.70687897324E+02  0.00000000000E+00 0. -1.
         21    1    1    2  504  501  0.27624640335E+02 -0.61327077100E+02 -0.42168464708E+03  0.42701530736E+03  0.00000000000E+00 0. -1.
         21    1    1    2  505  504 -0.53881817151E+02  0.52723390185E+02 -0.28712099182E+03  0.29685260659E+03  0.00000000000E+00 0.  1.
          2    1    1    2  501    0  0.16347703025E+01  0.64581577250E+02 -0.10500663345E+04  0.10520516905E+04  0.00000000000E+00 0. -1.
<scales pt_clust_3="61.15380" pt_clust_4="14000.00000" pt_clust_5="44.91606" pt_clust_6="64.00972"></scales>
<clustering>
<clus scale="   61.154">  1  3  2 -1</clus>
<clus scale="   44.916">  1  5  2 -1</clus>
<clus scale="   64.010">  2  6  1 -1</clus>
<clus scale="   61.154">  1  3  2 -1</clus>
</clustering>
</event>
<event>
 6    0  0.4081161E+002  0.9208354E+02  0.7546771E-02  0.1297883E+00
         21   -1    0    0  505  502  0.00000000000E+00  0.00000000000E+00  0.99406231690E+02  0.99406231690E+02  0.00000000000E+00 0.  1.
          2   -1    0    0  503    0 -0.00000000000E+00 -0.00000000000E+00 -0.56393299290E+03  0.56393299290E+03  0.00000000000E+00 0.  1.
         21    1    1    2  503  502 -0.72149178268E+02  0.82239293147E+02 -0.70360501923E+02  0.13007461510E+03  0.00000000000E+00 0.  1.
         21    1    1    2  504  501  0.44600342686E+02 -0.10186060415E+02 -0.31437945699E+02  0.55509376003E+02  0.00000000000E+00 0.  1.
         21    1    1    2  505  504 -0.34328587011E+02 -0.76559422385E+01  0.46833214469E+02  0.58569747441E+02  0.00000000000E+00 0.  1.
          2    1    1    2  501    0  0.61877422593E+02 -0.64397290493E+02 -0.40956152806E+03  0.41918548605E+03  0.00000000000E+00 0.  1.
<scales pt_clust_3="14000.00000" pt_clust_4="37.76486" pt_clust_5="35.17194" pt_clust_6="92.08354"></scales>
<clustering>
<clus scale="   35.172">  1  5  2 -1</clus>
<clus scale="   37.765">  1  4  2 -1</clus>
<clus scale="   92.084">  2  6  1 -1</clus>
<clus scale="   35.172">  1  3  2 -1</clus>
</clustering>
</event>
<event>
 6    0  0.4081161E+002  0.8963288E+02  0.7546771E-02  0.1303743E+00
          2   -1    0    0  503    0 -0.00000000000E+00  0.00000000000E+00  0.21773447633E+04  0.21773447633E+04  0.00000000000E+00 0.  1.
         21   -1    0    0  505  502  0.00000000000E+00 -0.00000000000E+00 -0.86273690460E+02  0.86273690460E+02  0.00000000000E+00 0. -1.
         21    1    1    2  503  504  0.41404817522E+01 -0.37270827935E+02  0.26767758289E+03  0.27029159548E+03  0.00000000000E+00 0. -1.
         21    1    1    2  504  502 -0.91769433526E+02 -0.19145684871E+02 -0.30397953039E+02  0.98550604908E+02  0.00000000000E+00 0. -1.
         21    1    1    2  505  501  0.57764767124E+02  0.73905089028E+02  0.87914022188E+02  0.12855973632E+03  0.00000000000E+00 0. -1.
          2    1    1    2  501    0  0.29864184649E+02 -0.17488576222E+02  0.17658774208E+04  0.17662165170E+04  0.00000000000E+00 0.  1.
<scales pt_clust_3="54.15552" pt_clust_4="89.63288" pt_clust_5="14000.00000" pt_clust_6="34.60809"></scales>
<clustering>
<clus scale="   34.608">  1  6  2 -1</clus>
<clus scale="   54.156">  1  3  2 -1</clus>
<clus scale="   89.633">  2  4  1 -1</clus>
<clus scale="   89.633">  2  3  1 -1</clus>
</clustering>
</event>
<event>
 6    0  0.4081161E+002  0.7779464E+02  0.7546771E-02  0.1335429E+00
         21   -1    0    0  505  502  0.00000000000E+00  0.00000000000E+00  0.23876056206E+04  0.23876056206E+04  0.00000000000E+00 0.  1.
          1   -1    0    0  504    0 -0.00000000000E+00 -0.00000000000E+00 -0.10990981711E+04  0.10990981711E+04  0.00000000000E+00 0. -1.
         21    1    1    2  503  502  0.27379233699E+02  0.10295058698E+03  0.23402485456E+03  0.25713046950E+03  0.00000000000E+00 0. -1.
         21    1    1    2  504  503  0.90610053269E+01  0.36797870252E+02 -0.54962660070E+03  0.55093156133E+03  0.00000000000E+00 0. -1.
         21    1    1    2  505  501 -0.13216387615E+02 -0.27760167618E+02  0.21351768437E+04  0.21353981956E+04  0.00000000000E+00 0.  1.
          1    1    1    2  501    0 -0.23223851411E+02 -0.11198828961E+03 -0.53106764814E+03  0.54324356525E+03  0.00000000000E+00 0. -1.
<scales pt_clust_3="14000.00000" pt_clust_4="37.81916" pt_clust_5="30.74573" pt_clust_6="77.79464"></scales>
<clustering>
<clus scale="   30.746">  1  5  2 -1</clus>
<clus scale="   37.819">  2  4  1 -1</clus>
<clus scale="   77.795">  2  6  1 -1</clus>
<clus scale="   30.746">  1  3  2 -1</clus>
</clustering>
</event>
<event>
 6    0  0.4081161E+002  0.1225464E+03  0.7546771E-02  0.1238954E+00
          2   -1    0    0  504    0 -0.00000000000E+00  0.00000000000E+00  0.45256500584E+03  0.45256500584E+03  0.00000000000E+00 0.  1.
         21   -1    0    0  503  502  0.00000000000E+00 -0.00000000000E+00 -0.49129663641E+03  0.49129663641E+03  0.00000000000E+00 0. -1.
         21    1    1    2  503  505  0.10592353525E+03  0.27027880382E+01 -0.88731395161E+02  0.13820405519E+03  0.00000000000E+00 0. -1.
         21    1    1    2  504  502 -0.98126494414E+02 -0.36163638806E+02 -0.34214457726E+03  0.35777021875E+03  0.00000000000E+00 0. -1.
         21    1    1    2  505  501  0.45741580615E+02 -0.11024500789E+02 -0.25322123218E+01  0.47119464280E+02  0.00000000000E+00 0. -1.
          2    1    1    2  501    0 -0.53538621450E+02  0.44485351557E+02  0.39467655417E+03  0.40076790403E+03  0.00000000000E+00 0.  1.
<scales pt_clust_3="36.15789" pt_clust_4="109.87911" pt_clust_5="36.15789" pt_clust_6="69.60841"></scales>
<clustering>
<clus scale="   36.158">  3  5 -1 -1</clus>
<clus scale="   69.608">  1  6  2 -1</clus>
<clus scale="  109.879">  2  4  1 -1</clus>
<clus scale="  109.879">  2  3  1 -1</clus>
</clustering>
</event>
<event>
 6    0  0.4081161E+002  0.1467831E+03  0.7546771E-02  0.1204482E+00
          1   -1    0    0  503    0 -0.00000000000E+00  0.00000000000E+00  0.22678064478E+04  0.22678064478E+04  0.00000000000E+00 0. -1.
         21   -1    0    0  501  502  0.00000000000E+00 -0.00000000000E+00 -0.99908565387E+02  0.99908565387E+02  0.00000000000E+00 0. -1.
         21    1    1    2  503  505 -0.25931759347E+02 -0.27562591624E+02  0.91073308178E+02  0.98623019942E+02  0.00000000000E+00 0. -1.
         21    1    1    2  504  502  0.13767871849E+03 -0.47758940900E+02 -0.23958853488E+02  0.14768335255E+03  0.00000000000E+00 0. -1.
         21    1    1    2  505  504  0.64241030345E+02  0.36848109361E+02  0.22239755110E+03  0.23440427444E+03  0.00000000000E+00 0.  1.
          1    1    1    2  501    0 -0.17598798949E+03  0.38473423164E+02  0.18783858766E+04  0.18870043662E+04  0.00000000000E+00 0. -1.
<scales pt_clust_3="37.84379" pt_clust_4="14000.00000" pt_clust_5="70.26240" pt_clust_6="146.78314"></scales>
<clustering>
<clus scale="   37.844">  1  3  2 -1</clus>
<clus scale="   70.262">  1  5  2 -1</clus>
<clus scale="  146.783">  1  6  2 -1</clus>
<clus scale="  146.783">  2  3  1 -1</clus>
</clustering>
</event>
<event>
 6    0  0.4081161E+002  0.3824748E+03  0.7546771E-02  0.1050023E+00
         21   -1    0    0  501  502  0.00000000000E+00  0.00000000000E+00  0.57345867350E+03  0.57345867350E+03  0.00000000000E+00 0. -1.
          2   -1    0    0  505    0 -0.00000000000E+00 -0.00000000000E+00 -0.24913789950E+04  0.24913789950E+04  0.00000000000E+00 0. -1.
         21    1    1    2  503  502 -0.38386927368E+03 -0.88612203474E+02  0.20199765252E+03  0.44273106228E+03  0.00000000000E+00 0. -1.
         21    1    1    2  504  503  0.36529787596E+03  0.57091906392E+02  0.10684985136E+03  0.38486220221E+03  0.00000000000E+00 0. -1.
         21    1    1    2  505  504 -0.10298982636E+02 -0.60680859685E+02 -0.22855826038E+03  0.23670047352E+03  0.00000000000E+00 0. -1.
          2    1    1    2  501    0  0.28870380358E+02  0.92201156767E+02 -0.19982095650E+04  0.20005439305E+04  0.00000000000E+00 0. -1.
<scales pt_clust_3="382.47477" pt_clust_4="14000.00000" pt_clust_5="61.54865" pt_clust_6="43.26166"></scales>
<clustering>
<clus scale="   61.549">  2  5  1 -1</clus>
<clus scale="   43.262">  2  6  1 -1</clus>
<clus scale="  382.475">  1  3  2 -1</clus>
<clus scale="  382.475">  1  3  2 -1</clus>
</clustering>
</event>
<event>
 6    0  0.4081161E+002  0.1136862E+03  0.7546771E-02  0.1253892E+00
          2   -1    0    0  503    0 -0.00000000000E+00  0.00000000000E+00  0.38974392565E+03  0.38974392565E+03  0.00000000000E+00 0. -1.
         21   -1    0    0  505  502  0.00000000000E+00 -0.00000000000E+00 -0.83197593361E+02  0.83197593361E+02  0.00000000000E+00 0.  1.
         21    1    1    2  503  504 -0.13371482170E+03  0.33609259909E+02  0.13641510479E+03  0.19395441916E+03  0.00000000000E+00 0. -1.
         21    1    1    2  504  502  0.41484101209E+02 -0.49426976509E+02 -0.15846297070E+02  0.66445931333E+02  0.00000000000E+00 0.  1.
         21    1    1    2  505  501  0.32737101682E+02  0.21837993469E+01  0.27826619727E+02  0.43021013140E+02  0.00000000000E+00 0. -1.
          2    1    1    2  501    0  0.59493618812E+02  0.13633917253E+02  0.15815090484E+03  0.16952015538E+03  0.00000000000E+00 0. -1.
<scales pt_clust_3="105.33354" pt_clust_4="64.52873" pt_clust_5="31.35916" pt_clust_6="31.35916"></scales>
<clustering>
<clus scale="   31.359">  5  6 -1 -1</clus>
<clus scale="   64.529">  2  4  1 -1</clus>
<clus scale="  105.334">  2  3  1 -1</clus>
<clus scale="   64.529">  2  3  1 -1</clus>
</clustering>
</event>
<event>
 6    0  0.4946048E+002  0.1080384E+03  0.7546771E-02  0.1264246E+00
         21   -1    0    0  505  502  0.00000000000E+00  0.00000000000E+00  0.51458162705E+03  0.51458162705E+03  0.00000000000E+00 0. -1.
         -3   -1    0    0    0  501 -0.00000000000E+00 -0.00000000000E+00 -0.14311184065E+04  0.14311184065E+04  0.00000000000E+00 0. -1.
         21    1    1    2  503  504 -0.33709744090E+02  0.22990112694E+02 -0.14397247500E+03  0.14964279363E+03  0.00000000000E+00 0. -1.
         21    1    1    2  504  502  0.35149214889E+02 -0.61791181902E+02  0.50320653963E+03  0.50820314737E+03  0.00000000000E+00 0. -1.
         21    1    1    2  505  501  0.45128092556E+02 -0.55065553267E+02 -0.50565311519E+03  0.51064061021E+03  0.00000000000E+00 0.  1.
         -3    1    1    2    0  503 -0.46567563354E+02  0.93866622476E+02 -0.77011772892E+03  0.77721348236E+03  0.00000000000E+00 0. -1.
<scales pt_clust_3="36.39568" pt_clust_4="71.08880" pt_clust_5="90.94277" pt_clust_6="36.39568"></scales>
<clustering>
<clus scale="   36.396">  3  6 -1 -1</clus>
<clus scale="   71.089">  1  4  2 -1</clus>
<clus scale="   90.943">  2  5  1 -1</clus>
<clus scale="   71.089">  1  3  2 -1</clus>
</clustering>
</event>
<event>
 6    0  0.4081161E+002  0.9784243E+02  0.7546771E-02  0.1284900E+00
          2   -1    0    0  505    0 -0.00000000000E+00  0.00000000000E+00  0.14804870295E+04  0.14804870295E+04  0.00000000000E+00 0.  1.
         21   -1    0    0  504  502  0.00000000000E+00 -0.00000000000E+00 -0.24524992527E+03  0.24524992527E+03  0.00000000000E+00 0. -1.
         21    1    1    2  503  502  0.27232712638E+02  0.39935849420E+02 -0.18091241451E+03  0.18725862979E+03  0.00000000000E+00 0. -1.
         21    1    1    2  504  501 -0.73464747799E+02 -0.25076819073E+02  0.67559528252E+02  0.10290872597E+03  0.00000000000E+00 0.  1.
         21    1    1    2  505  503  0.16398457413E+02  0.79537843825E+02 -0.21181216682E+01  0.81238318824E+02  0.00000000000E+00 0. -1.
          2    1    1    2  501    0  0.29833577748E+02 -0.94396874173E+02  0.13507081122E+04  0.13543312802E+04  0.00000000000E+00 0.  1.
<scales pt_clust_3="48.33728" pt_clust_4="66.97753" pt_clust_5="97.84243" pt_clust_6="14000.00000"></scales>
<clustering>
<clus scale="   48.337">  2  3  1 -1</clus>
<clus scale="   66.978">  2  4  1 -1</clus>
<clus scale="   97.842">  2  5  1 -1</clus>
<clus scale="   48.337">  2  3  1 -1</clus>
</clustering>
</event>
<event>
 6    0  0.4081161E+002  0.2399588E+03  0.7546771E-02  0.1119820E+00
          2   -1    0    0  503    0 -0.00000000000E+00  0.00000000000E+00  0.17921900204E+04  0.17921900204E+04  0.00000000000E+00 0. -1.
         21   -1    0    0  504  502  0.00000000000E+00 -0.00000000000E+00 -0.15269725348E+04  0.15269725348E+04  0.00000000000E+00 0. -1.
         21    1    1    2  503  505 -0.86893988704E+01  0.39111178409E+02  0.21230071852E+03  0.21604810809E+03  0.00000000000E+00 0. -1.
         21    1    1    2  504  501  0.56110083229E+02 -0.23393817338E+03 -0.14376853803E+04  0.14576744023E+04  0.00000000000E+00 0. -1.
         21    1    1    2  505  502  0.19228161943E+03  0.27421717462E+02  0.12550358973E+04  0.12699760924E+04  0.00000000000E+00 0. -1.
          2    1    1    2  501    0 -0.23970230379E+03  0.16740527751E+03  0.23556625011E+03  0.37546395242E+03  0.00000000000E+00 0. -1.
<scales pt_clust_3="40.06482" pt_clust_4="14000.00000" pt_clust_5="194.40748" pt_clust_6="239.95880"></scales>
<clustering>
<clus scale="   40.065">  1  3  2 -1</clus>
<clus scale="  194.407">  1  5  2 -1</clus>
<clus scale="  239.959">  1  6  2 -1</clus>
<clus scale="  239.959">  2  3  1 -1</clus>
</clustering>
</event>
<event>
 6    0  0.4081161E+002  0.1136379E+03  0.7546771E-02  0.1253978E+00
         21   -1    0    0  504  502  0.00000000000E+00  0.00000000000E+00  0.15181136854E+04  0.15181136854E+04  0.00000000000E+00 0.  1.
          2   -1    0    0  505    0 -0.00000000000E+00 -0.00000000000E+00 -0.21235177809E+04  0.21235177809E+04  0.00000000000E+00 0.  1.
         21    1    1    2  503  502 -0.10878744332E+02 -0.10230120979E+03  0.92301456439E+02  0.13821520706E+03  0.00000000000E+00 0. -1.
         21    1    1    2  504  501  0.19037074127E+02  0.24804675846E+02  0.13699910929E+04  0.13703478671E+04  0.00000000000E+00 0.  1.
         21    1    1    2  505  503  0.97348409367E+02  0.30339967658E+02 -0.52736788214E+02  0.11479719193E+03  0.00000000000E+00 0. -1.
          2    1    1    2  501    0 -0.10550673916E+03  0.47156566284E+02 -0.20149598567E+04  0.20182712002E+04  0.00000000000E+00 0.  1.
<scales pt_clust_3="83.07080" pt_clust_4="31.26791" pt_clust_5="14000.00000" pt_clust_6="113.63787"></scales>
<clustering>
<clus scale="   31.268">  1  4  2 -1</clus>
<clus scale="   83.071">  1  3  2 -1</clus>
<clus scale="  113.638">  2  6  1 -1</clus>
<clus scale="   31.268">  1  3  2 -1</clus>
</clustering>
</event>
<event>
 6    0  0.4081161E+002  0.9203563E+02  0.7546771E-02  0.1297996E+00
         21   -1    0    0  505  502  0.00000000000E+00  0.00000000000E+00  0.61609862401E+02  0.61609862401E+02  0.00000000000E+00 0. -1.
          2   -1    0    0  503    0 -0.00000000000E+00 -0.00000000000E+00 -0.21465719858E+04  0.21465719858E+04  0.00000000000E+00 0.  1.
         21    1    1    2  503  504  0.12303169916E+02  0.67299642365E+02 -0.42694989175E+03  0.43239660027E+03  0.00000000000E+00 0.  1.
         21    1    1    2  504  502 -0.24818671801E+02  0.25652074925E+02  0.42786373990E+02  0.55719558659E+02  0.00000000000E+00 0. -1.
         21    1    1    2  505  501 -0.22351936300E+02 -0.11633657502E+03 -0.36782621889E+03  0.38643231625E+03  0.00000000000E+00 0.  1.
          2    1    1    2  501    0  0.34867438185E+02  0.23384857726E+02 -0.13329723867E+04  0.13336333730E+04  0.00000000000E+00 0.  1.
<scales pt_clust_3="92.03563" pt_clust_4="35.69307" pt_clust_5="14000.00000" pt_clust_6="41.82463"></scales>
<clustering>
<clus scale="   35.693">  1  4  2 -1</clus>
<clus scale="   41.825">  2  6  1 -1</clus>
<clus scale="   92.036">  2  3  1 -1</clus>
<clus scale="   35.693">  1  3  2 -1</clus>
</clustering>
</event>
<event>
 6    0  0.4081161E+002  0.3457891E+03  0.7546771E-02  0.1064357E+00
         21   -1    0    0  505  502  0.00000000000E+00  0.00000000000E+00  0.63497591374E+02  0.63497591374E+02  0.00000000000E+00 0.  1.
          2   -1    0    0  503    0 -0.00000000000E+00 -0.00000000000E+00 -0.34879637952E+04  0.34879637952E+04  0.00000000000E+00 0.  1.
         21    1    1    2  503  502  0.35862439392E+02  0.29324680362E+03 -0.42944747669E+03  0.52125323752E+03  0.00000000000E+00 0.  1.
         21    1    1    2  504  501 -0.60461785885E+01 -0.15612705181E+03 -0.98393832460E+03  0.99626644990E+03  0.00000000000E+00 0. -1.
         21    1    1    2  505  504  0.61718776141E+02  0.29556743659E+02 -0.17286563798E+03  0.18591755489E+03  0.00000000000E+00 0.  1.
          2    1    1    2  501    0 -0.91535036945E+02 -0.16667649546E+03 -0.18382147645E+04  0.18480241442E+04  0.00000000000E+00 0.  1.
<scales pt_clust_3="328.41045" pt_clust_4="98.30912" pt_clust_5="68.43105" pt_clust_6="98.30912"></scales>
<clustering>
<clus scale="   68.431">  1  5  2 -1</clus>
<clus scale="   98.309">  4  6 -1 -1</clus>
<clus scale="  328.410">  1  3  2 -1</clus>
<clus scale="   68.431">  1  3  2 -1</clus>
</clustering>
</event>
<event>
 6    0  0.4081161E+002  0.5798162E+02  0.7546771E-02  0.1406503E+00
         21   -1    0    0  505  502  0.00000000000E+00  0.00000000000E+00  0.63386556227E+03  0.63386556227E+03  0.00000000000E+00 0.  1.
          1   -1    0    0  504    0 -0.00000000000E+00 -0.00000000000E+00 -0.76439646222E+03  0.76439646222E+03  0.00000000000E+00 0.  1.
         21    1    1    2  503  502  0.12463237266E+02  0.45372490870E+02  0.20108811527E+03  0.20651979400E+03  0.00000000000E+00 0.  1.
         21    1    1    2  504  503 -0.31462197409E+02  0.45847683300E+02 -0.41238891993E+03  0.41612077719E+03  0.00000000000E+00 0. -1.
         21    1    1    2  505  501 -0.49598809662E+02 -0.89541511501E+02  0.41857928922E+03  0.43091338523E+03  0.00000000000E+00 0.  1.
          1    1    1    2  501    0  0.68597769805E+02 -0.16786626695E+01 -0.33780938452E+03  0.34470806808E+03  0.00000000000E+00 0.  1.
<scales pt_clust_3="47.05311" pt_clust_4="55.73661" pt_clust_5="57.98162" pt_clust_6="14000.00000"></scales>
<clustering>
<clus scale="   47.053">  1  3  2 -1</clus>
<clus scale="   55.737">  2  4  1 -1</clus>
<clus scale="   57.982">  1  5  2 -1</clus>
<clus scale="   47.053">  1  3  2 -1</clus>
</clustering>
</event>
<event>
 6    0  0.4081161E+002  0.1344540E+03  0.7546771E-02  0.1220993E+00
         -1   -1    0    0    0  501 -0.00000000000E+00  0.00000000000E+00  0.40473896319E+04  0.40473896319E+04  0.00000000000E+00 0.  1.
         21   -1    0    0  504  502  0.00000000000E+00 -0.00000000000E+00 -0.23119201658E+02  0.23119201658E+02  0.00000000000E+00 0. -1.
         21    1    1    2  503  501  0.21435222624E+03 -0.48157754587E+02  0.10128382731E+04  0.10363915350E+04  0.00000000000E+00 0. -1.
         21    1    1    2  504  503  0.51207841818E+01  0.37295642367E+02  0.75936598888E+02  0.84755851838E+02  0.00000000000E+00 0. -1.
         21    1    1    2  505  502 -0.10965642905E+03 -0.44894371216E+02  0.66117331854E+03  0.67170692578E+03  0.00000000000E+00 0.  1.
         -1    1    1    2    0  505 -0.10981658138E+03  0.55756483436E+02  0.22743222397E+04  0.22776545210E+04  0.00000000000E+00 0.  1.
<scales pt_clust_3="134.45399" pt_clust_4="37.64555" pt_clust_5="113.54964" pt_clust_6="14000.00000"></scales>
<clustering>
<clus scale="   37.646">  2  4  1 -1</clus>
<clus scale="  113.550">  2  5  1 -1</clus>
<clus scale="  134.454">  2  3  1 -1</clus>
<clus scale="   37.646">  2  3  1 -1</clus>
</clustering>
</event>
<event>
 6    0  0.4081161E+002  0.1400095E+03  0.7546771E-02  0.1213316E+00
          1   -1    0    0  504    0 -0.00000000000E+00  0.00000000000E+00  0.38776136742E+03  0.38776136742E+03  0.00000000000E+00 0. -1.
         21   -1    0    0  503  502  0.00000000000E+00 -0.00000000000E+00 -0.14942118657E+03  0.14942118657E+03  0.00000000000E+00 0. -1.
         21    1    1    2  503  505 -0.44681713708E+00 -0.38473099879E+02 -0.15465189586E+02  0.41467470972E+02  0.00000000000E+00 0.  1.
         21    1    1    2  504  502  0.22048750864E+02  0.15344881508E+03  0.14729914565E+03  0.21384509481E+03  0.00000000000E+00 0. -1.
         21    1    1    2  505  501 -0.68569266543E+02  0.12603535994E+02 -0.41313145967E+02  0.81039308138E+02  0.00000000000E+00 0. -1.
          1    1    1    2  501    0  0.46967332817E+02 -0.12757925119E+03  0.14781937075E+03  0.20083068007E+03  0.00000000000E+00 0. -1.
<scales pt_clust_3="38.47569" pt_clust_4="140.00953" pt_clust_5="69.13597" pt_clust_6="14000.00000"></scales>
<clustering>
<clus scale="   38.476">  2  3  1 -1</clus>
<clus scale="   69.136">  2  5  1 -1</clus>
<clus scale="  140.010">  2  4  1 -1</clus>
<clus scale="   38.476">  2  3  1 -1</clus>
</clustering>
</event>
<event>
 6    0  0.4081161E+002  0.9672016E+02  0.7546771E-02  0.1287348E+00
         21   -1    0    0  501  502  0.00000000000E+00  0.00000000000E+00  0.77163339964E+03  0.77163339964E+03  0.00000000000E+00 0.  1.
          2   -1    0    0  505    0 -0.00000000000E+00 -0.00000000000E+00 -0.44319238759E+04  0.44319238759E+04  0.00000000000E+00 0.  1.
         21    1    1    2  503  502 -0.91882562559E+01 -0.96481097018E+02  0.67821930852E+03  0.68510908371E+03  0.00000000000E+00 0.  1.
         21    1    1    2  504  503  0.79334944687E+02  0.85236980069E+02  0.48145317518E+02  0.12600534837E+03  0.00000000000E+00 0.  1.
         21    1    1    2  505  504 -0.40442059694E+01 -0.42564872817E+02 -0.18318466185E+03  0.18810833138E+03  0.00000000000E+00 0. -1.
          2    1    1    2  501    0 -0.66102482461E+02  0.53808989766E+02 -0.42034704405E+04  0.42043345121E+04  0.00000000000E+00 0.  1.
<scales pt_clust_3="14000.00000" pt_clust_4="96.72016" pt_clust_5="42.75657" pt_clust_6="71.07081"></scales>
<clustering>
<clus scale="   42.757">  2  5  1 -1</clus>
<clus scale="   71.071">  2  6  1 -1</clus>
<clus scale="   96.720">  2  4  1 -1</clus>
<clus scale="   96.720">  1  3  2 -1</clus>
</clustering>
</event>
<event>
 6    0  0.4081161E+002  0.1907755E+03  0.7546771E-02  0.1157764E+00
         21   -1    0    0  501  502  0.00000000000E+00  0.00000000000E+00  0.23649973606E+03  0.23649973606E+03  0.00000000000E+00 0.  1.
          2   -1    0    0  505    0 -0.00000000000E+00 -0.00000000000E+00 -0.52015922212E+03  0.52015922212E+03  0.00000000000E+00 0. -1.
         21    1    1    2  503  504  0.85180691759E+02  0.44998742191E+02 -0.13354564075E+03  0.16466655765E+03  0.00000000000E+00 0. -1.
         21    1    1    2  504  502 -0.16610859766E+03  0.34704287524E+02  0.14266964160E+03  0.22170042946E+03  0.00000000000E+00 0.  1.
         21    1    1    2  505  503  0.12831603179E+03 -0.14677828404E+02 -0.10658938096E+03  0.16745667736E+03  0.00000000000E+00 0. -1.
          2    1    1    2  501    0 -0.47388125887E+02 -0.65025201310E+02 -0.18619410595E+03  0.20283529370E+03  0.00000000000E+00 0. -1.
<scales pt_clust_3="67.67920" pt_clust_4="173.93811" pt_clust_5="67.67920" pt_clust_6="80.46062"></scales>
<clustering>
<clus scale="   67.679">  3  5 -1 -1</clus>
<clus scale="   80.461">  2  6  1 -1</clus>
<clus scale="  173.938">  1  4  2 -1</clus>
<clus scale="  173.938">  1  3  2 -1</clus>
</clustering>
</event>
<event>
 6    0  0.4133342E+002  0.1328363E+03  0.7546771E-02  0.1223307E+00
         -2   -1    0    0    0  501 -0.00000000000E+00  0.00000000000E+00  0.77327970583E+03  0.77327970583E+03  0.00000000000E+00 0.  1.
         21   -1    0    0  503  502  0.00000000000E+00 -0.00000000000E+00 -0.41672152241E+03  0.41672152241E+03  0.00000000000E+00 0. -1.
         21    1    1    2  503  504 -0.26955801943E+02  0.13529574662E+03 -0.38323997484E+03  0.40731367842E+03  0.00000000000E+00 0. -1.
         21    1    1    2  504  501  0.29644518229E+02 -0.56758392045E+02  0.16154997233E+03  0.17377774912E+03  0.00000000000E+00 0.  1.
         21    1    1    2  505  502  0.72141514041E+01 -0.43978276574E+02  0.18900906860E+02  0.48408440081E+02  0.00000000000E+00 0.  1.
         -2    1    1    2    0  505 -0.99028676897E+01 -0.34559078004E+02  0.55934727907E+03  0.56050136063E+03  0.00000000000E+00 0.  1.
<scales pt_clust_3="14000.00000" pt_clust_4="132.83630" pt_clust_5="49.75172" pt_clust_6="35.94992"></scales>
<clustering>
<clus scale="   35.950">  1  6  2 -1</clus>
<clus scale="   49.752">  1  5  2 -1</clus>
<clus scale="  132.836">  1  4  2 -1</clus>
<clus scale="  132.836">  2  3  1 -1</clus>
</clustering>
</event>
<event>
 6    0  0.4081161E+002  0.1399800E+03  0.7546771E-02  0.1213356E+00
         21   -1    0    0  503  502  0.00000000000E+00  0.00000000000E+00  0.18549398719E+03  0.18549398719E+03  0.00000000000E+00 0. -1.
          4   -1    0    0  505    0 -0.00000000000E+00 -0.00000000000E+00 -0.19880017756E+03  0.19880017756E+03  0.00000000000E+00 0. -1.
         21    1    1    2  503  504 -0.22401800535E+02 -0.20228159707E+02  0.62172830204E+01  0.30816776608E+02  0.00000000000E+00 0. -1.
         21    1    1    2  504  501  0.70698885387E+02 -0.41962595414E+02 -0.58376637155E+02  0.10083165958E+03  0.00000000000E+00 0. -1.
         21    1    1    2  505  502 -0.76355772278E+02  0.11157886315E+03  0.10076638362E+03  0.16862357703E+03  0.00000000000E+00 0. -1.
          4    1    1    2  501    0  0.28058687426E+02 -0.49388108032E+02 -0.61913219849E+02  0.84022151526E+02  0.00000000000E+00 0. -1.
<scales pt_clust_3="30.18309" pt_clust_4="33.63439" pt_clust_5="134.13100" pt_clust_6="33.63439"></scales>
<clustering>
<clus scale="   30.183">  1  3  2 -1</clus>
<clus scale="   33.634">  4  6 -1 -1</clus>
<clus scale="  134.131">  1  5  2 -1</clus>
<clus scale="   30.183">  1  3  2 -1</clus>
</clustering>
</event>
<event>
 6    0  0.4081161E+002  0.1447455E+03  0.7546771E-02  0.1207083E+00
         -4   -1    0    0    0  501 -0.00000000000E+00  0.00000000000E+00  0.20088579754E+03  0.20088579754E+03  0.00000000000E+00 0. -1.
         21   -1    0    0  503  502  0.00000000000E+00 -0.00000000000E+00 -0.14112409549E+04  0.14112409549E+04  0.00000000000E+00 0. -1.
         21    1    1    2  503  505  0.15843376369E+03  0.47268408513E+02 -0.12214075716E+04  0.12325469630E+04  0.00000000000E+00 0. -1.
         21    1    1    2  504  502 -0.37663988476E+02  0.33808611560E+02 -0.12128485436E+03  0.13142151323E+03  0.00000000000E+00 0. -1.
         21    1    1    2  505  501 -0.71497198312E+02 -0.11458061130E+03  0.13159742528E+03  0.18856947843E+03  0.00000000000E+00 0. -1.
         -4    1    1    2    0  504 -0.49272576904E+02  0.33503591232E+02  0.73984330719E+00  0.59588797842E+02  0.00000000000E+00 0. -1.
<scales pt_clust_3="14000.00000" pt_clust_4="50.61223" pt_clust_5="144.74546" pt_clust_6="60.73300"></scales>
<clustering>
<clus scale="   50.612">  2  4  1 -1</clus>
<clus scale="   60.733">  1  6  2 -1</clus>
<clus scale="  144.745">  1  5  2 -1</clus>
<clus scale="   50.612">  2  3  1 -1</clus>
</clustering>
</event>
<event>
 6    0  0.4081161E+002  0.3943940E+03  0.7546771E-02  0.1045738E+00
         21   -1    0    0  505  502  0.00000000000E+00  0.00000000000E+00  0.10252033461E+04  0.10252033461E+04  0.00000000000E+00 0.  1.
         -2   -1    0    0    0  501 -0.00000000000E+00 -0.00000000000E+00 -0.49527027284E+03  0.49527027284E+03  0.00000000000E+00 0. -1.
         21    1    1    2  503  504 -0.32990733106E+03 -0.65556721433E+02  0.45041947024E+03  0.56215142976E+03  0.00000000000E+00 0.  1.
         21    1    1    2  504  502 -0.76140923268E+02  0.12562927713E+02  0.40904519383E+03  0.41626102140E+03  0.00000000000E+00 0.  1.
         21    1    1    2  505  501  0.18469146897E+02 -0.28646587474E+02 -0.21507661678E+02  0.40302802283E+02  0.00000000000E+00 0.  1.
         -2    1    1    2    0  503  0.38757910743E+03  0.81640381193E+02 -0.30802392918E+03  0.50175836545E+03  0.00000000000E+00 0. -1.
<scales pt_clust_3="394.39401" pt_clust_4="76.99281" pt_clust_5="34.08425" pt_clust_6="14000.00000"></scales>
<clustering>
<clus scale="   34.084">  2  5  1 -1</clus>
<clus scale="   76.993">  1  4  2 -1</clus>
<clus scale="  394.394">  1  3  2 -1</clus>
<clus scale="   76.993">  1  3  2 -1</clus>
</clustering>
</event>
<event>
 6    0  0.4081161E+002  0.8924840E+02  0.7546771E-02  0.1304682E+00
         21   -1    0    0  503  502  0.00000000000E+00  0.00000000000E+00  0.11650504613E+03  0.11650504613E+03  0.00000000000E+00 0.  1.
          2   -1    0    0  504    0 -0.00000000000E+00 -0.00000000000E+00 -0.19567384539E+04  0.19567384539E+04  0.00000000000E+00 0.  1.
         21    1    1    2  503  501  0.50915739930E+02 -0.74574305435E+02  0.87462805897E+02  0.12571190087E+03  0.00000000000E+00 0.  1.
         21    1    1    2  504  505 -0.54212072778E+02  0.12771769329E+02 -0.62983652514E+03  0.63229432650E+03  0.00000000000E+00 0.  1.
         21    1    1    2  505  502 -0.65143926147E+02 -0.17020981141E+02 -0.17452480058E+03  0.18706242523E+03  0.00000000000E+00 0. -1.
          2    1    1    2  501    0  0.68440258996E+02  0.78823517247E+02 -0.11233348879E+04  0.11281748474E+04  0.00000000000E+00 0.  1.
<scales pt_clust_3="14000.00000" pt_clust_4="55.69620" pt_clust_5="74.12903" pt_clust_6="89.24840"></scales>
<clustering>
<clus scale="   55.696">  2  4  1 -1</clus>
<clus scale="   74.129">  2  5  1 -1</clus>
<clus scale="   89.248">  2  6  1 -1</clus>
<clus scale="   89.248">  1  3  2 -1</clus>
</clustering>
</event>
<event>
 6    0  0.4081161E+002  0.1346955E+03  0.7546771E-02  0.1220650E+00
         21   -1    0    0  505  502  0.00000000000E+00  0.00000000000E+00  0.89692412292E+02  0.89692412292E+02  0.00000000000E+00 0.  1.
          2   -1    0    0  503    0 -0.00000000000E+00 -0.00000000000E+00 -0.95737787382E+03  0.95737787382E+03  0.00000000000E+00 0.  1.
         21    1    1    2  503  504 -0.25483722064E+02 -0.22513876401E+02 -0.10374988091E+03  0.10918027528E+03  0.00000000000E+00 0.  1.
         21    1    1    2  504  502 -0.11179052976E+03 -0.10017083222E+02 -0.42195170950E+02  0.11990786860E+03  0.00000000000E+00 0.  1.
         21    1    1    2  505  501  0.18323490597E+03  0.66429017228E+02 -0.15676090996E+03  0.25012362541E+03  0.00000000000E+00 0.  1.
          2    1    1    2  501    0 -0.45960654147E+02 -0.33898057605E+02 -0.56497949971E+03  0.56785851682E+03  0.00000000000E+00 0.  1.
<scales pt_clust_3="34.00433" pt_clust_4="14000.00000" pt_clust_5="134.69550" pt_clust_6="79.68161"></scales>
<clustering>
<clus scale="   34.004">  2  3  1 -1</clus>
<clus scale="   79.682">  2  6  1 -1</clus>
<clus scale="  134.696">  2  5  1 -1</clus>
<clus scale="  134.696">  1  3  2 -1</clus>
</clustering>
</event>
<event>
 6    0  0.4081161E+002  0.8938247E+02  0.7546771E-02  0.1304354E+00
         21   -1    0    0  503  502  0.00000000000E+00  0.00000000000E+00  0.40976359284E+03  0.40976359284E+03  0.00000000000E+00 0.  1.
          2   -1    0    0  505    0 -0.00000000000E+00 -0.00000000000E+00 -0.81897890246E+03  0.81897890246E+03  0.00000000000E+00 0.  1.
         21    1    1    2  503  504  0.10284801540E+02  0.33091848320E+02  0.37262916421E+03  0.37423701258E+03  0.00000000000E+00 0.  1.
         21    1    1    2  504  501  0.35114029482E+02  0.51481182874E+02 -0.14796157823E+02  0.64048681039E+02  0.00000000000E+00 0.  1.
         21    1    1    2  505  502 -0.34509980745E+02  0.47257395887E+02 -0.24972892139E+03  0.25649314691E+03  0.00000000000E+00 0.  1.
          2    1    1    2  501    0 -0.10888850277E+02 -0.13183042708E+03 -0.51731939462E+03  0.53396365477E+03  0.00000000000E+00 0.  1.
<scales pt_clust_3="34.65325" pt_clust_4="14000.00000" pt_clust_5="60.49536" pt_clust_6="89.38247"></scales>
<clustering>
<clus scale="   34.653">  1  3  2 -1</clus>
<clus scale="   60.495">  2  5  1 -1</clus>
<clus scale="   89.382">  2  6  1 -1</clus>
<clus scale="   34.653">  1  3  2 -1</clus>
</clustering>
</event>
<event>
 6    0  0.4081161E+002  0.1361968E+03  0.7546771E-02  0.1218540E+00
          2   -1    0    0  504    0 -0.00000000000E+00  0.00000000000E+00  0.27855239025E+03  0.27855239025E+03  0.00000000000E+00 0. -1.
         21   -1    0    0  503  502  0.00000000000E+00 -0.00000000000E+00 -0.56337420295E+03  0.56337420295E+03  0.00000000000E+00 0.  1.
         21    1    1    2  503  501 -0.44822369259E+02  0.10321170602E+02 -0.44640339263E+03  0.44876671033E+03  0.00000000000E+00 0.  1.
         21    1    1    2  504  505 -0.57560228947E+02  0.76477767157E+02 -0.22175942349E+02  0.98253759444E+02  0.00000000000E+00 0.  1.
         21    1    1    2  505  502 -0.31147075755E+02 -0.54355274852E+01 -0.20489715918E+02  0.37676434884E+02  0.00000000000E+00 0.  1.
          2    1    1    2  501    0  0.13352967396E+03 -0.81363410274E+02  0.20424723819E+03  0.25722968855E+03  0.00000000000E+00 0. -1.
<scales pt_clust_3="71.14899" pt_clust_4="14000.00000" pt_clust_5="31.61780" pt_clust_6="136.19680"></scales>
<clustering>
<clus scale="   31.618">  2  5  1 -1</clus>
<clus scale="   71.149">  2  3  1 -1</clus>
<clus scale="  136.197">  1  6  2 -1</clus>
<clus scale="   31.618">  2  3  1 -1</clus>
</clustering>
</event>
<event>
 6    0  0.4081161E+002  0.6695629E+02  0.7546771E-02  0.1370760E+00
          2   -1    0    0  504    0 -0.00000000000E+00  0.00000000000E+00  0.23103504922E+04  0.23103504922E+04  0.00000000000E+00 0.  1.
         21   -1    0    0  501  502  0.00000000000E+00 -0.00000000000E+00 -0.43001799166E+03  0.43001799166E+03  0.00000000000E+00 0. -1.
         21    1    1    2  503  505  0.55099275816E+02 -0.93997969675E+02 -0.25809814781E+03  0.28015389057E+03  0.00000000000E+00 0. -1.
         21    1    1    2  504  503 -0.46198689912E+02 -0.24935526704E+01  0.26391952208E+03  0.26794411897E+03  0.00000000000E+00 0. -1.
         21    1    1    2  505  502 -0.28816463484E+02  0.32764328962E+02 -0.15532459805E+03  0.16133697834E+03  0.00000000000E+00 0. -1.
          2    1    1    2  501    0  0.19915877581E+02  0.63727193384E+02  0.20298357243E+04  0.20309334959E+04  0.00000000000E+00 0.  1.
<scales pt_clust_3="14000.00000" pt_clust_4="46.46667" pt_clust_5="43.63359" pt_clust_6="66.95629"></scales>
<clustering>
<clus scale="   43.634">  2  5  1 -1</clus>
<clus scale="   46.467">  1  4  2 -1</clus>
<clus scale="   66.956">  1  6  2 -1</clus>
<clus scale="   43.634">  2  3  1 -1</clus>
</clustering>
</event>
<event>
 6    0  0.4081161E+002  0.1153621E+03  0.7546771E-02  0.1250950E+00
         21   -1    0    0  504  502  0.00000000000E+00  0.00000000000E+00  0.24218910834E+03  0.24218910834E+03  0.00000000000E+00 0. -1.
          1   -1    0    0  505    0 -0.00000000000E+00 -0.00000000000E+00 -0.23292750640E+03  0.23292750640E+03  0.00000000000E+00 0. -1.
         21    1    1    2  503  502 -0.27822089565E+02  0.22564429681E+02  0.41113384093E+02  0.54530106420E+02  0.00000000000E+00 0. -1.
         21    1    1    2  504  501 -0.89152803723E+02 -0.52865240502E+02  0.15723793490E+03  0.18832611140E+03  0.00000000000E+00 0. -1.
         21    1    1    2  505  503  0.27846349901E+02 -0.18272429923E+02 -0.49722959795E+02  0.59847085383E+02  0.00000000000E+00 0. -1.
          1    1    1    2  501    0  0.89128543387E+02  0.48573240744E+02 -0.13936675727E+03  0.17241331153E+03  0.00000000000E+00 0. -1.
<scales pt_clust_3="34.57446" pt_clust_4="115.36215" pt_clust_5="33.30617" pt_clust_6="14000.00000"></scales>
<clustering>
<clus scale="   33.306">  2  5  1 -1</clus>
<clus scale="   34.574">  1  3  2 -1</clus>
<clus scale="  115.362">  1  4  2 -1</clus>
<clus scale="   34.574">  1  3  2 -1</clus>
</clustering>
</event>
<event>
 6    0  0.4081161E+002  0.1415121E+03  0.7546771E-02  0.1211309E+00
          2   -1    0    0  504    0 -0.00000000000E+00  0.00000000000E+00  0.10895502121E+04  0.10895502121E+04  0.00000000000E+00 0.  1.
         21   -1    0    0  501  502  0.00000000000E+00 -0.00000000000E+00 -0.77868182377E+03  0.77868182377E+03  0.00000000000E+00 0.  1.
         21    1    1    2  503  502 -0.39502264924E+01  0.69221049712E+02 -0.52859177535E+03  0.53311952035E+03  0.00000000000E+00 0.  1.
         21    1    1    2  504  505 -0.45239176889E+02 -0.47733928213E+02  0.33655528913E+03  0.34292065215E+03  0.00000000000E+00 0.  1.
         21    1    1    2  505  503  0.30321310772E+02  0.56594772000E+02 -0.23822285586E+03  0.24672348724E+03  0.00000000000E+00 0.  1.
          2    1    1    2  501    0  0.18868092609E+02 -0.78081893500E+02  0.74112773042E+03  0.74546837613E+03  0.00000000000E+00 0.  1.
<scales pt_clust_3="57.94168" pt_clust_4="65.76558" pt_clust_5="57.94168" pt_clust_6="128.06366"></scales>
<clustering>
<clus scale="   57.942">  3  5 -1 -1</clus>
<clus scale="   65.766">  1  4  2 -1</clus>
<clus scale="  128.064">  1  6  2 -1</clus>
<clus scale="  141.512">  2  3  1 -1</clus>
</clustering>
</event>
<event>
 6    0  0.4081161E+002  0.1798589E+03  0.7546771E-02  0.1167940E+00
          2   -1    0    0  503    0 -0.00000000000E+00  0.00000000000E+00  0.12838645729E+04  0.12838645729E+04  0.00000000000E+00 0. -1.
         21   -1    0    0  505  502  0.00000000000E+00 -0.00000000000E+00 -0.56838653047E+02  0.56838653047E+02  0.00000000000E+00 0.  1.
         21    1    1    2  503  502 -0.44750196447E+01 -0.38262829420E+02  0.51205478166E+02  0.64078630683E+02  0.00000000000E+00 0.  1.
         21    1    1    2  504  501  0.71487088068E+02 -0.58874561833E+02  0.39183970468E+03  0.40263503567E+03  0.00000000000E+00 0.  1.
         21    1    1    2  505  504 -0.11608710454E+03  0.15424943868E+03  0.17560568891E+03  0.26097215015E+03  0.00000000000E+00 0.  1.
          2    1    1    2  501    0  0.49075036117E+02 -0.57112047430E+02  0.60837504810E+03  0.61301740944E+03  0.00000000000E+00 0. -1.
<scales pt_clust_3="38.52363" pt_clust_4="50.25081" pt_clust_5="170.92977" pt_clust_6="50.25081"></scales>
<clustering>
<clus scale="   38.524">  2  3  1 -1</clus>
<clus scale="   50.251">  4  6 -1 -1</clus>
<clus scale="  170.930">  2  5  1 -1</clus>
<clus scale="   38.524">  2  3  1 -1</clus>
</clustering>
</event>
<event>
 6    0  0.4081161E+002  0.9825081E+02  0.7546771E-02  0.1284018E+00
          2   -1    0    0  504    0 -0.00000000000E+00  0.00000000000E+00  0.26496759409E+04  0.26496759409E+04  0.00000000000E+00 0. -1.
         21   -1    0    0  505  502  0.00000000000E+00 -0.00000000000E+00 -0.14391678123E+04  0.14391678123E+04  0.00000000000E+00 0. -1.
         21    1    1    2  503  501 -0.13246598647E+03 -0.53063829242E+01  0.10101847535E+03  0.16667371609E+03  0.00000000000E+00 0. -1.
         21    1    1    2  504  502  0.45985713043E+02  0.15249916770E+02  0.45071802792E+03  0.45331444546E+03  0.00000000000E+00 0. -1.
         21    1    1    2  505  503  0.41630417475E+02 -0.34792342649E+02 -0.14041995666E+04  0.14052473169E+04  0.00000000000E+00 0. -1.
          2    1    1    2  501    0  0.44849855955E+02  0.24848808803E+02  0.20629711920E+04  0.20636082748E+04  0.00000000000E+00 0. -1.
<scales pt_clust_3="98.25081" pt_clust_4="48.44838" pt_clust_5="54.26102" pt_clust_6="14000.00000"></scales>
<clustering>
<clus scale="   48.448">  1  4  2 -1</clus>
<clus scale="   54.261">  2  5  1 -1</clus>
<clus scale="   98.251">  2  3  1 -1</clus>
<clus scale="   54.261">  2  3  1 -1</clus>
</clustering>
</event>
<event>
 6    0  0.4081161E+002  0.1738495E+03  0.7546771E-02  0.1173892E+00
         -2   -1    0    0    0  501 -0.00000000000E+00  0.00000000000E+00  0.54818418665E+03  0.54818418665E+03  0.00000000000E+00 0.  1.
         21   -1    0    0  505  502  0.00000000000E+00 -0.00000000000E+00 -0.29011288396E+04  0.29011288396E+04  0.00000000000E+00 0.  1.
         21    1    1    2  503  502 -0.17181491119E+03 -0.63033123055E+02 -0.26219939187E+04  0.26283731942E+04  0.00000000000E+00 0.  1.
         21    1    1    2  504  501  0.28435750912E+02  0.39273358017E+02  0.17962864417E+03  0.18605762115E+03  0.00000000000E+00 0.  1.
         21    1    1    2  505  504  0.11877426890E+03  0.51949138547E+02 -0.25625863766E+03  0.28718379014E+03  0.00000000000E+00 0.  1.
         -2    1    1    2    0  503  0.24604891377E+02 -0.28189373509E+02  0.34567925928E+03  0.34769842070E+03  0.00000000000E+00 0.  1.
<scales pt_clust_3="173.84947" pt_clust_4="52.57748" pt_clust_5="14000.00000" pt_clust_6="37.41713"></scales>
<clustering>
<clus scale="   37.417">  1  6  2 -1</clus>
<clus scale="   52.577">  1  4  2 -1</clus>
<clus scale="  173.849">  2  3  1 -1</clus>
<clus scale="  173.849">  2  3  1 -1</clus>
</clustering>
</event>
<event>
 6    0  0.4081161E+002  0.1108095E+03  0.7546771E-02  0.1259078E+00
          2   -1    0    0  505    0 -0.00000000000E+00  0.00000000000E+00  0.17935132425E+04  0.17935132425E+04  0.00000000000E+00 0.  1.
         21   -1    0    0  504  502  0.00000000000E+00 -0.00000000000E+00 -0.43848343799E+02  0.43848343799E+02  0.00000000000E+00 0.  1.
         21    1    1    2  503  501 -0.43597554121E+02  0.60277500665E+01  0.23590363858E+03  0.23997418026E+03  0.00000000000E+00 0. -1.
         21    1    1    2  504  503  0.64853220863E+02 -0.24565291077E+02 -0.40546430911E+01  0.69468222322E+02  0.00000000000E+00 0.  1.
         21    1    1    2  505  502  0.57533840056E+02 -0.43945991184E+02  0.51286053844E+03  0.51794529130E+03  0.00000000000E+00 0.  1.
          2    1    1    2  501    0 -0.78789506798E+02  0.62483532194E+02  0.10049553648E+04  0.10099738925E+04  0.00000000000E+00 0.  1.
<scales pt_clust_3="36.03437" pt_clust_4="69.34979" pt_clust_5="96.49882" pt_clust_6="36.03437"></scales>
<clustering>
<clus scale="   36.034">  3  6 -1 -1</clus>
<clus scale="   69.350">  2  4  1 -1</clus>
<clus scale="   96.499">  1  5  2 -1</clus>
<clus scale="   69.350">  2  3  1 -1</clus>
</clustering>
</event>
<event>
 6    0  0.4081161E+002  0.8567550E+02  0.7546771E-02  0.1313675E+00
          2   -1    0    0  505    0 -0.00000000000E+00  0.00000000000E+00  0.31928132904E+03  0.31928132904E+03  0.00000000000E+00 0. -1.
         21   -1    0    0  504  502  0.00000000000E+00 -0.00000000000E+00 -0.14818047140E+04  0.14818047140E+04  0.00000000000E+00 0.  1.
         21    1    1    2  503  502  0.23234847190E+02 -0.48821402345E+02 -0.14287996409E+04  0.14298222971E+04  0.00000000000E+00 0.  1.
         21    1    1    2  504  501 -0.92085491826E+02  0.10775224960E+03  0.12806396770E+03  0.19102529917E+03  0.00000000000E+00 0. -1.
         21    1    1    2  505  503  0.92382180919E+01 -0.54869215497E+02  0.60241856680E+02  0.82006443521E+02  0.00000000000E+00 0.  1.
          2    1    1    2  501    0  0.59612426544E+02 -0.40616317616E+01  0.77970431597E+02  0.98232003209E+02  0.00000000000E+00 0. -1.
<scales pt_clust_3="54.06836" pt_clust_4="14000.00000" pt_clust_5="85.67550" pt_clust_6="65.49943"></scales>
<clustering>
<clus scale="   54.068">  2  3  1 -1</clus>
<clus scale="   65.499">  1  6  2 -1</clus>
<clus scale="   85.675">  1  5  2 -1</clus>
<clus scale="   54.068">  2  3  1 -1</clus>
</clustering>
</event>
<event>
 6    0  0.4081161E+002  0.1608059E+03  0.7546771E-02  0.1187790E+00
         -4   -1    0    0    0  501 -0.00000000000E+00  0.00000000000E+00  0.34866281036E+03  0.34866281036E+03  0.00000000000E+00 0.  1.
         21   -1    0    0  503  502  0.00000000000E+00 -0.00000000000E+00 -0.53461924671E+03  0.53461924671E+03  0.00000000000E+00 0.  1.
         21    1    1    2  503  505 -0.33221188373E+01  0.16538508375E+03 -0.25573340646E+03  0.30456992232E+03  0.00000000000E+00 0.  1.
         21    1    1    2  504  502 -0.63294818368E+02 -0.15445501113E+02 -0.21268496372E+03  0.22244030959E+03  0.00000000000E+00 0.  1.
         21    1    1    2  505  501 -0.17429382230E+02 -0.31621354243E+02 -0.27983063834E+01  0.36214968282E+02  0.00000000000E+00 0.  1.
         -4    1    1    2    0  504  0.84046319435E+02 -0.11831822840E+03  0.28526024022E+03  0.32005685687E+03  0.00000000000E+00 0.  1.
<scales pt_clust_3="160.80587" pt_clust_4="65.51223" pt_clust_5="36.10669" pt_clust_6="14000.00000"></scales>
<clustering>
<clus scale="   36.107">  1  5  2 -1</clus>
<clus scale="   65.512">  2  4  1 -1</clus>
<clus scale="  160.806">  2  3  1 -1</clus>
<clus scale="   65.512">  2  3  1 -1</clus>
</clustering>
</event>
<event>
 6    0  0.4081161E+002  0.7668869E+02  0.7546771E-02  0.1338720E+00
          1   -1    0    0  504    0 -0.00000000000E+00  0.00000000000E+00  0.22555588574E+04  0.22555588574E+04  0.00000000000E+00 0.  1.
         21   -1    0    0  503  502  0.00000000000E+00 -0.00000000000E+00 -0.98905196765E+02  0.98905196765E+02  0.00000000000E+00 0. -1.
         21    1    1    2  503  505 -0.43648699794E+02  0.25828969873E+00 -0.79707351854E+02  0.90876496669E+02  0.00000000000E+00 0. -1.
         21    1    1    2  504  502 -0.31685451171E+02 -0.21999700872E+02  0.35513987695E+03  0.35722861987E+03  0.00000000000E+00 0.  1.
         21    1    1    2  505  501  0.91830486301E+02 -0.55153004708E+02  0.23502778810E+03  0.25828812075E+03  0.00000000000E+00 0. -1.
          1    1    1    2  501    0 -0.16496335336E+02  0.76894415882E+02  0.16461933474E+04  0.16480708169E+04  0.00000000000E+00 0.  1.
<scales pt_clust_3="43.74229" pt_clust_4="38.57402" pt_clust_5="76.68869" pt_clust_6="14000.00000"></scales>
<clustering>
<clus scale="   38.574">  1  4  2 -1</clus>
<clus scale="   43.742">  2  3  1 -1</clus>
<clus scale="   76.689">  2  5  1 -1</clus>
<clus scale="   43.742">  2  3  1 -1</clus>
</clustering>
</event>
<event>
 6    0  0.4081161E+002  0.1056277E+03  0.7546771E-02  0.1268888E+00
         21   -1    0    0  504  502  0.00000000000E+00  0.00000000000E+00  0.65429845495E+03  0.65429845495E+03  0.00000000000E+00 0.  1.
          2   -1    0    0  503    0 -0.00000000000E+00 -0.00000000000E+00 -0.30857390833E+03  0.30857390833E+03  0.00000000000E+00 0. -1.
         21    1    1    2  503  505 -0.26776837525E+02 -0.14895395144E+02 -0.10311307298E+03  0.10756940850E+03  0.00000000000E+00 0.  1.
         21    1    1    2  504  501  0.75857345632E+02 -0.10003333580E+03  0.41221490618E+03  0.43090849845E+03  0.00000000000E+00 0.  1.
         21    1    1    2  505  502 -0.19710671446E+02  0.88936360408E+02  0.21934589376E+03  0.23750959535E+03  0.00000000000E+00 0.  1.
          2    1    1    2  501    0 -0.29369836661E+02  0.25992370535E+02 -0.18272318034E+03  0.18688486098E+03  0.00000000000E+00 0. -1.
<scales pt_clust_3="30.64102" pt_clust_4="105.62775" pt_clust_5="14000.00000" pt_clust_6="55.14194"></scales>
<clustering>
<clus scale="   30.641">  2  3  1 -1</clus>
<clus scale="   55.142">  2  6  1 -1</clus>
<clus scale="  105.628">  2  4  1 -1</clus>
<clus scale="  105.628">  1  3  2 -1</clus>
</clustering>
</event>
<event>
 6    0  0.4081161E+002  0.1074874E+03  0.7546771E-02  0.1265295E+00
         21   -1    0    0  503  502  0.00000000000E+00  0.00000000000E+00  0.26930955485E+03  0.26930955485E+03  0.00000000000E+00 0.  1.
          1   -1    0    0  504    0 -0.00000000000E+00 -0.00000000000E+00 -0.34236038039E+04  0.34236038039E+04  0.00000000000E+00 0. -1.
         21    1    1    2  503  501 -0.12256437636E+02  0.36992517086E+02  0.75977225020E+02  0.85388554886E+02  0.00000000000E+00 0.  1.
         21    1    1    2  504  505  0.23541297435E+02  0.34178196070E+02 -0.35164042447E+03  0.35408096517E+03  0.00000000000E+00 0. -1.
         21    1    1    2  505  502 -0.45896536827E+02 -0.12750368500E+03  0.16250288630E+03  0.21159128015E+03  0.00000000000E+00 0.  1.
          1    1    1    2  501    0  0.34611677028E+02  0.56332971846E+02 -0.30411339359E+04  0.30418525585E+04  0.00000000000E+00 0. -1.
<scales pt_clust_3="38.97007" pt_clust_4="41.65370" pt_clust_5="107.48737" pt_clust_6="14000.00000"></scales>
<clustering>
<clus scale="   38.970">  1  3  2 -1</clus>
<clus scale="   41.654">  2  4  1 -1</clus>
<clus scale="  107.487">  1  5  2 -1</clus>
<clus scale="   38.970">  1  3  2 -1</clus>
</clustering>
</event>
<event>
 6    0  0.4081161E+002  0.8351552E+02  0.7546771E-02  0.1319361E+00
         21   -1    0    0  504  502  0.00000000000E+00  0.00000000000E+00  0.88973696051E+02  0.88973696051E+02  0.00000000000E+00 0. -1.
          3   -1    0    0  505    0 -0.00000000000E+00 -0.00000000000E+00 -0.15512019804E+04  0.15512019804E+04  0.00000000000E+00 0. -1.
         21    1    1    2  503  502 -0.62273594068E+02 -0.70732160030E+01 -0.13910242584E+03  0.15256970793E+03  0.00000000000E+00 0. -1.
         21    1    1    2  504  501  0.10296425932E+02  0.38403837959E+02  0.66695962607E+02  0.77648068779E+02  0.00000000000E+00 0. -1.
         21    1    1    2  505  503  0.56995871802E+02 -0.10887991536E+03 -0.43640325477E+03  0.45337750952E+03  0.00000000000E+00 0. -1.
          3    1    1    2  501    0 -0.50187036661E+01  0.77549293406E+02 -0.95341856637E+03  0.95658039024E+03  0.00000000000E+00 0. -1.
<scales pt_clust_3="58.73901" pt_clust_4="39.76017" pt_clust_5="14000.00000" pt_clust_6="83.51552"></scales>
<clustering>
<clus scale="   39.760">  1  4  2 -1</clus>
<clus scale="   58.739">  1  3  2 -1</clus>
<clus scale="   83.516">  2  6  1 -1</clus>
<clus scale="   39.760">  1  3  2 -1</clus>
</clustering>
</event>
<event>
 6    0  0.4081161E+002  0.1118099E+03  0.7546771E-02  0.1257255E+00
         -3   -1    0    0    0  501 -0.00000000000E+00  0.00000000000E+00  0.54233721782E+03  0.54233721782E+03  0.00000000000E+00 0.  1.
         21   -1    0    0  505  502  0.00000000000E+00 -0.00000000000E+00 -0.45746359418E+03  0.45746359418E+03  0.00000000000E+00 0. -1.
         21    1    1    2  503  502 -0.10772622444E+03 -0.30543149602E+02 -0.37329409416E+03  0.38972593467E+03  0.00000000000E+00 0. -1.
         21    1    1    2  504  503  0.99563710153E+01  0.52046701540E+02  0.53918360661E+02  0.75598796825E+02  0.00000000000E+00 0.  1.
         21    1    1    2  505  501  0.11037778373E+03  0.16599163376E+02 -0.15607939381E+02  0.11270490290E+03  0.00000000000E+00 0.  1.
         -3    1    1    2    0  504 -0.12607930304E+02 -0.38102715313E+02  0.41985729651E+03  0.42177117760E+03  0.00000000000E+00 0.  1.
<scales pt_clust_3="14000.00000" pt_clust_4="31.90678" pt_clust_5="111.80986" pt_clust_6="40.13448"></scales>
<clustering>
<clus scale="   40.134">  1  6  2 -1</clus>
<clus scale="   31.907">  1  4  2 -1</clus>
<clus scale="  111.810">  1  5  2 -1</clus>
<clus scale="  111.810">  2  3  1 -1</clus>
</clustering>
</event>
<event>
 6    0  0.4081161E+002  0.7393960E+02  0.7546771E-02  0.1347187E+00
          2   -1    0    0  505    0 -0.00000000000E+00  0.00000000000E+00  0.99647767539E+03  0.99647767539E+03  0.00000000000E+00 0.  1.
         21   -1    0    0  503  502  0.00000000000E+00 -0.00000000000E+00 -0.22321147040E+03  0.22321147040E+03  0.00000000000E+00 0.  1.
         21    1    1    2  503  501 -0.41564102898E+02 -0.29322716835E+02  0.19897456306E+03  0.20537349663E+03  0.00000000000E+00 0. -1.
         21    1    1    2  504  502  0.33710390076E+02 -0.64838587827E+02 -0.19557684837E+03  0.20878394692E+03  0.00000000000E+00 0.  1.
         21    1    1    2  505  504 -0.28476969486E+02  0.85795233504E+02  0.10068930555E+03  0.13531480383E+03  0.00000000000E+00 0. -1.
          2    1    1    2  501    0  0.36330682308E+02  0.83660711569E+01  0.66917918475E+03  0.67021689841E+03  0.00000000000E+00 0.  1.
<scales pt_clust_3="30.77940" pt_clust_4="73.93960" pt_clust_5="14000.00000" pt_clust_6="37.28149"></scales>
<clustering>
<clus scale="   37.281">  1  6  2 -1</clus>
<clus scale="   30.779">  1  3  2 -1</clus>
<clus scale="   73.940">  2  4  1 -1</clus>
<clus scale="   73.940">  2  3  1 -1</clus>
</clustering>
</event>
<event>
 6    0  0.4081161E+002  0.1563568E+03  0.7546771E-02  0.1192872E+00
         21   -1    0    0  504  502  0.00000000000E+00  0.00000000000E+00  0.36913240563E+03  0.36913240563E+03  0.00000000000E+00 0.  1.
          2   -1    0    0  503    0 -0.00000000000E+00 -0.00000000000E+00 -0.24685021503E+04  0.24685021503E+04  0.00000000000E+00 0. -1.
         21    1    1    2  503  505  0.54243363073E+02 -0.23808071191E+02 -0.27586985084E+03  0.28215836208E+03  0.00000000000E+00 0.  1.
         21    1    1    2  504  501  0.14849092592E+03  0.10329245466E+03  0.22664362357E+03  0.28997623760E+03  0.00000000000E+00 0.  1.
         21    1    1    2  505  502 -0.38234948896E+01 -0.47210370722E+02  0.97514405264E+02  0.10840893621E+03  0.00000000000E+00 0.  1.
          2    1    1    2  501    0 -0.19891079410E+03 -0.32274012743E+02 -0.21476579227E+04  0.21570910201E+04  0.00000000000E+00 0. -1.
<scales pt_clust_3="59.42335" pt_clust_4="156.35677" pt_clust_5="47.36495" pt_clust_6="14000.00000"></scales>
<clustering>
<clus scale="   47.365">  1  5  2 -1</clus>
<clus scale="   59.423">  2  3  1 -1</clus>
<clus scale="  156.357">  1  4  2 -1</clus>
<clus scale="   47.365">  1  3  2 -1</clus>
</clustering>
</event>
<event>
 6    0  0.4081161E+002  0.9416706E+02  0.7546771E-02  0.1293063E+00
          2   -1    0    0  504    0 -0.00000000000E+00  0.00000000000E+00  0.22457564940E+04  0.22457564940E+04  0.00000000000E+00 0.  1.
         21   -1    0    0  503  502  0.00000000000E+00 -0.00000000000E+00 -0.70355246903E+02  0.70355246903E+02  0.00000000000E+00 0. -1.
         21    1    1    2  503  501 -0.28576439701E+02 -0.29601549418E+02  0.16495782566E+02  0.44328043905E+02  0.00000000000E+00 0.  1.
         21    1    1    2  504  505  0.11872525356E+03 -0.37989067483E+02  0.93964442878E+03  0.94787684201E+03  0.00000000000E+00 0. -1.
         21    1    1    2  505  502 -0.53943503365E+01  0.88714543436E+02 -0.11882025668E+02  0.89669123820E+02  0.00000000000E+00 0. -1.
          2    1    1    2  501    0 -0.84754463524E+02 -0.21123926536E+02  0.12311430614E+04  0.12342377312E+04  0.00000000000E+00 0.  1.
<scales pt_clust_3="41.14444" pt_clust_4="94.16706" pt_clust_5="69.43892" pt_clust_6="14000.00000"></scales>
<clustering>
<clus scale="   41.144">  2  3  1 -1</clus>
<clus scale="   69.439">  2  5  1 -1</clus>
<clus scale="   94.167">  2  4  1 -1</clus>
<clus scale="   41.144">  2  3  1 -1</clus>
</clustering>
</event>
<event>
 6    0  0.1637563E+003  0.3073279E+03  0.7546771E-02  0.1081634E+00
          1   -1    0    0  503    0 -0.00000000000E+00  0.00000000000E+00  0.10952477396E+04  0.10952477396E+04  0.00000000000E+00 0. -1.
         21   -1    0    0  505  502  0.00000000000E+00 -0.00000000000E+00 -0.10517257458E+04  0.10517257458E+04  0.00000000000E+00 0.  1.
         21    1    1    2  503  504  0.33108008653E+02  0.24789601521E+02  0.49969501104E+01  0.41660942032E+02  0.00000000000E+00 0.  1.
         21    1    1    2  504  502  0.37053294175E+02 -0.78035577920E+01  0.24767189119E+02  0.45246610705E+02  0.00000000000E+00 0. -1.
         21    1    1    2  505  501  0.30406526364E+03 -0.32311953623E+02 -0.96489724289E+03  0.10121889331E+04  0.00000000000E+00 0.  1.
          1    1    1    2  501    0 -0.37422656647E+03  0.15325909894E+02  0.97865509742E+03  0.10478769996E+04  0.00000000000E+00 0. -1.
<scales pt_clust_3="81.65181" pt_clust_4="36.50880" pt_clust_5="307.32786" pt_clust_6="14000.00000"></scales>
<clustering>
<clus scale="   36.509">  3  4 -1 -1</clus>
<clus scale="   81.652">  1  3  2 -1</clus>
<clus scale="  307.328">  2  5  1 -1</clus>
<clus scale="  307.328">  2  3  1 -1</clus>
</clustering>
</event>
<event>
 6    0  0.4081161E+002  0.1342638E+03  0.7546771E-02  0.1221263E+00
         21   -1    0    0  505  502  0.00000000000E+00  0.00000000000E+00  0.24075292754E+03  0.24075292754E+03  0.00000000000E+00 0.  1.
          3   -1    0    0  504    0 -0.00000000000E+00 -0.00000000000E+00 -0.17974577634E+04  0.17974577634E+04  0.00000000000E+00 0.  1.
         21    1    1    2  503  501  0.92731457077E+01  0.11917966891E+03  0.16492436911E+03  0.20369053056E+03  0.00000000000E+00 0.  1.
         21    1    1    2  504  502  0.16220283276E+02 -0.22022110807E+03 -0.69054554876E+03  0.72499213026E+03  0.00000000000E+00 0.  1.
         21    1    1    2  505  503 -0.42487472072E+02  0.81873398679E+01  0.24505458136E+02  0.49726605511E+02  0.00000000000E+00 0.  1.
          3    1    1    2  501    0  0.16994043089E+02  0.92854099285E+02 -0.10555891143E+04  0.10598014246E+04  0.00000000000E+00 0.  1.
<scales pt_clust_3="134.26380" pt_clust_4="14000.00000" pt_clust_5="43.26913" pt_clust_6="94.40165"></scales>
<clustering>
<clus scale="   43.269">  1  5  2 -1</clus>
<clus scale="   94.402">  2  6  1 -1</clus>
<clus scale="  134.264">  1  3  2 -1</clus>
<clus scale="   43.269">  1  3  2 -1</clus>
</clustering>
</event>
<event>
 6    0  0.4081161E+002  0.1070486E+03  0.7546771E-02  0.1266135E+00
         -2   -1    0    0    0  501 -0.00000000000E+00  0.00000000000E+00  0.29402106979E+03  0.29402106979E+03  0.00000000000E+00 0.  1.
         21   -1    0    0  504  502  0.00000000000E+00 -0.00000000000E+00 -0.80653445137E+03  0.80653445137E+03  0.00000000000E+00 0. -1.
         21    1    1    2  503  501 -0.46781838873E+02 -0.10483083493E+02  0.10768184601E+03  0.11787202996E+03  0.00000000000E+00 0.  1.
         21    1    1    2  504  503 -0.84780689992E+01 -0.48381924155E+02 -0.57726340199E+03  0.57934939676E+03  0.00000000000E+00 0. -1.
         21    1    1    2  505  502 -0.17681088195E+02 -0.60403777356E+02 -0.19015893596E+03  0.20030391440E+03  0.00000000000E+00 0. -1.
         -2    1    1    2    0  505  0.72940996067E+02  0.11926878500E+03  0.14722711036E+03  0.20303018005E+03  0.00000000000E+00 0.  1.
<scales pt_clust_3="47.94200" pt_clust_4="49.22567" pt_clust_5="14000.00000" pt_clust_6="107.04858"></scales>
<clustering>
<clus scale="   47.942">  1  3  2 -1</clus>
<clus scale="   49.226">  2  4  1 -1</clus>
<clus scale="  107.049">  1  6  2 -1</clus>
<clus scale="   49.226">  2  3  1 -1</clus>
</clustering>
</event>
<event>
 6    0  0.4081161E+002  0.1740922E+03  0.7546771E-02  0.1173646E+00
          2   -1    0    0  505    0 -0.00000000000E+00  0.00000000000E+00  0.22801888670E+04  0.22801888670E+04  0.00000000000E+00 0. -1.
         21   -1    0    0  503  502  0.00000000000E+00 -0.00000000000E+00 -0.80513716508E+03  0.80513716508E+03  0.00000000000E+00 0. -1.
         21    1    1    2  503  501  0.15700317697E+02 -0.71765003403E+02  0.13584040497E+04  0.13603890172E+04  0.00000000000E+00 0. -1.
         21    1    1    2  504  502  0.10294454477E+03  0.12849189923E+03 -0.77915679474E+03  0.79636239129E+03  0.00000000000E+00 0. -1.
         21    1    1    2  505  504 -0.88044673798E+02  0.22469187986E+01  0.11452153934E+03  0.14447178341E+03  0.00000000000E+00 0. -1.
          2    1    1    2  501    0 -0.30600188673E+02 -0.58973814627E+02  0.78128290753E+03  0.78410284016E+03  0.00000000000E+00 0. -1.
<scales pt_clust_3="54.38555" pt_clust_4="164.43136" pt_clust_5="88.07334" pt_clust_6="54.38555"></scales>
<clustering>
<clus scale="   54.386">  3  6 -1 -1</clus>
<clus scale="   88.073">  1  5  2 -1</clus>
<clus scale="  164.431">  2  4  1 -1</clus>
<clus scale="  164.431">  2  3  1 -1</clus>
</clustering>
</event>
<event>
 6    0  0.4081161E+002  0.8260252E+02  0.7546771E-02  0.1321824E+00
         21   -1    0    0  505  502  0.00000000000E+00  0.00000000000E+00  0.17298556788E+03  0.17298556788E+03  0.00000000000E+00 0.  1.
          2   -1    0    0  504    0 -0.00000000000E+00 -0.00000000000E+00 -0.23980923770E+04  0.23980923770E+04  0.00000000000E+00 0. -1.
         21    1    1    2  503  502 -0.63273541149E+02 -0.54320127651E+02  0.15509962334E+03  0.17609687799E+03  0.00000000000E+00 0.  1.
         21    1    1    2  504  503  0.12366342751E+02 -0.36687198518E+02 -0.57660630161E+03  0.57790458038E+03  0.00000000000E+00 0.  1.
         21    1    1    2  505  501 -0.14880628135E+02  0.96444786505E+02 -0.39307018423E+03  0.40500271563E+03  0.00000000000E+00 0.  1.
          2    1    1    2  501    0  0.65787826533E+02 -0.54374603364E+01 -0.14105299466E+04  0.14120737709E+04  0.00000000000E+00 0. -1.
<scales pt_clust_3="82.60252" pt_clust_4="38.71533" pt_clust_5="14000.00000" pt_clust_6="82.63441"></scales>
<clustering>
<clus scale="   38.715">  2  4  1 -1</clus>
<clus scale="   82.634">  2  6  1 -1</clus>
<clus scale="   82.603">  1  3  2 -1</clus>
<clus scale="   82.603">  1  3  2 -1</clus>
</clustering>
</event>
<event>
 6    0  0.4081161E+002  0.1216476E+03  0.7546771E-02  0.1240403E+00
         21   -1    0    0  503  502  0.00000000000E+00  0.00000000000E+00  0.95721528975E+03  0.95721528975E+03  0.00000000000E+00 0.  1.
          1   -1    0    0  505    0 -0.00000000000E+00 -0.00000000000E+00 -0.57449065204E+03  0.57449065204E+03  0.00000000000E+00 0. -1.
         21    1    1    2  503  501  0.19175796648E+02 -0.71989552047E+02  0.82780823512E+03  0.83115382506E+03  0.00000000000E+00 0.  1.
         21    1    1    2  504  502  0.18145077612E+02  0.25514532018E+02  0.94679231120E+02  0.99721572346E+02  0.00000000000E+00 0.  1.
         21    1    1    2  505  504  0.87874193751E+02  0.76866808602E+02 -0.14847056218E+03  0.18887532402E+03  0.00000000000E+00 0. -1.
          1    1    1    2  501    0 -0.12519506801E+03 -0.30391788573E+02 -0.39129226636E+03  0.41195522036E+03  0.00000000000E+00 0. -1.
<scales pt_clust_3="59.91765" pt_clust_4="31.30871" pt_clust_5="14000.00000" pt_clust_6="121.64764"></scales>
<clustering>
<clus scale="   31.309">  1  4  2 -1</clus>
<clus scale="   59.918">  1  3  2 -1</clus>
<clus scale="  121.648">  2  6  1 -1</clus>
<clus scale="   31.309">  1  3  2 -1</clus>
</clustering>
</event>
<event>
 6    0  0.4081161E+002  0.1595166E+03  0.7546771E-02  0.1189244E+00
          2   -1    0    0  503    0 -0.00000000000E+00  0.00000000000E+00  0.61213889460E+03  0.61213889460E+03  0.00000000000E+00 0.  1.
         21   -1    0    0  501  502  0.00000000000E+00 -0.00000000000E+00 -0.31827687700E+03  0.31827687700E+03  0.00000000000E+00 0.  1.
         21    1    1    2  503  505  0.18261040542E+02  0.36869128935E+02  0.34706727080E+02  0.53827085884E+02  0.00000000000E+00 0. -1.
         21    1    1    2  504  502 -0.73990315693E+02  0.50311616800E+02 -0.88633628315E+02  0.12594342249E+03  0.00000000000E+00 0. -1.
         21    1    1    2  505  504 -0.60202525439E+02 -0.14753947625E+03 -0.16029222887E+03  0.22602176833E+03  0.00000000000E+00 0.  1.
          2    1    1    2  501    0  0.11593180059E+03  0.60358730511E+02  0.50808114771E+03  0.52462349489E+03  0.00000000000E+00 0.  1.
<scales pt_clust_3="41.14363" pt_clust_4="89.67025" pt_clust_5="159.51656" pt_clust_6="14000.00000"></scales>
<clustering>
<clus scale="   41.144">  1  3  2 -1</clus>
<clus scale="   89.670">  2  4  1 -1</clus>
<clus scale="  159.517">  2  5  1 -1</clus>
<clus scale="   89.670">  2  3  1 -1</clus>
</clustering>
</event>
<event>
 6    0  0.4081161E+002  0.9953800E+02  0.7546771E-02  0.1281270E+00
         21   -1    0    0  501  502  0.00000000000E+00  0.00000000000E+00  0.13810278415E+04  0.13810278415E+04  0.00000000000E+00 0. -1.
          2   -1    0    0  504    0 -0.00000000000E+00 -0.00000000000E+00 -0.22250564823E+03  0.22250564823E+03  0.00000000000E+00 0.  1.
         21    1    1    2  503  505 -0.11573912535E+03 -0.98201070723E+02  0.42985839582E+03  0.45586975758E+03  0.00000000000E+00 0. -1.
         21    1    1    2  504  503  0.33508136065E+02  0.59377709846E+01 -0.57582093058E+02  0.66886095325E+02  0.00000000000E+00 0.  1.
         21    1    1    2  505  502  0.61573436171E+02  0.14975919073E+02  0.92147790583E+03  0.92365420864E+03  0.00000000000E+00 0. -1.
          2    1    1    2  501    0  0.20657553112E+02  0.77287380665E+02 -0.13523201533E+03  0.15712342818E+03  0.00000000000E+00 0.  1.
<scales pt_clust_3="99.53800" pt_clust_4="34.03017" pt_clust_5="63.59908" pt_clust_6="14000.00000"></scales>
<clustering>
<clus scale="   34.030">  2  4  1 -1</clus>
<clus scale="   63.599">  1  5  2 -1</clus>
<clus scale="   99.538">  1  3  2 -1</clus>
<clus scale="   63.599">  1  3  2 -1</clus>
</clustering>
</event>
<event>
 6    0  0.4081161E+002  0.1113111E+03  0.7546771E-02  0.1258161E+00
         21   -1    0    0  505  502  0.00000000000E+00  0.00000000000E+00  0.47737705590E+03  0.47737705590E+03  0.00000000000E+00 0. -1.
          1   -1    0    0  503    0 -0.00000000000E+00 -0.00000000000E+00 -0.57783850967E+03  0.57783850967E+03  0.00000000000E+00 0.  1.
         21    1    1    2  503  504  0.30220522555E+02 -0.22226920359E+02 -0.14114925954E+02  0.40081755286E+02  0.00000000000E+00 0. -1.
         21    1    1    2  504  502 -0.37417610161E+02 -0.87375778574E+02  0.21371148305E+03  0.23389570800E+03  0.00000000000E+00 0. -1.
         21    1    1    2  505  501  0.36245899645E+02  0.14622461446E+03  0.21584629287E+03  0.26322048792E+03  0.00000000000E+00 0. -1.
          1    1    1    2  501    0 -0.29048812039E+02 -0.36621915525E+02 -0.51590430374E+03  0.51801761437E+03  0.00000000000E+00 0.  1.
<scales pt_clust_3="37.51421" pt_clust_4="111.31108" pt_clust_5="14000.00000" pt_clust_6="57.48961"></scales>
<clustering>
<clus scale="   37.514">  2  3  1 -1</clus>
<clus scale="   57.490">  2  6  1 -1</clus>
<clus scale="  111.311">  1  4  2 -1</clus>
<clus scale="  111.311">  1  3  2 -1</clus>
</clustering>
</event>
<event>
 6    0  0.4081161E+002  0.1086893E+03  0.7546771E-02  0.1263017E+00
          2   -1    0    0  505    0 -0.00000000000E+00  0.00000000000E+00  0.76513084581E+03  0.76513084581E+03  0.00000000000E+00 0. -1.
         21   -1    0    0  503  502  0.00000000000E+00 -0.00000000000E+00 -0.36445343187E+03  0.36445343187E+03  0.00000000000E+00 0. -1.
         21    1    1    2  503  501 -0.72587754558E+02  0.78574959165E+02 -0.32719061452E+03  0.34423350295E+03  0.00000000000E+00 0. -1.
         21    1    1    2  504  502  0.14550739350E+03 -0.11928656355E+03  0.36278800510E+03  0.40867691695E+03  0.00000000000E+00 0. -1.
         21    1    1    2  505  504 -0.46259605201E+02  0.25249293655E+02  0.14180194446E+03  0.15127878026E+03  0.00000000000E+00 0.  1.
          2    1    1    2  501    0 -0.26660033740E+02  0.15462310728E+02  0.22327807891E+03  0.22539507753E+03  0.00000000000E+00 0. -1.
<scales pt_clust_3="108.68927" pt_clust_4="14000.00000" pt_clust_5="61.05059" pt_clust_6="30.81948"></scales>
<clustering>
<clus scale="   30.819">  1  6  2 -1</clus>
<clus scale="   61.051">  1  5  2 -1</clus>
<clus scale="  108.689">  2  3  1 -1</clus>
<clus scale="  108.689">  2  3  1 -1</clus>
</clustering>
</event>
<event>
 6    0  0.4081161E+002  0.1194304E+03  0.7546771E-02  0.1244040E+00
         -2   -1    0    0    0  501 -0.00000000000E+00  0.00000000000E+00  0.37200584275E+02  0.37200584275E+02  0.00000000000E+00 0. -1.
         21   -1    0    0  503  502  0.00000000000E+00 -0.00000000000E+00 -0.21904093922E+04  0.21904093922E+04  0.00000000000E+00 0. -1.
         21    1    1    2  503  501  0.65580584647E+02  0.10302753544E+03 -0.12900182719E+03  0.17764278077E+03  0.00000000000E+00 0. -1.
         21    1    1    2  504  502 -0.24769202233E+02 -0.58070144183E+02 -0.14806092053E+04  0.14819545451E+04  0.00000000000E+00 0. -1.
         21    1    1    2  505  504  0.69715096581E+01 -0.46815475986E+02 -0.50317854416E+03  0.50539978042E+03  0.00000000000E+00 0. -1.
         -2    1    1    2    0  505 -0.47782892072E+02  0.18580847300E+01 -0.40419231302E+02  0.62612870184E+02  0.00000000000E+00 0. -1.
<scales pt_clust_3="106.85499" pt_clust_4="46.18919" pt_clust_5="46.18919" pt_clust_6="47.81901"></scales>
<clustering>
<clus scale="   46.189">  4  5 -1 -1</clus>
<clus scale="   47.819">  1  6  2 -1</clus>
<clus scale="  106.855">  1  3  2 -1</clus>
<clus scale="  119.430">  2  3  1 -1</clus>
</clustering>
</event>
<event>
 6    0  0.4081161E+002  0.1289896E+03  0.7546771E-02  0.1228963E+00
         21   -1    0    0  503  502  0.00000000000E+00  0.00000000000E+00  0.26633559712E+02  0.26633559712E+02  0.00000000000E+00 0.  1.
          2   -1    0    0  504    0 -0.00000000000E+00 -0.00000000000E+00 -0.16820176886E+04  0.16820176886E+04  0.00000000000E+00 0. -1.
         21    1    1    2  503  505 -0.14235992170E+02 -0.48939225386E+02 -0.42615660703E+02  0.66436479374E+02  0.00000000000E+00 0.  1.
         21    1    1    2  504  502  0.12345929655E+03  0.12630243748E+01 -0.32079000405E+03  0.34372957370E+03  0.00000000000E+00 0.  1.
         21    1    1    2  505  501 -0.41917585058E+02  0.14681384669E+02 -0.25814793210E+03  0.26194079835E+03  0.00000000000E+00 0.  1.
          2    1    1    2  501    0 -0.67305719320E+02  0.32994816343E+02 -0.10338305320E+04  0.10365443968E+04  0.00000000000E+00 0. -1.
<scales pt_clust_3="50.96775" pt_clust_4="118.26079" pt_clust_5="39.64569" pt_clust_6="39.64569"></scales>
<clustering>
<clus scale="   39.646">  5  6 -1 -1</clus>
<clus scale="   50.968">  1  3  2 -1</clus>
<clus scale="  118.261">  1  4  2 -1</clus>
<clus scale="   50.968">  1  3  2 -1</clus>
</clustering>
</event>
<event>
 6    0  0.4081161E+002  0.1122901E+03  0.7546771E-02  0.1256387E+00
         21   -1    0    0  501  502  0.00000000000E+00  0.00000000000E+00  0.86147432462E+02  0.86147432462E+02  0.00000000000E+00 0. -1.
          2   -1    0    0  504    0 -0.00000000000E+00 -0.00000000000E+00 -0.17880007443E+04  0.17880007443E+04  0.00000000000E+00 0. -1.
         21    1    1    2  503  505  0.10944263387E+03  0.46807665837E+02 -0.86736750902E+03  0.87549702648E+03  0.00000000000E+00 0. -1.
         21    1    1    2  504  503 -0.78416674098E+02  0.34615137207E+02 -0.74977908773E+03  0.75466288030E+03  0.00000000000E+00 0. -1.
         21    1    1    2  505  502 -0.15333788500E+02 -0.11366702527E+03  0.34284417617E+02  0.11971106463E+03  0.00000000000E+00 0. -1.
          2    1    1    2  501    0 -0.15692171267E+02  0.32244222226E+02 -0.11899113269E+03  0.12427720533E+03  0.00000000000E+00 0. -1.
<scales pt_clust_3="112.29014" pt_clust_4="98.63092" pt_clust_5="14000.00000" pt_clust_6="35.85992"></scales>
<clustering>
<clus scale="   35.860">  2  6  1 -1</clus>
<clus scale="   98.631">  2  4  1 -1</clus>
<clus scale="  112.290">  2  3  1 -1</clus>
<clus scale="  112.290">  1  3  2 -1</clus>
</clustering>
</event>
<event>
 6    0  0.4081161E+002  0.1272806E+03  0.7546771E-02  0.1231548E+00
         21   -1    0    0  503  502  0.00000000000E+00  0.00000000000E+00  0.28968736146E+03  0.28968736146E+03  0.00000000000E+00 0. -1.
          2   -1    0    0  505    0 -0.00000000000E+00 -0.00000000000E+00 -0.80534133189E+03  0.80534133189E+03  0.00000000000E+00 0. -1.
         21    1    1    2  503  501 -0.40748817059E+02 -0.22600442856E+02  0.15730197709E+03  0.16405839846E+03  0.00000000000E+00 0. -1.
         21    1    1    2  504  502  0.49241124084E+02 -0.10715658108E+03  0.83981965991E+02  0.14477635090E+03  0.00000000000E+00 0. -1.
         21    1    1    2  505  504 -0.48529881301E+02  0.69719690109E+01 -0.60447339122E+02  0.77830832822E+02  0.00000000000E+00 0.  1.
          2    1    1    2  501    0  0.40037574276E+02  0.12278505492E+03 -0.69649057438E+03  0.70836311117E+03  0.00000000000E+00 0. -1.
<scales pt_clust_3="46.59663" pt_clust_4="14000.00000" pt_clust_5="51.56405" pt_clust_6="127.28056"></scales>
<clustering>
<clus scale="   46.597">  1  3  2 -1</clus>
<clus scale="   51.564">  2  5  1 -1</clus>
<clus scale="  127.281">  2  6  1 -1</clus>
<clus scale="   46.597">  1  3  2 -1</clus>
</clustering>
</event>
<event>
 6    0  0.4081161E+002  0.1169643E+03  0.7546771E-02  0.1248191E+00
         21   -1    0    0  504  502  0.00000000000E+00  0.00000000000E+00  0.35422040755E+03  0.35422040755E+03  0.00000000000E+00 0.  1.
          1   -1    0    0  503    0 -0.00000000000E+00 -0.00000000000E+00 -0.46574289220E+04  0.46574289220E+04  0.00000000000E+00 0.  1.
         21    1    1    2  503  505 -0.37028806109E+02 -0.56801015464E+02 -0.14978074822E+03  0.16441338260E+03  0.00000000000E+00 0.  1.
         21    1    1    2  504  501 -0.40911366891E+02  0.27547121733E+02  0.33082948703E+02  0.59389101286E+02  0.00000000000E+00 0.  1.
         21    1    1    2  505  502  0.10691732896E+02 -0.73252533924E+02  0.29526036600E+03  0.30439929470E+03  0.00000000000E+00 0.  1.
          1    1    1    2  501    0  0.67248440104E+02  0.10250642766E+03 -0.44817710809E+04  0.44834475510E+04  0.00000000000E+00 0.  1.
<scales pt_clust_3="14000.00000" pt_clust_4="49.32123" pt_clust_5="54.81897" pt_clust_6="116.96431"></scales>
<clustering>
<clus scale="   49.321">  1  4  2 -1</clus>
<clus scale="   54.819">  1  5  2 -1</clus>
<clus scale="  116.964">  2  6  1 -1</clus>
<clus scale="   49.321">  1  3  2 -1</clus>
</clustering>
</event>
<event>
 6    0  0.4081161E+002  0.9328505E+02  0.7546771E-02  0.1295086E+00
          2   -1    0    0  504    0 -0.00000000000E+00  0.00000000000E+00  0.75519040425E+03  0.75519040425E+03  0.00000000000E+00 0.  1.
         21   -1    0    0  505  502  0.00000000000E+00 -0.00000000000E+00 -0.72839198723E+03  0.72839198723E+03  0.00000000000E+00 0.  1.
         21    1    1    2  503  501  0.51270108896E+02  0.43700163044E+02  0.11445679575E+03  0.13281071647E+03  0.00000000000E+00 0. -1.
         21    1    1    2  504  502 -0.19312235453E+02  0.34176452789E+02 -0.64910098240E+03  0.65028691953E+03  0.00000000000E+00 0.  1.
         21    1    1    2  505  503  0.64439570715E+02 -0.30476309173E+02 -0.45199483603E+02  0.84405313889E+02  0.00000000000E+00 0.  1.
          2    1    1    2  501    0 -0.96397444157E+02 -0.47400306659E+02  0.60664208726E+03  0.61607944159E+03  0.00000000000E+00 0.  1.
<scales pt_clust_3="93.28505" pt_clust_4="39.25548" pt_clust_5="48.59338" pt_clust_6="14000.00000"></scales>
<clustering>
<clus scale="   39.255">  2  4  1 -1</clus>
<clus scale="   48.593">  2  5  1 -1</clus>
<clus scale="   93.285">  2  3  1 -1</clus>
<clus scale="   39.255">  2  3  1 -1</clus>
</clustering>
</event>
<event>
 6    0  0.4081161E+002  0.1546546E+03  0.7546771E-02  0.1194867E+00
          2   -1    0    0  504    0 -0.00000000000E+00  0.00000000000E+00  0.23285361959E+04  0.23285361959E+04  0.00000000000E+00 0.  1.
         21   -1    0    0  505  502  0.00000000000E+00 -0.00000000000E+00 -0.10219222975E+03  0.10219222975E+03  0.00000000000E+00 0.  1.
         21    1    1    2  503  502 -0.27717243940E+02 -0.31645054480E+02 -0.75089025171E+02  0.86069836678E+02  0.00000000000E+00 0.  1.
         21    1    1    2  504  503  0.16652189419E+03  0.90607398454E+02  0.66546637357E+03  0.69194272613E+03  0.00000000000E+00 0.  1.
         21    1    1    2  505  501  0.11082110439E+02 -0.65133113132E+02  0.24742527451E+03  0.25609451783E+03  0.00000000000E+00 0.  1.
          2    1    1    2  501    0 -0.14988676069E+03  0.61707691582E+01  0.13885413432E+04  0.13966213450E+04  0.00000000000E+00 0.  1.
<scales pt_clust_3="42.06727" pt_clust_4="154.65461" pt_clust_5="71.69285" pt_clust_6="14000.00000"></scales>
<clustering>
<clus scale="   42.067">  2  3  1 -1</clus>
<clus scale="   71.693">  2  5  1 -1</clus>
<clus scale="  154.655">  2  4  1 -1</clus>
<clus scale="   42.067">  2  3  1 -1</clus>
</clustering>
</event>
<event>
 6    0  0.4081161E+002  0.1183705E+03  0.7546771E-02  0.1245810E+00
         21   -1    0    0  503  502  0.00000000000E+00  0.00000000000E+00  0.68165694153E+03  0.68165694153E+03  0.00000000000E+00 0. -1.
          4   -1    0    0  504    0 -0.00000000000E+00 -0.00000000000E+00 -0.29402378218E+03  0.29402378218E+03  0.00000000000E+00 0. -1.
         21    1    1    2  503  505 -0.46598330363E+02 -0.41118893486E+02  0.26095198547E+03  0.26825008204E+03  0.00000000000E+00 0.  1.
         21    1    1    2  504  502 -0.16349095982E+03  0.53219069233E+02 -0.30387896749E+02  0.17459950613E+03  0.00000000000E+00 0. -1.
         21    1    1    2  505  501  0.11007363211E+03  0.24661338637E+02  0.31935339914E+03  0.33869009382E+03  0.00000000000E+00 0. -1.
          4    1    1    2  501    0  0.10001565807E+03 -0.36761514384E+02 -0.16228432851E+03  0.19414104172E+03  0.00000000000E+00 0. -1.
<scales pt_clust_3="62.14634" pt_clust_4="14000.00000" pt_clust_5="73.72295" pt_clust_6="118.37046"></scales>
<clustering>
<clus scale="   62.146">  1  3  2 -1</clus>
<clus scale="   73.723">  1  5  2 -1</clus>
<clus scale="  118.370">  2  6  1 -1</clus>
<clus scale="   62.146">  1  3  2 -1</clus>
</clustering>
</event>
<event>
 6    0  0.4081161E+002  0.8824320E+02  0.7546771E-02  0.1307163E+00
         21   -1    0    0  504  502  0.00000000000E+00  0.00000000000E+00  0.30712299362E+04  0.30712299362E+04  0.00000000000E+00 0. -1.
          2   -1    0    0  503    0 -0.00000000000E+00 -0.00000000000E+00 -0.44606348549E+03  0.44606348549E+03  0.00000000000E+00 0.  1.
         21    1    1    2  503  505  0.20920630083E+02 -0.30734853290E+02 -0.50875445952E+02  0.63012815924E+02  0.00000000000E+00 0. -1.
         21    1    1    2  504  501  0.45991430955E+02 -0.12168796465E+02  0.24493069960E+03  0.24950819412E+03  0.00000000000E+00 0. -1.
         21    1    1    2  505  502 -0.96492437166E+02  0.84781523229E+02  0.28147718367E+04  0.28177010469E+04  0.00000000000E+00 0. -1.
          2    1    1    2  501    0  0.29580376128E+02 -0.41877873474E+02 -0.38366063967E+03  0.38707136470E+03  0.00000000000E+00 0.  1.
<scales pt_clust_3="37.17935" pt_clust_4="47.73948" pt_clust_5="88.24320" pt_clust_6="14000.00000"></scales>
<clustering>
<clus scale="   37.179">  2  3  1 -1</clus>
<clus scale="   47.739">  1  4  2 -1</clus>
<clus scale="   88.243">  1  5  2 -1</clus>
<clus scale="   47.739">  1  3  2 -1</clus>
</clustering>
</event>
<event>
 6    0  0.4081161E+002  0.1070391E+03  0.7546771E-02  0.1266153E+00
         21   -1    0    0  503  502  0.00000000000E+00  0.00000000000E+00  0.25074163110E+03  0.25074163110E+03  0.00000000000E+00 0.  1.
          2   -1    0    0  505    0 -0.00000000000E+00 -0.00000000000E+00 -0.67638462134E+03  0.67638462134E+03  0.00000000000E+00 0. -1.
         21    1    1    2  503  504 -0.32682412041E+02 -0.21292771243E+02  0.13087848472E+03  0.13656756543E+03  0.00000000000E+00 0.  1.
         21    1    1    2  504  501 -0.30337010909E+02 -0.50875790707E+02 -0.24896854939E+03  0.25591799252E+03  0.00000000000E+00 0.  1.
         21    1    1    2  505  502  0.66661368351E+02  0.10987685208E+03  0.75942913303E+02  0.14927821922E+03  0.00000000000E+00 0.  1.
          2    1    1    2  501    0 -0.36419454009E+01 -0.37708290132E+02 -0.38349583887E+03  0.38536247527E+03  0.00000000000E+00 0. -1.
<scales pt_clust_3="39.00669" pt_clust_4="37.74605" pt_clust_5="96.07100" pt_clust_6="37.74605"></scales>
<clustering>
<clus scale="   37.746">  4  6 -1 -1</clus>
<clus scale="   39.007">  1  3  2 -1</clus>
<clus scale="   96.071">  1  5  2 -1</clus>
<clus scale="   39.007">  1  3  2 -1</clus>
</clustering>
</event>
<event>
 6    0  0.4081161E+002  0.1328042E+03  0.7546771E-02  0.1223353E+00
         21   -1    0    0  504  502  0.00000000000E+00  0.00000000000E+00  0.58815618820E+03  0.58815618820E+03  0.00000000000E+00 0. -1.
          2   -1    0    0  503    0 -0.00000000000E+00 -0.00000000000E+00 -0.14505720054E+04  0.14505720054E+04  0.00000000000E+00 0. -1.
         21    1    1    2  503  502  0.11069879969E+03 -0.91558142038E+02  0.42127206949E+03  0.44509243327E+03  0.00000000000E+00 0. -1.
         21    1    1    2  504  505 -0.57391808776E+02  0.10299566777E+03  0.13157856942E+03  0.17667724025E+03  0.00000000000E+00 0. -1.
         21    1    1    2  505  501 -0.32792681432E+02  0.10909698724E+02 -0.50190569680E+03  0.50309413628E+03  0.00000000000E+00 0. -1.
          2    1    1    2  501    0 -0.20514309482E+02 -0.22347224453E+02 -0.91336075932E+03  0.91386438381E+03  0.00000000000E+00 0. -1.
<scales pt_clust_3="132.80425" pt_clust_4="14000.00000" pt_clust_5="52.94410" pt_clust_6="30.33538"></scales>
<clustering>
<clus scale="   30.335">  2  6  1 -1</clus>
<clus scale="   52.944">  2  5  1 -1</clus>
<clus scale="  132.804">  1  3  2 -1</clus>
<clus scale="  132.804">  1  3  2 -1</clus>
</clustering>
</event>
<event>
 6    0  0.4081161E+002  0.1436755E+03  0.7546771E-02  0.1208467E+00
         21   -1    0    0  503  502  0.00000000000E+00  0.00000000000E+00  0.11071091387E+03  0.11071091387E+03  0.00000000000E+00 0.  1.
         -3   -1    0    0    0  501 -0.00000000000E+00 -0.00000000000E+00 -0.11116222681E+04  0.11116222681E+04  0.00000000000E+00 0. -1.
         21    1    1    2  503  504  0.10668466145E+03 -0.50412638178E+02  0.16173658660E+02  0.11909927922E+03  0.00000000000E+00 0.  1.
         21    1    1    2  504  501 -0.54454784818E+02  0.12890794752E+02 -0.12846441210E+03  0.14012352177E+03  0.00000000000E+00 0.  1.
         21    1    1    2  505  502  0.53314217709E+02  0.11155835496E+03 -0.86988755155E+02  0.15117776257E+03  0.00000000000E+00 0.  1.
         -3    1    1    2    0  505 -0.10554409434E+03 -0.74036511535E+02 -0.80163184569E+03  0.81193261845E+03  0.00000000000E+00 0. -1.
<scales pt_clust_3="115.11507" pt_clust_4="55.95977" pt_clust_5="14000.00000" pt_clust_6="143.67547"></scales>
<clustering>
<clus scale="   55.960">  2  4  1 -1</clus>
<clus scale="  115.115">  1  3  2 -1</clus>
<clus scale="  143.675">  2  6  1 -1</clus>
<clus scale="  115.115">  1  3  2 -1</clus>
</clustering>
</event>
<event>
 6    0  0.4081161E+002  0.2467029E+03  0.7546771E-02  0.1115406E+00
          2   -1    0    0  504    0 -0.00000000000E+00  0.00000000000E+00  0.11111231178E+04  0.11111231178E+04  0.00000000000E+00 0. -1.
         21   -1    0    0  503  502  0.00000000000E+00 -0.00000000000E+00 -0.22581055182E+04  0.22581055182E+04  0.00000000000E+00 0.  1.
         21    1    1    2  503  501 -0.15052539287E+03 -0.15962455918E+03 -0.11502080779E+04  0.11709468461E+04  0.00000000000E+00 0.  1.
         21    1    1    2  504  505 -0.42665770292E+02 -0.74777671858E+02  0.31261600957E+03  0.32425427923E+03  0.00000000000E+00 0. -1.
         21    1    1    2  505  502  0.25780690464E+03  0.17110926914E+03 -0.10670398048E+04  0.11109980770E+04  0.00000000000E+00 0.  1.
          2    1    1    2  501    0 -0.64615741479E+02  0.63292961895E+02  0.75764947277E+03  0.76302943368E+03  0.00000000000E+00 0. -1.
<scales pt_clust_3="246.70285" pt_clust_4="86.09337" pt_clust_5="14000.00000" pt_clust_6="105.87677"></scales>
<clustering>
<clus scale="   86.093">  1  4  2 -1</clus>
<clus scale="  105.877">  1  6  2 -1</clus>
<clus scale="  246.703">  2  3  1 -1</clus>
<clus scale="  246.703">  2  3  1 -1</clus>
</clustering>
</event>
<event>
 6    0  0.4081161E+002  0.1473388E+03  0.7546771E-02  0.1203782E+00
         -2   -1    0    0    0  501 -0.00000000000E+00  0.00000000000E+00  0.14913134003E+04  0.14913134003E+04  0.00000000000E+00 0.  1.
         21   -1    0    0  504  502  0.00000000000E+00 -0.00000000000E+00 -0.49501732902E+03  0.49501732902E+03  0.00000000000E+00 0.  1.
         21    1    1    2  503  501 -0.23820460052E+02 -0.21502841164E+02  0.57216542570E+02  0.65601213700E+02  0.00000000000E+00 0.  1.
         21    1    1    2  504  503 -0.12455429590E+03 -0.82244161837E+02 -0.40045660466E+03  0.42736795270E+03  0.00000000000E+00 0.  1.
         21    1    1    2  505  502  0.16105019726E+03 -0.63434027041E+01  0.12448514661E+02  0.16165509677E+03  0.00000000000E+00 0. -1.
         -2    1    1    2    0  505 -0.12675441300E+02  0.11009040571E+03  0.13270876187E+04  0.13317064662E+04  0.00000000000E+00 0.  1.
<scales pt_clust_3="32.09029" pt_clust_4="147.33884" pt_clust_5="14000.00000" pt_clust_6="96.59384"></scales>
<clustering>
<clus scale="   32.090">  1  3  2 -1</clus>
<clus scale="   96.594">  1  6  2 -1</clus>
<clus scale="  147.339">  2  4  1 -1</clus>
<clus scale="  147.339">  2  3  1 -1</clus>
</clustering>
</event>
<event>
 6    0  0.4081161E+002  0.1611878E+03  0.7546771E-02  0.1187362E+00
          2   -1    0    0  503    0 -0.00000000000E+00  0.00000000000E+00  0.26424347422E+04  0.26424347422E+04  0.00000000000E+00 0. -1.
         21   -1    0    0  504  502  0.00000000000E+00 -0.00000000000E+00 -0.12659319602E+03  0.12659319602E+03  0.00000000000E+00 0.  1.
         21    1    1    2  503  505 -0.17753014315E+02 -0.28741742264E+02  0.45145434555E+03  0.45271655965E+03  0.00000000000E+00 0. -1.
         21    1    1    2  504  501  0.19744467773E+02  0.20779292793E+03  0.32370552684E+03  0.38516621478E+03  0.00000000000E+00 0.  1.
         21    1    1    2  505  502  0.31943123385E+02 -0.15081329727E+03 -0.32389155287E+02  0.15752482707E+03  0.00000000000E+00 0.  1.
          2    1    1    2  501    0 -0.33934576844E+02 -0.28237888397E+02  0.17730708291E+04  0.17736203368E+04  0.00000000000E+00 0. -1.
<scales pt_clust_3="33.78250" pt_clust_4="14000.00000" pt_clust_5="161.18775" pt_clust_6="70.61644"></scales>
<clustering>
<clus scale="   33.782">  1  3  2 -1</clus>
<clus scale="   70.616">  1  6  2 -1</clus>
<clus scale="  161.188">  2  5  1 -1</clus>
<clus scale="  161.188">  2  3  1 -1</clus>
</clustering>
</event>
<event>
 6    0  0.4081161E+002  0.1197989E+03  0.7546771E-02  0.1243429E+00
         21   -1    0    0  505  502  0.00000000000E+00  0.00000000000E+00  0.15109104050E+03  0.15109104050E+03  0.00000000000E+00 0.  1.
          2   -1    0    0  504    0 -0.00000000000E+00 -0.00000000000E+00 -0.13842946933E+04  0.13842946933E+04  0.00000000000E+00 0. -1.
         21    1    1    2  503  502  0.81827776541E+02 -0.10673568392E+03  0.90015088298E+02  0.16183635981E+03  0.00000000000E+00 0.  1.
         21    1    1    2  504  503 -0.17519838039E+02  0.41323991376E+02 -0.17463269991E+03  0.18030861562E+03  0.00000000000E+00 0. -1.
         21    1    1    2  505  501 -0.39250155155E+02 -0.69986795333E+01  0.21778787997E+01  0.39928678302E+02  0.00000000000E+00 0. -1.
          2    1    1    2  501    0 -0.25057783347E+02  0.72410372073E+02 -0.11507639200E+04  0.11533120801E+04  0.00000000000E+00 0. -1.
<scales pt_clust_3="119.79889" pt_clust_4="45.08620" pt_clust_5="39.86924" pt_clust_6="14000.00000"></scales>
<clustering>
<clus scale="   39.869">  1  5  2 -1</clus>
<clus scale="   45.086">  2  4  1 -1</clus>
<clus scale="  119.799">  1  3  2 -1</clus>
<clus scale="   39.869">  1  3  2 -1</clus>
</clustering>
</event>
<event>
 6    0  0.4081161E+002  0.9877663E+02  0.7546771E-02  0.1282890E+00
          2   -1    0    0  505    0 -0.00000000000E+00  0.00000000000E+00  0.31786769340E+03  0.31786769340E+03  0.00000000000E+00 0.  1.
         21   -1    0    0  503  502  0.00000000000E+00 -0.00000000000E+00 -0.29388453917E+03  0.29388453917E+03  0.00000000000E+00 0.  1.
         21    1    1    2  503  501  0.41341024161E+02  0.51642126152E+02 -0.23244495377E+03  0.24167466976E+03  0.00000000000E+00 0.  1.
         21    1    1    2  504  502  0.47753775433E+01 -0.32293146642E+02 -0.70337126676E+01  0.33393482367E+02  0.00000000000E+00 0. -1.
         21    1    1    2  505  504  0.80520604605E+02  0.49289401429E+01  0.10327936854E+03  0.13105147913E+03  0.00000000000E+00 0.  1.
          2    1    1    2  501    0 -0.12663700631E+03 -0.24277919653E+02  0.16018245213E+03  0.20563260130E+03  0.00000000000E+00 0.  1.
<scales pt_clust_3="51.26826" pt_clust_4="32.64432" pt_clust_5="98.77663" pt_clust_6="14000.00000"></scales>
<clustering>
<clus scale="   32.644">  2  4  1 -1</clus>
<clus scale="   51.268">  2  3  1 -1</clus>
<clus scale="   98.777">  1  5  2 -1</clus>
<clus scale="   32.644">  2  3  1 -1</clus>
</clustering>
</event>
<event>
 6    0  0.4081161E+002  0.1709681E+03  0.7546771E-02  0.1176842E+00
          2   -1    0    0  503    0 -0.00000000000E+00  0.00000000000E+00  0.19800254352E+04  0.19800254352E+04  0.00000000000E+00 0. -1.
         21   -1    0    0  505  502  0.00000000000E+00 -0.00000000000E+00 -0.25302209266E+03  0.25302209266E+03  0.00000000000E+00 0.  1.
         21    1    1    2  503  504  0.65181167304E+02  0.64180215374E+02  0.15161863411E+03  0.17707595779E+03  0.00000000000E+00 0. -1.
         21    1    1    2  504  502 -0.86342608321E+02 -0.97049468278E+02  0.26362520839E+02  0.13254670049E+03  0.00000000000E+00 0.  1.
         21    1    1    2  505  501  0.12889388039E+03  0.15141017647E+03 -0.12948824872E+03  0.23728860171E+03  0.00000000000E+00 0.  1.
          2    1    1    2  501    0 -0.10773243938E+03 -0.11854092357E+03  0.16785104363E+04  0.16861362679E+04  0.00000000000E+00 0. -1.
<scales pt_clust_3="91.47505" pt_clust_4="170.96814" pt_clust_5="14000.00000" pt_clust_6="75.70164"></scales>
<clustering>
<clus scale="   91.475">  1  3  2 -1</clus>
<clus scale="   75.702">  1  6  2 -1</clus>
<clus scale="  170.968">  1  4  2 -1</clus>
<clus scale="  170.968">  2  3  1 -1</clus>
</clustering>
</event>
<event>
 6    0  0.4081161E+002  0.8763746E+02  0.7546771E-02  0.1308676E+00
         21   -1    0    0  503  502  0.00000000000E+00  0.00000000000E+00  0.14798035083E+03  0.14798035083E+03  0.00000000000E+00 0.  1.
         -3   -1    0    0    0  501 -0.00000000000E+00 -0.00000000000E+00 -0.45864504955E+03  0.45864504955E+03  0.00000000000E+00 0. -1.
         21    1    1    2  503  501 -0.10310825714E+03  0.79784355788E+02 -0.59443050193E+02  0.14328409659E+03  0.00000000000E+00 0.  1.
         21    1    1    2  504  505  0.18143628455E+02 -0.67179673543E+02 -0.72853813130E+02  0.10074709861E+03  0.00000000000E+00 0. -1.
         21    1    1    2  505  502  0.17876992531E+02 -0.49030955934E+02  0.78699719823E+02  0.94431284022E+02  0.00000000000E+00 0.  1.
         -3    1    1    2    0  504  0.67087636152E+02  0.36426273690E+02 -0.25706755522E+03  0.26816292116E+03  0.00000000000E+00 0. -1.
<scales pt_clust_3="87.63746" pt_clust_4="14000.00000" pt_clust_5="52.18833" pt_clust_6="75.78823"></scales>
<clustering>
<clus scale="   52.188">  1  5  2 -1</clus>
<clus scale="   75.788">  2  6  1 -1</clus>
<clus scale="   87.637">  1  3  2 -1</clus>
<clus scale="   52.188">  1  3  2 -1</clus>
</clustering>
</event>
<event>
 6    0  0.4081161E+002  0.1140679E+03  0.7546771E-02  0.1253217E+00
         21   -1    0    0  503  502  0.00000000000E+00  0.00000000000E+00  0.30168690563E+02  0.30168690563E+02  0.00000000000E+00 0. -1.
          2   -1    0    0  502    0 -0.00000000000E+00 -0.00000000000E+00 -0.18958708881E+04  0.18958708881E+04  0.00000000000E+00 0. -1.
         21    1    1    2  503  505 -0.44544434878E+02 -0.14518849876E+02 -0.50550409971E+01  0.47122787692E+02  0.00000000000E+00 0. -1.
         21    1    1    2  504  501  0.16998780197E+02 -0.63058707299E+02 -0.34484599552E+03  0.35097595319E+03  0.00000000000E+00 0. -1.
         21    1    1    2  505  504  0.20923358335E+02 -0.29242544640E+02 -0.75040386812E+02  0.83210413976E+02  0.00000000000E+00 0. -1.
          2    1    1    2  501    0  0.66222963458E+01  0.10682010182E+03 -0.14407607742E+04  0.14447304238E+04  0.00000000000E+00 0. -1.
<scales pt_clust_3="46.85087" pt_clust_4="35.24002" pt_clust_5="35.24002" pt_clust_6="103.71047"></scales>
<clustering>
<clus scale="   35.240">  4  5 -1 -1</clus>
<clus scale="   46.851">  1  3  2 -1</clus>
<clus scale="  103.710">  2  6  1 -1</clus>
<clus scale="   46.851">  1  3  2 -1</clus>
</clustering>
</event>
<event>
 6    0  0.4081161E+002  0.9338859E+02  0.7546771E-02  0.1294847E+00
          2   -1    0    0  505    0 -0.00000000000E+00  0.00000000000E+00  0.38631479464E+04  0.38631479464E+04  0.00000000000E+00 0. -1.
         21   -1    0    0  503  502  0.00000000000E+00 -0.00000000000E+00 -0.70184011744E+03  0.70184011744E+03  0.00000000000E+00 0. -1.
         21    1    1    2  503  501 -0.65288887461E+02  0.91005738289E+02 -0.51896326549E+03  0.53091200227E+03  0.00000000000E+00 0. -1.
         21    1    1    2  504  502 -0.96187488371E+01 -0.79220979126E+02 -0.16583304908E+03  0.18403555100E+03  0.00000000000E+00 0. -1.
         21    1    1    2  505  504  0.63725451561E+01  0.35511455772E+02  0.21682233499E+03  0.21980354359E+03  0.00000000000E+00 0. -1.
          2    1    1    2  501    0  0.68535091142E+02 -0.47296214934E+02  0.36292818085E+04  0.36302369670E+04  0.00000000000E+00 0. -1.
<scales pt_clust_3="93.38859" pt_clust_4="14000.00000" pt_clust_5="36.07870" pt_clust_6="75.82592"></scales>
<clustering>
<clus scale="   36.079">  1  5  2 -1</clus>
<clus scale="   75.826">  1  6  2 -1</clus>
<clus scale="   93.389">  2  3  1 -1</clus>
<clus scale="   93.389">  2  3  1 -1</clus>
</clustering>
</event>
<event>
 6    0  0.4081161E+002  0.9835432E+02  0.7546771E-02  0.1283795E+00
         21   -1    0    0  504  502  0.00000000000E+00  0.00000000000E+00  0.14133969073E+03  0.14133969073E+03  0.00000000000E+00 0.  1.
          2   -1    0    0  503    0 -0.00000000000E+00 -0.00000000000E+00 -0.25772142851E+03  0.25772142851E+03  0.00000000000E+00 0. -1.
         21    1    1    2  503  505  0.30353121682E+02  0.37005865115E+01 -0.21140000998E+02  0.37173996000E+02  0.00000000000E+00 0. -1.
         21    1    1    2  504  501  0.21979755496E+02 -0.42445184614E+02  0.10785869722E+02  0.49000391164E+02  0.00000000000E+00 0. -1.
         21    1    1    2  505  502 -0.81924693738E+02 -0.45056932655E+02  0.69260328614E+02  0.11635624497E+03  0.00000000000E+00 0.  1.
          2    1    1    2  501    0  0.29591816560E+02  0.83801530757E+02 -0.17528793512E+03  0.19653048711E+03  0.00000000000E+00 0. -1.
<scales pt_clust_3="30.57787" pt_clust_4="48.74956" pt_clust_5="98.35432" pt_clust_6="14000.00000"></scales>
<clustering>
<clus scale="   30.578">  2  3  1 -1</clus>
<clus scale="   48.750">  1  4  2 -1</clus>
<clus scale="   98.354">  1  5  2 -1</clus>
<clus scale="   48.750">  1  3  2 -1</clus>
</clustering>
</event>
<event>
 6    0  0.4081161E+002  0.8353603E+02  0.7546771E-02  0.1319306E+00
         21   -1    0    0  504  502  0.00000000000E+00  0.00000000000E+00  0.43841716364E+03  0.43841716364E+03  0.00000000000E+00 0.  1.
         -1   -1    0    0    0  501 -0.00000000000E+00 -0.00000000000E+00 -0.13537925703E+04  0.13537925703E+04  0.00000000000E+00 0.  1.
         21    1    1    2  503  501  0.34858739704E+02 -0.12569393936E+02 -0.81889031414E+03  0.81972828912E+03  0.00000000000E+00 0.  1.
         21    1    1    2  504  505 -0.25625429976E+02 -0.28022702422E+02  0.41958912118E+03  0.42130388691E+03  0.00000000000E+00 0.  1.
         21    1    1    2  505  503 -0.23055978737E+01  0.10819995915E+03 -0.19528676144E+03  0.22326994007E+03  0.00000000000E+00 0.  1.
         -1    1    1    2    0  502 -0.69277118549E+01 -0.67607862797E+02 -0.32078745228E+03  0.32790761785E+03  0.00000000000E+00 0.  1.
<scales pt_clust_3="37.05565" pt_clust_4="37.95000" pt_clust_5="83.53603" pt_clust_6="14000.00000"></scales>
<clustering>
<clus scale="   37.056">  2  3  1 -1</clus>
<clus scale="   37.950">  1  4  2 -1</clus>
<clus scale="   83.536">  1  5  2 -1</clus>
<clus scale="   37.950">  1  3  2 -1</clus>
</clustering>
</event>
<event>
 6    0  0.4081161E+002  0.1361719E+03  0.7546771E-02  0.1218575E+00
         21   -1    0    0  505  502  0.00000000000E+00  0.00000000000E+00  0.30978813843E+03  0.30978813843E+03  0.00000000000E+00 0.  1.
          2   -1    0    0  504    0 -0.00000000000E+00 -0.00000000000E+00 -0.30329891971E+04  0.30329891971E+04  0.00000000000E+00 0.  1.
         21    1    1    2  503  502  0.15742831746E+02  0.44508228654E+02  0.17537449907E+03  0.18161782427E+03  0.00000000000E+00 0.  1.
         21    1    1    2  504  503  0.94903115819E+02 -0.36104335892E+02 -0.74553589531E+03  0.75241869704E+03  0.00000000000E+00 0.  1.
         21    1    1    2  505  501 -0.10286884088E+03  0.64872173774E+02  0.98189479063E+02  0.15630601765E+03  0.00000000000E+00 0.  1.
          2    1    1    2  501    0 -0.77771066845E+01 -0.73276066536E+02 -0.22512291415E+04  0.22524347965E+04  0.00000000000E+00 0.  1.
<scales pt_clust_3="47.21037" pt_clust_4="14000.00000" pt_clust_5="136.17188" pt_clust_6="73.47679"></scales>
<clustering>
<clus scale="   47.210">  1  3  2 -1</clus>
<clus scale="   73.477">  2  6  1 -1</clus>
<clus scale="  136.172">  1  5  2 -1</clus>
<clus scale="   47.210">  1  3  2 -1</clus>
</clustering>
</event>
<event>
 6    0  0.4081161E+002  0.6366466E+02  0.7546771E-02  0.1383066E+00
          1   -1    0    0  503    0 -0.00000000000E+00  0.00000000000E+00  0.13789914543E+03  0.13789914543E+03  0.00000000000E+00 0.  1.
         21   -1    0    0  501  502  0.00000000000E+00 -0.00000000000E+00 -0.59439320865E+03  0.59439320865E+03  0.00000000000E+00 0.  1.
         21    1    1    2  503  505  0.63433779173E+02 -0.83506544961E+01  0.94444766620E+02  0.11407625394E+03  0.00000000000E+00 0.  1.
         21    1    1    2  504  502  0.25105555195E+02 -0.43483996884E+02 -0.42148601285E+03  0.42446626004E+03  0.00000000000E+00 0.  1.
         21    1    1    2  505  504 -0.63475821377E+02 -0.20422153762E+02 -0.71696441254E+02  0.97911306560E+02  0.00000000000E+00 0.  1.
          1    1    1    2  501    0 -0.25063512991E+02  0.72256805142E+02 -0.57756375739E+02  0.95838533541E+02  0.00000000000E+00 0.  1.
<scales pt_clust_3="14000.00000" pt_clust_4="50.21102" pt_clust_5="63.66466" pt_clust_6="54.55375"></scales>
<clustering>
<clus scale="   50.211">  2  4  1 -1</clus>
<clus scale="   54.554">  2  6  1 -1</clus>
<clus scale="   63.665">  2  5  1 -1</clus>
<clus scale="   50.211">  2  3  1 -1</clus>
</clustering>
</event>
<event>
 6    0  0.4081161E+002  0.9011538E+02  0.7546771E-02  0.1302573E+00
          4   -1    0    0  504    0 -0.00000000000E+00  0.00000000000E+00  0.24187774796E+03  0.24187774796E+03  0.00000000000E+00 0. -1.
         21   -1    0    0  503  502  0.00000000000E+00 -0.00000000000E+00 -0.18473535031E+03  0.18473535031E+03  0.00000000000E+00 0.  1.
         21    1    1    2  503  505  0.43203977969E+02  0.70897428388E+01 -0.93728165204E+02  0.10344958733E+03  0.00000000000E+00 0.  1.
         21    1    1    2  504  502 -0.68957510534E+01 -0.42463963187E+02  0.10429984992E+02  0.44266512615E+02  0.00000000000E+00 0.  1.
         21    1    1    2  505  501 -0.10954930137E+03  0.46692848142E+02 -0.11423005496E+01  0.11909062242E+03  0.00000000000E+00 0.  1.
          4    1    1    2  501    0  0.73241074456E+02 -0.11318627793E+02  0.14158287840E+03  0.15980637590E+03  0.00000000000E+00 0. -1.
<scales pt_clust_3="43.48167" pt_clust_4="43.02022" pt_clust_5="90.11538" pt_clust_6="14000.00000"></scales>
<clustering>
<clus scale="   43.020">  1  4  2 -1</clus>
<clus scale="   43.482">  2  3  1 -1</clus>
<clus scale="   90.115">  2  5  1 -1</clus>
<clus scale="   43.482">  2  3  1 -1</clus>
</clustering>
</event>
<event>
 6    0  0.4081161E+002  0.7600840E+02  0.7546771E-02  0.1340776E+00
         -4   -1    0    0    0  501 -0.00000000000E+00  0.00000000000E+00  0.17721057653E+03  0.17721057653E+03  0.00000000000E+00 0. -1.
         21   -1    0    0  503  502  0.00000000000E+00 -0.00000000000E+00 -0.19481758603E+04  0.19481758603E+04  0.00000000000E+00 0. -1.
         21    1    1    2  503  505 -0.23882894913E+02 -0.82848325442E+02 -0.13298710418E+04  0.13326632078E+04  0.00000000000E+00 0. -1.
         21    1    1    2  504  502 -0.53814030593E+02  0.62153671742E+02 -0.59778088935E+03  0.60340783925E+03  0.00000000000E+00 0. -1.
         21    1    1    2  505  501  0.46877018471E+02  0.36383309214E+02  0.51438409074E+02  0.78530949174E+02  0.00000000000E+00 0. -1.
         -4    1    1    2    0  504  0.30819907035E+02 -0.15688655514E+02  0.10524823836E+03  0.11078444051E+03  0.00000000000E+00 0. -1.
<scales pt_clust_3="14000.00000" pt_clust_4="76.00840" pt_clust_5="78.85208" pt_clust_6="34.58324"></scales>
<clustering>
<clus scale="   34.583">  1  6  2 -1</clus>
<clus scale="   78.852">  1  5  2 -1</clus>
<clus scale="   76.008">  1  4  2 -1</clus>
<clus scale="   76.008">  2  3  1 -1</clus>
</clustering>
</event>
<event>
 6    0  0.4628097E+002  0.8128744E+02  0.7546771E-02  0.1325437E+00
          2   -1    0    0  503    0 -0.00000000000E+00  0.00000000000E+00  0.20233197452E+04  0.20233197452E+04  0.00000000000E+00 0. -1.
         21   -1    0    0  504  502  0.00000000000E+00 -0.00000000000E+00 -0.22519569703E+03  0.22519569703E+03  0.00000000000E+00 0.  1.
         21    1    1    2  503  502  0.41111259535E+02  0.78665604703E+01  0.53808427213E+02  0.68171586994E+02  0.00000000000E+00 0.  1.
         21    1    1    2  504  505  0.82156528096E+01 -0.74195423755E+02 -0.19891812161E+03  0.21246382507E+03  0.00000000000E+00 0.  1.
         21    1    1    2  505  501 -0.10065820167E+03  0.34797655470E+01  0.21161572901E+03  0.23436168436E+03  0.00000000000E+00 0.  1.
          2    1    1    2  501    0  0.51331289327E+02  0.62849097738E+02  0.17316180136E+04  0.17335183458E+04  0.00000000000E+00 0. -1.
<scales pt_clust_3="41.85712" pt_clust_4="78.71756" pt_clust_5="14000.00000" pt_clust_6="81.28744"></scales>
<clustering>
<clus scale="   41.857">  2  3  1 -1</clus>
<clus scale="   81.287">  1  6  2 -1</clus>
<clus scale="   78.718">  2  4  1 -1</clus>
<clus scale="   41.857">  2  3  1 -1</clus>
</clustering>
</event>
<event>
 6    0  0.4081161E+002  0.8379840E+02  0.7546771E-02  0.1318605E+00
         21   -1    0    0  505  502  0.00000000000E+00  0.00000000000E+00  0.55079925262E+02  0.55079925262E+02  0.00000000000E+00 0. -1.
          2   -1    0    0  504    0 -0.00000000000E+00 -0.00000000000E+00 -0.19348641198E+04  0.19348641198E+04  0.00000000000E+00 0. -1.
         21    1    1    2  503  502  0.60659481977E+02 -0.81815066400E+02 -0.55966985561E+02  0.11621351607E+03  0.00000000000E+00 0. -1.
         21    1    1    2  504  503  0.12646131344E+02  0.49274252327E+02 -0.39474553837E+03  0.39800994541E+03  0.00000000000E+00 0. -1.
         21    1    1    2  505  501 -0.63946640909E+02 -0.16189111056E+02 -0.24644972719E+02  0.70417575083E+02  0.00000000000E+00 0. -1.
          2    1    1    2  501    0 -0.93589724128E+01  0.48729925129E+02 -0.14044266979E+04  0.14053030085E+04  0.00000000000E+00 0. -1.
<scales pt_clust_3="83.79840" pt_clust_4="14000.00000" pt_clust_5="65.85521" pt_clust_6="49.62052"></scales>
<clustering>
<clus scale="   49.621">  2  6  1 -1</clus>
<clus scale="   65.855">  1  5  2 -1</clus>
<clus scale="   83.798">  1  3  2 -1</clus>
<clus scale="   65.855">  1  3  2 -1</clus>
</clustering>
</event>
<event>
 6    0  0.4081161E+002  0.1271875E+03  0.7546771E-02  0.1231690E+00
          1   -1    0    0  503    0 -0.00000000000E+00  0.00000000000E+00  0.30120233195E+03  0.30120233195E+03  0.00000000000E+00 0. -1.
         21   -1    0    0  505  502  0.00000000000E+00 -0.00000000000E+00 -0.88167809769E+02  0.88167809769E+02  0.00000000000E+00 0. -1.
         21    1    1    2  503  502  0.31405260023E+00 -0.14113518958E+03  0.14901447955E+03  0.20524267461E+03  0.00000000000E+00 0. -1.
         21    1    1    2  504  501 -0.15924026257E+02  0.45076201980E+02  0.21097155891E+02  0.52254459942E+02  0.00000000000E+00 0. -1.
         21    1    1    2  505  504  0.17330506316E+01  0.40569473525E+02 -0.21314687991E+02  0.45860675647E+02  0.00000000000E+00 0. -1.
          1    1    1    2  501    0  0.13876923025E+02  0.55489514077E+02  0.64237574729E+02  0.86012331512E+02  0.00000000000E+00 0. -1.
<scales pt_clust_3="120.24400" pt_clust_4="37.89366" pt_clust_5="40.60647" pt_clust_6="37.89366"></scales>
<clustering>
<clus scale="   37.894">  4  6 -1 -1</clus>
<clus scale="   40.606">  2  5  1 -1</clus>
<clus scale="  120.244">  2  3  1 -1</clus>
<clus scale="   40.606">  2  3  1 -1</clus>
</clustering>
</event>
<event>
 6    0  0.4274669E+002  0.1055915E+03  0.7546771E-02  0.1268958E+00
         21   -1    0    0  505  502  0.00000000000E+00  0.00000000000E+00  0.62474312017E+03  0.62474312017E+03  0.00000000000E+00 0. -1.
         -2   -1    0    0    0  501 -0.00000000000E+00 -0.00000000000E+00 -0.92922775948E+03  0.92922775948E+03  0.00000000000E+00 0. -1.
         21    1    1    2  503  502 -0.17079739637E+02 -0.87350439047E+02  0.57001626423E+03  0.57692318223E+03  0.00000000000E+00 0. -1.
         21    1    1    2  504  501  0.23713679395E+02  0.33127058007E+02 -0.70765179771E+02  0.81654462405E+02  0.00000000000E+00 0. -1.
         21    1    1    2  505  504  0.61251273999E+02 -0.98163428044E+01  0.20926226205E+02  0.65467443021E+02  0.00000000000E+00 0. -1.
         -2    1    1    2    0  503 -0.67885213757E+02  0.64039723844E+02 -0.82466194997E+03  0.82992579199E+03  0.00000000000E+00 0. -1.
<scales pt_clust_3="14000.00000" pt_clust_4="40.73991" pt_clust_5="62.51459" pt_clust_6="105.59154"></scales>
<clustering>
<clus scale="   40.740">  2  4  1 -1</clus>
<clus scale="   62.515">  1  5  2 -1</clus>
<clus scale="  105.592">  2  6  1 -1</clus>
<clus scale="   62.515">  1  3  2 -1</clus>
</clustering>
</event>
<event>
 6    0  0.4081161E+002  0.1274800E+03  0.7546771E-02  0.1231244E+00
         21   -1    0    0  505  502  0.00000000000E+00  0.00000000000E+00  0.14888581082E+04  0.14888581082E+04  0.00000000000E+00 0.  1.
          2   -1    0    0  503    0 -0.00000000000E+00 -0.00000000000E+00 -0.54630911068E+03  0.54630911068E+03  0.00000000000E+00 0.  1.
         21    1    1    2  503  504 -0.34625897985E+02  0.58944068107E+02 -0.23526845599E+03  0.24499918849E+03  0.00000000000E+00 0.  1.
         21    1    1    2  504  502 -0.11455128258E+03 -0.26916438986E+02  0.13972891613E+04  0.14022351769E+04  0.00000000000E+00 0.  1.
         21    1    1    2  505  501  0.12609086534E+02 -0.50622900389E+02  0.58063560333E+02  0.78057953762E+02  0.00000000000E+00 0.  1.
          2    1    1    2  501    0  0.13656809403E+03  0.18595271268E+02 -0.27753526813E+03  0.30987489972E+03  0.00000000000E+00 0.  1.
<scales pt_clust_3="68.19063" pt_clust_4="127.48001" pt_clust_5="52.16960" pt_clust_6="14000.00000"></scales>
<clustering>
<clus scale="   52.170">  1  5  2 -1</clus>
<clus scale="   68.191">  2  3  1 -1</clus>
<clus scale="  127.480">  1  4  2 -1</clus>
<clus scale="   52.170">  1  3  2 -1</clus>
</clustering>
</event>
<event>
 6    0  0.4081161E+002  0.8291463E+02  0.7546771E-02  0.1320978E+00
         21   -1    0    0  503  502  0.00000000000E+00  0.00000000000E+00  0.25623777928E+03  0.25623777928E+03  0.00000000000E+00 0. -1.
          1   -1    0    0  504    0 -0.00000000000E+00 -0.00000000000E+00 -0.10033545789E+03  0.10033545789E+03  0.00000000000E+00 0. -1.
         21    1    1    2  503  505 -0.49205178271E+00  0.38979708010E+02  0.84217415048E+02  0.92802116080E+02  0.00000000000E+00 0.  1.
         21    1    1    2  504  502  0.53806067894E+02 -0.18889303241E+02  0.55278489636E+02  0.79420464212E+02  0.00000000000E+00 0. -1.
         21    1    1    2  505  501 -0.72183821336E+02  0.60917812576E+02  0.31995258217E+02  0.99725525820E+02  0.00000000000E+00 0. -1.
          1    1    1    2  501    0  0.18869805225E+02 -0.81008217345E+02 -0.15588841514E+02  0.84625131057E+02  0.00000000000E+00 0. -1.
<scales pt_clust_3="38.98281" pt_clust_4="53.70615" pt_clust_5="14000.00000" pt_clust_6="82.91463"></scales>
<clustering>
<clus scale="   38.983">  1  3  2 -1</clus>
<clus scale="   53.706">  1  4  2 -1</clus>
<clus scale="   82.915">  2  6  1 -1</clus>
<clus scale="   38.983">  1  3  2 -1</clus>
</clustering>
</event>
<event>
 6    0  0.4081161E+002  0.2957501E+03  0.7546771E-02  0.1087385E+00
          2   -1    0    0  502    0 -0.00000000000E+00  0.00000000000E+00  0.64046118978E+03  0.64046118978E+03  0.00000000000E+00 0.  1.
         21   -1    0    0  505  502  0.00000000000E+00 -0.00000000000E+00 -0.45623057610E+03  0.45623057610E+03  0.00000000000E+00 0.  1.
         21    1    1    2  503  504 -0.22983287413E+03 -0.53404807891E+02 -0.14938142426E+02  0.23642836470E+03  0.00000000000E+00 0.  1.
         21    1    1    2  504  501  0.44951963161E+02 -0.38092336240E+02  0.24969322933E+02  0.63993532173E+02  0.00000000000E+00 0. -1.
         21    1    1    2  505  503 -0.43158192634E+02  0.21757357868E+03 -0.22732106016E+03  0.31760943960E+03  0.00000000000E+00 0.  1.
          2    1    1    2  501    0  0.22803910360E+03 -0.12607643455E+03  0.40152049333E+03  0.47866042941E+03  0.00000000000E+00 0.  1.
<scales pt_clust_3="276.34017" pt_clust_4="50.10921" pt_clust_5="221.81274" pt_clust_6="50.10921"></scales>
<clustering>
<clus scale="   50.109">  4  6 -1 -1</clus>
<clus scale="  221.813">  2  5  1 -1</clus>
<clus scale="  276.340">  2  3  1 -1</clus>
<clus scale="  221.813">  2  3  1 -1</clus>
</clustering>
</event>
<event>
 6    0  0.4081161E+002  0.1572811E+03  0.7546771E-02  0.1191801E+00
          2   -1    0    0  503    0 -0.00000000000E+00  0.00000000000E+00  0.24178022434E+03  0.24178022434E+03  0.00000000000E+00 0.  1.
         21   -1    0    0  504  502  0.00000000000E+00 -0.00000000000E+00 -0.69233807703E+03  0.69233807703E+03  0.00000000000E+00 0.  1.
         21    1    1    2  503  502  0.16233097179E+03  0.20423383365E+03 -0.11082740781E+03  0.28345284887E+03  0.00000000000E+00 0.  1.
         21    1    1    2  504  505 -0.94530905151E+02 -0.91934483247E+02 -0.45236927405E+03  0.47119635116E+03  0.00000000000E+00 0.  1.
         21    1    1    2  505  501 -0.32038261940E+02 -0.50227180820E+02  0.21034321413E+02  0.63179605876E+02  0.00000000000E+00 0.  1.
          2    1    1    2  501    0 -0.35761804700E+02 -0.62072169585E+02  0.91604507768E+02  0.11628949547E+03  0.00000000000E+00 0.  1.
<scales pt_clust_3="149.74542" pt_clust_4="131.86372" pt_clust_5="43.86460" pt_clust_6="43.86460"></scales>
<clustering>
<clus scale="   43.865">  5  6 -1 -1</clus>
<clus scale="  131.864">  2  4  1 -1</clus>
<clus scale="  149.745">  2  3  1 -1</clus>
<clus scale="  131.864">  2  3  1 -1</clus>
</clustering>
</event>
<event>
 6    0  0.4081161E+002  0.9690654E+02  0.7546771E-02  0.1286939E+00
         21   -1    0    0  504  502  0.00000000000E+00  0.00000000000E+00  0.27720114449E+03  0.27720114449E+03  0.00000000000E+00 0. -1.
          4   -1    0    0  503    0 -0.00000000000E+00 -0.00000000000E+00 -0.16492044095E+04  0.16492044095E+04  0.00000000000E+00 0. -1.
         21    1    1    2  503  505  0.30835346219E+02  0.77785187929E+01 -0.45051499504E+03  0.45163600907E+03  0.00000000000E+00 0. -1.
         21    1    1    2  504  501 -0.19196892374E+02 -0.11503674448E+03 -0.13615679140E+03  0.17927812221E+03  0.00000000000E+00 0. -1.
         21    1    1    2  505  502 -0.19329737549E+02  0.25648022885E+02  0.25244643057E+03  0.25448115871E+03  0.00000000000E+00 0. -1.
          4    1    1    2  501    0  0.76912837040E+01  0.81610202801E+02 -0.10377779091E+04  0.10410102640E+04  0.00000000000E+00 0. -1.
<scales pt_clust_3="31.80132" pt_clust_4="96.90654" pt_clust_5="32.10587" pt_clust_6="14000.00000"></scales>
<clustering>
<clus scale="   31.801">  2  3  1 -1</clus>
<clus scale="   32.106">  1  5  2 -1</clus>
<clus scale="   96.907">  1  4  2 -1</clus>
<clus scale="   32.106">  1  3  2 -1</clus>
</clustering>
</event>
<event>
 6    0  0.4081161E+002  0.8646237E+02  0.7546771E-02  0.1311652E+00
          2   -1    0    0  504    0 -0.00000000000E+00  0.00000000000E+00  0.10892296195E+04  0.10892296195E+04  0.00000000000E+00 0.  1.
         21   -1    0    0  501  502  0.00000000000E+00 -0.00000000000E+00 -0.32734643708E+03  0.32734643708E+03  0.00000000000E+00 0.  1.
         21    1    1    2  503  505  0.95189588091E+02 -0.33015346916E+02  0.72214783121E+02  0.12395985525E+03  0.00000000000E+00 0.  1.
         21    1    1    2  504  503  0.44786249660E+02  0.27112121473E+02  0.11353288024E+03  0.12502235874E+03  0.00000000000E+00 0.  1.
         21    1    1    2  505  502 -0.85900691217E+02 -0.11516683201E+01 -0.28861305291E+03  0.30112746371E+03  0.00000000000E+00 0.  1.
          2    1    1    2  501    0 -0.54075146533E+02  0.70548937639E+01  0.86474857199E+03  0.86646637889E+03  0.00000000000E+00 0.  1.
<scales pt_clust_3="14000.00000" pt_clust_4="52.35337" pt_clust_5="86.46237" pt_clust_6="34.28687"></scales>
<clustering>
<clus scale="   52.353">  1  4  2 -1</clus>
<clus scale="   34.287">  1  6  2 -1</clus>
<clus scale="   86.462">  2  5  1 -1</clus>
<clus scale="   86.462">  2  3  1 -1</clus>
</clustering>
</event>
<event>
 6    0  0.4081161E+002  0.3533150E+03  0.7546771E-02  0.1061263E+00
         21   -1    0    0  505  502  0.00000000000E+00  0.00000000000E+00  0.24164665081E+03  0.24164665081E+03  0.00000000000E+00 0. -1.
          2   -1    0    0  503    0 -0.00000000000E+00 -0.00000000000E+00 -0.37154302311E+04  0.37154302311E+04  0.00000000000E+00 0.  1.
         21    1    1    2  503  502 -0.23130788463E+03  0.30298792722E+03 -0.18361994008E+04  0.18753488371E+04  0.00000000000E+00 0. -1.
         21    1    1    2  504  501  0.30100654214E+02 -0.10442025431E+03 -0.62942571453E+03  0.63873810674E+03  0.00000000000E+00 0. -1.
         21    1    1    2  505  504  0.76958067089E+02 -0.13432731711E+02  0.19985057820E+03  0.21457687661E+03  0.00000000000E+00 0. -1.
          2    1    1    2  501    0  0.12424916333E+03 -0.18513494119E+03 -0.12080090431E+04  0.12284130614E+04  0.00000000000E+00 0.  1.
<scales pt_clust_3="349.87226" pt_clust_4="34.35043" pt_clust_5="78.12159" pt_clust_6="34.35043"></scales>
<clustering>
<clus scale="   34.350">  4  6 -1 -1</clus>
<clus scale="   78.122">  1  5  2 -1</clus>
<clus scale="  349.872">  1  3  2 -1</clus>
<clus scale="   78.122">  1  3  2 -1</clus>
</clustering>
</event>
<event>
 6    0  0.4081161E+002  0.1101598E+03  0.7546771E-02  0.1260274E+00
         -3   -1    0    0    0  501 -0.00000000000E+00  0.00000000000E+00  0.91806535925E+02  0.91806535925E+02  0.00000000000E+00 0. -1.
         21   -1    0    0  504  502  0.00000000000E+00 -0.00000000000E+00 -0.60284181981E+03  0.60284181981E+03  0.00000000000E+00 0. -1.
         21    1    1    2  503  502 -0.43936058545E+02 -0.20802585913E+02 -0.24240099586E+03  0.24722736016E+03  0.00000000000E+00 0. -1.
         21    1    1    2  504  505  0.11376731225E+03  0.69085484543E+02 -0.12021527515E+03  0.17935305375E+03  0.00000000000E+00 0. -1.
         21    1    1    2  505  501 -0.60607185355E+02  0.65598709108E+02 -0.11984148305E+02  0.90111272124E+02  0.00000000000E+00 0. -1.
         -3    1    1    2    0  503 -0.92240683483E+01 -0.11388160774E+03 -0.13643486457E+03  0.17795666969E+03  0.00000000000E+00 0. -1.
<scales pt_clust_3="48.61198" pt_clust_4="110.15980" pt_clust_5="91.62239" pt_clust_6="14000.00000"></scales>
<clustering>
<clus scale="   48.612">  2  3  1 -1</clus>
<clus scale="   91.622">  1  5  2 -1</clus>
<clus scale="  110.160">  2  4  1 -1</clus>
<clus scale="   48.612">  2  3  1 -1</clus>
</clustering>
</event>
<event>
 6    0  0.4081161E+002  0.1140550E+03  0.7546771E-02  0.1253240E+00
         -3   -1    0    0    0  501 -0.00000000000E+00  0.00000000000E+00  0.28348511981E+03  0.28348511981E+03  0.00000000000E+00 0.  1.
         21   -1    0    0  505  502  0.00000000000E+00 -0.00000000000E+00 -0.12630276580E+04  0.12630276580E+04  0.00000000000E+00 0. -1.
         21    1    1    2  503  502 -0.16612062237E+03  0.83488949162E+02 -0.21574585323E+03  0.28480298277E+03  0.00000000000E+00 0.  1.
         21    1    1    2  504  501  0.26972946988E+02  0.28669208071E+02 -0.47645311392E+01  0.39650524809E+02  0.00000000000E+00 0.  1.
         21    1    1    2  505  504  0.10137138411E+03 -0.37176787427E+02 -0.97986933241E+03  0.98580027370E+03  0.00000000000E+00 0. -1.
         -3    1    1    2    0  503  0.37776291278E+02 -0.74981369806E+02  0.22083717858E+03  0.23625899653E+03  0.00000000000E+00 0.  1.
<scales pt_clust_3="14000.00000" pt_clust_4="39.36322" pt_clust_5="114.05498" pt_clust_6="79.05711"></scales>
<clustering>
<clus scale="   39.363">  1  4  2 -1</clus>
<clus scale="   79.057">  1  6  2 -1</clus>
<clus scale="  114.055">  2  5  1 -1</clus>
<clus scale="  114.055">  2  3  1 -1</clus>
</clustering>
</event>
<event>
 6    0  0.4081161E+002  0.1678356E+03  0.7546771E-02  0.1180124E+00
         21   -1    0    0  504  502  0.00000000000E+00  0.00000000000E+00  0.82050070462E+03  0.82050070462E+03  0.00000000000E+00 0. -1.
         -2   -1    0    0    0  501 -0.00000000000E+00 -0.00000000000E+00 -0.13514683336E+03  0.13514683336E+03  0.00000000000E+00 0. -1.
         21    1    1    2  503  505  0.43022950816E+02 -0.40998683803E+02  0.38687619282E+02  0.70912609994E+02  0.00000000000E+00 0. -1.
         21    1    1    2  504  503  0.25125494384E+02  0.16075420034E+03  0.69090134947E+03  0.70980129479E+03  0.00000000000E+00 0. -1.
         21    1    1    2  505  501  0.13845749049E+02 -0.72259456972E+02 -0.10341921076E+02  0.74297302913E+02  0.00000000000E+00 0.  1.
         -2    1    1    2    0  502 -0.81994194249E+02 -0.47496059560E+02 -0.33893176413E+02  0.10063633028E+03  0.00000000000E+00 0. -1.
<scales pt_clust_3="58.39098" pt_clust_4="154.75079" pt_clust_5="58.39098" pt_clust_6="94.75718"></scales>
<clustering>
<clus scale="   58.391">  3  5 -1 -1</clus>
<clus scale="   94.757">  2  6  1 -1</clus>
<clus scale="  154.751">  1  4  2 -1</clus>
<clus scale="  154.751">  1  3  2 -1</clus>
</clustering>
</event>
<event>
 6    0  0.4081161E+002  0.7681060E+02  0.7546771E-02  0.1338354E+00
         21   -1    0    0  503  502  0.00000000000E+00  0.00000000000E+00  0.16176268570E+03  0.16176268570E+03  0.00000000000E+00 0.  1.
          3   -1    0    0  505    0 -0.00000000000E+00 -0.00000000000E+00 -0.32659564622E+03  0.32659564622E+03  0.00000000000E+00 0.  1.
         21    1    1    2  503  501  0.61027734725E+01  0.55216943809E+02 -0.39889330186E+02  0.68390886749E+02  0.00000000000E+00 0.  1.
         21    1    1    2  504  502  0.73466330256E+02  0.12690783945E+02  0.10999624680E+03  0.13288164654E+03  0.00000000000E+00 0.  1.
         21    1    1    2  505  504 -0.11142924554E+03 -0.66072025628E+02 -0.20930661048E+03  0.24615289257E+03  0.00000000000E+00 0.  1.
          3    1    1    2  501    0  0.31860141811E+02 -0.18357021255E+01 -0.25633266660E+02  0.40932906056E+02  0.00000000000E+00 0.  1.
<scales pt_clust_3="56.17128" pt_clust_4="14000.00000" pt_clust_5="76.81060" pt_clust_6="31.91298"></scales>
<clustering>
<clus scale="   31.913">  2  6  1 -1</clus>
<clus scale="   56.171">  2  3  1 -1</clus>
<clus scale="   76.811">  2  5  1 -1</clus>
<clus scale="   76.811">  1  3  2 -1</clus>
</clustering>
</event>
<event>
 6    0  0.4081161E+002  0.1114676E+03  0.7546771E-02  0.1257876E+00
          1   -1    0    0  505    0 -0.00000000000E+00  0.00000000000E+00  0.33766739973E+03  0.33766739973E+03  0.00000000000E+00 0.  1.
         21   -1    0    0  503  502  0.00000000000E+00 -0.00000000000E+00 -0.31107884680E+03  0.31107884680E+03  0.00000000000E+00 0. -1.
         21    1    1    2  503  501  0.30204659230E+02  0.32091394081E+02 -0.85533733319E+00  0.44078459764E+02  0.00000000000E+00 0. -1.
         21    1    1    2  504  502  0.29572733567E+02 -0.36548436939E+02 -0.19798241072E+03  0.20348800890E+03  0.00000000000E+00 0. -1.
         21    1    1    2  505  504  0.67966811453E+01 -0.91016821243E+02 -0.48640002429E+02  0.10342198248E+03  0.00000000000E+00 0. -1.
          1    1    1    2  501    0 -0.66574073942E+02  0.95473864101E+02  0.27406630340E+03  0.29775779538E+03  0.00000000000E+00 0.  1.
<scales pt_clust_3="44.07016" pt_clust_4="52.54376" pt_clust_5="111.46763" pt_clust_6="14000.00000"></scales>
<clustering>
<clus scale="   44.070">  2  3  1 -1</clus>
<clus scale="   52.544">  2  4  1 -1</clus>
<clus scale="  111.468">  2  5  1 -1</clus>
<clus scale="   44.070">  2  3  1 -1</clus>
</clustering>
</event>
<event>
 6    0  0.4081161E+002  0.8530641E+02  0.7546771E-02  0.1314633E+00
          1   -1    0    0  503    0 -0.00000000000E+00  0.00000000000E+00  0.20037241234E+04  0.20037241234E+04  0.00000000000E+00 0.  1.
         21   -1    0    0  501  502  0.00000000000E+00 -0.00000000000E+00 -0.61154477859E+02  0.61154477859E+02  0.00000000000E+00 0.  1.
         21    1    1    2  503  505  0.56408532876E+02 -0.24948120129E+00  0.80355118935E+03  0.80552870758E+03  0.00000000000E+00 0.  1.
         21    1    1    2  504  502 -0.21238935799E+02  0.24350440886E+02 -0.48482839912E+02  0.58263385854E+02  0.00000000000E+00 0.  1.
         21    1    1    2  505  504 -0.70719754536E+02  0.57122922154E+02  0.55355933211E+03  0.56097437204E+03  0.00000000000E+00 0.  1.
          1    1    1    2  501    0  0.35550157459E+02 -0.81223881839E+02  0.63394196398E+03  0.64011213578E+03  0.00000000000E+00 0.  1.
<scales pt_clust_3="53.78503" pt_clust_4="32.31155" pt_clust_5="85.30641" pt_clust_6="14000.00000"></scales>
<clustering>
<clus scale="   32.312">  2  4  1 -1</clus>
<clus scale="   53.785">  1  3  2 -1</clus>
<clus scale="   85.306">  1  5  2 -1</clus>
<clus scale="   32.312">  2  3  1 -1</clus>
</clustering>
</event>
<event>
 6    0  0.4081161E+002  0.1109399E+03  0.7546771E-02  0.1258839E+00
         -2   -1    0    0    0  501 -0.00000000000E+00  0.00000000000E+00  0.39808610654E+03  0.39808610654E+03  0.00000000000E+00 0.  1.
         21   -1    0    0  505  502  0.00000000000E+00 -0.00000000000E+00 -0.18555844343E+03  0.18555844343E+03  0.00000000000E+00 0.  1.
         21    1    1    2  503  504 -0.22040653271E+02 -0.28834266927E+02 -0.50829337975E+02  0.62456600490E+02  0.00000000000E+00 0. -1.
         21    1    1    2  504  501  0.13771615386E+03  0.73083628413E+01  0.27255990329E+03  0.30546366737E+03  0.00000000000E+00 0.  1.
         21    1    1    2  505  503 -0.33650295333E+02  0.31805520525E+01 -0.91834446545E+02  0.97857160493E+02  0.00000000000E+00 0.  1.
         -2    1    1    2    0  502 -0.82025205258E+02  0.18345352034E+02  0.82631544340E+02  0.11786712162E+03  0.00000000000E+00 0.  1.
<scales pt_clust_3="50.73814" pt_clust_4="110.93993" pt_clust_5="33.80027" pt_clust_6="14000.00000"></scales>
<clustering>
<clus scale="   33.800">  2  5  1 -1</clus>
<clus scale="   50.738">  2  3  1 -1</clus>
<clus scale="  110.940">  1  4  2 -1</clus>
<clus scale="   33.800">  2  3  1 -1</clus>
</clustering>
</event>
<event>
 6    0  0.4081161E+002  0.1216045E+03  0.7546771E-02  0.1240473E+00
         21   -1    0    0  504  502  0.00000000000E+00  0.00000000000E+00  0.35571474611E+03  0.35571474611E+03  0.00000000000E+00 0. -1.
          1   -1    0    0  503    0 -0.00000000000E+00 -0.00000000000E+00 -0.13214955032E+04  0.13214955032E+04  0.00000000000E+00 0.  1.
         21    1    1    2  503  502  0.38226649028E+02  0.37100715042E+02 -0.15211365441E+03  0.16117165883E+03  0.00000000000E+00 0.  1.
         21    1    1    2  504  505  0.36093637313E+02 -0.10099113132E+02  0.27170016035E+03  0.27427307538E+03  0.00000000000E+00 0. -1.
         21    1    1    2  505  501 -0.13721010427E+03  0.72717485956E+02 -0.53997359292E+01  0.15538211810E+03  0.00000000000E+00 0.  1.
          1    1    1    2  501    0  0.62889817927E+02 -0.99719087866E+02 -0.10799675271E+04  0.10863833970E+04  0.00000000000E+00 0.  1.
<scales pt_clust_3="54.33226" pt_clust_4="37.47990" pt_clust_5="121.60447" pt_clust_6="14000.00000"></scales>
<clustering>
<clus scale="   37.480">  1  4  2 -1</clus>
<clus scale="   54.332">  2  3  1 -1</clus>
<clus scale="  121.604">  1  5  2 -1</clus>
<clus scale="   37.480">  1  3  2 -1</clus>
</clustering>
</event>
<event>
 6    0  0.4081161E+002  0.7470071E+02  0.7546771E-02  0.1344800E+00
         -2   -1    0    0    0  501 -0.00000000000E+00  0.00000000000E+00  0.23392885120E+03  0.23392885120E+03  0.00000000000E+00 0. -1.
         21   -1    0    0  505  502  0.00000000000E+00 -0.00000000000E+00 -0.98544064646E+02  0.98544064646E+02  0.00000000000E+00 0.  1.
         21    1    1    2  503  502  0.26171037956E+02 -0.32582352729E+02  0.15316266204E+02  0.44509784851E+02  0.00000000000E+00 0.  1.
         21    1    1    2  504  501 -0.87873315426E+02 -0.63172427890E+02  0.36940619549E+02  0.11435508114E+03  0.00000000000E+00 0.  1.
         21    1    1    2  505  504  0.45039021074E+02  0.27543421708E+02 -0.13186368377E+02  0.54415382105E+02  0.00000000000E+00 0.  1.
         -2    1    1    2    0  503  0.16663256396E+02  0.68211358911E+02  0.96314269178E+02  0.11919266775E+03  0.00000000000E+00 0. -1.
<scales pt_clust_3="41.79154" pt_clust_4="14000.00000" pt_clust_5="57.41797" pt_clust_6="74.70071"></scales>
<clustering>
<clus scale="   41.792">  2  3  1 -1</clus>
<clus scale="   57.418">  2  5  1 -1</clus>
<clus scale="   74.701">  1  6  2 -1</clus>
<clus scale="   41.792">  2  3  1 -1</clus>
</clustering>
</event>
<event>
 6    0  0.4081161E+002  0.8948253E+02  0.7546771E-02  0.1304110E+00
          2   -1    0    0  503    0 -0.00000000000E+00  0.00000000000E+00  0.27383200590E+03  0.27383200590E+03  0.00000000000E+00 0. -1.
         21   -1    0    0  504  502  0.00000000000E+00 -0.00000000000E+00 -0.76882185834E+03  0.76882185834E+03  0.00000000000E+00 0. -1.
         21    1    1    2  503  505  0.84553563989E+01 -0.44516966891E+02 -0.89636958031E+02  0.10043922360E+03  0.00000000000E+00 0. -1.
         21    1    1    2  504  501 -0.61874488771E+02  0.87497288455E+02 -0.60970247791E+03  0.61904873751E+03  0.00000000000E+00 0. -1.
         21    1    1    2  505  502 -0.28942485030E+02 -0.80588278252E+01 -0.47329917076E+02  0.56060085587E+02  0.00000000000E+00 0.  1.
          2    1    1    2  501    0  0.82361617402E+02 -0.34921493738E+02  0.25167950058E+03  0.26710581753E+03  0.00000000000E+00 0. -1.
<scales pt_clust_3="45.81846" pt_clust_4="14000.00000" pt_clust_5="30.04350" pt_clust_6="89.48253"></scales>
<clustering>
<clus scale="   30.044">  2  5  1 -1</clus>
<clus scale="   45.818">  2  3  1 -1</clus>
<clus scale="   89.483">  1  6  2 -1</clus>
<clus scale="   30.044">  2  3  1 -1</clus>
</clustering>
</event>
<event>
 6    0  0.4081161E+002  0.1233852E+03  0.7546771E-02  0.1237615E+00
          1   -1    0    0  504    0 -0.00000000000E+00  0.00000000000E+00  0.15742234750E+03  0.15742234750E+03  0.00000000000E+00 0. -1.
         21   -1    0    0  501  502  0.00000000000E+00 -0.00000000000E+00 -0.48277097883E+03  0.48277097883E+03  0.00000000000E+00 0.  1.
         21    1    1    2  503  502 -0.29365272210E+02 -0.11670345386E+03 -0.31811239768E+03  0.34011397048E+03  0.00000000000E+00 0.  1.
         21    1    1    2  504  505  0.63686351829E+01 -0.40634575529E+02  0.30503267832E+02  0.51207202530E+02  0.00000000000E+00 0. -1.
         21    1    1    2  505  503 -0.30327362563E+02  0.14270354375E+03 -0.91124968729E+02  0.17201107594E+03  0.00000000000E+00 0.  1.
          1    1    1    2  501    0  0.53323999591E+02  0.14634485637E+02  0.53385467257E+02  0.76861077383E+02  0.00000000000E+00 0. -1.
<scales pt_clust_3="123.38517" pt_clust_4="41.13062" pt_clust_5="14000.00000" pt_clust_6="57.45120"></scales>
<clustering>
<clus scale="   41.131">  1  4  2 -1</clus>
<clus scale="   57.451">  1  6  2 -1</clus>
<clus scale="  123.385">  2  3  1 -1</clus>
<clus scale="  123.385">  2  3  1 -1</clus>
</clustering>
</event>
<event>
 6    0  0.4081161E+002  0.1484022E+03  0.7546771E-02  0.1202450E+00
         21   -1    0    0  504  502  0.00000000000E+00  0.00000000000E+00  0.68470216528E+02  0.68470216528E+02  0.00000000000E+00 0. -1.
         -2   -1    0    0    0  501 -0.00000000000E+00 -0.00000000000E+00 -0.13544446380E+04  0.13544446380E+04  0.00000000000E+00 0.  1.
         21    1    1    2  503  505 -0.14507045289E+02  0.42325710781E+02 -0.12658722062E+02  0.46499068812E+02  0.00000000000E+00 0. -1.
         21    1    1    2  504  501  0.33179331926E+02  0.14677087409E+03 -0.21915077184E+03  0.26583757888E+03  0.00000000000E+00 0. -1.
         21    1    1    2  505  502 -0.99194096236E+01 -0.41049739817E+02  0.36769575008E+01  0.42390987755E+02  0.00000000000E+00 0. -1.
         -2    1    1    2    0  503 -0.87528770130E+01 -0.14804684506E+03 -0.10578418850E+04  0.10681872190E+04  0.00000000000E+00 0.  1.
<scales pt_clust_3="32.59425" pt_clust_4="14000.00000" pt_clust_5="42.23122" pt_clust_6="148.40216"></scales>
<clustering>
<clus scale="   42.231">  1  5  2 -1</clus>
<clus scale="   32.594">  1  3  2 -1</clus>
<clus scale="  148.402">  2  6  1 -1</clus>
<clus scale="   42.231">  1  3  2 -1</clus>
</clustering>
</event>
<event>
 6    0  0.4081161E+002  0.2397715E+03  0.7546771E-02  0.1119945E+00
          2   -1    0    0  505    0 -0.00000000000E+00  0.00000000000E+00  0.12972369583E+04  0.12972369583E+04  0.00000000000E+00 0.  1.
         21   -1    0    0  503  502  0.00000000000E+00 -0.00000000000E+00 -0.25097373212E+03  0.25097373212E+03  0.00000000000E+00 0. -1.
         21    1    1    2  503  501 -0.47132445534E+02  0.10620689351E+02  0.12223812997E+03  0.13143982228E+03  0.00000000000E+00 0.  1.
         21    1    1    2  504  502  0.55574525121E+02 -0.65257849493E+02 -0.18656096967E+03  0.20530979073E+03  0.00000000000E+00 0. -1.
         21    1    1    2  505  504  0.18595392428E+03  0.92790092992E+02  0.23485021717E+03  0.31359765277E+03  0.00000000000E+00 0.  1.
          2    1    1    2  501    0 -0.19439600387E+03 -0.38152932850E+02  0.87573584872E+03  0.89786342466E+03  0.00000000000E+00 0.  1.
<scales pt_clust_3="32.82895" pt_clust_4="85.71531" pt_clust_5="230.37202" pt_clust_6="32.82895"></scales>
<clustering>
<clus scale="   32.829">  3  6 -1 -1</clus>
<clus scale="   85.715">  2  4  1 -1</clus>
<clus scale="  230.372">  2  5  1 -1</clus>
<clus scale="   85.715">  2  3  1 -1</clus>
</clustering>
</event>
<event>
 6    0  0.4081161E+002  0.9795574E+02  0.7546771E-02  0.1284654E+00
          1   -1    0    0  504    0 -0.00000000000E+00  0.00000000000E+00  0.20618519798E+03  0.20618519798E+03  0.00000000000E+00 0.  1.
         21   -1    0    0  505  502  0.00000000000E+00 -0.00000000000E+00 -0.13245025873E+03  0.13245025873E+03  0.00000000000E+00 0.  1.
         21    1    1    2  503  502  0.11007607950E+02 -0.40791896234E+02 -0.13192621747E+02  0.44262755220E+02  0.00000000000E+00 0.  1.
         21    1    1    2  504  503  0.26786350794E+01 -0.43997549081E+02  0.57288792202E+02  0.72283920224E+02  0.00000000000E+00 0.  1.
         21    1    1    2  505  501 -0.93468609355E+02  0.96509189626E+02 -0.47218457812E+01  0.13443474419E+03  0.00000000000E+00 0.  1.
          1    1    1    2  501    0  0.79782366326E+02 -0.11719744312E+02  0.34360614576E+02  0.87654037086E+02  0.00000000000E+00 0.  1.
<scales pt_clust_3="42.25099" pt_clust_4="47.07457" pt_clust_5="14000.00000" pt_clust_6="97.95574"></scales>
<clustering>
<clus scale="   42.251">  2  3  1 -1</clus>
<clus scale="   47.075">  1  4  2 -1</clus>
<clus scale="   97.956">  1  6  2 -1</clus>
<clus scale="   42.251">  2  3  1 -1</clus>
</clustering>
</event>
<event>
 6    0  0.4081161E+002  0.1512100E+03  0.7546771E-02  0.1198994E+00
          1   -1    0    0  504    0 -0.00000000000E+00  0.00000000000E+00  0.18110637146E+04  0.18110637146E+04  0.00000000000E+00 0.  1.
         21   -1    0    0  503  502  0.00000000000E+00 -0.00000000000E+00 -0.50872758288E+03  0.50872758288E+03  0.00000000000E+00 0.  1.
         21    1    1    2  503  505 -0.12528472983E+03 -0.78752942218E+02 -0.38503279122E+03  0.41249065413E+03  0.00000000000E+00 0.  1.
         21    1    1    2  504  502  0.13833305772E+03  0.96761753515E+02 -0.21975564422E+02  0.17024041011E+03  0.00000000000E+00 0.  1.
         21    1    1    2  505  501 -0.41688287779E+02  0.67053387080E+01  0.19016113908E+02  0.46308611438E+02  0.00000000000E+00 0. -1.
          1    1    1    2  501    0  0.28639959884E+02 -0.24714150005E+02  0.16903283735E+04  0.16907516218E+04  0.00000000000E+00 0.  1.
<scales pt_clust_3="151.21002" pt_clust_4="14000.00000" pt_clust_5="33.92676" pt_clust_6="37.82904"></scales>
<clustering>
<clus scale="   37.829">  1  6  2 -1</clus>
<clus scale="   33.927">  1  5  2 -1</clus>
<clus scale="  151.210">  2  3  1 -1</clus>
<clus scale="  151.210">  2  3  1 -1</clus>
</clustering>
</event>
<event>
 6    0  0.4081161E+002  0.2363211E+03  0.7546771E-02  0.1122268E+00
         21   -1    0    0  504  502  0.00000000000E+00  0.00000000000E+00  0.11231943275E+03  0.11231943275E+03  0.00000000000E+00 0. -1.
          2   -1    0    0  505    0 -0.00000000000E+00 -0.00000000000E+00 -0.18842070491E+04  0.18842070491E+04  0.00000000000E+00 0. -1.
         21    1    1    2  503  502 -0.15568627176E+03  0.22822560647E+03 -0.14834939603E+03  0.31358042982E+03  0.00000000000E+00 0. -1.
         21    1    1    2  504  501  0.54136895276E+02 -0.15086172334E+02 -0.21120548923E+02  0.60037268530E+02  0.00000000000E+00 0. -1.
         21    1    1    2  505  503 -0.14325212732E+02 -0.40568107514E+02 -0.16399304362E+03  0.16954262421E+03  0.00000000000E+00 0.  1.
          2    1    1    2  501    0  0.11587458921E+03 -0.17257132662E+03 -0.14384246278E+04  0.14533661593E+04  0.00000000000E+00 0. -1.
<scales pt_clust_3="14000.00000" pt_clust_4="56.14003" pt_clust_5="43.02305" pt_clust_6="236.32111"></scales>
<clustering>
<clus scale="   43.023">  2  5  1 -1</clus>
<clus scale="   56.140">  1  4  2 -1</clus>
<clus scale="  236.321">  2  6  1 -1</clus>
<clus scale="   56.140">  1  3  2 -1</clus>
</clustering>
</event>
<event>
 6    0  0.4081161E+002  0.1308934E+03  0.7546771E-02  0.1226136E+00
         21   -1    0    0  504  502  0.00000000000E+00  0.00000000000E+00  0.18412349648E+03  0.18412349648E+03  0.00000000000E+00 0.  1.
          1   -1    0    0  505    0 -0.00000000000E+00 -0.00000000000E+00 -0.12019422692E+04  0.12019422692E+04  0.00000000000E+00 0.  1.
         21    1    1    2  503  502  0.11683401465E+03  0.95913438707E+02 -0.57975235456E+02  0.16189719772E+03  0.00000000000E+00 0. -1.
         21    1    1    2  504  501 -0.80279954099E+01 -0.31272384112E+02  0.11776824327E+03  0.12211375779E+03  0.00000000000E+00 0.  1.
         21    1    1    2  505  503  0.33606756447E+02 -0.52403759297E+02 -0.13494412308E+03  0.14861185828E+03  0.00000000000E+00 0. -1.
          1    1    1    2  501    0 -0.14241277569E+03 -0.12237295298E+02 -0.94266765742E+03  0.95344295185E+03  0.00000000000E+00 0.  1.
<scales pt_clust_3="130.89338" pt_clust_4="32.28639" pt_clust_5="64.64453" pt_clust_6="14000.00000"></scales>
<clustering>
<clus scale="   32.286">  1  4  2 -1</clus>
<clus scale="   64.645">  2  5  1 -1</clus>
<clus scale="  130.893">  1  3  2 -1</clus>
<clus scale="   32.286">  1  3  2 -1</clus>
</clustering>
</event>
<event>
 6    0  0.4081161E+002  0.8344082E+02  0.7546771E-02  0.1319561E+00
          1   -1    0    0  503    0 -0.00000000000E+00  0.00000000000E+00  0.89464690813E+03  0.89464690813E+03  0.00000000000E+00 0.  1.
         21   -1    0    0  501  502  0.00000000000E+00 -0.00000000000E+00 -0.27068013072E+03  0.27068013072E+03  0.00000000000E+00 0. -1.
         21    1    1    2  503  504 -0.19151598740E+02 -0.39349626939E+02  0.50367683952E+03  0.50557446093E+03  0.00000000000E+00 0.  1.
         21    1    1    2  504  505  0.12979895014E+02 -0.69075270511E+02 -0.16589636893E+03  0.18017068545E+03  0.00000000000E+00 0. -1.
         21    1    1    2  505  502 -0.58772555489E+02  0.14172725476E+00 -0.75967170314E+02  0.96048135488E+02  0.00000000000E+00 0.  1.
          1    1    1    2  501    0  0.64944259215E+02  0.10828317020E+03  0.36215347713E+03  0.38353375699E+03  0.00000000000E+00 0.  1.
<scales pt_clust_3="43.76273" pt_clust_4="83.44082" pt_clust_5="59.27199" pt_clust_6="14000.00000"></scales>
<clustering>
<clus scale="   43.763">  1  3  2 -1</clus>
<clus scale="   59.272">  2  5  1 -1</clus>
<clus scale="   83.441">  2  4  1 -1</clus>
<clus scale="   59.272">  2  3  1 -1</clus>
</clustering>
</event>
<event>
 6    0  0.4081161E+002  0.1903184E+03  0.7546771E-02  0.1158174E+00
         -2   -1    0    0    0  501 -0.00000000000E+00  0.00000000000E+00  0.27327164840E+03  0.27327164840E+03  0.00000000000E+00 0.  1.
         21   -1    0    0  504  502  0.00000000000E+00 -0.00000000000E+00 -0.17344929112E+04  0.17344929112E+04  0.00000000000E+00 0. -1.
         21    1    1    2  503  502  0.65791607520E+02 -0.20191302644E+02 -0.12629523947E+04  0.12648260654E+04  0.00000000000E+00 0. -1.
         21    1    1    2  504  505  0.10829398014E+03 -0.83551988081E+02 -0.34666731134E+03  0.37267512072E+03  0.00000000000E+00 0. -1.
         21    1    1    2  505  501 -0.25289840123E+02 -0.79945336330E+02 -0.11836883880E+02  0.84681430281E+02  0.00000000000E+00 0.  1.
         -2    1    1    2    0  503 -0.14879574754E+03  0.18368862706E+03  0.16023532718E+03  0.28558194318E+03  0.00000000000E+00 0.  1.
<scales pt_clust_3="68.82023" pt_clust_4="14000.00000" pt_clust_5="84.08599" pt_clust_6="190.31839"></scales>
<clustering>
<clus scale="   68.820">  2  3  1 -1</clus>
<clus scale="   84.086">  1  5  2 -1</clus>
<clus scale="  190.318">  1  6  2 -1</clus>
<clus scale="   68.820">  2  3  1 -1</clus>
</clustering>
</event>
<event>
 6    0  0.4081161E+002  0.1468937E+03  0.7546771E-02  0.1204343E+00
         21   -1    0    0  505  502  0.00000000000E+00  0.00000000000E+00  0.10175852458E+04  0.10175852458E+04  0.00000000000E+00 0.  1.
          1   -1    0    0  503    0 -0.00000000000E+00 -0.00000000000E+00 -0.13283861481E+04  0.13283861481E+04  0.00000000000E+00 0.  1.
         21    1    1    2  503  502 -0.37350866816E+02 -0.52686280502E+02 -0.65831931142E+02  0.92221334641E+02  0.00000000000E+00 0.  1.
         21    1    1    2  504  501  0.49732977773E+02  0.33358390982E+02  0.31423250645E+03  0.31988782321E+03  0.00000000000E+00 0.  1.
         21    1    1    2  505  504  0.14025897304E+02  0.82763475440E+02  0.68381496108E+03  0.68894805294E+03  0.00000000000E+00 0.  1.
          1    1    1    2  501    0 -0.26408008261E+02 -0.63435585919E+02 -0.12430164387E+04  0.12449141831E+04  0.00000000000E+00 0.  1.
<scales pt_clust_3="64.58275" pt_clust_4="54.09286" pt_clust_5="54.09286" pt_clust_6="132.19745"></scales>
<clustering>
<clus scale="   54.093">  4  5 -1 -1</clus>
<clus scale="   64.583">  2  3  1 -1</clus>
<clus scale="  132.197">  2  6  1 -1</clus>
<clus scale="  146.894">  1  3  2 -1</clus>
</clustering>
</event>
<event>
 6    0  0.4081161E+002  0.1064145E+03  0.7546771E-02  0.1267358E+00
         21   -1    0    0  501  502  0.00000000000E+00  0.00000000000E+00  0.96338029647E+02  0.96338029647E+02  0.00000000000E+00 0.  1.
          2   -1    0    0  505    0 -0.00000000000E+00 -0.00000000000E+00 -0.38272653461E+03  0.38272653461E+03  0.00000000000E+00 0.  1.
         21    1    1    2  503  504 -0.79585899591E+02  0.11411222625E+03 -0.54153369781E+02  0.14929200599E+03  0.00000000000E+00 0.  1.
         21    1    1    2  504  502  0.35864983629E+02 -0.13947885122E+02  0.24874203673E+02  0.45821027471E+02  0.00000000000E+00 0. -1.
         21    1    1    2  505  503  0.12288774714E+02 -0.31370786539E+02 -0.31964546206E+02  0.46442140844E+02  0.00000000000E+00 0. -1.
          2    1    1    2  501    0  0.31432141248E+02 -0.68793554593E+02 -0.22514479265E+03  0.23750938995E+03  0.00000000000E+00 0.  1.
<scales pt_clust_3="14000.00000" pt_clust_4="39.18483" pt_clust_5="33.69184" pt_clust_6="106.41448"></scales>
<clustering>
<clus scale="   33.692">  2  5  1 -1</clus>
<clus scale="   39.185">  1  4  2 -1</clus>
<clus scale="  106.414">  2  6  1 -1</clus>
<clus scale="   39.185">  1  3  2 -1</clus>
</clustering>
</event>
<event>
 6    0  0.4081161E+002  0.1762746E+03  0.7546771E-02  0.1171458E+00
         21   -1    0    0  504  502  0.00000000000E+00  0.00000000000E+00  0.85304570327E+03  0.85304570327E+03  0.00000000000E+00 0. -1.
          2   -1    0    0  505    0 -0.00000000000E+00 -0.00000000000E+00 -0.20235651805E+04  0.20235651805E+04  0.00000000000E+00 0.  1.
         21    1    1    2  503  502 -0.78666156610E+02  0.11812985489E+03  0.31954686336E+03  0.34964728613E+03  0.00000000000E+00 0. -1.
         21    1    1    2  504  501  0.11919307106E+03 -0.21036375378E+03  0.48317834139E+03  0.54029733173E+03  0.00000000000E+00 0. -1.
         21    1    1    2  505  503  0.28165427353E+02 -0.58351784391E+02 -0.51593615270E+03  0.51998878421E+03  0.00000000000E+00 0.  1.
          2    1    1    2  501    0 -0.68692341804E+02  0.15058568328E+03 -0.14573085293E+04  0.14666774817E+04  0.00000000000E+00 0.  1.
<scales pt_clust_3="176.27459" pt_clust_4="14000.00000" pt_clust_5="64.79369" pt_clust_6="102.62041"></scales>
<clustering>
<clus scale="   64.794">  2  5  1 -1</clus>
<clus scale="  102.620">  2  6  1 -1</clus>
<clus scale="  176.275">  1  3  2 -1</clus>
<clus scale="  176.275">  1  3  2 -1</clus>
</clustering>
</event>
<event>
 6    0  0.4818532E+002  0.6179029E+02  0.7546771E-02  0.1390469E+00
          2   -1    0    0  503    0 -0.00000000000E+00  0.00000000000E+00  0.12268593661E+04  0.12268593661E+04  0.00000000000E+00 0. -1.
         21   -1    0    0  504  502  0.00000000000E+00 -0.00000000000E+00 -0.69789481624E+03  0.69789481624E+03  0.00000000000E+00 0. -1.
         21    1    1    2  503  502 -0.55910278627E+02 -0.10544499809E+03  0.23015126189E+03  0.25925703506E+03  0.00000000000E+00 0. -1.
         21    1    1    2  504  505  0.37326673460E+02  0.48843375408E+02 -0.67995171537E+03  0.68272490149E+03  0.00000000000E+00 0. -1.
         21    1    1    2  505  501 -0.16366526777E+02  0.41590936836E+02  0.34753960658E+03  0.35040183699E+03  0.00000000000E+00 0. -1.
          2    1    1    2  501    0  0.34950131944E+02  0.15010685845E+02  0.63122539676E+03  0.63237040881E+03  0.00000000000E+00 0. -1.
<scales pt_clust_3="61.79029" pt_clust_4="14000.00000" pt_clust_5="50.56281" pt_clust_6="38.03725"></scales>
<clustering>
<clus scale="   38.037">  1  6  2 -1</clus>
<clus scale="   50.563">  1  5  2 -1</clus>
<clus scale="   61.790">  1  3  2 -1</clus>
<clus scale="   61.790">  2  3  1 -1</clus>
</clustering>
</event>
<event>
 6    0  0.4081161E+002  0.2027072E+03  0.7546771E-02  0.1147475E+00
          1   -1    0    0  505    0 -0.00000000000E+00  0.00000000000E+00  0.10119147017E+03  0.10119147017E+03  0.00000000000E+00 0. -1.
         21   -1    0    0  503  502  0.00000000000E+00 -0.00000000000E+00 -0.19361504736E+04  0.19361504736E+04  0.00000000000E+00 0.  1.
         21    1    1    2  503  504 -0.26290349182E+02 -0.19289960195E+03 -0.16817973392E+04  0.16930279765E+04  0.00000000000E+00 0.  1.
         21    1    1    2  504  501  0.50024224978E+02  0.11764156845E+03  0.15985017594E+02  0.12883121710E+03  0.00000000000E+00 0. -1.
         21    1    1    2  505  502 -0.37138319910E+02  0.98918581016E+01 -0.13531988033E+03  0.14067186526E+03  0.00000000000E+00 0. -1.
          1    1    1    2  501    0  0.13404444114E+02  0.65366175399E+02 -0.33826801469E+02  0.74810884943E+02  0.00000000000E+00 0. -1.
<scales pt_clust_3="193.52897" pt_clust_4="43.62257" pt_clust_5="38.43311" pt_clust_6="43.62257"></scales>
<clustering>
<clus scale="   38.433">  2  5  1 -1</clus>
<clus scale="   43.623">  4  6 -1 -1</clus>
<clus scale="  193.529">  2  3  1 -1</clus>
<clus scale="   38.433">  2  3  1 -1</clus>
</clustering>
</event>
<event>
 6    0  0.4081161E+002  0.8559782E+02  0.7546771E-02  0.1313877E+00
         21   -1    0    0  505  502  0.00000000000E+00  0.00000000000E+00  0.10212730898E+03  0.10212730898E+03  0.00000000000E+00 0. -1.
          1   -1    0    0  503    0 -0.00000000000E+00 -0.00000000000E+00 -0.60622439588E+03  0.60622439588E+03  0.00000000000E+00 0. -1.
         21    1    1    2  503  504 -0.37488892545E+02 -0.28606306566E+02 -0.11603337452E+03  0.12524967801E+03  0.00000000000E+00 0.  1.
         21    1    1    2  504  502  0.10618758830E+03 -0.19536845772E+02  0.45324410611E+02  0.11709737166E+03  0.00000000000E+00 0. -1.
         21    1    1    2  505  501 -0.29399005095E+02 -0.19572152955E+02 -0.11843544674E+02  0.37251043238E+02  0.00000000000E+00 0.  1.
          1    1    1    2  501    0 -0.39299690662E+02  0.67715305292E+02 -0.42154457831E+03  0.42875361195E+03  0.00000000000E+00 0. -1.
<scales pt_clust_3="48.97289" pt_clust_4="85.59782" pt_clust_5="35.31814" pt_clust_6="14000.00000"></scales>
<clustering>
<clus scale="   35.318">  1  5  2 -1</clus>
<clus scale="   48.973">  2  3  1 -1</clus>
<clus scale="   85.598">  1  4  2 -1</clus>
<clus scale="   35.318">  1  3  2 -1</clus>
</clustering>
</event>
<event>
 6    0  0.4081161E+002  0.8923064E+02  0.7546771E-02  0.1304726E+00
          2   -1    0    0  504    0 -0.00000000000E+00  0.00000000000E+00  0.63260155437E+02  0.63260155437E+02  0.00000000000E+00 0.  1.
         21   -1    0    0  503  502  0.00000000000E+00 -0.00000000000E+00 -0.19416755837E+04  0.19416755837E+04  0.00000000000E+00 0.  1.
         21    1    1    2  503  501  0.50085455923E+02  0.22915220276E+02 -0.46665200971E+03  0.46989121974E+03  0.00000000000E+00 0.  1.
         21    1    1    2  504  505  0.12717670540E+02  0.35452662713E+02  0.89837293254E+01  0.38721283940E+02  0.00000000000E+00 0.  1.
         21    1    1    2  505  502 -0.16985754556E+02 -0.10841873016E+03 -0.14241604153E+04  0.14283823106E+04  0.00000000000E+00 0.  1.
          2    1    1    2  501    0 -0.45817371907E+02  0.50050847172E+02  0.34132674018E+01  0.67940924821E+02  0.00000000000E+00 0.  1.
<scales pt_clust_3="56.17109" pt_clust_4="37.66471" pt_clust_5="89.23064" pt_clust_6="14000.00000"></scales>
<clustering>
<clus scale="   37.665">  1  4  2 -1</clus>
<clus scale="   56.171">  2  3  1 -1</clus>
<clus scale="   89.231">  2  5  1 -1</clus>
<clus scale="   56.171">  2  3  1 -1</clus>
</clustering>
</event>
<event>
 6    0  0.4081161E+002  0.1301090E+03  0.7546771E-02  0.1227294E+00
         21   -1    0    0  504  502  0.00000000000E+00  0.00000000000E+00  0.26759469032E+03  0.26759469032E+03  0.00000000000E+00 0.  1.
          1   -1    0    0  505    0 -0.00000000000E+00 -0.00000000000E+00 -0.14344461290E+04  0.14344461290E+04  0.00000000000E+00 0. -1.
         21    1    1    2  503  502  0.23527331949E+02  0.31124567851E+02  0.20618004398E+03  0.20983918749E+03  0.00000000000E+00 0.  1.
         21    1    1    2  504  501  0.66757402769E+02 -0.36573349096E+02  0.15164569484E+02  0.77615235980E+02  0.00000000000E+00 0.  1.
         21    1    1    2  505  503  0.41712095760E+02 -0.19116389127E+02 -0.43572863434E+02  0.63276612534E+02  0.00000000000E+00 0.  1.
          1    1    1    2  501    0 -0.13199683048E+03  0.24565170372E+02 -0.13446231887E+04  0.13513097833E+04  0.00000000000E+00 0. -1.
<scales pt_clust_3="39.01633" pt_clust_4="14000.00000" pt_clust_5="47.69404" pt_clust_6="130.10903"></scales>
<clustering>
<clus scale="   39.016">  1  3  2 -1</clus>
<clus scale="   47.694">  1  5  2 -1</clus>
<clus scale="  130.109">  2  6  1 -1</clus>
<clus scale="   39.016">  1  3  2 -1</clus>
</clustering>
</event>
<event>
 6    0  0.4081161E+002  0.1469930E+03  0.7546771E-02  0.1204217E+00
          2   -1    0    0  505    0 -0.00000000000E+00  0.00000000000E+00  0.19790910462E+04  0.19790910462E+04  0.00000000000E+00 0. -1.
         21   -1    0    0  501  502  0.00000000000E+00 -0.00000000000E+00 -0.67284439597E+02  0.67284439597E+02  0.00000000000E+00 0. -1.
         21    1    1    2  503  504 -0.11619978383E+03 -0.16734157846E+03  0.17228430341E+03  0.26680981025E+03  0.00000000000E+00 0. -1.
         21    1    1    2  504  502  0.33448641798E+02  0.47909402309E+02  0.37144649834E+02  0.69237616070E+02  0.00000000000E+00 0. -1.
         21    1    1    2  505  503 -0.12172523074E+02  0.37133555591E+02  0.41142739270E+03  0.41327904705E+03  0.00000000000E+00 0. -1.
          2    1    1    2  501    0  0.94923665106E+02  0.82298620558E+02  0.12909502607E+04  0.12970490125E+04  0.00000000000E+00 0. -1.
<scales pt_clust_3="14000.00000" pt_clust_4="59.23711" pt_clust_5="39.07776" pt_clust_6="146.99296"></scales>
<clustering>
<clus scale="   39.078">  1  5  2 -1</clus>
<clus scale="   59.237">  2  4  1 -1</clus>
<clus scale="  146.993">  1  6  2 -1</clus>
<clus scale="   59.237">  2  3  1 -1</clus>
</clustering>
</event>
<event>
 6    0  0.4081161E+002  0.1201121E+03  0.7546771E-02  0.1242912E+00
         21   -1    0    0  504  502  0.00000000000E+00  0.00000000000E+00  0.19338568222E+04  0.19338568222E+04  0.00000000000E+00 0.  1.
          1   -1    0    0  505    0 -0.00000000000E+00 -0.00000000000E+00 -0.68940907566E+03  0.68940907566E+03  0.00000000000E+00 0. -1.
         21    1    1    2  503  502 -0.70605280328E+02  0.67799938490E+02  0.15872964874E+04  0.15903119431E+04  0.00000000000E+00 0.  1.
         21    1    1    2  504  501 -0.49161863733E+02 -0.53221082692E+02  0.31844530665E+03  0.32658350512E+03  0.00000000000E+00 0.  1.
         21    1    1    2  505  503  0.27556784365E+01  0.53371067120E+02 -0.31139916696E+02  0.61852720078E+02  0.00000000000E+00 0.  1.
          1    1    1    2  501    0  0.11701146562E+03 -0.67949922918E+02 -0.63015413086E+03  0.64451772958E+03  0.00000000000E+00 0. -1.
<scales pt_clust_3="14000.00000" pt_clust_4="72.19291" pt_clust_5="53.44216" pt_clust_6="120.11205"></scales>
<clustering>
<clus scale="   53.442">  2  5  1 -1</clus>
<clus scale="   72.193">  1  4  2 -1</clus>
<clus scale="  120.112">  2  6  1 -1</clus>
<clus scale="   72.193">  1  3  2 -1</clus>
</clustering>
</event>
<event>
 6    0  0.4081161E+002  0.9463489E+02  0.7546771E-02  0.1292001E+00
          2   -1    0    0  503    0 -0.00000000000E+00  0.00000000000E+00  0.95013767427E+03  0.95013767427E+03  0.00000000000E+00 0.  1.
         21   -1    0    0  504  502  0.00000000000E+00 -0.00000000000E+00 -0.60340838959E+02  0.60340838959E+02  0.00000000000E+00 0. -1.
         21    1    1    2  503  505  0.10345261232E+03  0.54135382096E+02  0.35960043299E+02  0.12217285830E+03  0.00000000000E+00 0. -1.
         21    1    1    2  504  501 -0.42132403614E+02 -0.40973205616E+02  0.15300831421E+03  0.16390694686E+03  0.00000000000E+00 0. -1.
         21    1    1    2  505  502 -0.18340575330E+02  0.24043067855E+02  0.10918256495E+02  0.32150492068E+02  0.00000000000E+00 0. -1.
          2    1    1    2  501    0 -0.42979633377E+02 -0.37205244334E+02  0.68991022131E+03  0.69224821600E+03  0.00000000000E+00 0.  1.
<scales pt_clust_3="94.63489" pt_clust_4="14000.00000" pt_clust_5="30.23981" pt_clust_6="56.80659"></scales>
<clustering>
<clus scale="   30.240">  2  5  1 -1</clus>
<clus scale="   56.807">  1  6  2 -1</clus>
<clus scale="   94.635">  2  3  1 -1</clus>
<clus scale="   30.240">  2  3  1 -1</clus>
</clustering>
</event>
<event>
 6    0  0.4081161E+002  0.1324475E+03  0.7546771E-02  0.1223869E+00
         21   -1    0    0  501  502  0.00000000000E+00  0.00000000000E+00  0.20249918380E+03  0.20249918380E+03  0.00000000000E+00 0.  1.
          2   -1    0    0  504    0 -0.00000000000E+00 -0.00000000000E+00 -0.29315369724E+03  0.29315369724E+03  0.00000000000E+00 0.  1.
         21    1    1    2  503  502  0.28460873999E+02  0.14918340240E+02  0.26387114080E+02  0.41579538403E+02  0.00000000000E+00 0.  1.
         21    1    1    2  504  505  0.10091703084E+03 -0.47738966834E+02 -0.92960070803E+02  0.14527501792E+03  0.00000000000E+00 0.  1.
         21    1    1    2  505  503  0.17502851733E+02 -0.47703272698E+02  0.91932290462E+02  0.10504045923E+03  0.00000000000E+00 0.  1.
          2    1    1    2  501    0 -0.14688075658E+03  0.80523899292E+02 -0.11601384718E+03  0.20375786549E+03  0.00000000000E+00 0.  1.
<scales pt_clust_3="32.13376" pt_clust_4="132.44754" pt_clust_5="51.81777" pt_clust_6="14000.00000"></scales>
<clustering>
<clus scale="   32.134">  1  3  2 -1</clus>
<clus scale="   51.818">  1  5  2 -1</clus>
<clus scale="  132.448">  2  4  1 -1</clus>
<clus scale="   32.134">  1  3  2 -1</clus>
</clustering>
</event>
<event>
 6    0  0.4081161E+002  0.1149740E+03  0.7546771E-02  0.1251626E+00
          2   -1    0    0  502    0 -0.00000000000E+00  0.00000000000E+00  0.16616209875E+04  0.16616209875E+04  0.00000000000E+00 0.  1.
         21   -1    0    0  503  502  0.00000000000E+00 -0.00000000000E+00 -0.18266843206E+02  0.18266843206E+02  0.00000000000E+00 0.  1.
         21    1    1    2  503  504 -0.28751266437E+02  0.57743026772E+02  0.14848555704E+03  0.16189148561E+03  0.00000000000E+00 0.  1.
         21    1    1    2  504  505  0.46476998039E+02 -0.14790097726E+03  0.70092009824E+03  0.71786056762E+03  0.00000000000E+00 0.  1.
         21    1    1    2  505  501  0.97028867875E+01  0.48239254790E+02  0.39978140254E+03  0.40279813993E+03  0.00000000000E+00 0.  1.
          2    1    1    2  501    0 -0.27428618389E+02  0.41918695702E+02  0.39416708651E+03  0.39733763759E+03  0.00000000000E+00 0.  1.
<scales pt_clust_3="64.50498" pt_clust_4="108.62145" pt_clust_5="37.35209" pt_clust_6="37.35209"></scales>
<clustering>
<clus scale="   37.352">  5  6 -1 -1</clus>
<clus scale="   64.505">  2  3  1 -1</clus>
<clus scale="  108.621">  2  4  1 -1</clus>
<clus scale="   64.505">  2  3  1 -1</clus>
</clustering>
</event>
<event>
 6    0  0.4081161E+002  0.8789218E+02  0.7546771E-02  0.1308038E+00
         21   -1    0    0  505  502  0.00000000000E+00  0.00000000000E+00  0.14037100118E+03  0.14037100118E+03  0.00000000000E+00 0. -1.
          2   -1    0    0  504    0 -0.00000000000E+00 -0.00000000000E+00 -0.18740680090E+04  0.18740680090E+04  0.00000000000E+00 0.  1.
         21    1    1    2  503  502 -0.36362010824E+02  0.24364056384E+02 -0.28707781544E+02  0.52344434239E+02  0.00000000000E+00 0. -1.
         21    1    1    2  504  503  0.24646031599E+02  0.52277347384E+02 -0.14125836448E+03  0.15262461616E+03  0.00000000000E+00 0. -1.
         21    1    1    2  505  501  0.11629546317E+03 -0.54222867378E+02  0.87160006801E+02  0.15511808691E+03  0.00000000000E+00 0. -1.
          2    1    1    2  501    0 -0.10457948395E+03 -0.22418536390E+02 -0.16508908686E+04  0.16543518729E+04  0.00000000000E+00 0.  1.
<scales pt_clust_3="43.76989" pt_clust_4="58.11601" pt_clust_5="87.89218" pt_clust_6="14000.00000"></scales>
<clustering>
<clus scale="   43.770">  1  3  2 -1</clus>
<clus scale="   58.116">  2  4  1 -1</clus>
<clus scale="   87.892">  1  5  2 -1</clus>
<clus scale="   43.770">  1  3  2 -1</clus>
</clustering>
</event>
<event>
 6    0  0.4081161E+002  0.4289440E+03  0.7546771E-02  0.1034194E+00
         -3   -1    0    0    0  501 -0.00000000000E+00  0.00000000000E+00  0.25184528829E+04  0.25184528829E+04  0.00000000000E+00 0.  1.
         21   -1    0    0  503  502  0.00000000000E+00 -0.00000000000E+00 -0.59870899926E+03  0.59870899926E+03  0.00000000000E+00 0.  1.
         21    1    1    2  503  505 -0.25428742077E+03  0.34398082997E+03 -0.38022758678E+03  0.57232676113E+03  0.00000000000E+00 0.  1.
         21    1    1    2  504  502  0.32742449848E+03 -0.29639999049E+03  0.34837308869E+03  0.56251539134E+03  0.00000000000E+00 0.  1.
         21    1    1    2  505  501 -0.18525457012E+03  0.11109991886E+02  0.15546180230E+04  0.15656563752E+04  0.00000000000E+00 0.  1.
         -3    1    1    2    0  504  0.11211749241E+03 -0.58690831365E+02  0.39698035877E+03  0.41666335456E+03  0.00000000000E+00 0.  1.
<scales pt_clust_3="428.94396" pt_clust_4="14000.00000" pt_clust_5="107.37705" pt_clust_6="126.55017"></scales>
<clustering>
<clus scale="  126.550">  1  6  2 -1</clus>
<clus scale="  107.377">  1  5  2 -1</clus>
<clus scale="  428.944">  2  3  1 -1</clus>
<clus scale="  428.944">  2  3  1 -1</clus>
</clustering>
</event>
<event>
 6    0  0.4081161E+002  0.1131937E+03  0.7546771E-02  0.1254767E+00
         -4   -1    0    0    0  501 -0.00000000000E+00  0.00000000000E+00  0.10343164402E+03  0.10343164402E+03  0.00000000000E+00 0. -1.
         21   -1    0    0  505  502  0.00000000000E+00 -0.00000000000E+00 -0.20053105288E+04  0.20053105288E+04  0.00000000000E+00 0. -1.
         21    1    1    2  503  502 -0.19117712493E+01 -0.14147799823E+03 -0.47687293403E+03  0.49742082190E+03  0.00000000000E+00 0. -1.
         21    1    1    2  504  501 -0.25602521680E+02 -0.62287763501E+02 -0.39561013670E+02  0.78104599102E+02  0.00000000000E+00 0. -1.
         21    1    1    2  505  504  0.80139196147E+02  0.81015975431E+02 -0.13946943157E+04  0.13993420287E+04  0.00000000000E+00 0. -1.
         -4    1    1    2    0  503 -0.52624903218E+02  0.12274978630E+03  0.92493786435E+01  0.13387472309E+03  0.00000000000E+00 0. -1.
<scales pt_clust_3="14000.00000" pt_clust_4="67.34430" pt_clust_5="113.19370" pt_clust_6="102.00332"></scales>
<clustering>
<clus scale="   67.344">  1  4  2 -1</clus>
<clus scale="  102.003">  1  6  2 -1</clus>
<clus scale="  113.194">  2  5  1 -1</clus>
<clus scale="  113.194">  2  3  1 -1</clus>
</clustering>
</event>
<event>
 6    0  0.4081161E+002  0.7123588E+02  0.7546771E-02  0.1355940E+00
         21   -1    0    0  504  502  0.00000000000E+00  0.00000000000E+00  0.30974437589E+02  0.30974437589E+02  0.00000000000E+00 0. -1.
          2   -1    0    0  503    0 -0.00000000000E+00 -0.00000000000E+00 -0.19246706591E+04  0.19246706591E+04  0.00000000000E+00 0. -1.
         21    1    1    2  503  505 -0.31094421251E+02  0.14322737647E+02 -0.38011786460E+03  0.38165638320E+03  0.00000000000E+00 0. -1.
         21    1    1    2  504  501  0.20007343065E+02 -0.11775194448E+03 -0.12076179083E+03  0.16985059415E+03  0.00000000000E+00 0. -1.
         21    1    1    2  505  502  0.29257714953E+02  0.59946036039E+02 -0.20906153952E+03  0.21944536547E+03  0.00000000000E+00 0.  1.
          2    1    1    2  501    0 -0.18170636768E+02  0.43483170797E+02 -0.11837550265E+04  0.11846927539E+04  0.00000000000E+00 0. -1.
<scales pt_clust_3="34.23454" pt_clust_4="71.23588" pt_clust_5="66.76762" pt_clust_6="14000.00000"></scales>
<clustering>
<clus scale="   34.235">  2  3  1 -1</clus>
<clus scale="   66.768">  1  5  2 -1</clus>
<clus scale="   71.236">  1  4  2 -1</clus>
<clus scale="   66.768">  1  3  2 -1</clus>
</clustering>
</event>
<event>
 6    0  0.4081161E+002  0.1401503E+03  0.7546771E-02  0.1213127E+00
         -1   -1    0    0    0  501 -0.00000000000E+00  0.00000000000E+00  0.14223281141E+04  0.14223281141E+04  0.00000000000E+00 0.  1.
         21   -1    0    0  503  502  0.00000000000E+00 -0.00000000000E+00 -0.14581513300E+03  0.14581513300E+03  0.00000000000E+00 0.  1.
         21    1    1    2  503  501  0.48769976323E+02  0.40611656382E+01  0.75198923503E+01  0.49513154190E+02  0.00000000000E+00 0.  1.
         21    1    1    2  504  502 -0.57460476796E+02  0.12849804437E+03 -0.80314775961E+02  0.16206146068E+03  0.00000000000E+00 0.  1.
         21    1    1    2  505  504  0.20079211368E+02 -0.46410142311E+02  0.37517499612E+03  0.37856750224E+03  0.00000000000E+00 0.  1.
         -1    1    1    2    0  505 -0.11388710894E+02 -0.86149067696E+02  0.97413286857E+03  0.97800112997E+03  0.00000000000E+00 0.  1.
<scales pt_clust_3="48.93877" pt_clust_4="132.82633" pt_clust_5="34.10872" pt_clust_6="34.10872"></scales>
<clustering>
<clus scale="   34.109">  5  6 -1 -1</clus>
<clus scale="   48.939">  2  3  1 -1</clus>
<clus scale="  132.826">  2  4  1 -1</clus>
<clus scale="   48.939">  2  3  1 -1</clus>
</clustering>
</event>
<event>
 6    0  0.4081161E+002  0.7449220E+02  0.7546771E-02  0.1345451E+00
          1   -1    0    0  504    0 -0.00000000000E+00  0.00000000000E+00  0.75638790658E+03  0.75638790658E+03  0.00000000000E+00 0.  1.
         21   -1    0    0  505  502  0.00000000000E+00 -0.00000000000E+00 -0.10446428428E+03  0.10446428428E+03  0.00000000000E+00 0. -1.
         21    1    1    2  503  502  0.70065437823E+02 -0.30495980554E+02 -0.72910258886E+02  0.10561759445E+03  0.00000000000E+00 0. -1.
         21    1    1    2  504  503 -0.47266079658E+02 -0.96444642719E+01  0.31082246814E+03  0.31454364511E+03  0.00000000000E+00 0. -1.
         21    1    1    2  505  501 -0.16434154522E+02  0.87806857835E+02  0.17058649932E+03  0.19256136546E+03  0.00000000000E+00 0.  1.
          1    1    1    2  501    0 -0.63652036427E+01 -0.47666413009E+02  0.24342491372E+03  0.24812958584E+03  0.00000000000E+00 0.  1.
<scales pt_clust_3="74.49220" pt_clust_4="64.23260" pt_clust_5="14000.00000" pt_clust_6="48.08953"></scales>
<clustering>
<clus scale="   48.090">  1  6  2 -1</clus>
<clus scale="   64.233">  1  4  2 -1</clus>
<clus scale="   74.492">  2  3  1 -1</clus>
<clus scale="   74.492">  2  3  1 -1</clus>
</clustering>
</event>
<event>
 6    0  0.4081161E+002  0.6057311E+03  0.7546771E-02  0.9893587E-01
          2   -1    0    0  503    0 -0.00000000000E+00  0.00000000000E+00  0.36857297549E+04  0.36857297549E+04  0.00000000000E+00 0. -1.
         21   -1    0    0  505  502  0.00000000000E+00 -0.00000000000E+00 -0.14280363478E+03  0.14280363478E+03  0.00000000000E+00 0.  1.
         21    1    1    2  503  504  0.17344065574E+03  0.50556385158E+02  0.24618171462E+03  0.30535724284E+03  0.00000000000E+00 0.  1.
         21    1    1    2  504  502  0.39652237614E+03  0.12037108472E+03  0.44603826871E+03  0.60882619028E+03  0.00000000000E+00 0.  1.
         21    1    1    2  505  501 -0.34410476857E+03 -0.13943650364E+03  0.15534841492E+04  0.15972362481E+04  0.00000000000E+00 0. -1.
          2    1    1    2  501    0 -0.22585826331E+03 -0.31490966240E+02  0.12972219876E+04  0.13171137085E+04  0.00000000000E+00 0. -1.
<scales pt_clust_3="32.93963" pt_clust_4="597.12883" pt_clust_5="88.79190" pt_clust_6="88.79190"></scales>
<clustering>
<clus scale="   32.940">  3  4 -1 -1</clus>
<clus scale="   88.792">  5  6 -1 -1</clus>
<clus scale="  597.129">  2  3  1 -1</clus>
<clus scale="  597.129">  2  3  1 -1</clus>
</clustering>
</event>
<event>
 6    0  0.4081161E+002  0.1573475E+03  0.7546771E-02  0.1191724E+00
          2   -1    0    0  505    0 -0.00000000000E+00  0.00000000000E+00  0.35997022729E+04  0.35997022729E+04  0.00000000000E+00 0.  1.
         21   -1    0    0  503  502  0.00000000000E+00 -0.00000000000E+00 -0.76256530851E+02  0.76256530851E+02  0.00000000000E+00 0.  1.
         21    1    1    2  503  501 -0.11875210777E+03  0.68688689912E+02  0.16040122090E+04  0.16098681206E+04  0.00000000000E+00 0.  1.
         21    1    1    2  504  502  0.27722644205E+02  0.25505520124E+02 -0.45283865111E+02  0.58904201870E+02  0.00000000000E+00 0.  1.
         21    1    1    2  505  504  0.13770571898E+03 -0.49916573045E+02  0.23929366061E+03  0.28056369208E+03  0.00000000000E+00 0.  1.
          2    1    1    2  501    0 -0.46676255417E+02 -0.44277636991E+02  0.17254237376E+04  0.17266227892E+04  0.00000000000E+00 0.  1.
<scales pt_clust_3="157.34752" pt_clust_4="37.67063" pt_clust_5="14000.00000" pt_clust_6="63.40189"></scales>
<clustering>
<clus scale="   37.671">  2  4  1 -1</clus>
<clus scale="   63.402">  1  6  2 -1</clus>
<clus scale="  157.348">  1  3  2 -1</clus>
<clus scale="   37.671">  2  3  1 -1</clus>
</clustering>
</event>
<event>
 6    0  0.4081161E+002  0.7215014E+02  0.7546771E-02  0.1352930E+00
          2   -1    0    0  503    0 -0.00000000000E+00  0.00000000000E+00  0.42647349677E+03  0.42647349677E+03  0.00000000000E+00 0.  1.
         21   -1    0    0  505  502  0.00000000000E+00 -0.00000000000E+00 -0.88760610165E+03  0.88760610165E+03  0.00000000000E+00 0.  1.
         21    1    1    2  503  502 -0.41528376628E+02  0.69457387991E+02  0.77902523511E+02  0.11232870506E+03  0.00000000000E+00 0.  1.
         21    1    1    2  504  501 -0.18370372991E+01 -0.63042291477E+02  0.65731965710E+01  0.63410662619E+02  0.00000000000E+00 0.  1.
         21    1    1    2  505  504  0.57556600802E+02  0.45817061010E+02 -0.83787782288E+03  0.84110118978E+03  0.00000000000E+00 0.  1.
          2    1    1    2  501    0 -0.14191186875E+02 -0.52232157525E+02  0.29226949791E+03  0.29723904096E+03  0.00000000000E+00 0.  1.
<scales pt_clust_3="60.73041" pt_clust_4="14000.00000" pt_clust_5="72.15014" pt_clust_6="54.12567"></scales>
<clustering>
<clus scale="   54.126">  1  6  2 -1</clus>
<clus scale="   60.730">  1  3  2 -1</clus>
<clus scale="   72.150">  2  5  1 -1</clus>
<clus scale="   72.150">  2  3  1 -1</clus>
</clustering>
</event>
<event>
 6    0  0.4081161E+002  0.1013585E+03  0.7546771E-02  0.1277465E+00
         -1   -1    0    0    0  501 -0.00000000000E+00  0.00000000000E+00  0.52112997081E+03  0.52112997081E+03  0.00000000000E+00 0.  1.
         21   -1    0    0  503  502  0.00000000000E+00 -0.00000000000E+00 -0.56374043723E+03  0.56374043723E+03  0.00000000000E+00 0.  1.
         21    1    1    2  503  505  0.15913583040E+02 -0.10215688526E+03 -0.37813956018E+03  0.39201887494E+03  0.00000000000E+00 0.  1.
         21    1    1    2  504  502 -0.36212482491E+02  0.63878011061E+02 -0.14095556699E+03  0.15893462823E+03  0.00000000000E+00 0.  1.
         21    1    1    2  505  501  0.11576335646E+03  0.14844736253E+02  0.13446448304E+03  0.17805116707E+03  0.00000000000E+00 0.  1.
         -1    1    1    2    0  504 -0.95464457012E+02  0.23434137946E+02  0.34202017772E+03  0.35586573780E+03  0.00000000000E+00 0.  1.
<scales pt_clust_3="46.26701" pt_clust_4="73.42850" pt_clust_5="14000.00000" pt_clust_6="101.35851"></scales>
<clustering>
<clus scale="   73.428">  2  4  1 -1</clus>
<clus scale="   46.267">  2  3  1 -1</clus>
<clus scale="  101.359">  1  6  2 -1</clus>
<clus scale="   73.428">  2  3  1 -1</clus>
</clustering>
</event>
<event>
 6    0  0.4081161E+002  0.1446313E+03  0.7546771E-02  0.1207230E+00
          1   -1    0    0  505    0 -0.00000000000E+00  0.00000000000E+00  0.57657992289E+03  0.57657992289E+03  0.00000000000E+00 0. -1.
         21   -1    0    0  503  502  0.00000000000E+00 -0.00000000000E+00 -0.11886737612E+04  0.11886737612E+04  0.00000000000E+00 0.  1.
         21    1    1    2  503  501 -0.52050097951E+02  0.34754943957E+02 -0.34761512227E+03  0.35320446211E+03  0.00000000000E+00 0.  1.
         21    1    1    2  504  502  0.48829651032E+01 -0.68713642784E+02 -0.76588019524E+03  0.76897196406E+03  0.00000000000E+00 0.  1.
         21    1    1    2  505  504 -0.71950169830E+02 -0.63155460584E+02 -0.21446666808E+02  0.98109116077E+02  0.00000000000E+00 0. -1.
          1    1    1    2  501    0  0.11911730268E+03  0.97114159412E+02  0.52284814605E+03  0.54496814180E+03  0.00000000000E+00 0. -1.
<scales pt_clust_3="62.58689" pt_clust_4="56.48403" pt_clust_5="144.63130" pt_clust_6="14000.00000"></scales>
<clustering>
<clus scale="   62.587">  2  3  1 -1</clus>
<clus scale="   56.484">  2  4  1 -1</clus>
<clus scale="  144.631">  2  5  1 -1</clus>
<clus scale="   62.587">  2  3  1 -1</clus>
</clustering>
</event>
<event>
 6    0  0.4081161E+002  0.1090212E+03  0.7546771E-02  0.1262393E+00
          1   -1    0    0  504    0 -0.00000000000E+00  0.00000000000E+00  0.25912804962E+04  0.25912804962E+04  0.00000000000E+00 0.  1.
         21   -1    0    0  505  502  0.00000000000E+00 -0.00000000000E+00 -0.65309286749E+03  0.65309286749E+03  0.00000000000E+00 0.  1.
         21    1    1    2  503  502 -0.33088235696E+02 -0.28240402487E+02 -0.60327861952E+03  0.60484497555E+03  0.00000000000E+00 0.  1.
         21    1    1    2  504  503  0.12430223667E+02 -0.49981974863E+02 -0.18732044808E+02  0.54805088946E+02  0.00000000000E+00 0. -1.
         21    1    1    2  505  501  0.31630453710E+02  0.17768107270E+03  0.73678429683E+03  0.75856585031E+03  0.00000000000E+00 0. -1.
          1    1    1    2  501    0 -0.10972441682E+02 -0.99458695347E+02  0.18234139962E+04  0.18261574489E+04  0.00000000000E+00 0.  1.
<scales pt_clust_3="43.50117" pt_clust_4="72.22890" pt_clust_5="109.02118" pt_clust_6="14000.00000"></scales>
<clustering>
<clus scale="   43.501">  2  3  1 -1</clus>
<clus scale="   72.229">  2  4  1 -1</clus>
<clus scale="  109.021">  2  5  1 -1</clus>
<clus scale="   43.501">  2  3  1 -1</clus>
</clustering>
</event>
<event>
 6    0  0.4081161E+002  0.2274953E+03  0.7546771E-02  0.1128415E+00
          1   -1    0    0  504    0 -0.00000000000E+00  0.00000000000E+00  0.18945387151E+04  0.18945387151E+04  0.00000000000E+00 0. -1.
         21   -1    0    0  503  502  0.00000000000E+00 -0.00000000000E+00 -0.67334095396E+02  0.67334095396E+02  0.00000000000E+00 0. -1.
         21    1    1    2  503  505 -0.30669741989E+02 -0.72163787858E+01  0.31994440924E+02  0.44903824408E+02  0.00000000000E+00 0. -1.
         21    1    1    2  504  502 -0.42404763654E+02 -0.20810839569E+03  0.18603345014E+03  0.28233971189E+03  0.00000000000E+00 0. -1.
         21    1    1    2  505  501  0.32986760809E+02 -0.11347509394E+02  0.68700919471E+02  0.77050040196E+02  0.00000000000E+00 0. -1.
          1    1    1    2  501    0  0.40087744834E+02  0.22667228387E+03  0.15404758092E+04  0.15575792340E+04  0.00000000000E+00 0. -1.
<scales pt_clust_3="31.50729" pt_clust_4="227.49533" pt_clust_5="33.07634" pt_clust_6="14000.00000"></scales>
<clustering>
<clus scale="   31.507">  2  3  1 -1</clus>
<clus scale="   33.076">  2  5  1 -1</clus>
<clus scale="  227.495">  2  4  1 -1</clus>
<clus scale="   31.507">  2  3  1 -1</clus>
</clustering>
</event>
<event>
 6    0  0.4081161E+002  0.1496218E+03  0.7546771E-02  0.1200939E+00
         -3   -1    0    0    0  501 -0.00000000000E+00  0.00000000000E+00  0.39658884462E+02  0.39658884462E+02  0.00000000000E+00 0.  1.
         21   -1    0    0  505  502  0.00000000000E+00 -0.00000000000E+00 -0.18495576795E+04  0.18495576795E+04  0.00000000000E+00 0. -1.
         21    1    1    2  503  504 -0.89145769591E+02 -0.51082630871E+02 -0.88465338413E+03  0.89059980545E+03  0.00000000000E+00 0. -1.
         21    1    1    2  504  501 -0.21566512979E+02  0.38887716469E+02 -0.63398590564E+02  0.77438687100E+02  0.00000000000E+00 0.  1.
         21    1    1    2  505  503 -0.22742552807E+02 -0.31690124855E+02 -0.72165823774E+03  0.72271162978E+03  0.00000000000E+00 0.  1.
         -3    1    1    2    0  502  0.13345483538E+03  0.43885039257E+02 -0.14018858255E+03  0.19846644158E+03  0.00000000000E+00 0.  1.
<scales pt_clust_3="34.67156" pt_clust_4="44.46762" pt_clust_5="34.67156" pt_clust_6="138.63711"></scales>
<clustering>
<clus scale="   34.672">  3  5 -1 -1</clus>
<clus scale="   44.468">  1  4  2 -1</clus>
<clus scale="  138.637">  1  6  2 -1</clus>
<clus scale="  149.622">  2  3  1 -1</clus>
</clustering>
</event>
<event>
 6    0  0.4081161E+002  0.1733855E+03  0.7546771E-02  0.1174363E+00
         21   -1    0    0  503  502  0.00000000000E+00  0.00000000000E+00  0.16175908096E+03  0.16175908096E+03  0.00000000000E+00 0. -1.
          2   -1    0    0  504    0 -0.00000000000E+00 -0.00000000000E+00 -0.84144747706E+03  0.84144747706E+03  0.00000000000E+00 0. -1.
         21    1    1    2  503  505 -0.11897579599E+03  0.63771364629E+02  0.45838327687E+02  0.14255938855E+03  0.00000000000E+00 0. -1.
         21    1    1    2  504  502  0.69205988507E+02 -0.26291756263E+02 -0.14526278376E+03  0.16303987745E+03  0.00000000000E+00 0.  1.
         21    1    1    2  505  501 -0.32956868500E+02  0.63840744704E+01  0.50110938545E+02  0.60315982543E+02  0.00000000000E+00 0. -1.
          2    1    1    2  501    0  0.82726675987E+02 -0.43863682837E+02 -0.63037487858E+03  0.63729130947E+03  0.00000000000E+00 0. -1.
<scales pt_clust_3="31.32909" pt_clust_4="74.03192" pt_clust_5="31.32909" pt_clust_6="161.60355"></scales>
<clustering>
<clus scale="   31.329">  3  5 -1 -1</clus>
<clus scale="   74.032">  2  4  1 -1</clus>
<clus scale="  161.604">  2  6  1 -1</clus>
<clus scale="  173.386">  1  3  2 -1</clus>
</clustering>
</event>
<event>
 6    0  0.4081161E+002  0.8602418E+02  0.7546771E-02  0.1312776E+00
          2   -1    0    0  503    0 -0.00000000000E+00  0.00000000000E+00  0.28129214873E+04  0.28129214873E+04  0.00000000000E+00 0. -1.
         21   -1    0    0  504  502  0.00000000000E+00 -0.00000000000E+00 -0.23621297625E+02  0.23621297625E+02  0.00000000000E+00 0. -1.
         21    1    1    2  503  505  0.70508007581E+02 -0.32835390036E+02  0.10888850577E+04  0.10916593841E+04  0.00000000000E+00 0. -1.
         21    1    1    2  504  501  0.90946498247E+02  0.29129372901E+02  0.15085354723E+03  0.17854013168E+03  0.00000000000E+00 0. -1.
         21    1    1    2  505  502 -0.63107929773E+02 -0.72681195832E+01  0.14505936689E+03  0.15835926334E+03  0.00000000000E+00 0.  1.
          2    1    1    2  501    0 -0.98346576056E+02  0.10974136718E+02  0.14045022178E+04  0.14079840058E+04  0.00000000000E+00 0. -1.
<scales pt_clust_3="14000.00000" pt_clust_4="45.78406" pt_clust_5="63.52508" pt_clust_6="86.02418"></scales>
<clustering>
<clus scale="   63.525">  2  5  1 -1</clus>
<clus scale="   45.784">  2  4  1 -1</clus>
<clus scale="   86.024">  2  6  1 -1</clus>
<clus scale="   63.525">  2  3  1 -1</clus>
</clustering>
</event>
<event>
 6    0  0.4081161E+002  0.1585937E+03  0.7546771E-02  0.1190294E+00
         21   -1    0    0  501  502  0.00000000000E+00  0.00000000000E+00  0.24395335313E+03  0.24395335313E+03  0.00000000000E+00 0. -1.
          2   -1    0    0  504    0 -0.00000000000E+00 -0.00000000000E+00 -0.24818533503E+04  0.24818533503E+04  0.00000000000E+00 0. -1.
         21    1    1    2  503  505 -0.13064025133E+03  0.16807746529E+03  0.12795479956E+03  0.24837338895E+03  0.00000000000E+00 0. -1.
         21    1    1    2  504  503  0.68135565084E+01 -0.52434122546E+02 -0.33729496495E+03  0.34141419880E+03  0.00000000000E+00 0.  1.
         21    1    1    2  505  502  0.49197977687E+02 -0.31688163111E+02  0.35802308237E+02  0.68603104631E+02  0.00000000000E+00 0. -1.
          2    1    1    2  501    0  0.74628717136E+02 -0.83955179631E+02 -0.20643621400E+04  0.20674160111E+04  0.00000000000E+00 0. -1.
<scales pt_clust_3="158.59367" pt_clust_4="52.87496" pt_clust_5="58.78192" pt_clust_6="14000.00000"></scales>
<clustering>
<clus scale="   52.875">  2  4  1 -1</clus>
<clus scale="   58.782">  1  5  2 -1</clus>
<clus scale="  158.594">  1  3  2 -1</clus>
<clus scale="   58.782">  1  3  2 -1</clus>
</clustering>
</event>
<event>
 6    0  0.4081161E+002  0.1339210E+03  0.7546771E-02  0.1221751E+00
          2   -1    0    0  505    0 -0.00000000000E+00  0.00000000000E+00  0.25626201574E+04  0.25626201574E+04  0.00000000000E+00 0. -1.
         21   -1    0    0  504  502  0.00000000000E+00 -0.00000000000E+00 -0.34547339234E+02  0.34547339234E+02  0.00000000000E+00 0.  1.
         21    1    1    2  503  502  0.96998484635E+02  0.70879297743E+02  0.11870873150E+03  0.16889151490E+03  0.00000000000E+00 0.  1.
         21    1    1    2  504  501 -0.32969320722E+01  0.40213498577E+02  0.59869250640E+02  0.72196415431E+02  0.00000000000E+00 0. -1.
         21    1    1    2  505  503 -0.26399342648E+02 -0.64987430233E+02  0.51296715141E+03  0.51774085198E+03  0.00000000000E+00 0. -1.
          2    1    1    2  501    0 -0.67302209915E+02 -0.46105366087E+02  0.18365276846E+04  0.18383387143E+04  0.00000000000E+00 0. -1.
<scales pt_clust_3="133.92103" pt_clust_4="40.34842" pt_clust_5="67.13355" pt_clust_6="14000.00000"></scales>
<clustering>
<clus scale="   40.348">  2  4  1 -1</clus>
<clus scale="   67.134">  1  5  2 -1</clus>
<clus scale="  133.921">  2  3  1 -1</clus>
<clus scale="   40.348">  2  3  1 -1</clus>
</clustering>
</event>
<event>
 6    0  0.4081161E+002  0.1809983E+03  0.7546771E-02  0.1166840E+00
         21   -1    0    0  504  502  0.00000000000E+00  0.00000000000E+00  0.11783158857E+03  0.11783158857E+03  0.00000000000E+00 0. -1.
          2   -1    0    0  503    0 -0.00000000000E+00 -0.00000000000E+00 -0.11344803922E+04  0.11344803922E+04  0.00000000000E+00 0. -1.
         21    1    1    2  503  502 -0.56534892063E+02 -0.10334490756E+02 -0.93208883922E+02  0.10950293038E+03  0.00000000000E+00 0. -1.
         21    1    1    2  504  505  0.16419914824E+03 -0.38967507579E+02  0.36604239797E+02  0.17268380729E+03  0.00000000000E+00 0. -1.
         21    1    1    2  505  501 -0.42175268976E+02  0.58268554500E+02 -0.42988536138E+03  0.43586167724E+03  0.00000000000E+00 0. -1.
          2    1    1    2  501    0 -0.65488987198E+02 -0.89665561648E+01 -0.53015879811E+03  0.53426356585E+03  0.00000000000E+00 0. -1.
<scales pt_clust_3="57.47169" pt_clust_4="165.30116" pt_clust_5="69.54352" pt_clust_6="69.54352"></scales>
<clustering>
<clus scale="   57.472">  2  3  1 -1</clus>
<clus scale="   69.544">  5  6 -1 -1</clus>
<clus scale="  165.301">  1  4  2 -1</clus>
<clus scale="  165.301">  1  3  2 -1</clus>
</clustering>
</event>
<event>
 6    0  0.4081161E+002  0.1212481E+03  0.7546771E-02  0.1241052E+00
          1   -1    0    0  505    0 -0.00000000000E+00  0.00000000000E+00  0.92502189890E+03  0.92502189890E+03  0.00000000000E+00 0.  1.
         21   -1    0    0  504  502  0.00000000000E+00 -0.00000000000E+00 -0.44510871534E+04  0.44510871534E+04  0.00000000000E+00 0. -1.
         21    1    1    2  503  502 -0.12020569555E+03  0.14428830029E+02 -0.37140799974E+04  0.37160527213E+04  0.00000000000E+00 0. -1.
         21    1    1    2  504  501  0.28605383035E+02 -0.94460807111E+02 -0.63515528308E+03  0.64277783537E+03  0.00000000000E+00 0.  1.
         21    1    1    2  505  503 -0.75743759973E+02 -0.70647803021E+02 -0.50373720220E+02  0.11517699829E+03  0.00000000000E+00 0.  1.
          1    1    1    2  501    0  0.16734407249E+03  0.15067978010E+03  0.87354374627E+03  0.90210149727E+03  0.00000000000E+00 0.  1.
<scales pt_clust_3="14000.00000" pt_clust_4="98.69707" pt_clust_5="104.53966" pt_clust_6="121.24810"></scales>
<clustering>
<clus scale="   98.697">  2  4  1 -1</clus>
<clus scale="  104.540">  1  5  2 -1</clus>
<clus scale="  121.248">  1  6  2 -1</clus>
<clus scale="   98.697">  2  3  1 -1</clus>
</clustering>
</event>
<event>
 6    0  0.4081161E+002  0.8997230E+02  0.7546771E-02  0.1302919E+00
         21   -1    0    0  503  502  0.00000000000E+00  0.00000000000E+00  0.84502395771E+02  0.84502395771E+02  0.00000000000E+00 0.  1.
          1   -1    0    0  505    0 -0.00000000000E+00 -0.00000000000E+00 -0.21996012487E+04  0.21996012487E+04  0.00000000000E+00 0. -1.
         21    1    1    2  503  501 -0.51005431216E+02  0.30619471493E+02 -0.59296406304E+02  0.83995058478E+02  0.00000000000E+00 0.  1.
         21    1    1    2  504  502  0.44144243926E+02  0.60902453756E+02  0.50229503009E+02  0.90447919367E+02  0.00000000000E+00 0.  1.
         21    1    1    2  505  504  0.36553803803E+02 -0.11616952443E+02 -0.69014718705E+03  0.69121217723E+03  0.00000000000E+00 0. -1.
          1    1    1    2  501    0 -0.29692616513E+02 -0.79904972806E+02 -0.14158847626E+04  0.14184484894E+04  0.00000000000E+00 0. -1.
<scales pt_clust_3="57.71994" pt_clust_4="89.97230" pt_clust_5="38.35537" pt_clust_6="14000.00000"></scales>
<clustering>
<clus scale="   38.355">  2  5  1 -1</clus>
<clus scale="   57.720">  1  3  2 -1</clus>
<clus scale="   89.972">  1  4  2 -1</clus>
<clus scale="   57.720">  1  3  2 -1</clus>
</clustering>
</event>
<event>
 6    0  0.4081161E+002  0.1312615E+03  0.7546771E-02  0.1225596E+00
          2   -1    0    0  505    0 -0.00000000000E+00  0.00000000000E+00  0.33398687400E+04  0.33398687400E+04  0.00000000000E+00 0.  1.
         21   -1    0    0  503  502  0.00000000000E+00 -0.00000000000E+00 -0.90796041118E+02  0.90796041118E+02  0.00000000000E+00 0.  1.
         21    1    1    2  503  501 -0.28252454205E+02 -0.20090618145E+03  0.13473624303E+03  0.24354742885E+03  0.00000000000E+00 0.  1.
         21    1    1    2  504  502 -0.61332558687E+01  0.72494431463E+02  0.10954885904E+02  0.73573561460E+02  0.00000000000E+00 0.  1.
         21    1    1    2  505  504  0.86403686896E+00  0.98285667356E+02  0.48933754918E+03  0.49911126616E+03  0.00000000000E+00 0. -1.
          2    1    1    2  501    0  0.33521673205E+02  0.30126082633E+02  0.26140440208E+04  0.26144325247E+04  0.00000000000E+00 0.  1.
<scales pt_clust_3="14000.00000" pt_clust_4="74.36673" pt_clust_5="131.26151" pt_clust_6="45.06976"></scales>
<clustering>
<clus scale="   45.070">  1  6  2 -1</clus>
<clus scale="   74.367">  2  4  1 -1</clus>
<clus scale="  131.262">  1  5  2 -1</clus>
<clus scale="   74.367">  2  3  1 -1</clus>
</clustering>
</event>
<event>
 6    0  0.4081161E+002  0.1279023E+03  0.7546771E-02  0.1230602E+00
         -2   -1    0    0    0  501 -0.00000000000E+00  0.00000000000E+00  0.13503605770E+03  0.13503605770E+03  0.00000000000E+00 0. -1.
         21   -1    0    0  504  502  0.00000000000E+00 -0.00000000000E+00 -0.77873846510E+03  0.77873846510E+03  0.00000000000E+00 0.  1.
         21    1    1    2  503  502  0.12690683356E+02 -0.33790768539E+02 -0.53088198985E+03  0.53210765511E+03  0.00000000000E+00 0.  1.
         21    1    1    2  504  501 -0.49967711989E+02 -0.84825356073E+02 -0.20056751820E+03  0.22342659338E+03  0.00000000000E+00 0. -1.
         21    1    1    2  505  503 -0.52601837967E+01  0.45571532813E+02  0.20595111048E+02  0.50285114454E+02  0.00000000000E+00 0.  1.
         -2    1    1    2    0  505  0.42537212430E+02  0.73044591799E+02  0.67151989597E+02  0.10795515985E+03  0.00000000000E+00 0. -1.
<scales pt_clust_3="36.09528" pt_clust_4="120.32430" pt_clust_5="31.95117" pt_clust_6="31.95117"></scales>
<clustering>
<clus scale="   31.951">  5  6 -1 -1</clus>
<clus scale="   36.095">  2  3  1 -1</clus>
<clus scale="  120.324">  2  4  1 -1</clus>
<clus scale="   36.095">  2  3  1 -1</clus>
</clustering>
</event>
<event>
 6    0  0.4081161E+002  0.1013938E+03  0.7546771E-02  0.1277392E+00
         21   -1    0    0  505  502  0.00000000000E+00  0.00000000000E+00  0.20473381381E+04  0.20473381381E+04  0.00000000000E+00 0. -1.
         -4   -1    0    0    0  501 -0.00000000000E+00 -0.00000000000E+00 -0.16172872249E+03  0.16172872249E+03  0.00000000000E+00 0. -1.
         21    1    1    2  503  504 -0.12164099241E+02  0.40019407235E+02 -0.33211060374E+01  0.41958884769E+02  0.00000000000E+00 0. -1.
         21    1    1    2  504  502  0.88325063876E+02  0.66495636111E+01  0.12347543554E+03  0.15195958932E+03  0.00000000000E+00 0. -1.
         21    1    1    2  505  501 -0.69587969990E+02 -0.78775639989E+02  0.18866626759E+04  0.18895883519E+04  0.00000000000E+00 0. -1.
         -4    1    1    2    0  503 -0.65729946446E+01  0.32106669143E+02 -0.12120758980E+03  0.12556003459E+03  0.00000000000E+00 0. -1.
<scales pt_clust_3="61.11979" pt_clust_4="14000.00000" pt_clust_5="101.39382" pt_clust_6="32.77259"></scales>
<clustering>
<clus scale="   32.773">  2  6  1 -1</clus>
<clus scale="   61.120">  2  3  1 -1</clus>
<clus scale="  101.394">  1  5  2 -1</clus>
<clus scale="  101.394">  1  3  2 -1</clus>
</clustering>
</event>
<event>
 6    0  0.4081161E+002  0.1888842E+03  0.7546771E-02  0.1159472E+00
         21   -1    0    0  503  502  0.00000000000E+00  0.00000000000E+00  0.30686928226E+03  0.30686928226E+03  0.00000000000E+00 0. -1.
          2   -1    0    0  505    0 -0.00000000000E+00 -0.00000000000E+00 -0.16790200272E+04  0.16790200272E+04  0.00000000000E+00 0. -1.
         21    1    1    2  503  501  0.29073287019E+02 -0.12006943953E+03 -0.82406225474E+03  0.83327097994E+03  0.00000000000E+00 0. -1.
         21    1    1    2  504  502 -0.12017005091E+03 -0.19440075045E+02  0.21676048741E+03  0.24860383456E+03  0.00000000000E+00 0. -1.
         21    1    1    2  505  504  0.75734783689E+02  0.19841770131E+03 -0.97149115039E+02  0.23354505391E+03  0.00000000000E+00 0.  1.
          2    1    1    2  501    0  0.15361980206E+02 -0.58908186737E+02 -0.66769986256E+03  0.67046944104E+03  0.00000000000E+00 0. -1.
<scales pt_clust_3="30.38520" pt_clust_4="121.73232" pt_clust_5="183.85775" pt_clust_6="30.38520"></scales>
<clustering>
<clus scale="   30.385">  3  6 -1 -1</clus>
<clus scale="  121.732">  1  4  2 -1</clus>
<clus scale="  183.858">  1  5  2 -1</clus>
<clus scale="  121.732">  1  3  2 -1</clus>
</clustering>
</event>
<event>
 6    0  0.4081161E+002  0.6927810E+02  0.7546771E-02  0.1362565E+00
         21   -1    0    0  503  502  0.00000000000E+00  0.00000000000E+00  0.24339273335E+03  0.24339273335E+03  0.00000000000E+00 0. -1.
          2   -1    0    0  504    0 -0.00000000000E+00 -0.00000000000E+00 -0.10848693310E+04  0.10848693310E+04  0.00000000000E+00 0. -1.
         21    1    1    2  503  501 -0.59214100650E+02 -0.90841326837E+01 -0.37894919725E+03  0.38365521667E+03  0.00000000000E+00 0. -1.
         21    1    1    2  504  505 -0.29392856916E+02 -0.46310062714E+02 -0.56305446865E+02  0.78605758650E+02  0.00000000000E+00 0. -1.
         21    1    1    2  505  502  0.68690144345E+02 -0.10209081969E+02  0.22273946321E+03  0.23331401534E+03  0.00000000000E+00 0. -1.
          2    1    1    2  501    0  0.19916813221E+02  0.65603277367E+02 -0.62896141672E+03  0.63268707366E+03  0.00000000000E+00 0. -1.
<scales pt_clust_3="69.27810" pt_clust_4="54.85036" pt_clust_5="14000.00000" pt_clust_6="36.92858"></scales>
<clustering>
<clus scale="   54.850">  2  4  1 -1</clus>
<clus scale="   36.929">  2  6  1 -1</clus>
<clus scale="   69.278">  2  3  1 -1</clus>
<clus scale="   69.278">  1  3  2 -1</clus>
</clustering>
</event>
<event>
 6    0  0.4081161E+002  0.1541059E+03  0.7546771E-02  0.1195517E+00
         21   -1    0    0  503  502  0.00000000000E+00  0.00000000000E+00  0.19945002394E+03  0.19945002394E+03  0.00000000000E+00 0.  1.
          2   -1    0    0  504    0 -0.00000000000E+00 -0.00000000000E+00 -0.33583245242E+04  0.33583245242E+04  0.00000000000E+00 0.  1.
         21    1    1    2  503  505  0.15762197222E+02  0.15067074991E+03  0.15188521221E+03  0.21452095336E+03  0.00000000000E+00 0.  1.
         21    1    1    2  504  502 -0.89428847217E+02 -0.32393041973E+02 -0.14302741711E+03  0.17176632362E+03  0.00000000000E+00 0.  1.
         21    1    1    2  505  501  0.39264826829E+02 -0.88920718733E+02 -0.15025300385E+04  0.15056709925E+04  0.00000000000E+00 0.  1.
          2    1    1    2  501    0  0.34401823167E+02 -0.29356989209E+02 -0.16652022568E+04  0.16658162787E+04  0.00000000000E+00 0.  1.
<scales pt_clust_3="139.14524" pt_clust_4="95.11481" pt_clust_5="45.17967" pt_clust_6="45.17967"></scales>
<clustering>
<clus scale="   45.180">  5  6 -1 -1</clus>
<clus scale="   95.115">  1  4  2 -1</clus>
<clus scale="  139.145">  1  3  2 -1</clus>
<clus scale="   95.115">  1  3  2 -1</clus>
</clustering>
</event>
<event>
 6    0  0.4081161E+002  0.4100136E+03  0.7546771E-02  0.1040366E+00
          2   -1    0    0  504    0 -0.00000000000E+00  0.00000000000E+00  0.23250973080E+04  0.23250973080E+04  0.00000000000E+00 0.  1.
         21   -1    0    0  505  502  0.00000000000E+00 -0.00000000000E+00 -0.12330274153E+03  0.12330274153E+03  0.00000000000E+00 0. -1.
         21    1    1    2  503  501  0.28062795150E+03 -0.82684992306E+02  0.37764751951E+03  0.47770964415E+03  0.00000000000E+00 0. -1.
         21    1    1    2  504  502  0.31766994008E+00  0.80737361466E+02  0.14177023170E+03  0.16314846321E+03  0.00000000000E+00 0.  1.
         21    1    1    2  505  503  0.93897427448E+02 -0.46943824223E+02  0.25420827495E+02  0.10801235107E+03  0.00000000000E+00 0. -1.
          2    1    1    2  501    0 -0.37484304889E+03  0.48891455063E+02  0.16569559877E+04  0.16995295911E+04  0.00000000000E+00 0.  1.
<scales pt_clust_3="88.90294" pt_clust_4="80.73799" pt_clust_5="88.90294" pt_clust_6="380.23399"></scales>
<clustering>
<clus scale="   80.738">  2  4  1 -1</clus>
<clus scale="   88.903">  3  5 -1 -1</clus>
<clus scale="  380.234">  1  6  2 -1</clus>
<clus scale="   80.738">  2  3  1 -1</clus>
</clustering>
</event>
<event>
 6    0  0.4081161E+002  0.1112899E+03  0.7546771E-02  0.1258200E+00
         -3   -1    0    0    0  501 -0.00000000000E+00  0.00000000000E+00  0.53502732217E+03  0.53502732217E+03  0.00000000000E+00 0. -1.
         21   -1    0    0  503  502  0.00000000000E+00 -0.00000000000E+00 -0.87165733918E+03  0.87165733918E+03  0.00000000000E+00 0. -1.
         21    1    1    2  503  504 -0.44714069212E+02  0.11524196290E+03 -0.72207519599E+03  0.73257944734E+03  0.00000000000E+00 0. -1.
         21    1    1    2  504  501 -0.27356107515E+02 -0.26435156638E+02  0.24735739499E+03  0.25026556891E+03  0.00000000000E+00 0. -1.
         21    1    1    2  505  502  0.40663803741E+02 -0.72635565009E+02 -0.12949077650E+03  0.15393937585E+03  0.00000000000E+00 0.  1.
         -3    1    1    2    0  505  0.31406372986E+02 -0.16171241251E+02  0.26757856049E+03  0.26990026925E+03  0.00000000000E+00 0. -1.
<scales pt_clust_3="111.28990" pt_clust_4="41.59267" pt_clust_5="14000.00000" pt_clust_6="35.32519"></scales>
<clustering>
<clus scale="   35.325">  1  6  2 -1</clus>
<clus scale="   41.593">  1  4  2 -1</clus>
<clus scale="  111.290">  2  3  1 -1</clus>
<clus scale="  111.290">  2  3  1 -1</clus>
</clustering>
</event>
<event>
 6    0  0.4081161E+002  0.1714023E+03  0.7546771E-02  0.1176393E+00
         21   -1    0    0  505  502  0.00000000000E+00  0.00000000000E+00  0.88904795049E+02  0.88904795049E+02  0.00000000000E+00 0. -1.
          2   -1    0    0  503    0 -0.00000000000E+00 -0.00000000000E+00 -0.17531308772E+04  0.17531308772E+04  0.00000000000E+00 0. -1.
         21    1    1    2  503  502  0.14033887654E+02 -0.17409228412E+03 -0.98978384215E+02  0.20075306706E+03  0.00000000000E+00 0. -1.
         21    1    1    2  504  501 -0.27024509249E+02  0.13484366021E+03 -0.13259916755E+04  0.13331042946E+04  0.00000000000E+00 0. -1.
         21    1    1    2  505  504  0.63644901807E+02  0.13219418087E+02 -0.29108465405E+01  0.65068422205E+02  0.00000000000E+00 0. -1.
          2    1    1    2  501    0 -0.50654280212E+02  0.26029205818E+02 -0.23634517594E+03  0.24310988842E+03  0.00000000000E+00 0. -1.
<scales pt_clust_3="171.40229" pt_clust_4="14000.00000" pt_clust_5="64.01334" pt_clust_6="56.95064"></scales>
<clustering>
<clus scale="   56.951">  2  6  1 -1</clus>
<clus scale="   64.013">  1  5  2 -1</clus>
<clus scale="  171.402">  1  3  2 -1</clus>
<clus scale="   64.013">  1  3  2 -1</clus>
</clustering>
</event>
<event>
 6    0  0.4081161E+002  0.1170549E+03  0.7546771E-02  0.1248036E+00
         21   -1    0    0  504  502  0.00000000000E+00  0.00000000000E+00  0.59322790812E+03  0.59322790812E+03  0.00000000000E+00 0.  1.
         -1   -1    0    0    0  501 -0.00000000000E+00 -0.00000000000E+00 -0.24759982227E+03  0.24759982227E+03  0.00000000000E+00 0.  1.
         21    1    1    2  503  501  0.14209849259E+02 -0.37264083607E+02 -0.39796293704E+00  0.39883456690E+02  0.00000000000E+00 0.  1.
         21    1    1    2  504  503  0.37665295881E+02 -0.10851086599E+03  0.49193388361E+03  0.50516554553E+03  0.00000000000E+00 0.  1.
         21    1    1    2  505  502 -0.96031611721E+02  0.11892964957E+03 -0.13276809059E+02  0.15343599856E+03  0.00000000000E+00 0.  1.
         -1    1    1    2    0  505  0.44156466581E+02  0.26845300025E+02 -0.13263102577E+03  0.14234272960E+03  0.00000000000E+00 0.  1.
<scales pt_clust_3="39.88147" pt_clust_4="14000.00000" pt_clust_5="117.05492" pt_clust_6="52.92227"></scales>
<clustering>
<clus scale="   39.881">  2  3  1 -1</clus>
<clus scale="   52.922">  2  6  1 -1</clus>
<clus scale="  117.055">  2  5  1 -1</clus>
<clus scale="  117.055">  1  3  2 -1</clus>
</clustering>
</event>
<event>
 6    0  0.4081161E+002  0.1657852E+03  0.7546771E-02  0.1182316E+00
         21   -1    0    0  504  502  0.00000000000E+00  0.00000000000E+00  0.73967497183E+02  0.73967497183E+02  0.00000000000E+00 0. -1.
          2   -1    0    0  505    0 -0.00000000000E+00 -0.00000000000E+00 -0.37908537095E+04  0.37908537095E+04  0.00000000000E+00 0.  1.
         21    1    1    2  503  502  0.15452494276E+03 -0.10997995029E+03 -0.17043351071E+03  0.25499240964E+03  0.00000000000E+00 0. -1.
         21    1    1    2  504  501 -0.35595270023E+02 -0.31266934276E+01  0.16759916691E+02  0.39467635694E+02  0.00000000000E+00 0. -1.
         21    1    1    2  505  503  0.30651063914E+02  0.37974130490E+02 -0.44698914258E+03  0.44964521112E+03  0.00000000000E+00 0. -1.
          2    1    1    2  501    0 -0.14958073665E+03  0.75132513230E+02 -0.31162234757E+04  0.31207159502E+04  0.00000000000E+00 0.  1.
<scales pt_clust_3="165.78522" pt_clust_4="35.73233" pt_clust_5="48.08865" pt_clust_6="14000.00000"></scales>
<clustering>
<clus scale="   35.732">  1  4  2 -1</clus>
<clus scale="   48.089">  2  5  1 -1</clus>
<clus scale="  165.785">  1  3  2 -1</clus>
<clus scale="   35.732">  1  3  2 -1</clus>
</clustering>
</event>
<event>
 6    0  0.4081161E+002  0.1248509E+03  0.7546771E-02  0.1235302E+00
          2   -1    0    0  504    0 -0.00000000000E+00  0.00000000000E+00  0.50853931701E+03  0.50853931701E+03  0.00000000000E+00 0. -1.
         21   -1    0    0  505  502  0.00000000000E+00 -0.00000000000E+00 -0.25494844801E+03  0.25494844801E+03  0.00000000000E+00 0. -1.
         21    1    1    2  503  502 -0.13740495447E+03 -0.49897067110E+01 -0.16438107869E+03  0.21430389105E+03  0.00000000000E+00 0. -1.
         21    1    1    2  504  503  0.67148014117E+02 -0.39513342000E+01  0.27225276559E+02  0.72565036523E+02  0.00000000000E+00 0.  1.
         21    1    1    2  505  501  0.19675666761E+02  0.69052877392E+02 -0.61100723411E+01  0.72060840425E+02  0.00000000000E+00 0.  1.
          2    1    1    2  501    0  0.50581273595E+02 -0.60111836481E+02  0.39685674346E+03  0.40455799702E+03  0.00000000000E+00 0. -1.
<scales pt_clust_3="14000.00000" pt_clust_4="67.26417" pt_clust_5="73.00387" pt_clust_6="124.85093"></scales>
<clustering>
<clus scale="   67.264">  1  4  2 -1</clus>
<clus scale="   73.004">  2  5  1 -1</clus>
<clus scale="  124.851">  1  6  2 -1</clus>
<clus scale="   73.004">  2  3  1 -1</clus>
</clustering>
</event>
<event>
 6    0  0.4081161E+002  0.8752794E+02  0.7546771E-02  0.1308951E+00
         21   -1    0    0  505  502  0.00000000000E+00  0.00000000000E+00  0.31472767531E+03  0.31472767531E+03  0.00000000000E+00 0.  1.
          1   -1    0    0  504    0 -0.00000000000E+00 -0.00000000000E+00 -0.43629150176E+03  0.43629150176E+03  0.00000000000E+00 0.  1.
         21    1    1    2  503  502 -0.36048055923E+02 -0.32467914547E+02  0.28136931480E+02  0.56083105513E+02  0.00000000000E+00 0.  1.
         21    1    1    2  504  503  0.20971367565E+02 -0.35319282272E+02 -0.52983884072E+02  0.67041344923E+02  0.00000000000E+00 0.  1.
         21    1    1    2  505  501  0.47130748233E+02 -0.53810975146E+02  0.24949768002E+03  0.25954964999E+03  0.00000000000E+00 0.  1.
          1    1    1    2  501    0 -0.32054059875E+02  0.12159817197E+03 -0.34621455387E+03  0.36834507665E+03  0.00000000000E+00 0.  1.
<scales pt_clust_3="48.83622" pt_clust_4="41.07615" pt_clust_5="14000.00000" pt_clust_6="87.52794"></scales>
<clustering>
<clus scale="   41.076">  2  4  1 -1</clus>
<clus scale="   48.836">  1  3  2 -1</clus>
<clus scale="   87.528">  2  6  1 -1</clus>
<clus scale="   48.836">  1  3  2 -1</clus>
</clustering>
</event>
<event>
 6    0  0.4081161E+002  0.1573354E+03  0.7546771E-02  0.1191738E+00
          1   -1    0    0  503    0 -0.00000000000E+00  0.00000000000E+00  0.36182852099E+03  0.36182852099E+03  0.00000000000E+00 0. -1.
         21   -1    0    0  505  502  0.00000000000E+00 -0.00000000000E+00 -0.34090597513E+03  0.34090597513E+03  0.00000000000E+00 0.  1.
         21    1    1    2  503  504 -0.72321877960E+02  0.69217790758E+02  0.42012605128E+01  0.10019584412E+03  0.00000000000E+00 0.  1.
         21    1    1    2  504  502 -0.94515711058E+02  0.36275554129E+02 -0.17197957615E+03  0.19956480170E+03  0.00000000000E+00 0.  1.
         21    1    1    2  505  501  0.56396135865E+02  0.70204071948E+02 -0.36110511904E+02  0.97021157118E+02  0.00000000000E+00 0. -1.
          1    1    1    2  501    0  0.11044145315E+03 -0.17569741683E+03  0.22481137340E+03  0.30595269318E+03  0.00000000000E+00 0. -1.
<scales pt_clust_3="157.33538" pt_clust_4="100.98327" pt_clust_5="90.05074" pt_clust_6="14000.00000"></scales>
<clustering>
<clus scale="   90.051">  2  5  1 -1</clus>
<clus scale="  100.983">  2  4  1 -1</clus>
<clus scale="  157.335">  2  3  1 -1</clus>
<clus scale="   90.051">  2  3  1 -1</clus>
</clustering>
</event>
<event>
 6    0  0.4081161E+002  0.1848968E+03  0.7546771E-02  0.1163146E+00
          2   -1    0    0  505    0 -0.00000000000E+00  0.00000000000E+00  0.20611693335E+04  0.20611693335E+04  0.00000000000E+00 0. -1.
         21   -1    0    0  504  502  0.00000000000E+00 -0.00000000000E+00 -0.10421307459E+03  0.10421307459E+03  0.00000000000E+00 0. -1.
         21    1    1    2  503  502 -0.26027917237E+03  0.48776311614E+02  0.14782427967E+03  0.30327610160E+03  0.00000000000E+00 0. -1.
         21    1    1    2  504  501  0.71036865510E+02 -0.47627889849E+02  0.85551564562E+02  0.12096992334E+03  0.00000000000E+00 0. -1.
         21    1    1    2  505  503  0.73705085308E+02  0.74793608722E+02  0.60522762996E+03  0.61426949100E+03  0.00000000000E+00 0. -1.
          2    1    1    2  501    0  0.11553722155E+03 -0.75942030488E+02  0.11183527847E+04  0.11268668921E+04  0.00000000000E+00 0. -1.
<scales pt_clust_3="14000.00000" pt_clust_4="85.52574" pt_clust_5="105.93124" pt_clust_6="184.89680"></scales>
<clustering>
<clus scale="   85.526">  2  4  1 -1</clus>
<clus scale="  105.931">  1  5  2 -1</clus>
<clus scale="  184.897">  1  6  2 -1</clus>
<clus scale="   85.526">  2  3  1 -1</clus>
</clustering>
</event>
<event>
 6    0  0.4081161E+002  0.1046103E+03  0.7546771E-02  0.1270889E+00
         21   -1    0    0  504  502  0.00000000000E+00  0.00000000000E+00  0.29641914190E+02  0.29641914190E+02  0.00000000000E+00 0. -1.
          2   -1    0    0  505    0 -0.00000000000E+00 -0.00000000000E+00 -0.32299950968E+04  0.32299950968E+04  0.00000000000E+00 0.  1.
         21    1    1    2  503  502  0.56952430868E+02 -0.21533393731E+02 -0.48427965756E+02  0.77798035288E+02  0.00000000000E+00 0. -1.
         21    1    1    2  504  501 -0.58695650860E+01 -0.38705874462E+02 -0.15892024239E+03  0.16367113354E+03  0.00000000000E+00 0. -1.
         21    1    1    2  505  503  0.20728154792E+02  0.13511167234E+03 -0.39299229937E+03  0.41608625040E+03  0.00000000000E+00 0. -1.
          2    1    1    2  501    0 -0.71811020574E+02 -0.74872404145E+02 -0.26000126751E+04  0.26020815918E+04  0.00000000000E+00 0.  1.
<scales pt_clust_3="68.48000" pt_clust_4="39.14839" pt_clust_5="14000.00000" pt_clust_6="104.61034"></scales>
<clustering>
<clus scale="   39.148">  1  4  2 -1</clus>
<clus scale="   68.480">  1  3  2 -1</clus>
<clus scale="  104.610">  2  6  1 -1</clus>
<clus scale="   39.148">  1  3  2 -1</clus>
</clustering>
</event>
<event>
 6    0  0.4081161E+002  0.1086676E+03  0.7546771E-02  0.1263057E+00
         -1   -1    0    0    0  501 -0.00000000000E+00  0.00000000000E+00  0.68092765888E+03  0.68092765888E+03  0.00000000000E+00 0.  1.
         21   -1    0    0  505  502  0.00000000000E+00 -0.00000000000E+00 -0.88653399213E+02  0.88653399213E+02  0.00000000000E+00 0.  1.
         21    1    1    2  503  501 -0.38197158525E+02 -0.20279370056E+02  0.20256713509E+03  0.20713213171E+03  0.00000000000E+00 0.  1.
         21    1    1    2  504  502  0.46768409092E+02  0.14081237296E+03  0.11684816235E+03  0.18886212302E+03  0.00000000000E+00 0.  1.
         21    1    1    2  505  503 -0.16347677451E+02 -0.36342006117E+02 -0.35792824344E+02  0.53564113371E+02  0.00000000000E+00 0.  1.
         -1    1    1    2    0  504  0.77764268836E+01 -0.84190996787E+02  0.30865178656E+03  0.32002268998E+03  0.00000000000E+00 0.  1.
<scales pt_clust_3="44.89858" pt_clust_4="14000.00000" pt_clust_5="39.84957" pt_clust_6="108.66763"></scales>
<clustering>
<clus scale="   39.850">  2  5  1 -1</clus>
<clus scale="   44.899">  1  3  2 -1</clus>
<clus scale="  108.668">  1  6  2 -1</clus>
<clus scale="   39.850">  2  3  1 -1</clus>
</clustering>
</event>
<event>
 6    0  0.4081161E+002  0.1468391E+03  0.7546771E-02  0.1204412E+00
         21   -1    0    0  504  502  0.00000000000E+00  0.00000000000E+00  0.10060657582E+03  0.10060657582E+03  0.00000000000E+00 0.  1.
         -1   -1    0    0    0  501 -0.00000000000E+00 -0.00000000000E+00 -0.59719786860E+03  0.59719786860E+03  0.00000000000E+00 0. -1.
         21    1    1    2  503  501 -0.85689198588E+02 -0.38528892176E+02  0.34382700650E+02  0.10004641118E+03  0.00000000000E+00 0.  1.
         21    1    1    2  504  503 -0.60341761586E+02  0.38739883605E+02 -0.38501074748E+02  0.81389431315E+02  0.00000000000E+00 0.  1.
         21    1    1    2  505  502  0.44383133236E+02 -0.13218330297E+01 -0.79409402518E+02  0.90980563676E+02  0.00000000000E+00 0. -1.
         -1    1    1    2    0  505  0.10164782694E+03  0.11108416008E+01 -0.41306351617E+03  0.42538803824E+03  0.00000000000E+00 0. -1.
<scales pt_clust_3="137.03963" pt_clust_4="71.70709" pt_clust_5="34.85875" pt_clust_6="34.85875"></scales>
<clustering>
<clus scale="   34.859">  5  6 -1 -1</clus>
<clus scale="   71.707">  1  4  2 -1</clus>
<clus scale="  137.040">  1  3  2 -1</clus>
<clus scale="   71.707">  1  3  2 -1</clus>
</clustering>
</event>
<event>
 6    0  0.4081161E+002  0.7612721E+02  0.7546771E-02  0.1340416E+00
          2   -1    0    0  503    0 -0.00000000000E+00  0.00000000000E+00  0.19939388313E+04  0.19939388313E+04  0.00000000000E+00 0.  1.
         21   -1    0    0  504  502  0.00000000000E+00 -0.00000000000E+00 -0.26137685504E+02  0.26137685504E+02  0.00000000000E+00 0.  1.
         21    1    1    2  503  505 -0.17179252829E+02 -0.25921126180E+02  0.28728956109E+03  0.28896768578E+03  0.00000000000E+00 0.  1.
         21    1    1    2  504  501  0.81695290252E+02 -0.73136471297E+02  0.21074245568E+03  0.23756145838E+03  0.00000000000E+00 0.  1.
         21    1    1    2  505  502 -0.33668342617E+02  0.54172903731E+02  0.78202062722E+02  0.10091493154E+03  0.00000000000E+00 0.  1.
          2    1    1    2  501    0 -0.30847694806E+02  0.44884693745E+02  0.13915670663E+04  0.13926324411E+04  0.00000000000E+00 0.  1.
<scales pt_clust_3="31.09713" pt_clust_4="14000.00000" pt_clust_5="76.12721" pt_clust_6="50.75669"></scales>
<clustering>
<clus scale="   31.097">  1  3  2 -1</clus>
<clus scale="   50.757">  1  6  2 -1</clus>
<clus scale="   76.127">  2  5  1 -1</clus>
<clus scale="   76.127">  2  3  1 -1</clus>
</clustering>
</event>
<event>
 6    0  0.4081161E+002  0.7458542E+02  0.7546771E-02  0.1345160E+00
         21   -1    0    0  503  502  0.00000000000E+00  0.00000000000E+00  0.10131105712E+03  0.10131105712E+03  0.00000000000E+00 0.  1.
          1   -1    0    0  505    0 -0.00000000000E+00 -0.00000000000E+00 -0.23241758276E+04  0.23241758276E+04  0.00000000000E+00 0.  1.
         21    1    1    2  503  501 -0.22365508679E+02 -0.10110445969E+03 -0.71211083023E+03  0.71960000159E+03  0.00000000000E+00 0.  1.
         21    1    1    2  504  502 -0.50816178476E+02  0.47020295517E+02  0.83422501662E+02  0.10840897550E+03  0.00000000000E+00 0.  1.
         21    1    1    2  505  504  0.26721543463E+02  0.31321456739E+02 -0.38499738553E+03  0.38719253789E+03  0.00000000000E+00 0.  1.
          1    1    1    2  501    0  0.46460143692E+02  0.22762707431E+02 -0.12091790564E+04  0.12102853698E+04  0.00000000000E+00 0.  1.
<scales pt_clust_3="14000.00000" pt_clust_4="69.24409" pt_clust_5="41.17128" pt_clust_6="74.58542"></scales>
<clustering>
<clus scale="   41.171">  2  5  1 -1</clus>
<clus scale="   69.244">  1  4  2 -1</clus>
<clus scale="   74.585">  2  6  1 -1</clus>
<clus scale="   69.244">  1  3  2 -1</clus>
</clustering>
</event>
<event>
 6    0  0.4081161E+002  0.1540452E+03  0.7546771E-02  0.1195589E+00
          4   -1    0    0  502    0 -0.00000000000E+00  0.00000000000E+00  0.31792135514E+03  0.31792135514E+03  0.00000000000E+00 0.  1.
         21   -1    0    0  505  502  0.00000000000E+00 -0.00000000000E+00 -0.36167710856E+03  0.36167710856E+03  0.00000000000E+00 0.  1.
         21    1    1    2  503  504  0.14633912139E+02  0.57231365736E+02  0.88897649218E+02  0.10673505818E+03  0.00000000000E+00 0.  1.
         21    1    1    2  504  501  0.40382711310E+02  0.26612464308E+01  0.53940620031E+02  0.67434680207E+02  0.00000000000E+00 0. -1.
         21    1    1    2  505  503 -0.91422020564E+02 -0.89400427542E+02 -0.33034662432E+03  0.35423059508E+03  0.00000000000E+00 0.  1.
          4    1    1    2  501    0  0.36405397115E+02  0.29507815376E+02  0.14375260165E+03  0.15119813024E+03  0.00000000000E+00 0.  1.
<scales pt_clust_3="57.85503" pt_clust_4="39.27810" pt_clust_5="127.86877" pt_clust_6="57.85503"></scales>
<clustering>
<clus scale="   39.278">  4  6 -1 -1</clus>
<clus scale="   57.855">  3  4 -1 -1</clus>
<clus scale="  127.869">  2  5  1 -1</clus>
<clus scale="  127.869">  2  3  1 -1</clus>
</clustering>
</event>
<event>
 6    0  0.4081161E+002  0.1025095E+03  0.7546771E-02  0.1275106E+00
          1   -1    0    0  504    0 -0.00000000000E+00  0.00000000000E+00  0.18551035977E+03  0.18551035977E+03  0.00000000000E+00 0. -1.
         21   -1    0    0  505  502  0.00000000000E+00 -0.00000000000E+00 -0.26748404816E+03  0.26748404816E+03  0.00000000000E+00 0.  1.
         21    1    1    2  503  501 -0.38637495872E+02 -0.22123134274E+01  0.37255969819E+02  0.53719248925E+02  0.00000000000E+00 0.  1.
         21    1    1    2  504  502 -0.35766951785E+02 -0.22167097878E+02 -0.57660879441E+02  0.71382295327E+02  0.00000000000E+00 0.  1.
         21    1    1    2  505  503  0.11587057242E+03  0.65204900461E+02 -0.16336890654E+03  0.21063491691E+03  0.00000000000E+00 0.  1.
          1    1    1    2  501    0 -0.41466124762E+02 -0.40825489156E+02  0.10180012777E+03  0.11725794677E+03  0.00000000000E+00 0. -1.
<scales pt_clust_3="32.90245" pt_clust_4="42.07915" pt_clust_5="94.23610" pt_clust_6="32.90245"></scales>
<clustering>
<clus scale="   32.902">  3  6 -1 -1</clus>
<clus scale="   42.079">  2  4  1 -1</clus>
<clus scale="   94.236">  2  5  1 -1</clus>
<clus scale="   42.079">  2  3  1 -1</clus>
</clustering>
</event>
<event>
 6    0  0.4081161E+002  0.1757403E+03  0.7546771E-02  0.1171990E+00
          2   -1    0    0  503    0 -0.00000000000E+00  0.00000000000E+00  0.11130991752E+04  0.11130991752E+04  0.00000000000E+00 0. -1.
         21   -1    0    0  505  502  0.00000000000E+00 -0.00000000000E+00 -0.31027293636E+03  0.31027293636E+03  0.00000000000E+00 0.  1.
         21    1    1    2  503  502 -0.72965548768E+02 -0.68200351505E+02 -0.26192054971E+03  0.28031702341E+03  0.00000000000E+00 0.  1.
         21    1    1    2  504  501  0.35551997722E+02  0.71638835300E+02  0.33325547958E+03  0.34271749581E+03  0.00000000000E+00 0. -1.
         21    1    1    2  505  504 -0.24827183576E+02 -0.65495314569E+02  0.68406566829E+01  0.70376273407E+02  0.00000000000E+00 0.  1.
          2    1    1    2  501    0  0.62240734622E+02  0.62056830774E+02  0.72465065232E+03  0.72996131898E+03  0.00000000000E+00 0. -1.
<scales pt_clust_3="163.85405" pt_clust_4="60.60480" pt_clust_5="70.04302" pt_clust_6="60.60480"></scales>
<clustering>
<clus scale="   60.605">  4  6 -1 -1</clus>
<clus scale="   70.043">  2  5  1 -1</clus>
<clus scale="  163.854">  2  3  1 -1</clus>
<clus scale="   70.043">  2  3  1 -1</clus>
</clustering>
</event>
<event>
 6    0  0.4081161E+002  0.8998887E+02  0.7546771E-02  0.1302879E+00
          2   -1    0    0  503    0 -0.00000000000E+00  0.00000000000E+00  0.16343930983E+04  0.16343930983E+04  0.00000000000E+00 0. -1.
         21   -1    0    0  504  502  0.00000000000E+00 -0.00000000000E+00 -0.61008795995E+02  0.61008795995E+02  0.00000000000E+00 0. -1.
         21    1    1    2  503  505  0.53048386477E+02  0.30269164779E+01  0.65970463353E+03  0.66184099075E+03  0.00000000000E+00 0.  1.
         21    1    1    2  504  501 -0.75637878823E+02 -0.66466980137E+02  0.11368857228E+03  0.15186849452E+03  0.00000000000E+00 0. -1.
         21    1    1    2  505  502  0.27084732872E+02 -0.13816698917E+02 -0.33139971091E+02  0.44974899752E+02  0.00000000000E+00 0. -1.
          2    1    1    2  501    0 -0.44952405267E+01  0.77256762577E+02  0.83313106760E+03  0.83671750929E+03  0.00000000000E+00 0. -1.
<scales pt_clust_3="54.41732" pt_clust_4="14000.00000" pt_clust_5="30.40533" pt_clust_6="89.98887"></scales>
<clustering>
<clus scale="   30.405">  2  5  1 -1</clus>
<clus scale="   54.417">  1  3  2 -1</clus>
<clus scale="   89.989">  1  6  2 -1</clus>
<clus scale="   30.405">  2  3  1 -1</clus>
</clustering>
</event>
<event>
 6    0  0.4081161E+002  0.1475721E+03  0.7546771E-02  0.1203488E+00
          1   -1    0    0  502    0 -0.00000000000E+00  0.00000000000E+00  0.22031960441E+03  0.22031960441E+03  0.00000000000E+00 0.  1.
         21   -1    0    0  503  502  0.00000000000E+00 -0.00000000000E+00 -0.85858621787E+03  0.85858621787E+03  0.00000000000E+00 0.  1.
         21    1    1    2  503  504 -0.55965422539E+02 -0.59362693885E+02 -0.47713638571E+03  0.48406114129E+03  0.00000000000E+00 0.  1.
         21    1    1    2  504  505  0.12563309185E+03 -0.57157611116E+02 -0.33713133454E+03  0.36429137103E+03  0.00000000000E+00 0.  1.
         21    1    1    2  505  501 -0.38934589739E+02  0.25026827695E+02  0.28741138942E+02  0.54482083755E+02  0.00000000000E+00 0.  1.
          1    1    1    2  501    0 -0.30733079573E+02  0.91493477306E+02  0.14725996784E+03  0.17607122621E+03  0.00000000000E+00 0.  1.
<scales pt_clust_3="81.58467" pt_clust_4="134.27458" pt_clust_5="42.39428" pt_clust_6="42.39428"></scales>
<clustering>
<clus scale="   42.394">  5  6 -1 -1</clus>
<clus scale="   81.585">  2  3  1 -1</clus>
<clus scale="  134.275">  2  4  1 -1</clus>
<clus scale="   81.585">  2  3  1 -1</clus>
</clustering>
</event>
<event>
 6    0  0.4081161E+002  0.1469380E+03  0.7546771E-02  0.1204287E+00
         21   -1    0    0  504  502  0.00000000000E+00  0.00000000000E+00  0.48723647991E+02  0.48723647991E+02  0.00000000000E+00 0.  1.
          2   -1    0    0  503    0 -0.00000000000E+00 -0.00000000000E+00 -0.20713246006E+04  0.20713246006E+04  0.00000000000E+00 0. -1.
         21    1    1    2  503  505 -0.20369276116E+03 -0.16903995968E+02 -0.73146794193E+03  0.75948787752E+03  0.00000000000E+00 0. -1.
         21    1    1    2  504  501  0.37688679119E+02  0.17904977680E+02 -0.35180089218E+02  0.54577132911E+02  0.00000000000E+00 0. -1.
         21    1    1    2  505  502  0.35224411548E+02 -0.23770279982E+02  0.53953326737E+00  0.42497958486E+02  0.00000000000E+00 0.  1.
          2    1    1    2  501    0  0.13077967050E+03  0.22769298271E+02 -0.12564924547E+04  0.12634852797E+04  0.00000000000E+00 0. -1.
<scales pt_clust_3="146.93799" pt_clust_4="41.72559" pt_clust_5="57.70471" pt_clust_6="14000.00000"></scales>
<clustering>
<clus scale="   41.726">  1  4  2 -1</clus>
<clus scale="   57.705">  1  5  2 -1</clus>
<clus scale="  146.938">  1  3  2 -1</clus>
<clus scale="   41.726">  1  3  2 -1</clus>
</clustering>
</event>
<event>
 6    0  0.4081161E+002  0.7368068E+02  0.7546771E-02  0.1348006E+00
         21   -1    0    0  504  502  0.00000000000E+00  0.00000000000E+00  0.12635706802E+03  0.12635706802E+03  0.00000000000E+00 0. -1.
          2   -1    0    0  503    0 -0.00000000000E+00 -0.00000000000E+00 -0.43279009735E+03  0.43279009735E+03  0.00000000000E+00 0. -1.
         21    1    1    2  503  502  0.47929778583E+02 -0.81034894726E+02 -0.13754566593E+03  0.16668151684E+03  0.00000000000E+00 0. -1.
         21    1    1    2  504  505  0.14331140504E+02 -0.30844267123E+02  0.83120583342E+02  0.89809697570E+02  0.00000000000E+00 0. -1.
         21    1    1    2  505  501 -0.27318116469E+02  0.54835979874E+02 -0.25296165036E+02  0.66280918383E+02  0.00000000000E+00 0. -1.
          2    1    1    2  501    0 -0.34942802618E+02  0.57043181975E+02 -0.22671178170E+03  0.23637503257E+03  0.00000000000E+00 0. -1.
<scales pt_clust_3="14000.00000" pt_clust_4="34.01103" pt_clust_5="43.80158" pt_clust_6="73.68068"></scales>
<clustering>
<clus scale="   34.011">  1  4  2 -1</clus>
<clus scale="   43.802">  1  5  2 -1</clus>
<clus scale="   73.681">  2  6  1 -1</clus>
<clus scale="   34.011">  1  3  2 -1</clus>
</clustering>
</event>
<event>
 6    0  0.4081161E+002  0.1357324E+03  0.7546771E-02  0.1219189E+00
         -4   -1    0    0    0  501 -0.00000000000E+00  0.00000000000E+00  0.14031633970E+04  0.14031633970E+04  0.00000000000E+00 0.  1.
         21   -1    0    0  505  502  0.00000000000E+00 -0.00000000000E+00 -0.16441758873E+04  0.16441758873E+04  0.00000000000E+00 0. -1.
         21    1    1    2  503  502  0.53131133422E+02 -0.28517977792E+02 -0.85331994227E+03  0.85544790389E+03  0.00000000000E+00 0. -1.
         21    1    1    2  504  503  0.81532656842E+02  0.47613574256E+02 -0.52305929961E+02  0.10793765281E+03  0.00000000000E+00 0. -1.
         21    1    1    2  505  501  0.43771479520E+00 -0.50160782882E+02 -0.70528117709E+03  0.70706282216E+03  0.00000000000E+00 0. -1.
         -4    1    1    2    0  504 -0.13510150506E+03  0.31065186418E+02  0.13698945590E+04  0.13768909054E+04  0.00000000000E+00 0.  1.
<scales pt_clust_3="91.49937" pt_clust_4="14000.00000" pt_clust_5="50.16269" pt_clust_6="135.73242"></scales>
<clustering>
<clus scale="   50.163">  2  5  1 -1</clus>
<clus scale="   91.499">  2  3  1 -1</clus>
<clus scale="  135.732">  1  6  2 -1</clus>
<clus scale="   50.163">  2  3  1 -1</clus>
</clustering>
</event>
<event>
 6    0  0.4081161E+002  0.1005749E+03  0.7546771E-02  0.1279092E+00
          1   -1    0    0  502    0 -0.00000000000E+00  0.00000000000E+00  0.57290362539E+02  0.57290362539E+02  0.00000000000E+00 0.  1.
         21   -1    0    0  503  502  0.00000000000E+00 -0.00000000000E+00 -0.59424266720E+03  0.59424266720E+03  0.00000000000E+00 0.  1.
         21    1    1    2  503  505 -0.16266739695E+02 -0.25758507629E+02 -0.88853579773E+02  0.93931177859E+02  0.00000000000E+00 0. -1.
         21    1    1    2  504  501 -0.73954228484E+02  0.33972203240E+02 -0.11353159164E+03  0.13968808397E+03  0.00000000000E+00 0.  1.
         21    1    1    2  505  504  0.12584818075E+03  0.59309865950E+01 -0.35341369973E+03  0.37519885975E+03  0.00000000000E+00 0.  1.
          1    1    1    2  501    0 -0.35627212575E+02 -0.14144682206E+02  0.18846566484E+02  0.42714908156E+02  0.00000000000E+00 0.  1.
<scales pt_clust_3="30.46486" pt_clust_4="100.57488" pt_clust_5="14000.00000" pt_clust_6="38.91909"></scales>
<clustering>
<clus scale="   30.465">  2  3  1 -1</clus>
<clus scale="   38.919">  1  6  2 -1</clus>
<clus scale="  100.575">  1  4  2 -1</clus>
<clus scale="   30.465">  2  3  1 -1</clus>
</clustering>
</event>
<event>
 6    0  0.4081161E+002  0.1274733E+03  0.7546771E-02  0.1231254E+00
          2   -1    0    0  503    0 -0.00000000000E+00  0.00000000000E+00  0.24120117756E+04  0.24120117756E+04  0.00000000000E+00 0.  1.
         21   -1    0    0  505  502  0.00000000000E+00 -0.00000000000E+00 -0.37155054244E+03  0.37155054244E+03  0.00000000000E+00 0. -1.
         21    1    1    2  503  504 -0.53372861855E+02 -0.58035942442E+02  0.22566216206E+03  0.23904025683E+03  0.00000000000E+00 0. -1.
         21    1    1    2  504  502  0.16699183948E+02 -0.52818870791E+02  0.28053825294E+02  0.62094387587E+02  0.00000000000E+00 0.  1.
         21    1    1    2  505  501 -0.82878380168E+02 -0.55091943227E+02 -0.33570519974E+03  0.35014558292E+03  0.00000000000E+00 0. -1.
          2    1    1    2  501    0  0.11955205808E+03  0.16594675646E+03  0.21224504456E+04  0.21322820908E+04  0.00000000000E+00 0.  1.
<scales pt_clust_3="79.37232" pt_clust_4="55.39581" pt_clust_5="127.47328" pt_clust_6="14000.00000"></scales>
<clustering>
<clus scale="   55.396">  2  4  1 -1</clus>
<clus scale="   79.372">  1  3  2 -1</clus>
<clus scale="  127.473">  2  5  1 -1</clus>
<clus scale="   55.396">  2  3  1 -1</clus>
</clustering>
</event>
<event>
 6    0  0.4081161E+002  0.1766579E+03  0.7546771E-02  0.1171077E+00
         21   -1    0    0  505  502  0.00000000000E+00  0.00000000000E+00  0.13970920447E+03  0.13970920447E+03  0.00000000000E+00 0.  1.
          1   -1    0    0  504    0 -0.00000000000E+00 -0.00000000000E+00 -0.13657493106E+04  0.13657493106E+04  0.00000000000E+00 0. -1.
         21    1    1    2  503  502 -0.31818694194E+02  0.36394338228E+02 -0.17029750438E+02  0.51254166223E+02  0.00000000000E+00 0.  1.
         21    1    1    2  504  503 -0.23689962017E+02 -0.31819737742E+02 -0.10480162801E+03  0.11205842781E+03  0.00000000000E+00 0.  1.
         21    1    1    2  505  501  0.13345018240E+03  0.11306478227E+03  0.47963049318E+02  0.18136441292E+03  0.00000000000E+00 0.  1.
          1    1    1    2  501    0 -0.77941526186E+02 -0.11763938276E+03 -0.11521717770E+04  0.11607815081E+04  0.00000000000E+00 0. -1.
<scales pt_clust_3="48.12673" pt_clust_4="39.67001" pt_clust_5="176.65786" pt_clust_6="14000.00000"></scales>
<clustering>
<clus scale="   39.670">  2  4  1 -1</clus>
<clus scale="   48.127">  1  3  2 -1</clus>
<clus scale="  176.658">  1  5  2 -1</clus>
<clus scale="   48.127">  1  3  2 -1</clus>
</clustering>
</event>
<event>
 6    0  0.4081161E+002  0.8710948E+02  0.7546771E-02  0.1310006E+00
         21   -1    0    0  505  502  0.00000000000E+00  0.00000000000E+00  0.25065661795E+04  0.25065661795E+04  0.00000000000E+00 0. -1.
          2   -1    0    0  503    0 -0.00000000000E+00 -0.00000000000E+00 -0.33987439270E+03  0.33987439270E+03  0.00000000000E+00 0.  1.
         21    1    1    2  503  502 -0.45253735305E+02  0.31001576746E+01  0.23593800391E+04  0.23598160269E+04  0.00000000000E+00 0. -1.
         21    1    1    2  504  501  0.76294923057E+02  0.48303658654E+02 -0.29222890476E+02  0.94911200875E+02  0.00000000000E+00 0.  1.
         21    1    1    2  505  504 -0.18897259322E+02  0.40646575461E+02  0.10149676047E+03  0.11095423783E+03  0.00000000000E+00 0.  1.
          2    1    1    2  501    0 -0.12143928430E+02 -0.92050391790E+02 -0.26496212239E+03  0.28075910658E+03  0.00000000000E+00 0.  1.
<scales pt_clust_3="76.99473" pt_clust_4="14000.00000" pt_clust_5="44.82466" pt_clust_6="87.10948"></scales>
<clustering>
<clus scale="   44.825">  1  5  2 -1</clus>
<clus scale="   76.995">  1  3  2 -1</clus>
<clus scale="   87.109">  2  6  1 -1</clus>
<clus scale="   44.825">  1  3  2 -1</clus>
</clustering>
</event>
<event>
 6    0  0.4081161E+002  0.1133851E+03  0.7546771E-02  0.1254427E+00
          1   -1    0    0  505    0 -0.00000000000E+00  0.00000000000E+00  0.27488978139E+04  0.27488978139E+04  0.00000000000E+00 0. -1.
         21   -1    0    0  504  502  0.00000000000E+00 -0.00000000000E+00 -0.12335655935E+03  0.12335655935E+03  0.00000000000E+00 0.  1.
         21    1    1    2  503  502  0.15463407105E+02  0.12650747779E+03 -0.64466599921E+02  0.14282577289E+03  0.00000000000E+00 0.  1.
         21    1    1    2  504  501 -0.56189272763E+02 -0.66764499984E+02  0.86431810318E+02  0.12282178417E+03  0.00000000000E+00 0.  1.
         21    1    1    2  505  503  0.53755574140E+02 -0.56546198526E+01  0.65159567388E+03  0.65383373934E+03  0.00000000000E+00 0. -1.
          1    1    1    2  501    0 -0.13029708482E+02 -0.54088357952E+02  0.19519803703E+04  0.19527730769E+04  0.00000000000E+00 0. -1.
<scales pt_clust_3="14000.00000" pt_clust_4="113.38513" pt_clust_5="54.05216" pt_clust_6="69.96311"></scales>
<clustering>
<clus scale="   54.052">  1  5  2 -1</clus>
<clus scale="   69.963">  1  6  2 -1</clus>
<clus scale="  113.385">  1  4  2 -1</clus>
<clus scale="  113.385">  2  3  1 -1</clus>
</clustering>
</event>
<event>
 6    0  0.4081161E+002  0.8847238E+02  0.7546771E-02  0.1306594E+00
          1   -1    0    0  503    0 -0.00000000000E+00  0.00000000000E+00  0.10673907179E+04  0.10673907179E+04  0.00000000000E+00 0.  1.
         21   -1    0    0  504  502  0.00000000000E+00 -0.00000000000E+00 -0.62304893594E+02  0.62304893594E+02  0.00000000000E+00 0.  1.
         21    1    1    2  503  502 -0.28030581719E+02  0.14736629999E+03  0.19954363315E+03  0.24964014383E+03  0.00000000000E+00 0.  1.
         21    1    1    2  504  505 -0.16372200224E+02 -0.58814335788E+02 -0.46787501080E+01  0.61229614868E+02  0.00000000000E+00 0.  1.
         21    1    1    2  505  501  0.26106244448E+02 -0.46158476811E+02  0.20166542475E+03  0.20852118482E+03  0.00000000000E+00 0.  1.
          1    1    1    2  501    0  0.18296537494E+02 -0.42393487394E+02  0.60855551654E+03  0.61030466799E+03  0.00000000000E+00 0.  1.
<scales pt_clust_3="14000.00000" pt_clust_4="63.29455" pt_clust_5="88.47238" pt_clust_6="46.17327"></scales>
<clustering>
<clus scale="   46.173">  1  6  2 -1</clus>
<clus scale="   63.295">  2  4  1 -1</clus>
<clus scale="   88.472">  1  5  2 -1</clus>
<clus scale="   63.295">  2  3  1 -1</clus>
</clustering>
</event>
<event>
 6    0  0.4081161E+002  0.2524181E+03  0.7546771E-02  0.1111786E+00
         21   -1    0    0  505  502  0.00000000000E+00  0.00000000000E+00  0.30741035392E+03  0.30741035392E+03  0.00000000000E+00 0.  1.
          1   -1    0    0  503    0 -0.00000000000E+00 -0.00000000000E+00 -0.31765643743E+04  0.31765643743E+04  0.00000000000E+00 0. -1.
         21    1    1    2  503  502  0.96711372728E+02  0.23715270921E+03  0.71779389012E+02  0.26598266445E+03  0.00000000000E+00 0.  1.
         21    1    1    2  504  501 -0.62207048513E+02 -0.80265417225E+02 -0.10649165539E+04  0.10697474099E+04  0.00000000000E+00 0. -1.
         21    1    1    2  505  504  0.25800041440E+02 -0.20848930278E+02  0.13129719213E+03  0.13542257085E+03  0.00000000000E+00 0. -1.
          1    1    1    2  501    0 -0.60304365654E+02 -0.13603836171E+03 -0.20073140476E+04  0.20128220830E+04  0.00000000000E+00 0. -1.
<scales pt_clust_3="248.75182" pt_clust_4="35.39630" pt_clust_5="33.17107" pt_clust_6="35.39630"></scales>
<clustering>
<clus scale="   33.171">  1  5  2 -1</clus>
<clus scale="   35.396">  4  6 -1 -1</clus>
<clus scale="  248.752">  1  3  2 -1</clus>
<clus scale="   33.171">  1  3  2 -1</clus>
</clustering>
</event>
<event>
 6    0  0.4081161E+002  0.1202215E+03  0.7546771E-02  0.1242732E+00
         -1   -1    0    0    0  501 -0.00000000000E+00  0.00000000000E+00  0.12811008632E+04  0.12811008632E+04  0.00000000000E+00 0.  1.
         21   -1    0    0  503  502  0.00000000000E+00 -0.00000000000E+00 -0.12913694812E+03  0.12913694812E+03  0.00000000000E+00 0. -1.
         21    1    1    2  503  501  0.22638097784E+02 -0.54316246249E+02 -0.78869070346E+02  0.98402582969E+02  0.00000000000E+00 0. -1.
         21    1    1    2  504  505 -0.36060155273E+02  0.18309914446E+02  0.60624656391E+03  0.60759401249E+03  0.00000000000E+00 0.  1.
         21    1    1    2  505  502  0.89118258161E+02  0.43693253555E+02  0.28423550182E+02  0.10324273606E+03  0.00000000000E+00 0. -1.
         -1    1    1    2    0  504 -0.75696200672E+02 -0.76869217517E+01  0.59616287137E+03  0.60099847984E+03  0.00000000000E+00 0.  1.
<scales pt_clust_3="58.84503" pt_clust_4="35.00305" pt_clust_5="110.21882" pt_clust_6="35.00305"></scales>
<clustering>
<clus scale="   35.003">  4  6 -1 -1</clus>
<clus scale="   58.845">  2  3  1 -1</clus>
<clus scale="  110.219">  2  5  1 -1</clus>
<clus scale="   58.845">  2  3  1 -1</clus>
</clustering>
</event>
<event>
 6    0  0.4081161E+002  0.1039487E+03  0.7546771E-02  0.1272205E+00
          2   -1    0    0  505    0 -0.00000000000E+00  0.00000000000E+00  0.16539474901E+04  0.16539474901E+04  0.00000000000E+00 0.  1.
         21   -1    0    0  504  502  0.00000000000E+00 -0.00000000000E+00 -0.86005907780E+02  0.86005907780E+02  0.00000000000E+00 0. -1.
         21    1    1    2  503  502 -0.24180055197E+02  0.68150936390E+02  0.16616864739E+02  0.74198014757E+02  0.00000000000E+00 0. -1.
         21    1    1    2  504  501 -0.63927417427E-01 -0.16469688613E+03  0.77267321703E+02  0.18192115707E+03  0.00000000000E+00 0. -1.
         21    1    1    2  505  503  0.35658567385E+02  0.22342584180E+00  0.96694636208E+02  0.10306035134E+03  0.00000000000E+00 0. -1.
          2    1    1    2  501    0 -0.11414584771E+02  0.96322523898E+02  0.13773627597E+04  0.13807738747E+04  0.00000000000E+00 0.  1.
<scales pt_clust_3="71.97788" pt_clust_4="14000.00000" pt_clust_5="35.65927" pt_clust_6="103.94874"></scales>
<clustering>
<clus scale="   35.659">  1  5  2 -1</clus>
<clus scale="   71.978">  2  3  1 -1</clus>
<clus scale="  103.949">  1  6  2 -1</clus>
<clus scale="   71.978">  2  3  1 -1</clus>
</clustering>
</event>
<event>
 6    0  0.4081161E+002  0.7788833E+02  0.7546771E-02  0.1335153E+00
         -2   -1    0    0    0  501 -0.00000000000E+00  0.00000000000E+00  0.33463733088E+03  0.33463733088E+03  0.00000000000E+00 0.  1.
         21   -1    0    0  503  502  0.00000000000E+00 -0.00000000000E+00 -0.12397589939E+03  0.12397589939E+03  0.00000000000E+00 0.  1.
         21    1    1    2  503  501 -0.42667164981E+01 -0.75361243095E+02  0.67082000757E+02  0.10098275425E+03  0.00000000000E+00 0.  1.
         21    1    1    2  504  505 -0.30961982565E+02  0.61946127070E+02  0.52391346100E+02  0.86837895930E+02  0.00000000000E+00 0.  1.
         21    1    1    2  505  502  0.89437952072E+02 -0.94172584455E+01 -0.60305565298E+02  0.10828016085E+03  0.00000000000E+00 0.  1.
         -2    1    1    2    0  504 -0.54209253009E+02  0.22832374470E+02  0.15149364994E+03  0.16251241924E+03  0.00000000000E+00 0.  1.
<scales pt_clust_3="71.15251" pt_clust_4="77.88833" pt_clust_5="14000.00000" pt_clust_6="58.82143"></scales>
<clustering>
<clus scale="   58.821">  1  6  2 -1</clus>
<clus scale="   71.153">  1  3  2 -1</clus>
<clus scale="   77.888">  1  4  2 -1</clus>
<clus scale="   77.888">  2  3  1 -1</clus>
</clustering>
</event>
<event>
 6    0  0.4081161E+002  0.1546599E+03  0.7546771E-02  0.1194861E+00
          2   -1    0    0  504    0 -0.00000000000E+00  0.00000000000E+00  0.90131843430E+03  0.90131843430E+03  0.00000000000E+00 0. -1.
         21   -1    0    0  505  502  0.00000000000E+00 -0.00000000000E+00 -0.10361201077E+03  0.10361201077E+03  0.00000000000E+00 0. -1.
         21    1    1    2  503  502 -0.80844464835E+02  0.44402407430E+02  0.38644342118E+01  0.92316494364E+02  0.00000000000E+00 0. -1.
         21    1    1    2  504  503  0.96102565903E+02  0.15543439702E+03  0.40521416610E+03  0.44451555131E+03  0.00000000000E+00 0. -1.
         21    1    1    2  505  501 -0.73931344964E+02 -0.48436939149E+02  0.79304309506E+02  0.11874828146E+03  0.00000000000E+00 0. -1.
          2    1    1    2  501    0  0.58673243896E+02 -0.15139986531E+03  0.30932351372E+03  0.34935011794E+03  0.00000000000E+00 0. -1.
<scales pt_clust_3="121.29667" pt_clust_4="14000.00000" pt_clust_5="88.38541" pt_clust_6="154.65993"></scales>
<clustering>
<clus scale="   88.385">  2  5  1 -1</clus>
<clus scale="  121.297">  2  3  1 -1</clus>
<clus scale="  154.660">  2  6  1 -1</clus>
<clus scale="   88.385">  2  3  1 -1</clus>
</clustering>
</event>
<event>
 6    0  0.4081161E+002  0.1605256E+03  0.7546771E-02  0.1188105E+00
          2   -1    0    0  504    0 -0.00000000000E+00  0.00000000000E+00  0.20216218377E+04  0.20216218377E+04  0.00000000000E+00 0.  1.
         21   -1    0    0  503  502  0.00000000000E+00 -0.00000000000E+00 -0.10019504793E+03  0.10019504793E+03  0.00000000000E+00 0. -1.
         21    1    1    2  503  501 -0.54805877229E+02  0.41177183478E+02 -0.21662914505E+02  0.71892464716E+02  0.00000000000E+00 0. -1.
         21    1    1    2  504  505  0.30307563611E+02 -0.25156231489E+01  0.32963616799E+03  0.33103607057E+03  0.00000000000E+00 0. -1.
         21    1    1    2  505  502  0.20570927764E+03 -0.36793450184E+02  0.18533887263E+03  0.27932161139E+03  0.00000000000E+00 0. -1.
          2    1    1    2  501    0 -0.18121096402E+03 -0.18681101460E+01  0.14281146637E+04  0.14395667390E+04  0.00000000000E+00 0.  1.
<scales pt_clust_3="68.16921" pt_clust_4="30.41179" pt_clust_5="14000.00000" pt_clust_6="160.52564"></scales>
<clustering>
<clus scale="   30.412">  1  4  2 -1</clus>
<clus scale="   68.169">  2  3  1 -1</clus>
<clus scale="  160.526">  1  6  2 -1</clus>
<clus scale="   68.169">  2  3  1 -1</clus>
</clustering>
</event>
<event>
 6    0  0.4081161E+002  0.8200498E+02  0.7546771E-02  0.1323456E+00
         21   -1    0    0  503  502  0.00000000000E+00  0.00000000000E+00  0.10054613958E+04  0.10054613958E+04  0.00000000000E+00 0.  1.
         -1   -1    0    0    0  501 -0.00000000000E+00 -0.00000000000E+00 -0.90906940270E+02  0.90906940270E+02  0.00000000000E+00 0.  1.
         21    1    1    2  503  505 -0.35573992006E+02 -0.61886511651E+02  0.24208179459E+03  0.25238669637E+03  0.00000000000E+00 0.  1.
         21    1    1    2  504  502 -0.33733153145E+02  0.22842273524E+02  0.62658057625E+03  0.62790358624E+03  0.00000000000E+00 0.  1.
         21    1    1    2  505  501 -0.23788904510E+02 -0.63735751931E+02 -0.53464846677E+01  0.68240332285E+02  0.00000000000E+00 0.  1.
         -1    1    1    2    0  504  0.93096049662E+02  0.10277999006E+03  0.51238569389E+02  0.14783772121E+03  0.00000000000E+00 0.  1.
<scales pt_clust_3="14000.00000" pt_clust_4="40.73936" pt_clust_5="67.31255" pt_clust_6="82.00498"></scales>
<clustering>
<clus scale="   40.739">  1  4  2 -1</clus>
<clus scale="   67.313">  2  5  1 -1</clus>
<clus scale="   82.005">  2  6  1 -1</clus>
<clus scale="   40.739">  1  3  2 -1</clus>
</clustering>
</event>
<event>
 6    0  0.4081161E+002  0.1318487E+03  0.7546771E-02  0.1224738E+00
          1   -1    0    0  503    0 -0.00000000000E+00  0.00000000000E+00  0.71779135687E+03  0.71779135687E+03  0.00000000000E+00 0. -1.
         21   -1    0    0  504  502  0.00000000000E+00 -0.00000000000E+00 -0.10992942398E+04  0.10992942398E+04  0.00000000000E+00 0. -1.
         21    1    1    2  503  505 -0.12821238343E+02 -0.39883461589E+02 -0.29026150037E+03  0.29326918225E+03  0.00000000000E+00 0. -1.
         21    1    1    2  504  501  0.66482596550E+02 -0.62908130330E+02  0.68651798245E+02  0.11441345160E+03  0.00000000000E+00 0. -1.
         21    1    1    2  505  502  0.36629275485E+02 -0.13906050446E+02 -0.77543486320E+03  0.77642405239E+03  0.00000000000E+00 0. -1.
          1    1    1    2  501    0 -0.90290633692E+02  0.11669764237E+03  0.61554168240E+03  0.63297891043E+03  0.00000000000E+00 0. -1.
<scales pt_clust_3="56.19755" pt_clust_4="131.84874" pt_clust_5="39.18012" pt_clust_6="14000.00000"></scales>
<clustering>
<clus scale="   39.180">  2  5  1 -1</clus>
<clus scale="   56.198">  2  3  1 -1</clus>
<clus scale="  131.849">  2  4  1 -1</clus>
<clus scale="   39.180">  2  3  1 -1</clus>
</clustering>
</event>
<event>
 6    0  0.4081161E+002  0.8320578E+02  0.7546771E-02  0.1320192E+00
         21   -1    0    0  503  502  0.00000000000E+00  0.00000000000E+00  0.14087115906E+04  0.14087115906E+04  0.00000000000E+00 0. -1.
          4   -1    0    0  505    0 -0.00000000000E+00 -0.00000000000E+00 -0.16412851323E+03  0.16412851323E+03  0.00000000000E+00 0.  1.
         21    1    1    2  503  501  0.49820125646E+02  0.48681335260E+02  0.17694215567E+03  0.19015899604E+03  0.00000000000E+00 0.  1.
         21    1    1    2  504  502 -0.92939089727E+02  0.21025235236E+02  0.11779738084E+04  0.11818214875E+04  0.00000000000E+00 0. -1.
         21    1    1    2  505  504  0.18859765647E+02  0.43415711033E+02 -0.11533560885E+02  0.48719993344E+02  0.00000000000E+00 0.  1.
          4    1    1    2  501    0  0.24259198433E+02 -0.11312228153E+03 -0.98799325886E+02  0.15213962693E+03  0.00000000000E+00 0.  1.
<scales pt_clust_3="71.82272" pt_clust_4="14000.00000" pt_clust_5="47.33513" pt_clust_6="83.20578"></scales>
<clustering>
<clus scale="   47.335">  2  5  1 -1</clus>
<clus scale="   71.823">  1  3  2 -1</clus>
<clus scale="   83.206">  2  6  1 -1</clus>
<clus scale="   71.823">  1  3  2 -1</clus>
</clustering>
</event>
<event>
 6    0  0.4081161E+002  0.1481661E+03  0.7546771E-02  0.1202745E+00
         21   -1    0    0  505  502  0.00000000000E+00  0.00000000000E+00  0.20552914358E+04  0.20552914358E+04  0.00000000000E+00 0. -1.
          3   -1    0    0  503    0 -0.00000000000E+00 -0.00000000000E+00 -0.23183822760E+03  0.23183822760E+03  0.00000000000E+00 0. -1.
         21    1    1    2  503  502 -0.17400359718E+01  0.39893976253E+02 -0.50844431180E+02  0.64650701841E+02  0.00000000000E+00 0. -1.
         21    1    1    2  504  501 -0.14342932961E+03  0.69084328355E+02  0.25187712517E+03  0.29797097711E+03  0.00000000000E+00 0.  1.
         21    1    1    2  505  504  0.27768575940E+01 -0.34220159451E+02  0.17304361911E+04  0.17307767452E+04  0.00000000000E+00 0. -1.
          3    1    1    2  501    0  0.14239250799E+03 -0.74758145157E+02 -0.10801567691E+03  0.19373123924E+03  0.00000000000E+00 0. -1.
<scales pt_clust_3="39.20248" pt_clust_4="148.16612" pt_clust_5="34.33264" pt_clust_6="14000.00000"></scales>
<clustering>
<clus scale="   34.333">  1  5  2 -1</clus>
<clus scale="   39.202">  2  3  1 -1</clus>
<clus scale="  148.166">  1  4  2 -1</clus>
<clus scale="   34.333">  1  3  2 -1</clus>
</clustering>
</event>
<event>
 6    0  0.4081161E+002  0.1802702E+03  0.7546771E-02  0.1167542E+00
          2   -1    0    0  503    0 -0.00000000000E+00  0.00000000000E+00  0.20347406507E+03  0.20347406507E+03  0.00000000000E+00 0.  1.
         21   -1    0    0  505  502  0.00000000000E+00 -0.00000000000E+00 -0.52319639046E+03  0.52319639046E+03  0.00000000000E+00 0. -1.
         21    1    1    2  503  504 -0.83287976887E+02 -0.11156172571E+02  0.74363975899E+02  0.11221117677E+03  0.00000000000E+00 0.  1.
         21    1    1    2  504  502  0.65654472891E+02  0.17533449115E+03 -0.25376215689E+03  0.31535365205E+03  0.00000000000E+00 0. -1.
         21    1    1    2  505  501 -0.62299935544E+02  0.14017170576E+02 -0.60994220960E+02  0.88306613740E+02  0.00000000000E+00 0.  1.
          2    1    1    2  501    0  0.79933439540E+02 -0.17819548915E+03 -0.79329923444E+02  0.21079901296E+03  0.00000000000E+00 0.  1.
<scales pt_clust_3="86.56345" pt_clust_4="180.27017" pt_clust_5="63.85736" pt_clust_6="14000.00000"></scales>
<clustering>
<clus scale="   63.857">  2  5  1 -1</clus>
<clus scale="   86.563">  1  3  2 -1</clus>
<clus scale="  180.270">  2  4  1 -1</clus>
<clus scale="   63.857">  2  3  1 -1</clus>
</clustering>
</event>
<event>
 6    0  0.4081161E+002  0.1395831E+03  0.7546771E-02  0.1213891E+00
         21   -1    0    0  503  502  0.00000000000E+00  0.00000000000E+00  0.89624618027E+02  0.89624618027E+02  0.00000000000E+00 0. -1.
         -1   -1    0    0    0  501 -0.00000000000E+00 -0.00000000000E+00 -0.39664916971E+03  0.39664916971E+03  0.00000000000E+00 0.  1.
         21    1    1    2  503  501 -0.11507902469E+01 -0.41732401144E+02  0.12679440439E+02  0.43631248358E+02  0.00000000000E+00 0. -1.
         21    1    1    2  504  502  0.12925201203E+03  0.24467232004E+02 -0.54002670342E+02  0.14220062047E+03  0.00000000000E+00 0. -1.
         21    1    1    2  505  504 -0.29388131806E+02  0.19761740435E+02 -0.11451095773E+03  0.11986220470E+03  0.00000000000E+00 0.  1.
         -1    1    1    2    0  505 -0.98713089981E+02 -0.24965712947E+01 -0.15119036405E+03  0.18057971420E+03  0.00000000000E+00 0.  1.
<scales pt_clust_3="41.74826" pt_clust_4="128.54295" pt_clust_5="32.58295" pt_clust_6="32.58295"></scales>
<clustering>
<clus scale="   32.583">  5  6 -1 -1</clus>
<clus scale="   41.748">  1  3  2 -1</clus>
<clus scale="  128.543">  1  4  2 -1</clus>
<clus scale="   41.748">  1  3  2 -1</clus>
</clustering>
</event>
<event>
 6    0  0.4081161E+002  0.1492811E+03  0.7546771E-02  0.1201359E+00
         21   -1    0    0  501  502  0.00000000000E+00  0.00000000000E+00  0.89566078526E+02  0.89566078526E+02  0.00000000000E+00 0.  1.
          2   -1    0    0  505    0 -0.00000000000E+00 -0.00000000000E+00 -0.17315895706E+04  0.17315895706E+04  0.00000000000E+00 0.  1.
         21    1    1    2  503  504 -0.74601659433E+02 -0.54856154492E+01  0.13057566645E+01  0.74814467635E+02  0.00000000000E+00 0.  1.
         21    1    1    2  504  502 -0.53046113125E+02 -0.50966633833E+02  0.17152757521E+02  0.75536117007E+02  0.00000000000E+00 0.  1.
         21    1    1    2  505  503 -0.13950387268E+02  0.27549058075E+02 -0.13470454966E+03  0.13819869610E+03  0.00000000000E+00 0. -1.
          2    1    1    2  501    0  0.14159815983E+03  0.28903191208E+02 -0.15257774566E+04  0.15326063684E+04  0.00000000000E+00 0.  1.
<scales pt_clust_3="52.16769" pt_clust_4="52.16769" pt_clust_5="30.87983" pt_clust_6="139.64630"></scales>
<clustering>
<clus scale="   30.880">  2  5  1 -1</clus>
<clus scale="   52.168">  3  4 -1 -1</clus>
<clus scale="  139.646">  2  6  1 -1</clus>
<clus scale="  149.281">  1  3  2 -1</clus>
</clustering>
</event>
<event>
 6    0  0.4081161E+002  0.1625846E+03  0.7546771E-02  0.1185809E+00
          2   -1    0    0  505    0 -0.00000000000E+00  0.00000000000E+00  0.27220162158E+04  0.27220162158E+04  0.00000000000E+00 0. -1.
         21   -1    0    0  504  502  0.00000000000E+00 -0.00000000000E+00 -0.15294832101E+03  0.15294832101E+03  0.00000000000E+00 0.  1.
         21    1    1    2  503  502  0.49169598202E+02 -0.33764314919E+02  0.63643413320E+02  0.87224780930E+02  0.00000000000E+00 0.  1.
         21    1    1    2  504  501 -0.77667595145E+02  0.19518079673E+03 -0.53483214310E+02  0.21676773967E+03  0.00000000000E+00 0.  1.
         21    1    1    2  505  503 -0.28446937933E+02 -0.64981622510E+02  0.26493009020E+03  0.27426226907E+03  0.00000000000E+00 0. -1.
          2    1    1    2  501    0  0.56944934876E+02 -0.96434859301E+02  0.22939776056E+04  0.22967097471E+04  0.00000000000E+00 0. -1.
<scales pt_clust_3="59.64628" pt_clust_4="14000.00000" pt_clust_5="71.33238" pt_clust_6="162.58459"></scales>
<clustering>
<clus scale="   59.646">  2  3  1 -1</clus>
<clus scale="   71.332">  1  5  2 -1</clus>
<clus scale="  162.585">  1  6  2 -1</clus>
<clus scale="   59.646">  2  3  1 -1</clus>
</clustering>
</event>
<event>
 6    0  0.4081161E+002  0.1008188E+03  0.7546771E-02  0.1278584E+00
         21   -1    0    0  504  502  0.00000000000E+00  0.00000000000E+00  0.56067076013E+03  0.56067076013E+03  0.00000000000E+00 0. -1.
         -2   -1    0    0    0  501 -0.00000000000E+00 -0.00000000000E+00 -0.65314357956E+03  0.65314357956E+03  0.00000000000E+00 0.  1.
         21    1    1    2  503  505 -0.32341764047E+02 -0.68312550717E+02 -0.10772948139E+02  0.76345600388E+02  0.00000000000E+00 0.  1.
         21    1    1    2  504  501 -0.28876994724E+01  0.33843992687E+02 -0.11198467164E+03  0.11702273852E+03  0.00000000000E+00 0.  1.
         21    1    1    2  505  502  0.49780024570E+02  0.91100197117E+02  0.51847528904E+03  0.52876641545E+03  0.00000000000E+00 0. -1.
         -2    1    1    2    0  503 -0.14550561051E+02 -0.56631639088E+02 -0.48819048870E+03  0.49167958533E+03  0.00000000000E+00 0.  1.
<scales pt_clust_3="100.81877" pt_clust_4="33.96696" pt_clust_5="14000.00000" pt_clust_6="31.03494"></scales>
<clustering>
<clus scale="   33.967">  2  4  1 -1</clus>
<clus scale="   31.035">  2  6  1 -1</clus>
<clus scale="  100.819">  2  3  1 -1</clus>
<clus scale="  100.819">  1  3  2 -1</clus>
</clustering>
</event>
<event>
 6    0  0.4081161E+002  0.9948720E+02  0.7546771E-02  0.1281378E+00
         21   -1    0    0  505  502  0.00000000000E+00  0.00000000000E+00  0.18205612202E+04  0.18205612202E+04  0.00000000000E+00 0. -1.
         -2   -1    0    0    0  501 -0.00000000000E+00 -0.00000000000E+00 -0.87281604219E+03  0.87281604219E+03  0.00000000000E+00 0. -1.
         21    1    1    2  503  501 -0.32854495811E+02 -0.54755094415E+01 -0.10731495073E+03  0.11236502013E+03  0.00000000000E+00 0.  1.
         21    1    1    2  504  502 -0.36700971941E+02 -0.27754999873E+02  0.99493221455E+02  0.10961844040E+03  0.00000000000E+00 0.  1.
         21    1    1    2  505  503 -0.11034194567E+02 -0.59531850175E+02  0.17079597894E+04  0.17090326026E+04  0.00000000000E+00 0. -1.
         -2    1    1    2    0  504  0.80589662319E+02  0.92762359489E+02 -0.75239288213E+03  0.76236119923E+03  0.00000000000E+00 0. -1.
<scales pt_clust_3="33.30764" pt_clust_4="46.21005" pt_clust_5="14000.00000" pt_clust_6="99.48720"></scales>
<clustering>
<clus scale="   33.308">  2  3  1 -1</clus>
<clus scale="   46.210">  1  4  2 -1</clus>
<clus scale="   99.487">  2  6  1 -1</clus>
<clus scale="   46.210">  1  3  2 -1</clus>
</clustering>
</event>
<event>
 6    0  0.4081161E+002  0.1173354E+03  0.7546771E-02  0.1247559E+00
          1   -1    0    0  505    0 -0.00000000000E+00  0.00000000000E+00  0.99152853782E+03  0.99152853782E+03  0.00000000000E+00 0.  1.
         21   -1    0    0  503  502  0.00000000000E+00 -0.00000000000E+00 -0.21023013288E+03  0.21023013288E+03  0.00000000000E+00 0.  1.
         21    1    1    2  503  501  0.88142000203E+01 -0.14564631549E+03 -0.10403990145E+03  0.17920613949E+03  0.00000000000E+00 0.  1.
         21    1    1    2  504  502  0.43046707608E+02  0.39638883272E+02 -0.49093225186E+02  0.76383276063E+02  0.00000000000E+00 0.  1.
         21    1    1    2  505  504 -0.38382766525E+02  0.11886245633E+02  0.12817234226E+03  0.13432300221E+03  0.00000000000E+00 0.  1.
          1    1    1    2  501    0 -0.13478141104E+02  0.94121186584E+02  0.80625918932E+03  0.81184625294E+03  0.00000000000E+00 0.  1.
<scales pt_clust_3="117.33544" pt_clust_4="58.19965" pt_clust_5="40.18109" pt_clust_6="14000.00000"></scales>
<clustering>
<clus scale="   40.181">  1  5  2 -1</clus>
<clus scale="   58.200">  2  4  1 -1</clus>
<clus scale="  117.335">  2  3  1 -1</clus>
<clus scale="   58.200">  2  3  1 -1</clus>
</clustering>
</event>
<event>
 6    0  0.4081161E+002  0.1003216E+03  0.7546771E-02  0.1279621E+00
          2   -1    0    0  504    0 -0.00000000000E+00  0.00000000000E+00  0.93113910233E+02  0.93113910233E+02  0.00000000000E+00 0. -1.
         21   -1    0    0  505  502  0.00000000000E+00 -0.00000000000E+00 -0.57145352535E+03  0.57145352535E+03  0.00000000000E+00 0.  1.
         21    1    1    2  503  502 -0.22563799858E+02 -0.50634654024E+02 -0.86456699567E+02  0.10270225972E+03  0.00000000000E+00 0. -1.
         21    1    1    2  504  503  0.15071975911E+02 -0.54192707153E+02 -0.54496680898E+02  0.78319232602E+02  0.00000000000E+00 0.  1.
         21    1    1    2  505  501  0.74700514828E+02  0.57618407900E+02 -0.37963720817E+03  0.39118340669E+03  0.00000000000E+00 0.  1.
          2    1    1    2  501    0 -0.67208690882E+02  0.47208953277E+02  0.42250973511E+02  0.92362536573E+02  0.00000000000E+00 0. -1.
<scales pt_clust_3="42.76834" pt_clust_4="42.76834" pt_clust_5="90.60024" pt_clust_6="82.13217"></scales>
<clustering>
<clus scale="   42.768">  3  4 -1 -1</clus>
<clus scale="   82.132">  1  6  2 -1</clus>
<clus scale="   90.600">  2  5  1 -1</clus>
<clus scale="   90.600">  2  3  1 -1</clus>
</clustering>
</event>
<event>
 6    0  0.4081161E+002  0.3222632E+03  0.7546771E-02  0.1074612E+00
         21   -1    0    0  505  502  0.00000000000E+00  0.00000000000E+00  0.41132049634E+03  0.41132049634E+03  0.00000000000E+00 0. -1.
          1   -1    0    0  502    0 -0.00000000000E+00 -0.00000000000E+00 -0.18379211305E+04  0.18379211305E+04  0.00000000000E+00 0. -1.
         21    1    1    2  503  501 -0.27293311372E+03 -0.17799842062E+03 -0.32320941646E+02  0.32744551544E+03  0.00000000000E+00 0. -1.
         21    1    1    2  504  503 -0.10454352423E+02  0.51017411936E+02  0.58609692608E+02  0.78403863889E+02  0.00000000000E+00 0. -1.
         21    1    1    2  505  504 -0.26472287283E+02  0.35094136568E+02  0.17668781427E+03  0.18207406221E+03  0.00000000000E+00 0. -1.
          1    1    1    2  501    0  0.30985975343E+03  0.91886872117E+02 -0.16295771994E+04  0.16613181853E+04  0.00000000000E+00 0. -1.
<scales pt_clust_3="322.26318" pt_clust_4="64.04518" pt_clust_5="43.95885" pt_clust_6="14000.00000"></scales>
<clustering>
<clus scale="   43.959">  1  5  2 -1</clus>
<clus scale="   64.045">  1  4  2 -1</clus>
<clus scale="  322.263">  1  3  2 -1</clus>
<clus scale="   43.959">  1  3  2 -1</clus>
</clustering>
</event>
<event>
 6    0  0.4081161E+002  0.1311349E+03  0.7546771E-02  0.1225781E+00
          2   -1    0    0  505    0 -0.00000000000E+00  0.00000000000E+00  0.62316789200E+03  0.62316789200E+03  0.00000000000E+00 0.  1.
         21   -1    0    0  503  502  0.00000000000E+00 -0.00000000000E+00 -0.83989841986E+02  0.83989841986E+02  0.00000000000E+00 0.  1.
         21    1    1    2  503  504 -0.62550574987E+00 -0.49544604761E+02 -0.11430560364E+02  0.50849944234E+02  0.00000000000E+00 0.  1.
         21    1    1    2  504  501  0.47372431673E+02  0.29371553792E+01  0.12359948050E+03  0.13239941747E+03  0.00000000000E+00 0.  1.
         21    1    1    2  505  502 -0.11796482824E+03  0.76550755075E+02  0.67124841658E+02  0.15582510444E+03  0.00000000000E+00 0.  1.
          2    1    1    2  501    0  0.71217902319E+02 -0.29943305693E+02  0.35988428822E+03  0.36808326785E+03  0.00000000000E+00 0.  1.
<scales pt_clust_3="49.54855" pt_clust_4="34.46421" pt_clust_5="123.54353" pt_clust_6="34.46421"></scales>
<clustering>
<clus scale="   34.464">  4  6 -1 -1</clus>
<clus scale="   49.549">  2  3  1 -1</clus>
<clus scale="  123.544">  2  5  1 -1</clus>
<clus scale="   49.549">  2  3  1 -1</clus>
</clustering>
</event>
<event>
 6    0  0.4081161E+002  0.9812758E+02  0.7546771E-02  0.1284283E+00
         21   -1    0    0  503  502  0.00000000000E+00  0.00000000000E+00  0.30009199760E+03  0.30009199760E+03  0.00000000000E+00 0. -1.
          2   -1    0    0  504    0 -0.00000000000E+00 -0.00000000000E+00 -0.14672771518E+04  0.14672771518E+04  0.00000000000E+00 0. -1.
         21    1    1    2  503  501  0.21970473942E+02 -0.26918166900E+02  0.24530845222E+03  0.24775699015E+03  0.00000000000E+00 0. -1.
         21    1    1    2  504  505  0.69931193487E+02  0.51168685771E+02 -0.92905094622E+02  0.12704315343E+03  0.00000000000E+00 0. -1.
         21    1    1    2  505  502 -0.22159067006E+02  0.46694448144E+02  0.15359251984E+02  0.53919406150E+02  0.00000000000E+00 0. -1.
          2    1    1    2  501    0 -0.69742600422E+02 -0.70944967016E+02 -0.13349477638E+04  0.13386495997E+04  0.00000000000E+00 0. -1.
<scales pt_clust_3="34.74607" pt_clust_4="98.12758" pt_clust_5="30.34502" pt_clust_6="14000.00000"></scales>
<clustering>
<clus scale="   34.746">  1  3  2 -1</clus>
<clus scale="   30.345">  1  5  2 -1</clus>
<clus scale="   98.128">  1  4  2 -1</clus>
<clus scale="   34.746">  1  3  2 -1</clus>
</clustering>
</event>
<event>
 6    0  0.4081161E+002  0.1317399E+03  0.7546771E-02  0.1224897E+00
         -1   -1    0    0    0  501 -0.00000000000E+00  0.00000000000E+00  0.88056610629E+03  0.88056610629E+03  0.00000000000E+00 0.  1.
         21   -1    0    0  503  502  0.00000000000E+00 -0.00000000000E+00 -0.23504270507E+03  0.23504270507E+03  0.00000000000E+00 0.  1.
         21    1    1    2  503  501 -0.26510042884E+02 -0.15598162073E+02  0.87133004497E+02  0.92402627162E+02  0.00000000000E+00 0. -1.
         21    1    1    2  504  505  0.13180166744E+01 -0.14592637681E+03  0.47487094608E+03  0.49678834532E+03  0.00000000000E+00 0.  1.
         21    1    1    2  505  502  0.37271179920E+02  0.12601731813E+03 -0.20061173234E+03  0.23982195995E+03  0.00000000000E+00 0.  1.
         -1    1    1    2    0  504 -0.12079153710E+02  0.35507220760E+02  0.28413118299E+03  0.28659587894E+03  0.00000000000E+00 0.  1.
<scales pt_clust_3="30.75850" pt_clust_4="131.73989" pt_clust_5="14000.00000" pt_clust_6="36.89515"></scales>
<clustering>
<clus scale="   30.758">  1  3  2 -1</clus>
<clus scale="   36.895">  1  6  2 -1</clus>
<clus scale="  131.740">  1  4  2 -1</clus>
<clus scale="  131.740">  2  3  1 -1</clus>
</clustering>
</event>
<event>
 6    0  0.4081161E+002  0.1782673E+03  0.7546771E-02  0.1169491E+00
          2   -1    0    0  503    0 -0.00000000000E+00  0.00000000000E+00  0.16170029118E+04  0.16170029118E+04  0.00000000000E+00 0. -1.
         21   -1    0    0  504  502  0.00000000000E+00 -0.00000000000E+00 -0.32826869970E+02  0.32826869970E+02  0.00000000000E+00 0. -1.
         21    1    1    2  503  502  0.47412375772E+02  0.31998717060E+02  0.33273038416E+03  0.33761125546E+03  0.00000000000E+00 0. -1.
         21    1    1    2  504  505 -0.72835264938E+02  0.57837809796E+02  0.19814540156E+03  0.21888761550E+03  0.00000000000E+00 0. -1.
         21    1    1    2  505  501 -0.22611398080E+02  0.80611149435E+02  0.14084105343E+03  0.16384637643E+03  0.00000000000E+00 0. -1.
          2    1    1    2  501    0  0.48034287246E+02 -0.17044767629E+03  0.91245920272E+03  0.92948453443E+03  0.00000000000E+00 0. -1.
<scales pt_clust_3="57.20010" pt_clust_4="54.46439" pt_clust_5="54.46439" pt_clust_6="168.77175"></scales>
<clustering>
<clus scale="   54.464">  4  5 -1 -1</clus>
<clus scale="   57.200">  1  3  2 -1</clus>
<clus scale="  168.772">  1  6  2 -1</clus>
<clus scale="  178.267">  2  3  1 -1</clus>
</clustering>
</event>
<event>
 6    0  0.4081161E+002  0.1901214E+03  0.7546771E-02  0.1158352E+00
          2   -1    0    0  503    0 -0.00000000000E+00  0.00000000000E+00  0.41841701112E+03  0.41841701112E+03  0.00000000000E+00 0. -1.
         21   -1    0    0  505  502  0.00000000000E+00 -0.00000000000E+00 -0.24053356813E+03  0.24053356813E+03  0.00000000000E+00 0.  1.
         21    1    1    2  503  504  0.29677144777E+02  0.14531994359E+03 -0.86544397172E+02  0.17172230958E+03  0.00000000000E+00 0.  1.
         21    1    1    2  504  502  0.28365890441E+02  0.29960677580E+02 -0.80535442745E+02  0.90488803063E+02  0.00000000000E+00 0.  1.
         21    1    1    2  505  501 -0.99906371991E+01 -0.42337901317E+02  0.34197679058E+02  0.55333461599E+02  0.00000000000E+00 0. -1.
          2    1    1    2  501    0 -0.48052398019E+02 -0.13294271985E+03  0.31076560385E+03  0.34140600500E+03  0.00000000000E+00 0. -1.
<scales pt_clust_3="178.42613" pt_clust_4="41.25853" pt_clust_5="36.41960" pt_clust_6="36.41960"></scales>
<clustering>
<clus scale="   36.420">  5  6 -1 -1</clus>
<clus scale="   41.259">  2  4  1 -1</clus>
<clus scale="  178.426">  2  3  1 -1</clus>
<clus scale="   41.259">  2  3  1 -1</clus>
</clustering>
</event>
<event>
 6    0  0.4081161E+002  0.9074352E+02  0.7546771E-02  0.1301061E+00
          1   -1    0    0  505    0 -0.00000000000E+00  0.00000000000E+00  0.56871302306E+03  0.56871302306E+03  0.00000000000E+00 0. -1.
         21   -1    0    0  501  502  0.00000000000E+00 -0.00000000000E+00 -0.21188759125E+03  0.21188759125E+03  0.00000000000E+00 0. -1.
         21    1    1    2  503  502 -0.55552200860E+02  0.15511155131E+02 -0.10011157277E+03  0.11553774256E+03  0.00000000000E+00 0. -1.
         21    1    1    2  504  503  0.14061715852E+03 -0.40980780499E+02 -0.42460938844E+02  0.15249767528E+03  0.00000000000E+00 0. -1.
         21    1    1    2  505  504 -0.77994396409E+02 -0.57296736885E+01  0.27518964712E+03  0.28608617044E+03  0.00000000000E+00 0. -1.
          1    1    1    2  501    0 -0.70705612475E+01  0.31199299057E+02  0.22420829631E+03  0.22647902603E+03  0.00000000000E+00 0. -1.
<scales pt_clust_3="58.02195" pt_clust_4="14000.00000" pt_clust_5="90.74352" pt_clust_6="31.99045"></scales>
<clustering>
<clus scale="   31.990">  1  6  2 -1</clus>
<clus scale="   58.022">  2  3  1 -1</clus>
<clus scale="   90.744">  1  5  2 -1</clus>
<clus scale="   58.022">  2  3  1 -1</clus>
</clustering>
</event>
<event>
 6    0  0.4907499E+002  0.9134646E+02  0.7546771E-02  0.1299623E+00
          1   -1    0    0  502    0 -0.00000000000E+00  0.00000000000E+00  0.14339355343E+04  0.14339355343E+04  0.00000000000E+00 0. -1.
         21   -1    0    0  503  502  0.00000000000E+00 -0.00000000000E+00 -0.74084423873E+03  0.74084423873E+03  0.00000000000E+00 0. -1.
         21    1    1    2  503  504  0.24516241236E+02 -0.21848493318E+02 -0.67512243093E+03  0.67592063105E+03  0.00000000000E+00 0. -1.
         21    1    1    2  504  505 -0.22611919634E+02  0.29638764856E+02  0.19271250194E+02  0.41965895389E+02  0.00000000000E+00 0.  1.
         21    1    1    2  505  501 -0.88131925077E+02  0.22424987731E+02 -0.13021720849E+02  0.91867739203E+02  0.00000000000E+00 0. -1.
          1    1    1    2  501    0  0.86227603475E+02 -0.30215259269E+02  0.13619641971E+04  0.13650255074E+04  0.00000000000E+00 0. -1.
<scales pt_clust_3="32.83904" pt_clust_4="31.69734" pt_clust_5="91.34646" pt_clust_6="14000.00000"></scales>
<clustering>
<clus scale="   32.839">  2  3  1 -1</clus>
<clus scale="   31.697">  2  4  1 -1</clus>
<clus scale="   91.346">  2  5  1 -1</clus>
<clus scale="   32.839">  2  3  1 -1</clus>
</clustering>
</event>
<event>
 6    0  0.4081161E+002  0.9996312E+02  0.7546771E-02  0.1280374E+00
          1   -1    0    0  503    0 -0.00000000000E+00  0.00000000000E+00  0.90573482815E+03  0.90573482815E+03  0.00000000000E+00 0. -1.
         21   -1    0    0  504  502  0.00000000000E+00 -0.00000000000E+00 -0.13704832508E+03  0.13704832508E+03  0.00000000000E+00 0.  1.
         21    1    1    2  503  502  0.48624451137E+02 -0.39884404152E+02 -0.75810530790E+02  0.98500454424E+02  0.00000000000E+00 0.  1.
         21    1    1    2  504  505  0.14866962673E+00  0.33606195650E+02 -0.28764510737E+02  0.44235682053E+02  0.00000000000E+00 0.  1.
         21    1    1    2  505  501  0.22813455504E+02  0.87396299940E+02  0.21891834102E+03  0.23682019979E+03  0.00000000000E+00 0. -1.
          1    1    1    2  501    0 -0.71586576268E+02 -0.81118091437E+02  0.65434320358E+03  0.66322681696E+03  0.00000000000E+00 0. -1.
<scales pt_clust_3="49.92539" pt_clust_4="33.60652" pt_clust_5="14000.00000" pt_clust_6="99.96312"></scales>
<clustering>
<clus scale="   33.607">  2  4  1 -1</clus>
<clus scale="   49.925">  2  3  1 -1</clus>
<clus scale="   99.963">  1  6  2 -1</clus>
<clus scale="   33.607">  2  3  1 -1</clus>
</clustering>
</event>
<event>
 6    0  0.4081161E+002  0.9240912E+02  0.7546771E-02  0.1297120E+00
          2   -1    0    0  504    0 -0.00000000000E+00  0.00000000000E+00  0.11363949119E+04  0.11363949119E+04  0.00000000000E+00 0. -1.
         21   -1    0    0  505  502  0.00000000000E+00 -0.00000000000E+00 -0.41877092850E+02  0.41877092850E+02  0.00000000000E+00 0.  1.
         21    1    1    2  503  502  0.61147101268E+02  0.32814773427E+02  0.29832818636E+02  0.75536576679E+02  0.00000000000E+00 0.  1.
         21    1    1    2  504  503 -0.38161963981E+02  0.10345743871E+03  0.51088951631E+03  0.52265464218E+03  0.00000000000E+00 0.  1.
         21    1    1    2  505  501  0.31119943262E+02 -0.55085319082E+02  0.12233304181E+03  0.13772514791E+03  0.00000000000E+00 0.  1.
          2    1    1    2  501    0 -0.54105080549E+02 -0.81186893057E+02  0.43146244229E+03  0.44235563798E+03  0.00000000000E+00 0. -1.
<scales pt_clust_3="82.05065" pt_clust_4="14000.00000" pt_clust_5="63.26803" pt_clust_6="92.40912"></scales>
<clustering>
<clus scale="   63.268">  2  5  1 -1</clus>
<clus scale="   82.051">  2  3  1 -1</clus>
<clus scale="   92.409">  1  6  2 -1</clus>
<clus scale="   63.268">  2  3  1 -1</clus>
</clustering>
</event>
<event>
 6    0  0.4081161E+002  0.8940055E+02  0.7546771E-02  0.1304310E+00
         21   -1    0    0  505  502  0.00000000000E+00  0.00000000000E+00  0.38695751943E+03  0.38695751943E+03  0.00000000000E+00 0. -1.
          1   -1    0    0  503    0 -0.00000000000E+00 -0.00000000000E+00 -0.13904250544E+04  0.13904250544E+04  0.00000000000E+00 0. -1.
         21    1    1    2  503  502 -0.39160451518E+01  0.40475966081E+02  0.92601043682E+01  0.41705980060E+02  0.00000000000E+00 0.  1.
         21    1    1    2  504  501  0.15745058308E+02 -0.54589143422E+02 -0.13120263431E+03  0.14297556676E+03  0.00000000000E+00 0. -1.
         21    1    1    2  505  504  0.14982623398E+02 -0.83075392229E+02  0.34848629692E+03  0.35856477649E+03  0.00000000000E+00 0. -1.
          1    1    1    2  501    0 -0.26811636555E+02  0.97188569569E+02 -0.12300113019E+04  0.12341362505E+04  0.00000000000E+00 0. -1.
<scales pt_clust_3="40.66496" pt_clust_4="14000.00000" pt_clust_5="44.89677" pt_clust_6="89.40055"></scales>
<clustering>
<clus scale="   40.665">  1  3  2 -1</clus>
<clus scale="   44.897">  1  5  2 -1</clus>
<clus scale="   89.401">  2  6  1 -1</clus>
<clus scale="   40.665">  1  3  2 -1</clus>
</clustering>
</event>
<event>
 6    0  0.4081161E+002  0.1801238E+03  0.7546771E-02  0.1167683E+00
          2   -1    0    0  505    0 -0.00000000000E+00  0.00000000000E+00  0.75535956254E+03  0.75535956254E+03  0.00000000000E+00 0. -1.
         21   -1    0    0  503  502  0.00000000000E+00 -0.00000000000E+00 -0.89314170704E+03  0.89314170704E+03  0.00000000000E+00 0.  1.
         21    1    1    2  503  501  0.11345529526E+03  0.53936455551E+02 -0.50676453483E+02  0.13545976597E+03  0.00000000000E+00 0. -1.
         21    1    1    2  504  502 -0.16760096544E+03 -0.10141561816E+03 -0.77754064355E+03  0.80183830265E+03  0.00000000000E+00 0.  1.
         21    1    1    2  505  504 -0.15220893752E+02 -0.25959585858E+02  0.27982282512E+02  0.41092381764E+02  0.00000000000E+00 0.  1.
          2    1    1    2  501    0  0.69366563939E+02  0.73438748469E+02  0.66245267003E+03  0.67011081919E+03  0.00000000000E+00 0. -1.
<scales pt_clust_3="14000.00000" pt_clust_4="180.12375" pt_clust_5="30.09278" pt_clust_6="74.17846"></scales>
<clustering>
<clus scale="   30.093">  1  5  2 -1</clus>
<clus scale="   74.178">  1  6  2 -1</clus>
<clus scale="  180.124">  2  4  1 -1</clus>
<clus scale="  180.124">  2  3  1 -1</clus>
</clustering>
</event>
<event>
 6    0  0.4081161E+002  0.1293698E+03  0.7546771E-02  0.1228394E+00
          2   -1    0    0  505    0 -0.00000000000E+00  0.00000000000E+00  0.18055466719E+03  0.18055466719E+03  0.00000000000E+00 0.  1.
         21   -1    0    0  501  502  0.00000000000E+00 -0.00000000000E+00 -0.54816801954E+03  0.54816801954E+03  0.00000000000E+00 0.  1.
         21    1    1    2  503  502 -0.65012565992E+01  0.38432734399E+02 -0.15751086970E+03  0.16226218131E+03  0.00000000000E+00 0.  1.
         21    1    1    2  504  503  0.82736687616E+02  0.69477305695E+02 -0.30837147461E+03  0.32674978476E+03  0.00000000000E+00 0.  1.
         21    1    1    2  505  504 -0.11415225360E+03 -0.94127924322E+02  0.16936113788E+02  0.14892157362E+03  0.00000000000E+00 0.  1.
          2    1    1    2  501    0  0.37916822580E+02 -0.13782115773E+02  0.81332878168E+02  0.90789147043E+02  0.00000000000E+00 0.  1.
<scales pt_clust_3="38.97873" pt_clust_4="129.36977" pt_clust_5="14000.00000" pt_clust_6="40.11177"></scales>
<clustering>
<clus scale="   38.979">  2  3  1 -1</clus>
<clus scale="   40.112">  1  6  2 -1</clus>
<clus scale="  129.370">  2  4  1 -1</clus>
<clus scale="   38.979">  2  3  1 -1</clus>
</clustering>
</event>
<event>
 6    0  0.4081161E+002  0.1224389E+03  0.7546771E-02  0.1239127E+00
         -1   -1    0    0    0  501 -0.00000000000E+00  0.00000000000E+00  0.11443024716E+04  0.11443024716E+04  0.00000000000E+00 0. -1.
         21   -1    0    0  504  502  0.00000000000E+00 -0.00000000000E+00 -0.25254712200E+03  0.25254712200E+03  0.00000000000E+00 0. -1.
         21    1    1    2  503  505 -0.12628002512E+03 -0.67318832519E+02  0.40345914665E+02  0.14868175001E+03  0.00000000000E+00 0.  1.
         21    1    1    2  504  501  0.51043068394E+02  0.41536086523E+02  0.24812928087E+03  0.25670757943E+03  0.00000000000E+00 0. -1.
         21    1    1    2  505  502  0.23935537736E+01  0.39448165255E+02 -0.19033360139E+03  0.19439332978E+03  0.00000000000E+00 0. -1.
         -1    1    1    2    0  503  0.72843402951E+02 -0.13665419259E+02  0.79361375550E+03  0.79706693443E+03  0.00000000000E+00 0. -1.
<scales pt_clust_3="122.43888" pt_clust_4="67.74611" pt_clust_5="39.52071" pt_clust_6="14000.00000"></scales>
<clustering>
<clus scale="   39.521">  2  5  1 -1</clus>
<clus scale="   67.746">  1  4  2 -1</clus>
<clus scale="  122.439">  2  3  1 -1</clus>
<clus scale="   39.521">  2  3  1 -1</clus>
</clustering>
</event>
<event>
 6    0  0.4081161E+002  0.1117720E+03  0.7546771E-02  0.1257323E+00
         21   -1    0    0  504  502  0.00000000000E+00  0.00000000000E+00  0.64292331302E+03  0.64292331302E+03  0.00000000000E+00 0.  1.
         -1   -1    0    0    0  501 -0.00000000000E+00 -0.00000000000E+00 -0.13099144444E+03  0.13099144444E+03  0.00000000000E+00 0.  1.
         21    1    1    2  503  505  0.95940425335E+02  0.45432313441E+02  0.45739250820E+02  0.11558866460E+03  0.00000000000E+00 0.  1.
         21    1    1    2  504  501 -0.17309470585E+02 -0.33318678787E+02  0.10568757580E+02  0.39005778608E+02  0.00000000000E+00 0.  1.
         21    1    1    2  505  502 -0.77218408711E+02 -0.83817971953E+02  0.51422656116E+03  0.52670398828E+03  0.00000000000E+00 0.  1.
         -1    1    1    2    0  503 -0.14125460390E+01  0.71704337299E+02 -0.58602700979E+02  0.92616325968E+02  0.00000000000E+00 0.  1.
<scales pt_clust_3="14000.00000" pt_clust_4="37.54667" pt_clust_5="111.77204" pt_clust_6="51.69493"></scales>
<clustering>
<clus scale="   37.547">  2  4  1 -1</clus>
<clus scale="   51.695">  2  6  1 -1</clus>
<clus scale="  111.772">  1  5  2 -1</clus>
<clus scale="  111.772">  1  3  2 -1</clus>
</clustering>
</event>
<event>
 6    0  0.4081161E+002  0.1442319E+03  0.7546771E-02  0.1207745E+00
          2   -1    0    0  504    0 -0.00000000000E+00  0.00000000000E+00  0.38201673360E+03  0.38201673360E+03  0.00000000000E+00 0. -1.
         21   -1    0    0  503  502  0.00000000000E+00 -0.00000000000E+00 -0.64224328149E+03  0.64224328149E+03  0.00000000000E+00 0. -1.
         21    1    1    2  503  501 -0.27288224611E+02 -0.16578879222E+02 -0.11101354795E+02  0.33804533971E+02  0.00000000000E+00 0. -1.
         21    1    1    2  504  505 -0.71804482506E+01  0.36161322086E+02  0.61769248722E+02  0.71934971605E+02  0.00000000000E+00 0. -1.
         21    1    1    2  505  502 -0.58290057726E+02 -0.10254310225E+03 -0.59593626811E+03  0.60749720517E+03  0.00000000000E+00 0. -1.
          2    1    1    2  501    0  0.92758730588E+02  0.82960659384E+02  0.28504182629E+03  0.31102330434E+03  0.00000000000E+00 0. -1.
<scales pt_clust_3="31.92971" pt_clust_4="36.77838" pt_clust_5="144.23195" pt_clust_6="14000.00000"></scales>
<clustering>
<clus scale="   31.930">  2  3  1 -1</clus>
<clus scale="   36.778">  1  4  2 -1</clus>
<clus scale="  144.232">  2  5  1 -1</clus>
<clus scale="   31.930">  2  3  1 -1</clus>
</clustering>
</event>
<event>
 6    0  0.4081161E+002  0.1077272E+03  0.7546771E-02  0.1264838E+00
         21   -1    0    0  504  502  0.00000000000E+00  0.00000000000E+00  0.30555187839E+03  0.30555187839E+03  0.00000000000E+00 0. -1.
         -3   -1    0    0    0  501 -0.00000000000E+00 -0.00000000000E+00 -0.11678262383E+04  0.11678262383E+04  0.00000000000E+00 0. -1.
         21    1    1    2  503  505  0.46672670046E+02  0.23782532133E+02 -0.18492755241E+03  0.19220339904E+03  0.00000000000E+00 0. -1.
         21    1    1    2  504  501 -0.56249553304E+02  0.17948298885E+02 -0.27323452419E+03  0.27954115777E+03  0.00000000000E+00 0.  1.
         21    1    1    2  505  502 -0.73159356746E+02 -0.46470455508E+02  0.28995757820E+03  0.30263375865E+03  0.00000000000E+00 0. -1.
         -3    1    1    2    0  503  0.82736240005E+02  0.47396244900E+01 -0.69406986153E+03  0.69899980124E+03  0.00000000000E+00 0. -1.
<scales pt_clust_3="50.57439" pt_clust_4="59.04366" pt_clust_5="86.94037" pt_clust_6="50.57439"></scales>
<clustering>
<clus scale="   50.574">  3  6 -1 -1</clus>
<clus scale="   59.044">  2  4  1 -1</clus>
<clus scale="   86.940">  1  5  2 -1</clus>
<clus scale="   86.940">  1  3  2 -1</clus>
</clustering>
</event>
<event>
 6    0  0.4081161E+002  0.6143544E+02  0.7546771E-02  0.1391905E+00
          1   -1    0    0  504    0 -0.00000000000E+00  0.00000000000E+00  0.88756782322E+03  0.88756782322E+03  0.00000000000E+00 0.  1.
         21   -1    0    0  503  502  0.00000000000E+00 -0.00000000000E+00 -0.56800253363E+03  0.56800253363E+03  0.00000000000E+00 0.  1.
         21    1    1    2  503  501 -0.45994148812E+00  0.51310183683E+02 -0.19986697075E+03  0.20634861882E+03  0.00000000000E+00 0.  1.
         21    1    1    2  504  505  0.94948646882E+02 -0.36676582561E+02  0.41150289786E+03  0.42390453194E+03  0.00000000000E+00 0.  1.
         21    1    1    2  505  502 -0.55485991699E+02 -0.26722630845E+02 -0.35514539667E+03  0.36044562288E+03  0.00000000000E+00 0.  1.
          1    1    1    2  501    0 -0.39002713695E+02  0.12089029723E+02  0.46307475915E+03  0.46487158321E+03  0.00000000000E+00 0.  1.
<scales pt_clust_3="51.40827" pt_clust_4="61.43544" pt_clust_5="14000.00000" pt_clust_6="40.83327"></scales>
<clustering>
<clus scale="   40.833">  1  6  2 -1</clus>
<clus scale="   51.408">  2  3  1 -1</clus>
<clus scale="   61.435">  1  4  2 -1</clus>
<clus scale="   51.408">  2  3  1 -1</clus>
</clustering>
</event>
<event>
 6    0  0.4081161E+002  0.7597958E+02  0.7546771E-02  0.1340864E+00
         21   -1    0    0  504  502  0.00000000000E+00  0.00000000000E+00  0.56651158892E+02  0.56651158892E+02  0.00000000000E+00 0.  1.
          2   -1    0    0  505    0 -0.00000000000E+00 -0.00000000000E+00 -0.19164263688E+04  0.19164263688E+04  0.00000000000E+00 0.  1.
         21    1    1    2  503  501 -0.73611159960E+02  0.44395787422E+02 -0.54322934349E+03  0.54998882574E+03  0.00000000000E+00 0.  1.
         21    1    1    2  504  503  0.79993795800E+02  0.27161012994E+02 -0.43579323518E+01  0.84591486378E+02  0.00000000000E+00 0.  1.
         21    1    1    2  505  502 -0.30565787741E+02  0.24846304663E+01 -0.76108311878E+01  0.31596922637E+02  0.00000000000E+00 0. -1.
          2    1    1    2  501    0  0.24183151901E+02 -0.74041430882E+02 -0.13045771029E+04  0.13069002930E+04  0.00000000000E+00 0.  1.
<scales pt_clust_3="75.97958" pt_clust_4="60.19973" pt_clust_5="30.66661" pt_clust_6="14000.00000"></scales>
<clustering>
<clus scale="   30.667">  1  5  2 -1</clus>
<clus scale="   60.200">  1  4  2 -1</clus>
<clus scale="   75.980">  1  3  2 -1</clus>
<clus scale="   30.667">  1  3  2 -1</clus>
</clustering>
</event>
<event>
 6    0  0.4081161E+002  0.1537333E+03  0.7546771E-02  0.1195959E+00
         21   -1    0    0  504  502  0.00000000000E+00  0.00000000000E+00  0.31035774387E+03  0.31035774387E+03  0.00000000000E+00 0. -1.
          4   -1    0    0  503    0 -0.00000000000E+00 -0.00000000000E+00 -0.32885055116E+03  0.32885055116E+03  0.00000000000E+00 0.  1.
         21    1    1    2  503  502  0.22102406045E+02  0.52739723699E+02 -0.33734016082E+02  0.66392609904E+02  0.00000000000E+00 0. -1.
         21    1    1    2  504  505 -0.59589063068E+02 -0.21534210693E+02  0.60254151918E+02  0.87436499763E+02  0.00000000000E+00 0. -1.
         21    1    1    2  505  501 -0.57198426345E+02 -0.59584111139E+02  0.20258733472E+03  0.21877740849E+03  0.00000000000E+00 0. -1.
          4    1    1    2  501    0  0.94685083368E+02  0.28378598134E+02 -0.24760027784E+03  0.26660177687E+03  0.00000000000E+00 0.  1.
<scales pt_clust_3="57.18387" pt_clust_4="58.19013" pt_clust_5="58.19013" pt_clust_6="138.46345"></scales>
<clustering>
<clus scale="   57.184">  2  3  1 -1</clus>
<clus scale="   58.190">  4  5 -1 -1</clus>
<clus scale="  138.463">  2  6  1 -1</clus>
<clus scale="  153.733">  1  3  2 -1</clus>
</clustering>
</event>
<event>
 6    0  0.4081161E+002  0.9782978E+02  0.7546771E-02  0.1284927E+00
          2   -1    0    0  503    0 -0.00000000000E+00  0.00000000000E+00  0.31801420008E+04  0.31801420008E+04  0.00000000000E+00 0.  1.
         21   -1    0    0  504  502  0.00000000000E+00 -0.00000000000E+00 -0.30930347180E+02  0.30930347180E+02  0.00000000000E+00 0.  1.
         21    1    1    2  503  505 -0.11488029811E+02 -0.10953670578E+03  0.27088015373E+04  0.27110396591E+04  0.00000000000E+00 0.  1.
         21    1    1    2  504  501  0.23989666498E+02  0.48323922592E+02  0.48205379399E+02  0.72349597071E+02  0.00000000000E+00 0. -1.
         21    1    1    2  505  502  0.36136404853E+02  0.26898970587E+01  0.94651488623E+01  0.37452160750E+02  0.00000000000E+00 0.  1.
          2    1    1    2  501    0 -0.48638041539E+02  0.58522886133E+02  0.38273958805E+03  0.39023093105E+03  0.00000000000E+00 0.  1.
<scales pt_clust_3="14000.00000" pt_clust_4="70.70298" pt_clust_5="36.23638" pt_clust_6="97.82978"></scales>
<clustering>
<clus scale="   36.236">  2  5  1 -1</clus>
<clus scale="   70.703">  2  4  1 -1</clus>
<clus scale="   97.830">  2  6  1 -1</clus>
<clus scale="   36.236">  2  3  1 -1</clus>
</clustering>
</event>
<event>
 6    0  0.4081161E+002  0.6532164E+02  0.7546771E-02  0.1376766E+00
          2   -1    0    0  504    0 -0.00000000000E+00  0.00000000000E+00  0.19185460293E+04  0.19185460293E+04  0.00000000000E+00 0.  1.
         21   -1    0    0  503  502  0.00000000000E+00 -0.00000000000E+00 -0.15194302616E+03  0.15194302616E+03  0.00000000000E+00 0. -1.
         21    1    1    2  503  501  0.30062816217E+02  0.34772192698E+02 -0.13351438984E+03  0.14120541987E+03  0.00000000000E+00 0. -1.
         21    1    1    2  504  505  0.33564755595E+02 -0.42435993257E+02  0.21738345921E+03  0.22401556794E+03  0.00000000000E+00 0. -1.
         21    1    1    2  505  502 -0.55844839475E+02 -0.61575675945E+02  0.15447447897E+03  0.17542113503E+03  0.00000000000E+00 0. -1.
          2    1    1    2  501    0 -0.77827323368E+01  0.69239476504E+02  0.15282594548E+04  0.15298469326E+04  0.00000000000E+00 0.  1.
<scales pt_clust_3="45.96606" pt_clust_4="65.32164" pt_clust_5="50.13113" pt_clust_6="14000.00000"></scales>
<clustering>
<clus scale="   45.966">  2  3  1 -1</clus>
<clus scale="   50.131">  2  5  1 -1</clus>
<clus scale="   65.322">  2  4  1 -1</clus>
<clus scale="   45.966">  2  3  1 -1</clus>
</clustering>
</event>
<event>
 6    0  0.4081161E+002  0.1431723E+03  0.7546771E-02  0.1209123E+00
          2   -1    0    0  502    0 -0.00000000000E+00  0.00000000000E+00  0.96453752898E+03  0.96453752898E+03  0.00000000000E+00 0. -1.
         21   -1    0    0  503  502  0.00000000000E+00 -0.00000000000E+00 -0.33553624768E+03  0.33553624768E+03  0.00000000000E+00 0. -1.
         21    1    1    2  503  504 -0.24413786798E+02  0.22694096038E+02 -0.23004707741E+03  0.23244937687E+03  0.00000000000E+00 0. -1.
         21    1    1    2  504  505  0.60792985203E+02  0.10432832966E+03 -0.61768777080E+02  0.13563026669E+03  0.00000000000E+00 0.  1.
         21    1    1    2  505  501 -0.31803843059E+02 -0.35290142191E+02  0.21240630140E+03  0.21765411883E+03  0.00000000000E+00 0. -1.
          2    1    1    2  501    0 -0.45753553458E+01 -0.91732283511E+02  0.70841083439E+03  0.71434001428E+03  0.00000000000E+00 0. -1.
<scales pt_clust_3="33.33249" pt_clust_4="131.33002" pt_clust_5="41.13869" pt_clust_6="41.13869"></scales>
<clustering>
<clus scale="   33.332">  2  3  1 -1</clus>
<clus scale="   41.139">  5  6 -1 -1</clus>
<clus scale="  131.330">  2  4  1 -1</clus>
<clus scale="   33.332">  2  3  1 -1</clus>
</clustering>
</event>
<event>
 6    0  0.4081161E+002  0.9638127E+02  0.7546771E-02  0.1288095E+00
         21   -1    0    0  504  502  0.00000000000E+00  0.00000000000E+00  0.23276738241E+03  0.23276738241E+03  0.00000000000E+00 0. -1.
          2   -1    0    0  503    0 -0.00000000000E+00 -0.00000000000E+00 -0.76841911203E+03  0.76841911203E+03  0.00000000000E+00 0. -1.
         21    1    1    2  503  502  0.29764502283E+02  0.76237331221E+02 -0.24447095371E+03  0.25780632940E+03  0.00000000000E+00 0. -1.
         21    1    1    2  504  505 -0.69617121202E+01 -0.10540635783E+03  0.19117735302E+03  0.21842102924E+03  0.00000000000E+00 0. -1.
         21    1    1    2  505  501 -0.27189618456E+02  0.60871054943E+02 -0.32865040529E+02  0.74328134449E+02  0.00000000000E+00 0. -1.
          2    1    1    2  501    0  0.43868282923E+01 -0.31702028330E+02 -0.44949308839E+03  0.45063100135E+03  0.00000000000E+00 0. -1.
<scales pt_clust_3="61.05988" pt_clust_4="14000.00000" pt_clust_5="96.38127" pt_clust_6="32.00411"></scales>
<clustering>
<clus scale="   32.004">  2  6  1 -1</clus>
<clus scale="   61.060">  2  3  1 -1</clus>
<clus scale="   96.381">  2  5  1 -1</clus>
<clus scale="   96.381">  1  3  2 -1</clus>
</clustering>
</event>
<event>
 6    0  0.4081161E+002  0.6895283E+02  0.7546771E-02  0.1363691E+00
         -2   -1    0    0    0  501 -0.00000000000E+00  0.00000000000E+00  0.76994828341E+03  0.76994828341E+03  0.00000000000E+00 0.  1.
         21   -1    0    0  503  502  0.00000000000E+00 -0.00000000000E+00 -0.12274821116E+03  0.12274821116E+03  0.00000000000E+00 0. -1.
         21    1    1    2  503  505 -0.23853820725E+01  0.10012565728E+03 -0.20220127354E+02  0.10217480533E+03  0.00000000000E+00 0. -1.
         21    1    1    2  504  502 -0.41197643419E+02 -0.47061306941E+02 -0.38371654457E+02  0.73378445746E+02  0.00000000000E+00 0. -1.
         21    1    1    2  505  501  0.57436882217E+02 -0.84279535503E+01  0.17671174274E+03  0.18600286520E+03  0.00000000000E+00 0.  1.
         -2    1    1    2    0  504 -0.13853856726E+02 -0.44636396788E+02  0.52908011132E+03  0.53114037830E+03  0.00000000000E+00 0.  1.
<scales pt_clust_3="14000.00000" pt_clust_4="68.95283" pt_clust_5="63.12316" pt_clust_6="46.73689"></scales>
<clustering>
<clus scale="   46.737">  1  6  2 -1</clus>
<clus scale="   63.123">  1  5  2 -1</clus>
<clus scale="   68.953">  2  4  1 -1</clus>
<clus scale="   68.953">  2  3  1 -1</clus>
</clustering>
</event>
<event>
 6    0  0.6315444E+002  0.9365787E+02  0.7546771E-02  0.1294228E+00
         21   -1    0    0  503  502  0.00000000000E+00  0.00000000000E+00  0.69405821945E+03  0.69405821945E+03  0.00000000000E+00 0. -1.
          1   -1    0    0  505    0 -0.00000000000E+00 -0.00000000000E+00 -0.23277705313E+04  0.23277705313E+04  0.00000000000E+00 0. -1.
         21    1    1    2  503  501 -0.16054467550E+03  0.24745380644E+02 -0.87620444742E+03  0.89113475994E+03  0.00000000000E+00 0. -1.
         21    1    1    2  504  502  0.77857497660E+02 -0.51706125825E+02  0.67949723515E+03  0.68589489426E+03  0.00000000000E+00 0. -1.
         21    1    1    2  505  504  0.32403490056E+02 -0.57431369421E+01 -0.80477235748E+02  0.86945702961E+02  0.00000000000E+00 0. -1.
          1    1    1    2  501    0  0.50283687781E+02  0.32703882123E+02 -0.13565278638E+04  0.13578533936E+04  0.00000000000E+00 0. -1.
<scales pt_clust_3="93.65787" pt_clust_4="14000.00000" pt_clust_5="32.90851" pt_clust_6="75.74818"></scales>
<clustering>
<clus scale="   32.909">  2  5  1 -1</clus>
<clus scale="   75.748">  2  6  1 -1</clus>
<clus scale="   93.658">  2  3  1 -1</clus>
<clus scale="   93.658">  1  3  2 -1</clus>
</clustering>
</event>
<event>
 6    0  0.4081161E+002  0.1616874E+03  0.7546771E-02  0.1186805E+00
         21   -1    0    0  501  502  0.00000000000E+00  0.00000000000E+00  0.61963523554E+03  0.61963523554E+03  0.00000000000E+00 0.  1.
          1   -1    0    0  503    0 -0.00000000000E+00 -0.00000000000E+00 -0.37431409893E+03  0.37431409893E+03  0.00000000000E+00 0. -1.
         21    1    1    2  503  504  0.42748721622E+02 -0.24467323868E+02 -0.71263027484E+01  0.49768336606E+02  0.00000000000E+00 0.  1.
         21    1    1    2  504  505 -0.80261364434E+02  0.45240786408E+02  0.45571264673E+03  0.46493293255E+03  0.00000000000E+00 0.  1.
         21    1    1    2  505  502 -0.66024690036E+02  0.42654743220E+02  0.11460814431E+03  0.13897378729E+03  0.00000000000E+00 0.  1.
          1    1    1    2  501    0  0.10353733285E+03 -0.63428205759E+02 -0.31787335168E+03  0.34027427802E+03  0.00000000000E+00 0. -1.
<scales pt_clust_3="49.25549" pt_clust_4="14000.00000" pt_clust_5="76.87221" pt_clust_6="161.68741"></scales>
<clustering>
<clus scale="   49.255">  2  3  1 -1</clus>
<clus scale="   76.872">  1  5  2 -1</clus>
<clus scale="  161.687">  2  6  1 -1</clus>
<clus scale="   76.872">  1  3  2 -1</clus>
</clustering>
</event>
<event>
 6    0  0.4081161E+002  0.2342595E+03  0.7546771E-02  0.1123677E+00
         21   -1    0    0  503  502  0.00000000000E+00  0.00000000000E+00  0.65965151080E+02  0.65965151080E+02  0.00000000000E+00 0.  1.
          2   -1    0    0  504    0 -0.00000000000E+00 -0.00000000000E+00 -0.21640036390E+04  0.21640036390E+04  0.00000000000E+00 0.  1.
         21    1    1    2  503  501  0.63389128473E+02  0.41703369359E+02 -0.27547545785E+03  0.28573428303E+03  0.00000000000E+00 0.  1.
         21    1    1    2  504  505 -0.50865993657E+02  0.20024894021E+02 -0.47500234528E+03  0.47813760959E+03  0.00000000000E+00 0.  1.
         21    1    1    2  505  502 -0.19773676709E+03 -0.74063967808E+02 -0.16211917631E+03  0.26621030730E+03  0.00000000000E+00 0.  1.
          2    1    1    2  501    0  0.18521363227E+03  0.12335704428E+02 -0.11854415085E+04  0.11998865902E+04  0.00000000000E+00 0.  1.
<scales pt_clust_3="61.48226" pt_clust_4="54.66576" pt_clust_5="216.35632" pt_clust_6="61.48226"></scales>
<clustering>
<clus scale="   54.666">  2  4  1 -1</clus>
<clus scale="   61.482">  3  6 -1 -1</clus>
<clus scale="  216.356">  1  5  2 -1</clus>
<clus scale="  216.356">  1  3  2 -1</clus>
</clustering>
</event>
<event>
 6    0  0.4081161E+002  0.7447174E+02  0.7546771E-02  0.1345515E+00
          1   -1    0    0  504    0 -0.00000000000E+00  0.00000000000E+00  0.40994708526E+03  0.40994708526E+03  0.00000000000E+00 0.  1.
         21   -1    0    0  503  502  0.00000000000E+00 -0.00000000000E+00 -0.75002567318E+02  0.75002567318E+02  0.00000000000E+00 0. -1.
         21    1    1    2  503  505  0.41662987309E+02 -0.41372271452E+02  0.23594918386E+02  0.63278665680E+02  0.00000000000E+00 0.  1.
         21    1    1    2  504  502 -0.10766679980E+03 -0.31088110818E+02  0.34051567874E+02  0.11712437700E+03  0.00000000000E+00 0. -1.
         21    1    1    2  505  501  0.12002905855E+02  0.58159868645E+02  0.80887975953E+02  0.10034692184E+03  0.00000000000E+00 0. -1.
          1    1    1    2  501    0  0.54000906639E+02  0.14300513625E+02  0.19641005573E+03  0.20419968805E+03  0.00000000000E+00 0.  1.
<scales pt_clust_3="65.33433" pt_clust_4="14000.00000" pt_clust_5="74.47174" pt_clust_6="55.86235"></scales>
<clustering>
<clus scale="   55.862">  1  6  2 -1</clus>
<clus scale="   65.334">  2  3  1 -1</clus>
<clus scale="   74.472">  1  5  2 -1</clus>
<clus scale="   65.334">  2  3  1 -1</clus>
</clustering>
</event>
<event>
 6    0  0.4081161E+002  0.1050261E+03  0.7546771E-02  0.1270068E+00
         21   -1    0    0  503  502  0.00000000000E+00  0.00000000000E+00  0.52902562132E+03  0.52902562132E+03  0.00000000000E+00 0. -1.
          1   -1    0    0  504    0 -0.00000000000E+00 -0.00000000000E+00 -0.19644884907E+03  0.19644884907E+03  0.00000000000E+00 0. -1.
         21    1    1    2  503  501  0.12048546544E+02 -0.32705742324E+02  0.93837614767E+02  0.10010160338E+03  0.00000000000E+00 0.  1.
         21    1    1    2  504  505  0.15473093188E+02  0.81390941078E+02  0.35730388202E+03  0.36678326844E+03  0.00000000000E+00 0. -1.
         21    1    1    2  505  502  0.14265420793E+02  0.48822682403E+02  0.42123370877E+02  0.66041917912E+02  0.00000000000E+00 0.  1.
          1    1    1    2  501    0 -0.41787060525E+02 -0.97507881157E+02 -0.16068809541E+03  0.19254768065E+03  0.00000000000E+00 0. -1.
<scales pt_clust_3="34.85446" pt_clust_4="14000.00000" pt_clust_5="47.42854" pt_clust_6="105.02613"></scales>
<clustering>
<clus scale="   34.854">  1  3  2 -1</clus>
<clus scale="   47.429">  1  5  2 -1</clus>
<clus scale="  105.026">  2  6  1 -1</clus>
<clus scale="   34.854">  1  3  2 -1</clus>
</clustering>
</event>
<event>
 6    0  0.4081161E+002  0.1201289E+03  0.7546771E-02  0.1242884E+00
         21   -1    0    0  505  502  0.00000000000E+00  0.00000000000E+00  0.22652958664E+03  0.22652958664E+03  0.00000000000E+00 0. -1.
          2   -1    0    0  503    0 -0.00000000000E+00 -0.00000000000E+00 -0.21608833532E+03  0.21608833532E+03  0.00000000000E+00 0. -1.
         21    1    1    2  503  504  0.34904094019E+01 -0.12155416544E+03 -0.28942761019E+02  0.12500112604E+03  0.00000000000E+00 0. -1.
         21    1    1    2  504  502  0.13206826395E+02  0.12245582744E+03 -0.15847432873E+02  0.12418128308E+03  0.00000000000E+00 0. -1.
         21    1    1    2  505  501  0.53147046160E+02 -0.26608514869E+02  0.92694872586E+02  0.11011340056E+03  0.00000000000E+00 0. -1.
          2    1    1    2  501    0 -0.69844281957E+02  0.25706852871E+02 -0.37463427371E+02  0.83322112293E+02  0.00000000000E+00 0. -1.
<scales pt_clust_3="120.12895" pt_clust_4="14000.00000" pt_clust_5="59.43586" pt_clust_6="63.61241"></scales>
<clustering>
<clus scale="   59.436">  1  5  2 -1</clus>
<clus scale="   63.612">  2  6  1 -1</clus>
<clus scale="  120.129">  2  3  1 -1</clus>
<clus scale="   59.436">  1  3  2 -1</clus>
</clustering>
</event>
<event>
 6    0  0.4081161E+002  0.8901146E+02  0.7546771E-02  0.1305263E+00
         -1   -1    0    0    0  501 -0.00000000000E+00  0.00000000000E+00  0.14259959485E+04  0.14259959485E+04  0.00000000000E+00 0. -1.
         21   -1    0    0  503  502  0.00000000000E+00 -0.00000000000E+00 -0.21569410464E+03  0.21569410464E+03  0.00000000000E+00 0. -1.
         21    1    1    2  503  504  0.10241145974E+03  0.85110676748E+02 -0.14199976409E+03  0.19466860914E+03  0.00000000000E+00 0. -1.
         21    1    1    2  504  501  0.25779559854E+02 -0.40729698417E+02  0.22450560447E+03  0.22962199476E+03  0.00000000000E+00 0. -1.
         21    1    1    2  505  502 -0.16209012294E+02 -0.70808188033E+02 -0.10419586129E+02  0.73383236145E+02  0.00000000000E+00 0.  1.
         -1    1    1    2    0  505 -0.11198200730E+03  0.26427209703E+02  0.11382155897E+04  0.11440162131E+04  0.00000000000E+00 0. -1.
<scales pt_clust_3="89.01146" pt_clust_4="48.20264" pt_clust_5="73.53670" pt_clust_6="14000.00000"></scales>
<clustering>
<clus scale="   48.203">  1  4  2 -1</clus>
<clus scale="   73.537">  2  5  1 -1</clus>
<clus scale="   89.011">  2  3  1 -1</clus>
<clus scale="   73.537">  2  3  1 -1</clus>
</clustering>
</event>
<event>
 6    0  0.4081161E+002  0.1142057E+03  0.7546771E-02  0.1252974E+00
          2   -1    0    0  503    0 -0.00000000000E+00  0.00000000000E+00  0.75004809276E+03  0.75004809276E+03  0.00000000000E+00 0.  1.
         21   -1    0    0  505  502  0.00000000000E+00 -0.00000000000E+00 -0.82841663527E+03  0.82841663527E+03  0.00000000000E+00 0. -1.
         21    1    1    2  503  502  0.54766533625E+02 -0.23670050252E+02 -0.11288834459E+02  0.60721349356E+02  0.00000000000E+00 0. -1.
         21    1    1    2  504  501 -0.14677355461E+03 -0.14955588404E+03 -0.24341122803E+03  0.32118291473E+03  0.00000000000E+00 0. -1.
         21    1    1    2  505  504  0.50553961225E+02  0.68216293437E+02 -0.50188270648E+03  0.50901416164E+03  0.00000000000E+00 0. -1.
          2    1    1    2  501    0  0.41453059760E+02  0.10500964085E+03  0.67821422646E+03  0.68754630230E+03  0.00000000000E+00 0.  1.
<scales pt_clust_3="59.66276" pt_clust_4="114.20569" pt_clust_5="100.64605" pt_clust_6="14000.00000"></scales>
<clustering>
<clus scale="   59.663">  2  3  1 -1</clus>
<clus scale="  100.646">  2  5  1 -1</clus>
<clus scale="  114.206">  2  4  1 -1</clus>
<clus scale="   59.663">  2  3  1 -1</clus>
</clustering>
</event>
<event>
 6    0  0.4081161E+002  0.3323288E+03  0.7546771E-02  0.1070111E+00
         21   -1    0    0  503  502  0.00000000000E+00  0.00000000000E+00  0.81282399663E+03  0.81282399663E+03  0.00000000000E+00 0. -1.
          2   -1    0    0  505    0 -0.00000000000E+00 -0.00000000000E+00 -0.40392670660E+03  0.40392670660E+03  0.00000000000E+00 0. -1.
         21    1    1    2  503  501 -0.15859215378E+03 -0.31383778579E+03  0.53675644686E+02  0.35570592047E+03  0.00000000000E+00 0. -1.
         21    1    1    2  504  502  0.30518200430E+03  0.15727856430E+03  0.48667667520E+03  0.59558944645E+03  0.00000000000E+00 0. -1.
         21    1    1    2  505  504 -0.31659788779E+02  0.12395050398E+01  0.13429710415E+00  0.31684327893E+02  0.00000000000E+00 0.  1.
          2    1    1    2  501    0 -0.11493006174E+03  0.15531971644E+03 -0.13158932696E+03  0.23377100842E+03  0.00000000000E+00 0. -1.
<scales pt_clust_3="332.32880" pt_clust_4="14000.00000" pt_clust_5="31.68404" pt_clust_6="202.88351"></scales>
<clustering>
<clus scale="   31.684">  2  5  1 -1</clus>
<clus scale="  202.884">  2  6  1 -1</clus>
<clus scale="  332.329">  2  3  1 -1</clus>
<clus scale="  332.329">  1  3  2 -1</clus>
</clustering>
</event>
<event>
 6    0  0.4081161E+002  0.1731809E+03  0.7546771E-02  0.1174571E+00
         21   -1    0    0  505  502  0.00000000000E+00  0.00000000000E+00  0.13209304067E+03  0.13209304067E+03  0.00000000000E+00 0. -1.
         -4   -1    0    0    0  501 -0.00000000000E+00 -0.00000000000E+00 -0.67618856551E+03  0.67618856551E+03  0.00000000000E+00 0.  1.
         21    1    1    2  503  502  0.13085876684E+03  0.10053463288E+03  0.37229552588E+02  0.16916639399E+03  0.00000000000E+00 0. -1.
         21    1    1    2  504  503 -0.56611116744E+02 -0.45249004182E+02 -0.27560114553E+03  0.28497066926E+03  0.00000000000E+00 0.  1.
         21    1    1    2  505  501 -0.21860317281E+02  0.30532909354E+02 -0.60281268988E+01  0.38032490573E+02  0.00000000000E+00 0. -1.
         -4    1    1    2    0  504 -0.52387332817E+02 -0.85818538056E+02 -0.29969580499E+03  0.31611205236E+03  0.00000000000E+00 0.  1.
<scales pt_clust_3="169.46126" pt_clust_4="30.30933" pt_clust_5="37.55172" pt_clust_6="30.30933"></scales>
<clustering>
<clus scale="   30.309">  4  6 -1 -1</clus>
<clus scale="   37.552">  1  5  2 -1</clus>
<clus scale="  169.461">  1  3  2 -1</clus>
<clus scale="   37.552">  1  3  2 -1</clus>
</clustering>
</event>
<event>
 6    0  0.4081161E+002  0.1464602E+03  0.7546771E-02  0.1204891E+00
         21   -1    0    0  505  502  0.00000000000E+00  0.00000000000E+00  0.25339344661E+03  0.25339344661E+03  0.00000000000E+00 0. -1.
          2   -1    0    0  504    0 -0.00000000000E+00 -0.00000000000E+00 -0.20262526501E+04  0.20262526501E+04  0.00000000000E+00 0. -1.
         21    1    1    2  503  502  0.30818718889E+02 -0.27221773315E+02  0.22535026162E+03  0.22907107803E+03  0.00000000000E+00 0. -1.
         21    1    1    2  504  503  0.11091438023E+02  0.15956621390E+03 -0.25256376995E+03  0.29895293025E+03  0.00000000000E+00 0.  1.
         21    1    1    2  505  501 -0.26631846470E+02 -0.56951713646E+02 -0.56858410795E+03  0.57204950900E+03  0.00000000000E+00 0. -1.
          2    1    1    2  501    0 -0.15278310442E+02 -0.75392726937E+02 -0.11770615872E+04  0.11795725794E+04  0.00000000000E+00 0. -1.
<scales pt_clust_3="41.11956" pt_clust_4="140.78723" pt_clust_5="36.49408" pt_clust_6="36.49408"></scales>
<clustering>
<clus scale="   36.494">  5  6 -1 -1</clus>
<clus scale="   41.120">  1  3  2 -1</clus>
<clus scale="  140.787">  1  4  2 -1</clus>
<clus scale="   41.120">  1  3  2 -1</clus>
</clustering>
</event>
<event>
 6    0  0.4081161E+002  0.9320674E+02  0.7546771E-02  0.1295267E+00
         21   -1    0    0  505  502  0.00000000000E+00  0.00000000000E+00  0.25376554743E+02  0.25376554743E+02  0.00000000000E+00 0.  1.
          1   -1    0    0  504    0 -0.00000000000E+00 -0.00000000000E+00 -0.18715071306E+04  0.18715071306E+04  0.00000000000E+00 0. -1.
         21    1    1    2  503  502  0.16642834976E+02  0.27676467373E+02 -0.58397480318E+01  0.32818797348E+02  0.00000000000E+00 0.  1.
         21    1    1    2  504  503 -0.47416576003E+02 -0.39501540647E+01 -0.88552810380E+02  0.10052629319E+03  0.00000000000E+00 0.  1.
         21    1    1    2  505  501 -0.41974708838E+02  0.52610502444E+02 -0.27793028938E+03  0.28596326146E+03  0.00000000000E+00 0.  1.
          1    1    1    2  501    0  0.72748449865E+02 -0.76336815753E+02 -0.14738077281E+04  0.14775753334E+04  0.00000000000E+00 0. -1.
<scales pt_clust_3="32.29506" pt_clust_4="40.29240" pt_clust_5="14000.00000" pt_clust_6="93.20674"></scales>
<clustering>
<clus scale="   32.295">  1  3  2 -1</clus>
<clus scale="   40.292">  1  4  2 -1</clus>
<clus scale="   93.207">  2  6  1 -1</clus>
<clus scale="   32.295">  1  3  2 -1</clus>
</clustering>
</event>
<event>
 6    0  0.4081161E+002  0.1412968E+03  0.7546771E-02  0.1211595E+00
         21   -1    0    0  504  502  0.00000000000E+00  0.00000000000E+00  0.44523289739E+03  0.44523289739E+03  0.00000000000E+00 0.  1.
         -2   -1    0    0    0  501 -0.00000000000E+00 -0.00000000000E+00 -0.98816733274E+02  0.98816733274E+02  0.00000000000E+00 0.  1.
         21    1    1    2  503  505 -0.92118423237E+02  0.13977533019E+02  0.14838642389E+03  0.17521331605E+03  0.00000000000E+00 0.  1.
         21    1    1    2  504  501  0.67068204210E+02 -0.69142754937E+01  0.40494559482E+02  0.78649606288E+02  0.00000000000E+00 0. -1.
         21    1    1    2  505  502 -0.47219938842E+02  0.63760276806E+01  0.19979343516E+03  0.20539667253E+03  0.00000000000E+00 0.  1.
         -2    1    1    2    0  503  0.72270157869E+02 -0.13439285206E+02 -0.42258254406E+02  0.84790035798E+02  0.00000000000E+00 0.  1.
<scales pt_clust_3="44.11380" pt_clust_4="67.42367" pt_clust_5="44.11380" pt_clust_6="127.11998"></scales>
<clustering>
<clus scale="   44.114">  3  5 -1 -1</clus>
<clus scale="   67.424">  2  4  1 -1</clus>
<clus scale="  127.120">  2  6  1 -1</clus>
<clus scale="  141.297">  1  3  2 -1</clus>
</clustering>
</event>
<event>
 6    0  0.4081161E+002  0.7129751E+02  0.7546771E-02  0.1355736E+00
         21   -1    0    0  503  502  0.00000000000E+00  0.00000000000E+00  0.29907775966E+02  0.29907775966E+02  0.00000000000E+00 0. -1.
          2   -1    0    0  505    0 -0.00000000000E+00 -0.00000000000E+00 -0.13893221922E+04  0.13893221922E+04  0.00000000000E+00 0. -1.
         21    1    1    2  503  501 -0.76752607560E+02  0.65808406194E+02 -0.93733274825E+02  0.13786818307E+03  0.00000000000E+00 0. -1.
         21    1    1    2  504  502  0.24021945360E+02 -0.20383365081E+02 -0.53298216009E+02  0.61913126723E+02  0.00000000000E+00 0.  1.
         21    1    1    2  505  504 -0.20512016676E+02 -0.53367456567E+02 -0.56638714723E+03  0.56926551696E+03  0.00000000000E+00 0. -1.
          2    1    1    2  501    0  0.73242678876E+02  0.79424154535E+01 -0.64599577819E+03  0.65018314144E+03  0.00000000000E+00 0. -1.
<scales pt_clust_3="14000.00000" pt_clust_4="31.50453" pt_clust_5="57.78297" pt_clust_6="71.29751"></scales>
<clustering>
<clus scale="   31.505">  1  4  2 -1</clus>
<clus scale="   57.783">  2  5  1 -1</clus>
<clus scale="   71.298">  2  6  1 -1</clus>
<clus scale="   31.505">  1  3  2 -1</clus>
</clustering>
</event>
<event>
 6    0  0.4081161E+002  0.8128266E+02  0.7546771E-02  0.1325450E+00
          2   -1    0    0  504    0 -0.00000000000E+00  0.00000000000E+00  0.18315786201E+04  0.18315786201E+04  0.00000000000E+00 0.  1.
         21   -1    0    0  503  502  0.00000000000E+00 -0.00000000000E+00 -0.10750031432E+04  0.10750031432E+04  0.00000000000E+00 0.  1.
         21    1    1    2  503  505 -0.13600941031E+02  0.37705193020E+02 -0.19167111959E+02  0.44430230232E+02  0.00000000000E+00 0. -1.
         21    1    1    2  504  502 -0.29499139197E+01 -0.93184938111E+02 -0.10337690001E+04  0.10379645853E+04  0.00000000000E+00 0.  1.
         21    1    1    2  505  501 -0.64520067952E+02  0.67956558263E+02  0.34861461094E+03  0.36098903022E+03  0.00000000000E+00 0.  1.
          2    1    1    2  501    0  0.81070922902E+02 -0.12476813171E+02  0.14608969781E+04  0.14631979176E+04  0.00000000000E+00 0.  1.
<scales pt_clust_3="40.08325" pt_clust_4="58.12292" pt_clust_5="14000.00000" pt_clust_6="81.28266"></scales>
<clustering>
<clus scale="   40.083">  2  3  1 -1</clus>
<clus scale="   58.123">  2  4  1 -1</clus>
<clus scale="   81.283">  1  6  2 -1</clus>
<clus scale="   40.083">  2  3  1 -1</clus>
</clustering>
</event>
<event>
 6    0  0.4081161E+002  0.7751846E+02  0.7546771E-02  0.1336245E+00
         21   -1    0    0  503  502  0.00000000000E+00  0.00000000000E+00  0.23297196214E+02  0.23297196214E+02  0.00000000000E+00 0.  1.
          1   -1    0    0  504    0 -0.00000000000E+00 -0.00000000000E+00 -0.32372524299E+04  0.32372524299E+04  0.00000000000E+00 0. -1.
         21    1    1    2  503  501 -0.38466129982E+02  0.49904595694E+02 -0.34364780684E+02  0.71770815648E+02  0.00000000000E+00 0.  1.
         21    1    1    2  504  505  0.23548069063E+02  0.30430890058E+02 -0.29058609458E+03  0.29312254944E+03  0.00000000000E+00 0.  1.
         21    1    1    2  505  502 -0.70628934930E+02 -0.74038735456E+02 -0.19705883492E+04  0.19732431738E+04  0.00000000000E+00 0.  1.
          1    1    1    2  501    0  0.85546995849E+02 -0.62967502958E+01 -0.91841600923E+03  0.92241308727E+03  0.00000000000E+00 0. -1.
<scales pt_clust_3="63.18762" pt_clust_4="38.47792" pt_clust_5="77.51846" pt_clust_6="14000.00000"></scales>
<clustering>
<clus scale="   38.478">  2  4  1 -1</clus>
<clus scale="   63.188">  1  3  2 -1</clus>
<clus scale="   77.518">  2  5  1 -1</clus>
<clus scale="   63.188">  1  3  2 -1</clus>
</clustering>
</event>
<event>
 6    0  0.4081161E+002  0.8592294E+02  0.7546771E-02  0.1313036E+00
          2   -1    0    0  503    0 -0.00000000000E+00  0.00000000000E+00  0.87463752690E+02  0.87463752690E+02  0.00000000000E+00 0.  1.
         21   -1    0    0  504  502  0.00000000000E+00 -0.00000000000E+00 -0.77239850693E+03  0.77239850693E+03  0.00000000000E+00 0.  1.
         21    1    1    2  503  505  0.53878442657E+02  0.31618637752E+02  0.14433403367E+02  0.64116674659E+02  0.00000000000E+00 0.  1.
         21    1    1    2  504  501  0.38922092802E+02 -0.81388462653E+02 -0.58011291148E+03  0.58708602541E+03  0.00000000000E+00 0.  1.
         21    1    1    2  505  502 -0.98418387853E+02 -0.13825668200E+02 -0.10224732795E+03  0.14258977607E+03  0.00000000000E+00 0.  1.
          2    1    1    2  501    0  0.56178523943E+01  0.63595493100E+02 -0.17007918178E+02  0.66069783478E+02  0.00000000000E+00 0.  1.
<scales pt_clust_3="62.47099" pt_clust_4="14000.00000" pt_clust_5="75.86781" pt_clust_6="85.92294"></scales>
<clustering>
<clus scale="   62.471">  1  3  2 -1</clus>
<clus scale="   75.868">  1  5  2 -1</clus>
<clus scale="   85.923">  1  6  2 -1</clus>
<clus scale="   85.923">  2  3  1 -1</clus>
</clustering>
</event>
<event>
 6    0  0.4081161E+002  0.2011839E+03  0.7546771E-02  0.1148744E+00
          1   -1    0    0  504    0 -0.00000000000E+00  0.00000000000E+00  0.81764419677E+03  0.81764419677E+03  0.00000000000E+00 0. -1.
         21   -1    0    0  503  502  0.00000000000E+00 -0.00000000000E+00 -0.29619188768E+03  0.29619188768E+03  0.00000000000E+00 0. -1.
         21    1    1    2  503  505  0.43499801181E+02  0.14217636312E+03 -0.99671217806E+02  0.17899916925E+03  0.00000000000E+00 0. -1.
         21    1    1    2  504  502  0.11496016868E+02  0.47920077360E+02 -0.13898525810E+03  0.14746319604E+03  0.00000000000E+00 0. -1.
         21    1    1    2  505  501  0.50715249037E+01 -0.76632468434E+02  0.26692671159E+03  0.27775551289E+03  0.00000000000E+00 0. -1.
          1    1    1    2  501    0 -0.60067342953E+02 -0.11346397204E+03  0.49318207341E+03  0.50961820628E+03  0.00000000000E+00 0. -1.
<scales pt_clust_3="193.50486" pt_clust_4="49.27973" pt_clust_5="42.58012" pt_clust_6="42.58012"></scales>
<clustering>
<clus scale="   42.580">  5  6 -1 -1</clus>
<clus scale="   49.280">  2  4  1 -1</clus>
<clus scale="  193.505">  2  3  1 -1</clus>
<clus scale="   49.280">  2  3  1 -1</clus>
</clustering>
</event>
<event>
 6    0  0.4081161E+002  0.7902834E+02  0.7546771E-02  0.1331832E+00
          2   -1    0    0  505    0 -0.00000000000E+00  0.00000000000E+00  0.11381452836E+03  0.11381452836E+03  0.00000000000E+00 0. -1.
         21   -1    0    0  504  502  0.00000000000E+00 -0.00000000000E+00 -0.72045203492E+03  0.72045203492E+03  0.00000000000E+00 0.  1.
         21    1    1    2  503  501  0.24480152551E+02  0.13324225186E+03 -0.50154114361E+03  0.51951544181E+03  0.00000000000E+00 0.  1.
         21    1    1    2  504  503  0.12217739203E+02 -0.59625596125E+02 -0.17325213547E+03  0.18363220662E+03  0.00000000000E+00 0.  1.
         21    1    1    2  505  502  0.17424924207E+02 -0.48680655460E+02  0.39081644567E+02  0.64813649348E+02  0.00000000000E+00 0. -1.
          2    1    1    2  501    0 -0.54122815961E+02 -0.24936000273E+02  0.29074127941E+02  0.66305265498E+02  0.00000000000E+00 0. -1.
<scales pt_clust_3="79.02834" pt_clust_4="65.16150" pt_clust_5="51.70526" pt_clust_6="14000.00000"></scales>
<clustering>
<clus scale="   51.705">  1  5  2 -1</clus>
<clus scale="   65.162">  2  4  1 -1</clus>
<clus scale="   79.028">  2  3  1 -1</clus>
<clus scale="   65.162">  2  3  1 -1</clus>
</clustering>
</event>
<event>
 6    0  0.4081161E+002  0.8535415E+02  0.7546771E-02  0.1314509E+00
         -1   -1    0    0    0  501 -0.00000000000E+00  0.00000000000E+00  0.10505453713E+03  0.10505453713E+03  0.00000000000E+00 0. -1.
         21   -1    0    0  504  502  0.00000000000E+00 -0.00000000000E+00 -0.39772420340E+03  0.39772420340E+03  0.00000000000E+00 0. -1.
         21    1    1    2  503  502  0.11768940200E+02  0.69242842801E+02 -0.29087423623E+03  0.29923385593E+03  0.00000000000E+00 0. -1.
         21    1    1    2  504  505 -0.40934371557E+02 -0.72725650142E+02 -0.22531585053E+02  0.86442554846E+02  0.00000000000E+00 0. -1.
         21    1    1    2  505  501 -0.23638635811E+02 -0.38632580926E+02  0.20115741830E+02  0.49557083059E+02  0.00000000000E+00 0. -1.
         -1    1    1    2    0  503  0.52804067167E+02  0.42115388266E+02  0.62041317582E+00  0.67545246693E+02  0.00000000000E+00 0. -1.
<scales pt_clust_3="73.25021" pt_clust_4="32.27761" pt_clust_5="32.27761" pt_clust_6="67.54240"></scales>
<clustering>
<clus scale="   32.278">  4  5 -1 -1</clus>
<clus scale="   67.542">  1  6  2 -1</clus>
<clus scale="   73.250">  2  3  1 -1</clus>
<clus scale="   73.250">  2  3  1 -1</clus>
</clustering>
</event>
<event>
 6    0  0.4081161E+002  0.1376945E+03  0.7546771E-02  0.1216465E+00
          3   -1    0    0  505    0 -0.00000000000E+00  0.00000000000E+00  0.88655811335E+03  0.88655811335E+03  0.00000000000E+00 0.  1.
         21   -1    0    0  504  502  0.00000000000E+00 -0.00000000000E+00 -0.39410624040E+02  0.39410624040E+02  0.00000000000E+00 0.  1.
         21    1    1    2  503  501 -0.37952733558E+01 -0.70323745245E+02  0.24352092010E+03  0.25350004294E+03  0.00000000000E+00 0.  1.
         21    1    1    2  504  503  0.36021674591E+02  0.13725190328E+03  0.17968180463E+03  0.22895675773E+03  0.00000000000E+00 0.  1.
         21    1    1    2  505  502 -0.40727146520E+02 -0.70652151447E+01  0.50763107066E+02  0.65463812658E+02  0.00000000000E+00 0. -1.
          3    1    1    2  501    0  0.85007452855E+01 -0.59862942892E+02  0.37318165751E+03  0.37804812406E+03  0.00000000000E+00 0.  1.
<scales pt_clust_3="36.60027" pt_clust_4="131.90709" pt_clust_5="41.33543" pt_clust_6="36.60027"></scales>
<clustering>
<clus scale="   36.600">  3  6 -1 -1</clus>
<clus scale="   41.335">  2  5  1 -1</clus>
<clus scale="  131.907">  2  4  1 -1</clus>
<clus scale="   41.335">  2  3  1 -1</clus>
</clustering>
</event>
<event>
 6    0  0.4081161E+002  0.3441511E+03  0.7546771E-02  0.1065042E+00
         21   -1    0    0  501  502  0.00000000000E+00  0.00000000000E+00  0.56435126865E+03  0.56435126865E+03  0.00000000000E+00 0.  1.
          2   -1    0    0  503    0 -0.00000000000E+00 -0.00000000000E+00 -0.48218085744E+03  0.48218085744E+03  0.00000000000E+00 0.  1.
         21    1    1    2  503  504 -0.82358790278E+02 -0.12891949410E+03 -0.93393680907E+02  0.17923611781E+03  0.00000000000E+00 0. -1.
         21    1    1    2  504  505  0.40247836624E+02  0.13697304430E+02  0.62498894347E+02  0.75588466687E+02  0.00000000000E+00 0.  1.
         21    1    1    2  505  502  0.28988766675E+03 -0.10244892661E+03  0.28547284460E+03  0.41955379500E+03  0.00000000000E+00 0.  1.
          2    1    1    2  501    0 -0.24777671309E+03  0.21767111628E+03 -0.17240764683E+03  0.37215374659E+03  0.00000000000E+00 0.  1.
<scales pt_clust_3="152.98107" pt_clust_4="31.58651" pt_clust_5="31.58651" pt_clust_6="333.50380"></scales>
<clustering>
<clus scale="   31.587">  4  5 -1 -1</clus>
<clus scale="  152.981">  2  3  1 -1</clus>
<clus scale="  333.504">  2  6  1 -1</clus>
<clus scale="  344.151">  1  3  2 -1</clus>
</clustering>
</event>
<event>
 6    0  0.4081161E+002  0.7785360E+02  0.7546771E-02  0.1335255E+00
         21   -1    0    0  504  502  0.00000000000E+00  0.00000000000E+00  0.30724684837E+03  0.30724684837E+03  0.00000000000E+00 0. -1.
         -2   -1    0    0    0  501 -0.00000000000E+00 -0.00000000000E+00 -0.18098379548E+03  0.18098379548E+03  0.00000000000E+00 0. -1.
         21    1    1    2  503  501 -0.12707425652E+02 -0.32640936227E+02  0.85021496901E+01  0.36044360638E+02  0.00000000000E+00 0. -1.
         21    1    1    2  504  503  0.11181408297E+03 -0.23037403939E+02  0.58567880719E+02  0.12830942204E+03  0.00000000000E+00 0. -1.
         21    1    1    2  505  502 -0.53607090463E+02  0.49581778323E+02  0.18021182326E+03  0.19444375571E+03  0.00000000000E+00 0. -1.
         -2    1    1    2    0  505 -0.45499566857E+02  0.60965618424E+01 -0.12101880077E+03  0.12943310547E+03  0.00000000000E+00 0. -1.
<scales pt_clust_3="35.02727" pt_clust_4="14000.00000" pt_clust_5="77.85360" pt_clust_6="57.99518"></scales>
<clustering>
<clus scale="   35.027">  2  3  1 -1</clus>
<clus scale="   57.995">  2  6  1 -1</clus>
<clus scale="   77.854">  1  5  2 -1</clus>
<clus scale="   77.854">  1  3  2 -1</clus>
</clustering>
</event>
<event>
 6    0  0.4081161E+002  0.1067373E+03  0.7546771E-02  0.1266734E+00
          2   -1    0    0  502    0 -0.00000000000E+00  0.00000000000E+00  0.41959865716E+03  0.41959865716E+03  0.00000000000E+00 0.  1.
         21   -1    0    0  505  502  0.00000000000E+00 -0.00000000000E+00 -0.74245360881E+03  0.74245360881E+03  0.00000000000E+00 0.  1.
         21    1    1    2  503  501  0.33714361717E+02  0.32043727800E+02  0.10235264785E+03  0.11242563408E+03  0.00000000000E+00 0.  1.
         21    1    1    2  504  503 -0.89918007396E+02 -0.84177616008E+01 -0.50878946631E+02  0.10365700157E+03  0.00000000000E+00 0.  1.
         21    1    1    2  505  504  0.42981172739E+02 -0.78102083037E+02 -0.65434873051E+03  0.66039350216E+03  0.00000000000E+00 0.  1.
          2    1    1    2  501    0  0.13222472940E+02  0.54476116838E+02  0.28002007763E+03  0.28557612815E+03  0.00000000000E+00 0.  1.
<scales pt_clust_3="45.61537" pt_clust_4="94.26076" pt_clust_5="89.14772" pt_clust_6="45.61537"></scales>
<clustering>
<clus scale="   45.615">  3  6 -1 -1</clus>
<clus scale="   89.148">  2  5  1 -1</clus>
<clus scale="   94.261">  2  4  1 -1</clus>
<clus scale="   89.148">  2  3  1 -1</clus>
</clustering>
</event>
<event>
 6    0  0.4081161E+002  0.8097499E+02  0.7546771E-02  0.1326307E+00
          2   -1    0    0  505    0 -0.00000000000E+00  0.00000000000E+00  0.53754192326E+03  0.53754192326E+03  0.00000000000E+00 0. -1.
         21   -1    0    0  503  502  0.00000000000E+00 -0.00000000000E+00 -0.11114117816E+03  0.11114117816E+03  0.00000000000E+00 0. -1.
         21    1    1    2  503  501  0.29176137432E+02  0.40194702724E+02 -0.28072508432E+02  0.57051966243E+02  0.00000000000E+00 0. -1.
         21    1    1    2  504  502 -0.61238721577E+02 -0.11463849053E+03  0.50862090488E+01  0.13006934325E+03  0.00000000000E+00 0. -1.
         21    1    1    2  505  504  0.40624844979E+02  0.17049192688E+02  0.13962401056E+03  0.14641009981E+03  0.00000000000E+00 0. -1.
          2    1    1    2  501    0 -0.85622608342E+01  0.57394595120E+02  0.30976303392E+03  0.31515169211E+03  0.00000000000E+00 0. -1.
<scales pt_clust_3="51.05761" pt_clust_4="14000.00000" pt_clust_5="44.05738" pt_clust_6="80.97499"></scales>
<clustering>
<clus scale="   44.057">  1  5  2 -1</clus>
<clus scale="   51.058">  2  3  1 -1</clus>
<clus scale="   80.975">  1  6  2 -1</clus>
<clus scale="   51.058">  2  3  1 -1</clus>
</clustering>
</event>
<event>
 6    0  0.4081161E+002  0.1302432E+03  0.7546771E-02  0.1227095E+00
          1   -1    0    0  503    0 -0.00000000000E+00  0.00000000000E+00  0.19756352779E+04  0.19756352779E+04  0.00000000000E+00 0. -1.
         21   -1    0    0  505  502  0.00000000000E+00 -0.00000000000E+00 -0.12527926741E+03  0.12527926741E+03  0.00000000000E+00 0.  1.
         21    1    1    2  503  502 -0.10057833767E+03  0.70970058062E+02 -0.64599566368E+02  0.13901746338E+03  0.00000000000E+00 0.  1.
         21    1    1    2  504  501  0.64888432906E+02  0.38018937510E+01  0.12220330237E+04  0.12237604644E+04  0.00000000000E+00 0. -1.
         21    1    1    2  505  504 -0.56741984508E+01 -0.29532966894E+02 -0.10646660149E+02  0.31902100777E+02  0.00000000000E+00 0.  1.
          1    1    1    2  501    0  0.41364103217E+02 -0.45238984918E+02  0.70356921325E+03  0.70623451673E+03  0.00000000000E+00 0. -1.
<scales pt_clust_3="114.16330" pt_clust_4="61.02226" pt_clust_5="30.07312" pt_clust_6="61.02226"></scales>
<clustering>
<clus scale="   30.073">  2  5  1 -1</clus>
<clus scale="   61.022">  4  6 -1 -1</clus>
<clus scale="  114.163">  2  3  1 -1</clus>
<clus scale="   30.073">  2  3  1 -1</clus>
</clustering>
</event>
<event>
 6    0  0.4081161E+002  0.1651863E+03  0.7546771E-02  0.1182963E+00
          1   -1    0    0  502    0 -0.00000000000E+00  0.00000000000E+00  0.30853301151E+04  0.30853301151E+04  0.00000000000E+00 0. -1.
         21   -1    0    0  503  502  0.00000000000E+00 -0.00000000000E+00 -0.15213606963E+03  0.15213606963E+03  0.00000000000E+00 0.  1.
         21    1    1    2  503  504 -0.16978130681E+02 -0.29655174704E+02 -0.65392226821E+02  0.73782312493E+02  0.00000000000E+00 0.  1.
         21    1    1    2  504  505  0.11933729686E+03 -0.87226160099E+02 -0.12231967999E+02  0.14832199591E+03  0.00000000000E+00 0.  1.
         21    1    1    2  505  501 -0.37563567481E+02  0.58975758601E+02  0.88050559987E+03  0.88327757421E+03  0.00000000000E+00 0. -1.
          1    1    1    2  501    0 -0.64795598702E+02  0.57905576202E+02  0.21303126404E+04  0.21320843021E+04  0.00000000000E+00 0. -1.
<scales pt_clust_3="34.17143" pt_clust_4="155.06258" pt_clust_5="51.00103" pt_clust_6="51.00103"></scales>
<clustering>
<clus scale="   34.171">  2  3  1 -1</clus>
<clus scale="   51.001">  5  6 -1 -1</clus>
<clus scale="  155.063">  2  4  1 -1</clus>
<clus scale="   34.171">  2  3  1 -1</clus>
</clustering>
</event>
<event>
 6    0  0.4081161E+002  0.8442038E+02  0.7546771E-02  0.1316955E+00
         21   -1    0    0  504  502  0.00000000000E+00  0.00000000000E+00  0.61919332541E+03  0.61919332541E+03  0.00000000000E+00 0. -1.
          1   -1    0    0  503    0 -0.00000000000E+00 -0.00000000000E+00 -0.21448524984E+03  0.21448524984E+03  0.00000000000E+00 0. -1.
         21    1    1    2  503  502  0.75546555152E+02 -0.26026948970E+02 -0.69559746985E+02  0.10593980587E+03  0.00000000000E+00 0.  1.
         21    1    1    2  504  505 -0.62392817317E+02 -0.11845006024E+02  0.44698140365E+03  0.45147042321E+03  0.00000000000E+00 0. -1.
         21    1    1    2  505  501 -0.64164195492E+01  0.74580431900E+02  0.13933384847E+03  0.15816868398E+03  0.00000000000E+00 0. -1.
          1    1    1    2  501    0 -0.67373182858E+01 -0.36708476906E+02 -0.11204742957E+03  0.11809966218E+03  0.00000000000E+00 0. -1.
<scales pt_clust_3="14000.00000" pt_clust_4="63.81609" pt_clust_5="84.42038" pt_clust_6="37.32163"></scales>
<clustering>
<clus scale="   37.322">  2  6  1 -1</clus>
<clus scale="   63.816">  1  4  2 -1</clus>
<clus scale="   84.420">  1  5  2 -1</clus>
<clus scale="   63.816">  1  3  2 -1</clus>
</clustering>
</event>
<event>
 6    0  0.4081161E+002  0.1778453E+03  0.7546771E-02  0.1169905E+00
         21   -1    0    0  504  502  0.00000000000E+00  0.00000000000E+00  0.81051777169E+02  0.81051777169E+02  0.00000000000E+00 0. -1.
         -2   -1    0    0    0  501 -0.00000000000E+00 -0.00000000000E+00 -0.25714858789E+04  0.25714858789E+04  0.00000000000E+00 0. -1.
         21    1    1    2  503  505  0.89814940318E+01 -0.15244341449E+03 -0.82745547280E+02  0.17368502368E+03  0.00000000000E+00 0. -1.
         21    1    1    2  504  501  0.25300818369E+02  0.58447059998E+02 -0.27499535519E+03  0.28227404346E+03  0.00000000000E+00 0. -1.
         21    1    1    2  505  502 -0.64085656743E+02 -0.28264171751E+02 -0.10696404857E+02  0.70853707608E+02  0.00000000000E+00 0. -1.
         -2    1    1    2    0  503  0.29803344343E+02  0.12226052625E+03 -0.21219967944E+04  0.21257248813E+04  0.00000000000E+00 0. -1.
<scales pt_clust_3="14000.00000" pt_clust_4="63.68823" pt_clust_5="69.21483" pt_clust_6="177.84526"></scales>
<clustering>
<clus scale="   63.688">  2  4  1 -1</clus>
<clus scale="   69.215">  1  5  2 -1</clus>
<clus scale="  177.845">  2  6  1 -1</clus>
<clus scale="   69.215">  1  3  2 -1</clus>
</clustering>
</event>
<event>
 6    0  0.4081161E+002  0.1552675E+03  0.7546771E-02  0.1194146E+00
         21   -1    0    0  505  502  0.00000000000E+00  0.00000000000E+00  0.73505791523E+03  0.73505791523E+03  0.00000000000E+00 0. -1.
          2   -1    0    0  503    0 -0.00000000000E+00 -0.00000000000E+00 -0.11212242377E+03  0.11212242377E+03  0.00000000000E+00 0. -1.
         21    1    1    2  503  504 -0.12910804977E+03  0.62060253537E+02  0.21685722524E+03  0.25989886442E+03  0.00000000000E+00 0. -1.
         21    1    1    2  504  502  0.17381801637E+03  0.18283855769E+02  0.44440274850E+03  0.47753618195E+03  0.00000000000E+00 0. -1.
         21    1    1    2  505  501 -0.26791224685E+02 -0.46166379699E+02  0.26713565314E+01  0.53443806754E+02  0.00000000000E+00 0. -1.
          2    1    1    2  501    0 -0.17918741906E+02 -0.34177729607E+02 -0.40995838812E+02  0.56301485881E+02  0.00000000000E+00 0. -1.
<scales pt_clust_3="155.26748" pt_clust_4="14000.00000" pt_clust_5="68.80003" pt_clust_6="38.59013"></scales>
<clustering>
<clus scale="   38.590">  2  6  1 -1</clus>
<clus scale="   68.800">  2  5  1 -1</clus>
<clus scale="  155.267">  2  3  1 -1</clus>
<clus scale="  155.267">  1  3  2 -1</clus>
</clustering>
</event>
<event>
 6    0  0.4081161E+002  0.1850500E+03  0.7546771E-02  0.1163003E+00
          2   -1    0    0  503    0 -0.00000000000E+00  0.00000000000E+00  0.66398003396E+03  0.66398003396E+03  0.00000000000E+00 0.  1.
         21   -1    0    0  505  502  0.00000000000E+00 -0.00000000000E+00 -0.16373475670E+03  0.16373475670E+03  0.00000000000E+00 0.  1.
         21    1    1    2  503  502 -0.88794430484E+02 -0.16880218167E+03  0.17643019075E+03  0.25981962903E+03  0.00000000000E+00 0.  1.
         21    1    1    2  504  501 -0.46363027945E+02  0.13411961034E+03  0.92723870875E+02  0.16951494467E+03  0.00000000000E+00 0.  1.
         21    1    1    2  505  504  0.19150328541E+03  0.65327897776E+02  0.53108777461E+02  0.20919317578E+03  0.00000000000E+00 0.  1.
          2    1    1    2  501    0 -0.56345826981E+02 -0.30645326442E+02  0.17798243818E+03  0.18918704118E+03  0.00000000000E+00 0.  1.
<scales pt_clust_3="185.05001" pt_clust_4="140.09451" pt_clust_5="14000.00000" pt_clust_6="64.14038"></scales>
<clustering>
<clus scale="   64.140">  1  6  2 -1</clus>
<clus scale="  140.095">  1  4  2 -1</clus>
<clus scale="  185.050">  1  3  2 -1</clus>
<clus scale="  185.050">  2  3  1 -1</clus>
</clustering>
</event>
<event>
 6    0  0.4081161E+002  0.1990906E+03  0.7546771E-02  0.1150509E+00
         21   -1    0    0  504  502  0.00000000000E+00  0.00000000000E+00  0.14481250905E+04  0.14481250905E+04  0.00000000000E+00 0. -1.
          4   -1    0    0  503    0 -0.00000000000E+00 -0.00000000000E+00 -0.24347820139E+04  0.24347820139E+04  0.00000000000E+00 0. -1.
         21    1    1    2  503  502 -0.13807945285E+03  0.71176467558E+02  0.12829353297E+04  0.12923061112E+04  0.00000000000E+00 0. -1.
         21    1    1    2  504  505  0.23473477344E+02  0.84674453890E+02  0.14405746782E+03  0.16874039621E+03  0.00000000000E+00 0.  1.
         21    1    1    2  505  501  0.75793212447E+02 -0.65072838668E+02 -0.11172549619E+04  0.11217119662E+04  0.00000000000E+00 0.  1.
          4    1    1    2  501    0  0.38812763054E+02 -0.90778082780E+02 -0.12963947591E+04  0.13001486308E+04  0.00000000000E+00 0. -1.
<scales pt_clust_3="193.28045" pt_clust_4="87.86790" pt_clust_5="47.46663" pt_clust_6="47.46663"></scales>
<clustering>
<clus scale="   47.467">  5  6 -1 -1</clus>
<clus scale="   87.868">  1  4  2 -1</clus>
<clus scale="  193.280">  1  3  2 -1</clus>
<clus scale="   87.868">  1  3  2 -1</clus>
</clustering>
</event>
<event>
 6    0  0.4081161E+002  0.1233521E+03  0.7546771E-02  0.1237667E+00
         21   -1    0    0  504  502  0.00000000000E+00  0.00000000000E+00  0.16995680454E+03  0.16995680454E+03  0.00000000000E+00 0.  1.
          2   -1    0    0  505    0 -0.00000000000E+00 -0.00000000000E+00 -0.23522735438E+04  0.23522735438E+04  0.00000000000E+00 0. -1.
         21    1    1    2  503  502  0.32543652226E+02 -0.51554299315E+02  0.26834280380E+02  0.66610912632E+02  0.00000000000E+00 0. -1.
         21    1    1    2  504  501  0.98288323534E+02 -0.59144471024E+02 -0.46851503644E+03  0.48235360719E+03  0.00000000000E+00 0.  1.
         21    1    1    2  505  503 -0.15082606749E+03  0.81270713955E+02  0.52952251010E+02  0.17932476814E+03  0.00000000000E+00 0.  1.
          2    1    1    2  501    0  0.19994091733E+02  0.29428056384E+02 -0.17935882342E+04  0.17939410604E+04  0.00000000000E+00 0. -1.
<scales pt_clust_3="60.47174" pt_clust_4="14000.00000" pt_clust_5="123.35210" pt_clust_6="35.57772"></scales>
<clustering>
<clus scale="   35.578">  2  6  1 -1</clus>
<clus scale="   60.472">  1  3  2 -1</clus>
<clus scale="  123.352">  1  5  2 -1</clus>
<clus scale="   60.472">  1  3  2 -1</clus>
</clustering>
</event>
<event>
 6    0  0.4081161E+002  0.1633381E+03  0.7546771E-02  0.1184979E+00
         21   -1    0    0  501  502  0.00000000000E+00  0.00000000000E+00  0.18905875620E+04  0.18905875620E+04  0.00000000000E+00 0.  1.
          2   -1    0    0  505    0 -0.00000000000E+00 -0.00000000000E+00 -0.38679768270E+03  0.38679768270E+03  0.00000000000E+00 0. -1.
         21    1    1    2  503  502  0.21854341503E+02 -0.54654008479E+02  0.10981548459E+03  0.12459580066E+03  0.00000000000E+00 0.  1.
         21    1    1    2  504  503  0.63549908283E+02  0.13778504147E+02  0.11745234075E+04  0.11763220957E+04  0.00000000000E+00 0.  1.
         21    1    1    2  505  504  0.56056796219E+02 -0.21721669360E+02  0.58053660278E+03  0.58364110761E+03  0.00000000000E+00 0.  1.
          2    1    1    2  501    0 -0.14146104601E+03  0.62597173692E+02 -0.36108561555E+03  0.39282624078E+03  0.00000000000E+00 0. -1.
<scales pt_clust_3="58.86147" pt_clust_4="51.47478" pt_clust_5="51.47478" pt_clust_6="154.31573"></scales>
<clustering>
<clus scale="   51.475">  4  5 -1 -1</clus>
<clus scale="   58.861">  1  3  2 -1</clus>
<clus scale="  154.316">  2  6  1 -1</clus>
<clus scale="   58.861">  1  3  2 -1</clus>
</clustering>
</event>
<event>
 6    0  0.4081161E+002  0.1436729E+03  0.7546771E-02  0.1208471E+00
         21   -1    0    0  503  502  0.00000000000E+00  0.00000000000E+00  0.33068758862E+03  0.33068758862E+03  0.00000000000E+00 0. -1.
         -2   -1    0    0    0  501 -0.00000000000E+00 -0.00000000000E+00 -0.19146644315E+03  0.19146644315E+03  0.00000000000E+00 0.  1.
         21    1    1    2  503  504  0.74581400116E+01 -0.62498339874E+02  0.12885477165E+03  0.14340578272E+03  0.00000000000E+00 0. -1.
         21    1    1    2  504  501  0.99118577332E+02 -0.29655966032E+02  0.14383766956E+03  0.17718138694E+03  0.00000000000E+00 0. -1.
         21    1    1    2  505  502 -0.18083900904E+02  0.38875649217E+02 -0.17624115411E+02  0.46356801205E+02  0.00000000000E+00 0. -1.
         -2    1    1    2    0  505 -0.88492816440E+02  0.53278656689E+02 -0.11584718032E+03  0.15521006091E+03  0.00000000000E+00 0.  1.
<scales pt_clust_3="62.94177" pt_clust_4="132.95977" pt_clust_5="35.07353" pt_clust_6="35.07353"></scales>
<clustering>
<clus scale="   35.074">  5  6 -1 -1</clus>
<clus scale="   62.942">  1  3  2 -1</clus>
<clus scale="  132.960">  1  4  2 -1</clus>
<clus scale="   62.942">  1  3  2 -1</clus>
</clustering>
</event>
<event>
 6    0  0.4081161E+002  0.1116732E+03  0.7546771E-02  0.1257502E+00
         21   -1    0    0  501  502  0.00000000000E+00  0.00000000000E+00  0.44917283016E+02  0.44917283016E+02  0.00000000000E+00 0.  1.
          2   -1    0    0  505    0 -0.00000000000E+00 -0.00000000000E+00 -0.13536164217E+04  0.13536164217E+04  0.00000000000E+00 0. -1.
         21    1    1    2  503  504  0.60364607038E+02 -0.81130631668E+02 -0.20874248786E+03  0.23194717376E+03  0.00000000000E+00 0. -1.
         21    1    1    2  504  502  0.30789316808E+02  0.29445583804E+01  0.18403488763E+02  0.35990844005E+02  0.00000000000E+00 0.  1.
         21    1    1    2  505  503 -0.29088453217E+02 -0.20589754494E+02 -0.50397469011E+03  0.50523317822E+03  0.00000000000E+00 0. -1.
          2    1    1    2  501    0 -0.62065470629E+02  0.98775827782E+02 -0.61438544943E+03  0.62536250868E+03  0.00000000000E+00 0. -1.
<scales pt_clust_3="14000.00000" pt_clust_4="30.92980" pt_clust_5="34.68962" pt_clust_6="111.67318"></scales>
<clustering>
<clus scale="   30.930">  1  4  2 -1</clus>
<clus scale="   34.690">  2  5  1 -1</clus>
<clus scale="  111.673">  2  6  1 -1</clus>
<clus scale="   30.930">  1  3  2 -1</clus>
</clustering>
</event>
<event>
 6    0  0.4081161E+002  0.7362037E+02  0.7546771E-02  0.1348197E+00
          2   -1    0    0  504    0 -0.00000000000E+00  0.00000000000E+00  0.92262218014E+03  0.92262218014E+03  0.00000000000E+00 0. -1.
         21   -1    0    0  503  502  0.00000000000E+00 -0.00000000000E+00 -0.95050338012E+02  0.95050338012E+02  0.00000000000E+00 0. -1.
         21    1    1    2  503  505  0.20654123253E+02 -0.74645386915E+02 -0.53343945348E+02  0.94043091721E+02  0.00000000000E+00 0. -1.
         21    1    1    2  504  502  0.29038326364E+02  0.31846158373E+02  0.24588454573E+03  0.24963295462E+03  0.00000000000E+00 0. -1.
         21    1    1    2  505  501  0.10080313399E+02  0.65726124183E+02  0.44513503613E+02  0.80018673585E+02  0.00000000000E+00 0.  1.
          2    1    1    2  501    0 -0.59772763016E+02 -0.22926895642E+02  0.59051773813E+03  0.59397779823E+03  0.00000000000E+00 0. -1.
<scales pt_clust_3="14000.00000" pt_clust_4="43.09759" pt_clust_5="73.62037" pt_clust_6="34.65488"></scales>
<clustering>
<clus scale="   43.098">  1  4  2 -1</clus>
<clus scale="   34.655">  1  6  2 -1</clus>
<clus scale="   73.620">  1  5  2 -1</clus>
<clus scale="   73.620">  2  3  1 -1</clus>
</clustering>
</event>
<event>
 6    0  0.4081161E+002  0.1321700E+03  0.7546771E-02  0.1224271E+00
          2   -1    0    0  503    0 -0.00000000000E+00  0.00000000000E+00  0.16411830512E+04  0.16411830512E+04  0.00000000000E+00 0.  1.
         21   -1    0    0  505  502  0.00000000000E+00 -0.00000000000E+00 -0.23800326647E+02  0.23800326647E+02  0.00000000000E+00 0.  1.
         21    1    1    2  503  504  0.65538233202E+01  0.39009722445E+02  0.51380413110E+03  0.51532455422E+03  0.00000000000E+00 0.  1.
         21    1    1    2  504  502  0.78050782661E+02 -0.97266693941E+02  0.18134821826E+03  0.22009068742E+03  0.00000000000E+00 0.  1.
         21    1    1    2  505  501 -0.21989538201E+02  0.33760536236E+02  0.18817842282E+03  0.19244332260E+03  0.00000000000E+00 0. -1.
          2    1    1    2  501    0 -0.62615067779E+02  0.24496435260E+02  0.73405195234E+03  0.73712481358E+03  0.00000000000E+00 0.  1.
<scales pt_clust_3="39.55643" pt_clust_4="120.13601" pt_clust_5="42.37878" pt_clust_6="42.37878"></scales>
<clustering>
<clus scale="   39.556">  1  3  2 -1</clus>
<clus scale="   42.379">  5  6 -1 -1</clus>
<clus scale="  120.136">  2  4  1 -1</clus>
<clus scale="  120.136">  2  3  1 -1</clus>
</clustering>
</event>
<event>
 6    0  0.4081161E+002  0.1888429E+03  0.7546771E-02  0.1159509E+00
         -2   -1    0    0    0  501 -0.00000000000E+00  0.00000000000E+00  0.37060829756E+04  0.37060829756E+04  0.00000000000E+00 0.  1.
         21   -1    0    0  505  502  0.00000000000E+00 -0.00000000000E+00 -0.78689521683E+02  0.78689521683E+02  0.00000000000E+00 0. -1.
         21    1    1    2  503  502  0.13967860944E+03  0.79132074522E+02  0.15111064262E+03  0.22046864963E+03  0.00000000000E+00 0. -1.
         21    1    1    2  504  501 -0.40698157427E+02 -0.10073580823E+02  0.14441983937E+03  0.15038253573E+03  0.00000000000E+00 0.  1.
         21    1    1    2  505  504  0.59697234468E+02 -0.72554566134E+02  0.17270615123E+02  0.95531141607E+02  0.00000000000E+00 0. -1.
         -2    1    1    2    0  503 -0.15867768649E+03  0.34960724352E+01  0.33145923568E+04  0.33183901703E+04  0.00000000000E+00 0.  1.
<scales pt_clust_3="14000.00000" pt_clust_4="41.92633" pt_clust_5="93.67242" pt_clust_6="188.84286"></scales>
<clustering>
<clus scale="   41.926">  1  4  2 -1</clus>
<clus scale="   93.672">  2  5  1 -1</clus>
<clus scale="  188.843">  1  6  2 -1</clus>
<clus scale="   93.672">  2  3  1 -1</clus>
</clustering>
</event>
<event>
 6    0  0.4081161E+002  0.1287308E+03  0.7546771E-02  0.1229351E+00
         21   -1    0    0  503  502  0.00000000000E+00  0.00000000000E+00  0.59932374918E+02  0.59932374918E+02  0.00000000000E+00 0. -1.
          2   -1    0    0  505    0 -0.00000000000E+00 -0.00000000000E+00 -0.19936042534E+04  0.19936042534E+04  0.00000000000E+00 0. -1.
         21    1    1    2  503  504  0.91955761125E+01 -0.37019137795E+02 -0.10765660101E+03  0.11421435516E+03  0.00000000000E+00 0. -1.
         21    1    1    2  504  501 -0.21525905431E+02 -0.60504613615E+02 -0.38890258670E+03  0.39416924641E+03  0.00000000000E+00 0.  1.
         21    1    1    2  505  502  0.91105170242E+02  0.87015461762E+02 -0.22096192999E+02  0.12790654548E+03  0.00000000000E+00 0. -1.
          2    1    1    2  501    0 -0.78774840923E+02  0.10508289647E+02 -0.14150164978E+04  0.14172464813E+04  0.00000000000E+00 0. -1.
<scales pt_clust_3="36.31201" pt_clust_4="36.31201" pt_clust_5="119.79848" pt_clust_6="79.47263"></scales>
<clustering>
<clus scale="   36.312">  3  4 -1 -1</clus>
<clus scale="   79.473">  2  6  1 -1</clus>
<clus scale="  119.798">  1  5  2 -1</clus>
<clus scale="  119.798">  1  3  2 -1</clus>
</clustering>
</event>
<event>
 6    0  0.4081161E+002  0.1693292E+03  0.7546771E-02  0.1178549E+00
          2   -1    0    0  504    0 -0.00000000000E+00  0.00000000000E+00  0.22791029273E+04  0.22791029273E+04  0.00000000000E+00 0. -1.
         21   -1    0    0  505  502  0.00000000000E+00 -0.00000000000E+00 -0.15763834420E+03  0.15763834420E+03  0.00000000000E+00 0. -1.
         21    1    1    2  503  502 -0.16376348313E+03 -0.66954397725E+02 -0.70155679651E+02  0.19032390593E+03  0.00000000000E+00 0. -1.
         21    1    1    2  504  503  0.26335162893E+02 -0.28983586658E+02  0.27768238406E+03  0.28043019722E+03  0.00000000000E+00 0.  1.
         21    1    1    2  505  501  0.13130158093E+03  0.59189801186E+02  0.17498257127E+03  0.22663282632E+03  0.00000000000E+00 0.  1.
          2    1    1    2  501    0  0.61267393105E+01  0.36748183197E+02  0.17389553074E+04  0.17393543420E+04  0.00000000000E+00 0. -1.
<scales pt_clust_3="14000.00000" pt_clust_4="31.14757" pt_clust_5="169.32923" pt_clust_6="37.25541"></scales>
<clustering>
<clus scale="   37.255">  1  6  2 -1</clus>
<clus scale="   31.148">  1  4  2 -1</clus>
<clus scale="  169.329">  1  5  2 -1</clus>
<clus scale="  169.329">  2  3  1 -1</clus>
</clustering>
</event>
<event>
 6    0  0.4081161E+002  0.1027305E+03  0.7546771E-02  0.1274657E+00
         21   -1    0    0  504  502  0.00000000000E+00  0.00000000000E+00  0.17480693217E+03  0.17480693217E+03  0.00000000000E+00 0. -1.
          2   -1    0    0  505    0 -0.00000000000E+00 -0.00000000000E+00 -0.70887949857E+03  0.70887949857E+03  0.00000000000E+00 0. -1.
         21    1    1    2  503  501  0.81227069083E+02  0.34013225999E+02 -0.59218845289E+02  0.10612072339E+03  0.00000000000E+00 0. -1.
         21    1    1    2  504  503 -0.54408299831E+02 -0.95836223931E+02  0.12821827457E+03  0.16907031331E+03  0.00000000000E+00 0. -1.
         21    1    1    2  505  502 -0.36272792022E+02  0.28360170412E+02 -0.36670785219E+03  0.36958715287E+03  0.00000000000E+00 0. -1.
          2    1    1    2  501    0  0.94540227698E+01  0.33462827520E+02 -0.23636414350E+03  0.23890824118E+03  0.00000000000E+00 0. -1.
<scales pt_clust_3="102.73050" pt_clust_4="14000.00000" pt_clust_5="61.68430" pt_clust_6="34.77268"></scales>
<clustering>
<clus scale="   34.773">  2  6  1 -1</clus>
<clus scale="   61.684">  2  5  1 -1</clus>
<clus scale="  102.730">  2  3  1 -1</clus>
<clus scale="  102.730">  1  3  2 -1</clus>
</clustering>
</event>
<event>
 6    0  0.4081161E+002  0.6921648E+02  0.7546771E-02  0.1362778E+00
         21   -1    0    0  503  502  0.00000000000E+00  0.00000000000E+00  0.86064612988E+02  0.86064612988E+02  0.00000000000E+00 0. -1.
         -2   -1    0    0    0  501 -0.00000000000E+00 -0.00000000000E+00 -0.13157509648E+04  0.13157509648E+04  0.00000000000E+00 0.  1.
         21    1    1    2  503  504  0.53961058385E+02 -0.47657397426E+02  0.59809900544E+02  0.93596194124E+02  0.00000000000E+00 0. -1.
         21    1    1    2  504  501  0.35920188882E+02  0.60651364172E+02 -0.32661953561E+03  0.33413944543E+03  0.00000000000E+00 0.  1.
         21    1    1    2  505  502 -0.40952792909E+02 -0.42181696974E+02 -0.18494194717E+03  0.19406171861E+03  0.00000000000E+00 0.  1.
         -2    1    1    2    0  505 -0.48928454358E+02  0.29187730228E+02 -0.77793476956E+03  0.78001821962E+03  0.00000000000E+00 0.  1.
<scales pt_clust_3="14000.00000" pt_clust_4="69.21648" pt_clust_5="66.38130" pt_clust_6="56.97295"></scales>
<clustering>
<clus scale="   56.973">  2  6  1 -1</clus>
<clus scale="   66.381">  2  5  1 -1</clus>
<clus scale="   69.216">  2  4  1 -1</clus>
<clus scale="   69.216">  1  3  2 -1</clus>
</clustering>
</event>
<event>
 6    0  0.4081161E+002  0.1320315E+03  0.7546771E-02  0.1224472E+00
         21   -1    0    0  505  502  0.00000000000E+00  0.00000000000E+00  0.77509528926E+03  0.77509528926E+03  0.00000000000E+00 0. -1.
          2   -1    0    0  503    0 -0.00000000000E+00 -0.00000000000E+00 -0.99222671283E+03  0.99222671283E+03  0.00000000000E+00 0.  1.
         21    1    1    2  503  504  0.94736484752E+02 -0.59842184112E+02 -0.28685213411E+03  0.30796141866E+03  0.00000000000E+00 0.  1.
         21    1    1    2  504  502  0.23817590627E+02 -0.72673940575E+02  0.56000315789E+03  0.56520112889E+03  0.00000000000E+00 0. -1.
         21    1    1    2  505  501 -0.38377337605E+02  0.44704349792E+00  0.19138855197E+03  0.19519886709E+03  0.00000000000E+00 0. -1.
          2    1    1    2  501    0 -0.80176737774E+02  0.13206908119E+03 -0.68167099932E+03  0.69896058744E+03  0.00000000000E+00 0.  1.
<scales pt_clust_3="132.03151" pt_clust_4="73.45453" pt_clust_5="38.37994" pt_clust_6="14000.00000"></scales>
<clustering>
<clus scale="   38.380">  1  5  2 -1</clus>
<clus scale="   73.455">  1  4  2 -1</clus>
<clus scale="  132.032">  1  3  2 -1</clus>
<clus scale="   38.380">  1  3  2 -1</clus>
</clustering>
</event>
<event>
 6    0  0.4081161E+002  0.9482018E+02  0.7546771E-02  0.1291582E+00
         21   -1    0    0  504  502  0.00000000000E+00  0.00000000000E+00  0.21776707182E+03  0.21776707182E+03  0.00000000000E+00 0. -1.
         -4   -1    0    0    0  501 -0.00000000000E+00 -0.00000000000E+00 -0.17740154121E+04  0.17740154121E+04  0.00000000000E+00 0.  1.
         21    1    1    2  503  501  0.32134653825E+02 -0.20844466966E+01 -0.11365242486E+03  0.11812643469E+03  0.00000000000E+00 0.  1.
         21    1    1    2  504  503  0.49692269148E+02 -0.13091535889E+02  0.72484532776E+02  0.88852222352E+02  0.00000000000E+00 0. -1.
         21    1    1    2  505  502 -0.14403484721E+03  0.10181121605E+02  0.95433207344E+02  0.17308145340E+03  0.00000000000E+00 0. -1.
         -4    1    1    2    0  505  0.62207924239E+02  0.49948609809E+01 -0.16105136555E+04  0.16117223734E+04  0.00000000000E+00 0.  1.
<scales pt_clust_3="32.20219" pt_clust_4="51.54384" pt_clust_5="94.82018" pt_clust_6="14000.00000"></scales>
<clustering>
<clus scale="   32.202">  2  3  1 -1</clus>
<clus scale="   51.544">  1  4  2 -1</clus>
<clus scale="   94.820">  1  5  2 -1</clus>
<clus scale="   51.544">  1  3  2 -1</clus>
</clustering>
</event>
<event>
 6    0  0.4081161E+002  0.1128397E+03  0.7546771E-02  0.1255400E+00
          2   -1    0    0  503    0 -0.00000000000E+00  0.00000000000E+00  0.23640016250E+04  0.23640016250E+04  0.00000000000E+00 0. -1.
         21   -1    0    0  505  502  0.00000000000E+00 -0.00000000000E+00 -0.25260649454E+03  0.25260649454E+03  0.00000000000E+00 0. -1.
         21    1    1    2  503  504 -0.84258244819E+02 -0.11019940849E+03  0.12457757364E+04  0.12534753874E+04  0.00000000000E+00 0. -1.
         21    1    1    2  504  502 -0.11657625737E+01 -0.34600579132E+02  0.31051465374E+02  0.46505403778E+02  0.00000000000E+00 0. -1.
         21    1    1    2  505  501  0.93956761571E+02  0.37064255459E+02 -0.22758462993E+03  0.24899075457E+03  0.00000000000E+00 0. -1.
          2    1    1    2  501    0 -0.85327541782E+01  0.10773573217E+03  0.10621525587E+04  0.10676365738E+04  0.00000000000E+00 0. -1.
<scales pt_clust_3="14000.00000" pt_clust_4="34.62021" pt_clust_5="92.88445" pt_clust_6="112.83969"></scales>
<clustering>
<clus scale="   34.620">  2  4  1 -1</clus>
<clus scale="   92.884">  2  5  1 -1</clus>
<clus scale="  112.840">  1  6  2 -1</clus>
<clus scale="   34.620">  2  3  1 -1</clus>
</clustering>
</event>
<event>
 6    0  0.4081161E+002  0.1768046E+03  0.7546771E-02  0.1170932E+00
          1   -1    0    0  504    0 -0.00000000000E+00  0.00000000000E+00  0.56131359931E+03  0.56131359931E+03  0.00000000000E+00 0.  1.
         21   -1    0    0  503  502  0.00000000000E+00 -0.00000000000E+00 -0.29922108538E+03  0.29922108538E+03  0.00000000000E+00 0.  1.
         21    1    1    2  503  501 -0.94581005478E+02  0.10053937500E+03  0.12226369883E+03  0.18439670435E+03  0.00000000000E+00 0. -1.
         21    1    1    2  504  505  0.20308296869E+03 -0.68941124869E+02  0.45631271752E+01  0.21451431887E+03  0.00000000000E+00 0.  1.
         21    1    1    2  505  502 -0.25901070769E+02 -0.34935279461E+02 -0.15439195299E+03  0.16040016947E+03  0.00000000000E+00 0.  1.
          1    1    1    2  501    0 -0.82600892442E+02  0.33370293316E+01  0.28965764091E+03  0.30122349200E+03  0.00000000000E+00 0.  1.
<scales pt_clust_3="14000.00000" pt_clust_4="176.80458" pt_clust_5="43.48953" pt_clust_6="83.67887"></scales>
<clustering>
<clus scale="   43.490">  2  5  1 -1</clus>
<clus scale="   83.679">  1  6  2 -1</clus>
<clus scale="  176.805">  2  4  1 -1</clus>
<clus scale="   43.490">  2  3  1 -1</clus>
</clustering>
</event>
<event>
 6    0  0.4081161E+002  0.8990366E+02  0.7546771E-02  0.1303085E+00
          2   -1    0    0  504    0 -0.00000000000E+00  0.00000000000E+00  0.12262399787E+04  0.12262399787E+04  0.00000000000E+00 0.  1.
         21   -1    0    0  503  502  0.00000000000E+00 -0.00000000000E+00 -0.57652553047E+03  0.57652553047E+03  0.00000000000E+00 0. -1.
         21    1    1    2  503  501 -0.26905345487E+02 -0.51831016394E+02 -0.50852506440E+03  0.51186726111E+03  0.00000000000E+00 0. -1.
         21    1    1    2  504  505 -0.60932651703E+02 -0.61823630505E+01  0.32547481250E+02  0.69356673739E+02  0.00000000000E+00 0.  1.
         21    1    1    2  505  502 -0.34321532139E+01  0.76518977998E+02 -0.14158126979E+02  0.77893428664E+02  0.00000000000E+00 0. -1.
          2    1    1    2  501    0  0.91270150405E+02 -0.18505598553E+02  0.11398501584E+04  0.11436481457E+04  0.00000000000E+00 0.  1.
<scales pt_clust_3="58.39822" pt_clust_4="89.90366" pt_clust_5="46.18525" pt_clust_6="14000.00000"></scales>
<clustering>
<clus scale="   58.398">  2  3  1 -1</clus>
<clus scale="   46.185">  2  5  1 -1</clus>
<clus scale="   89.904">  2  4  1 -1</clus>
<clus scale="   58.398">  2  3  1 -1</clus>
</clustering>
</event>
<event>
 6    0  0.4932595E+002  0.2768071E+03  0.7546771E-02  0.1097446E+00
         21   -1    0    0  505  502  0.00000000000E+00  0.00000000000E+00  0.60058193170E+03  0.60058193170E+03  0.00000000000E+00 0.  1.
          1   -1    0    0  503    0 -0.00000000000E+00 -0.00000000000E+00 -0.19727572043E+04  0.19727572043E+04  0.00000000000E+00 0. -1.
         21    1    1    2  503  504 -0.35776980354E+02  0.74708338900E+02 -0.10384222088E+03  0.13283273340E+03  0.00000000000E+00 0. -1.
         21    1    1    2  504  502 -0.14235829584E+03 -0.20677408056E+03  0.52824543309E+03  0.58486292613E+03  0.00000000000E+00 0.  1.
         21    1    1    2  505  501 -0.30272052845E+02 -0.12229265227E+02  0.77828642887E+01  0.33563746632E+02  0.00000000000E+00 0. -1.
          1    1    1    2  501    0  0.20840732904E+03  0.14429500689E+03 -0.18043613491E+04  0.18220797299E+04  0.00000000000E+00 0. -1.
<scales pt_clust_3="82.88826" pt_clust_4="276.80715" pt_clust_5="32.64892" pt_clust_6="14000.00000"></scales>
<clustering>
<clus scale="   32.649">  1  5  2 -1</clus>
<clus scale="   82.888">  2  3  1 -1</clus>
<clus scale="  276.807">  1  4  2 -1</clus>
<clus scale="   32.649">  1  3  2 -1</clus>
</clustering>
</event>
<event>
 6    0  0.4081161E+002  0.7535819E+02  0.7546771E-02  0.1342765E+00
          1   -1    0    0  505    0 -0.00000000000E+00  0.00000000000E+00  0.11307708520E+04  0.11307708520E+04  0.00000000000E+00 0.  1.
         21   -1    0    0  501  502  0.00000000000E+00 -0.00000000000E+00 -0.64876918452E+02  0.64876918452E+02  0.00000000000E+00 0. -1.
         21    1    1    2  503  502 -0.16397128920E+02  0.38563023157E+02 -0.10066435343E+02  0.43096469836E+02  0.00000000000E+00 0. -1.
         21    1    1    2  504  503  0.34345988754E+02 -0.10767359934E+03  0.57092190438E+02  0.12662057158E+03  0.00000000000E+00 0. -1.
         21    1    1    2  505  504 -0.32355602517E+02 -0.11656278460E+02  0.19715325760E+03  0.20013035958E+03  0.00000000000E+00 0.  1.
          1    1    1    2  501    0  0.14406742683E+02  0.80766854645E+02  0.82171492080E+03  0.82580036941E+03  0.00000000000E+00 0.  1.
<scales pt_clust_3="41.94300" pt_clust_4="75.35819" pt_clust_5="34.39119" pt_clust_6="14000.00000"></scales>
<clustering>
<clus scale="   34.391">  1  5  2 -1</clus>
<clus scale="   41.943">  2  3  1 -1</clus>
<clus scale="   75.358">  2  4  1 -1</clus>
<clus scale="   41.943">  2  3  1 -1</clus>
</clustering>
</event>
<event>
 6    0  0.4081161E+002  0.7529152E+02  0.7546771E-02  0.1342971E+00
         21   -1    0    0  504  502  0.00000000000E+00  0.00000000000E+00  0.27016091711E+03  0.27016091711E+03  0.00000000000E+00 0. -1.
          2   -1    0    0  505    0 -0.00000000000E+00 -0.00000000000E+00 -0.15139096441E+04  0.15139096441E+04  0.00000000000E+00 0.  1.
         21    1    1    2  503  502  0.55012272520E+02  0.11614090108E+02  0.10380333091E+03  0.11805239822E+03  0.00000000000E+00 0.  1.
         21    1    1    2  504  501 -0.12803139590E+03  0.63938785724E+01  0.13103850260E+03  0.18331396342E+03  0.00000000000E+00 0. -1.
         21    1    1    2  505  503  0.36232792149E+02 -0.23449413202E-01 -0.18774263180E+03  0.19120698620E+03  0.00000000000E+00 0.  1.
          2    1    1    2  501    0  0.36786331231E+02 -0.17984519268E+02 -0.12908479287E+04  0.12914972134E+04  0.00000000000E+00 0.  1.
<scales pt_clust_3="56.41557" pt_clust_4="75.29152" pt_clust_5="36.23280" pt_clust_6="14000.00000"></scales>
<clustering>
<clus scale="   36.233">  2  5  1 -1</clus>
<clus scale="   56.416">  1  3  2 -1</clus>
<clus scale="   75.292">  1  4  2 -1</clus>
<clus scale="   56.416">  1  3  2 -1</clus>
</clustering>
</event>
<event>
 6    0  0.4081161E+002  0.1001601E+03  0.7546771E-02  0.1279960E+00
         21   -1    0    0  503  502  0.00000000000E+00  0.00000000000E+00  0.77876356377E+02  0.77876356377E+02  0.00000000000E+00 0. -1.
          1   -1    0    0  504    0 -0.00000000000E+00 -0.00000000000E+00 -0.90747886929E+03  0.90747886929E+03  0.00000000000E+00 0. -1.
         21    1    1    2  503  501  0.85877090934E+02 -0.44613529228E+02 -0.31036376744E+03  0.32510138399E+03  0.00000000000E+00 0. -1.
         21    1    1    2  504  505 -0.10966843554E+03  0.33234318211E+02 -0.93846795985E+02  0.14811788136E+03  0.00000000000E+00 0. -1.
         21    1    1    2  505  502  0.86159112330E+01 -0.46656253830E+02  0.27800909333E+02  0.54990276482E+02  0.00000000000E+00 0. -1.
          1    1    1    2  501    0  0.15175433374E+02  0.58035464848E+02 -0.45319285883E+03  0.45714568384E+03  0.00000000000E+00 0. -1.
<scales pt_clust_3="14000.00000" pt_clust_4="100.16010" pt_clust_5="47.44513" pt_clust_6="57.66968"></scales>
<clustering>
<clus scale="   47.445">  1  5  2 -1</clus>
<clus scale="   57.670">  2  6  1 -1</clus>
<clus scale="  100.160">  1  4  2 -1</clus>
<clus scale="   47.445">  1  3  2 -1</clus>
</clustering>
</event>
<event>
 6    0  0.4081161E+002  0.1330785E+03  0.7546771E-02  0.1222958E+00
         21   -1    0    0  504  502  0.00000000000E+00  0.00000000000E+00  0.44178470148E+02  0.44178470148E+02  0.00000000000E+00 0. -1.
          2   -1    0    0  503    0 -0.00000000000E+00 -0.00000000000E+00 -0.31924519667E+04  0.31924519667E+04  0.00000000000E+00 0. -1.
         21    1    1    2  503  505  0.21384053470E+02  0.25161318322E+02 -0.24033701241E+03  0.24259482520E+03  0.00000000000E+00 0.  1.
         21    1    1    2  504  501 -0.31414169356E+02 -0.11518425338E+03 -0.58678349790E+02  0.13303161653E+03  0.00000000000E+00 0. -1.
         21    1    1    2  505  502 -0.66496743141E+02  0.16331845352E+02 -0.23980843195E+03  0.24939252205E+03  0.00000000000E+00 0.  1.
          2    1    1    2  501    0  0.76526859027E+02  0.73691089703E+02 -0.26094497024E+04  0.26116114731E+04  0.00000000000E+00 0. -1.
<scales pt_clust_3="33.02075" pt_clust_4="14000.00000" pt_clust_5="67.29362" pt_clust_6="133.07849"></scales>
<clustering>
<clus scale="   33.021">  2  3  1 -1</clus>
<clus scale="   67.294">  1  5  2 -1</clus>
<clus scale="  133.078">  2  6  1 -1</clus>
<clus scale="   67.294">  1  3  2 -1</clus>
</clustering>
</event>
<event>
 6    0  0.4081161E+002  0.1797678E+03  0.7546771E-02  0.1168028E+00
          1   -1    0    0  503    0 -0.00000000000E+00  0.00000000000E+00  0.24915727069E+03  0.24915727069E+03  0.00000000000E+00 0.  1.
         21   -1    0    0  505  502  0.00000000000E+00 -0.00000000000E+00 -0.35636191820E+03  0.35636191820E+03  0.00000000000E+00 0. -1.
         21    1    1    2  503  502  0.15879559078E+03 -0.51062385330E+02  0.47158638420E+02  0.17334169730E+03  0.00000000000E+00 0. -1.
         21    1    1    2  504  501 -0.91046517574E+02  0.68637303905E+02  0.44068097651E+02  0.12223970337E+03  0.00000000000E+00 0.  1.
         21    1    1    2  505  504 -0.14087276220E+02 -0.83257713928E+02 -0.20809297968E+03  0.22457289790E+03  0.00000000000E+00 0. -1.
          1    1    1    2  501    0 -0.53661796983E+02  0.65682795353E+02  0.96615961003E+01  0.85364890324E+02  0.00000000000E+00 0.  1.
<scales pt_clust_3="176.31238" pt_clust_4="30.25331" pt_clust_5="84.44109" pt_clust_6="30.25331"></scales>
<clustering>
<clus scale="   30.253">  4  6 -1 -1</clus>
<clus scale="   84.441">  2  5  1 -1</clus>
<clus scale="  176.312">  1  3  2 -1</clus>
<clus scale="   84.441">  2  3  1 -1</clus>
</clustering>
</event>
<event>
 6    0  0.4081161E+002  0.8082185E+02  0.7546771E-02  0.1326735E+00
          2   -1    0    0  504    0 -0.00000000000E+00  0.00000000000E+00  0.51328240777E+04  0.51328240777E+04  0.00000000000E+00 0. -1.
         21   -1    0    0  505  502  0.00000000000E+00 -0.00000000000E+00 -0.20135581453E+03  0.20135581453E+03  0.00000000000E+00 0. -1.
         21    1    1    2  503  501  0.37820192206E+02  0.54280222550E+02  0.39230678034E+03  0.39784584879E+03  0.00000000000E+00 0. -1.
         21    1    1    2  504  502  0.14074704876E+02 -0.12844863497E+03  0.20057776347E+03  0.23859712560E+03  0.00000000000E+00 0. -1.
         21    1    1    2  505  503  0.12438228749E+02  0.49997671694E+02 -0.17561419616E+03  0.18301590806E+03  0.00000000000E+00 0. -1.
          2    1    1    2  501    0 -0.64333125831E+02  0.24170740728E+02  0.45141979155E+04  0.45147210098E+04  0.00000000000E+00 0. -1.
<scales pt_clust_3="14000.00000" pt_clust_4="80.82185" pt_clust_5="51.52161" pt_clust_6="68.79709"></scales>
<clustering>
<clus scale="   51.522">  2  5  1 -1</clus>
<clus scale="   68.797">  1  6  2 -1</clus>
<clus scale="   80.822">  2  4  1 -1</clus>
<clus scale="   51.522">  2  3  1 -1</clus>
</clustering>
</event>
<event>
 6    0  0.4081161E+002  0.7042535E+02  0.7546771E-02  0.1358653E+00
          1   -1    0    0  503    0 -0.00000000000E+00  0.00000000000E+00  0.28497955596E+03  0.28497955596E+03  0.00000000000E+00 0.  1.
         21   -1    0    0  505  502  0.00000000000E+00 -0.00000000000E+00 -0.15714156681E+03  0.15714156681E+03  0.00000000000E+00 0.  1.
         21    1    1    2  503  504  0.11297860721E+02  0.50650360130E+02  0.22563815237E+02  0.56588217821E+02  0.00000000000E+00 0.  1.
         21    1    1    2  504  502  0.10807381392E+01  0.70745107126E+02 -0.10929860895E+03  0.13020070697E+03  0.00000000000E+00 0.  1.
         21    1    1    2  505  501  0.15303464179E+02 -0.67814658072E+02  0.69866921335E+02  0.98561709412E+02  0.00000000000E+00 0.  1.
          1    1    1    2  501    0 -0.27682063039E+02 -0.53580809184E+02  0.14470586153E+03  0.15677048857E+03  0.00000000000E+00 0.  1.
<scales pt_clust_3="51.89509" pt_clust_4="70.42535" pt_clust_5="14000.00000" pt_clust_6="30.57947"></scales>
<clustering>
<clus scale="   51.895">  1  3  2 -1</clus>
<clus scale="   30.579">  1  6  2 -1</clus>
<clus scale="   70.425">  2  4  1 -1</clus>
<clus scale="   70.425">  2  3  1 -1</clus>
</clustering>
</event>
<event>
 6    0  0.4081161E+002  0.1079721E+03  0.7546771E-02  0.1264372E+00
         21   -1    0    0  505  502  0.00000000000E+00  0.00000000000E+00  0.27585796567E+03  0.27585796567E+03  0.00000000000E+00 0.  1.
          1   -1    0    0  503    0 -0.00000000000E+00 -0.00000000000E+00 -0.18515109655E+04  0.18515109655E+04  0.00000000000E+00 0.  1.
         21    1    1    2  503  504  0.51160808924E+02 -0.50736677736E+01 -0.20495770670E+03  0.21130743482E+03  0.00000000000E+00 0.  1.
         21    1    1    2  504  502  0.30327578675E+02 -0.16322409364E+02  0.54776451315E+02  0.64704271068E+02  0.00000000000E+00 0.  1.
         21    1    1    2  505  501 -0.81936987087E+02  0.11089918792E+03  0.18925180785E+03  0.23415496260E+03  0.00000000000E+00 0.  1.
          1    1    1    2  501    0  0.44859948758E+00 -0.89503110782E+02 -0.16147235523E+04  0.16172022627E+04  0.00000000000E+00 0.  1.
<scales pt_clust_3="51.87915" pt_clust_4="34.44101" pt_clust_5="14000.00000" pt_clust_6="107.97215"></scales>
<clustering>
<clus scale="   34.441">  1  4  2 -1</clus>
<clus scale="   51.879">  2  3  1 -1</clus>
<clus scale="  107.972">  2  6  1 -1</clus>
<clus scale="   34.441">  1  3  2 -1</clus>
</clustering>
</event>
<event>
 6    0  0.4081161E+002  0.2324036E+03  0.7546771E-02  0.1124959E+00
         21   -1    0    0  505  502  0.00000000000E+00  0.00000000000E+00  0.81358356444E+02  0.81358356444E+02  0.00000000000E+00 0. -1.
          2   -1    0    0  504    0 -0.00000000000E+00 -0.00000000000E+00 -0.37816440205E+04  0.37816440205E+04  0.00000000000E+00 0. -1.
         21    1    1    2  503  502 -0.72767144569E+02 -0.77301453932E+00  0.58745839515E+01  0.73007983240E+02  0.00000000000E+00 0. -1.
         21    1    1    2  504  503 -0.10699792393E+03  0.13980757205E+03 -0.16631830548E+03  0.24219102308E+03  0.00000000000E+00 0. -1.
         21    1    1    2  505  501  0.85072553490E+02 -0.10733907278E+03 -0.21823907558E+04  0.21866843455E+04  0.00000000000E+00 0. -1.
          2    1    1    2  501    0  0.94692515007E+02 -0.31695484726E+02 -0.13574511867E+04  0.13611190251E+04  0.00000000000E+00 0. -1.
<scales pt_clust_3="72.77125" pt_clust_4="221.87778" pt_clust_5="59.04402" pt_clust_6="59.04402"></scales>
<clustering>
<clus scale="   59.044">  5  6 -1 -1</clus>
<clus scale="   72.771">  1  3  2 -1</clus>
<clus scale="  221.878">  1  4  2 -1</clus>
<clus scale="   72.771">  1  3  2 -1</clus>
</clustering>
</event>
<event>
 6    0  0.4081161E+002  0.9530664E+02  0.7546771E-02  0.1290487E+00
          2   -1    0    0  504    0 -0.00000000000E+00  0.00000000000E+00  0.22711827518E+04  0.22711827518E+04  0.00000000000E+00 0.  1.
         21   -1    0    0  503  502  0.00000000000E+00 -0.00000000000E+00 -0.42051871534E+02  0.42051871534E+02  0.00000000000E+00 0.  1.
         21    1    1    2  503  501 -0.84251977465E+02  0.96651768326E+02  0.21350597647E+03  0.24904771032E+03  0.00000000000E+00 0.  1.
         21    1    1    2  504  505  0.62340779958E+02  0.73012930919E+01  0.31671041463E+03  0.32287020374E+03  0.00000000000E+00 0.  1.
         21    1    1    2  505  502  0.80107185148E+02 -0.39148570753E+01  0.64800872367E+02  0.10310984569E+03  0.00000000000E+00 0.  1.
          2    1    1    2  501    0 -0.58195987641E+02 -0.10003820434E+03  0.16341136168E+04  0.16382068636E+04  0.00000000000E+00 0.  1.
<scales pt_clust_3="95.30664" pt_clust_4="62.76688" pt_clust_5="82.86756" pt_clust_6="14000.00000"></scales>
<clustering>
<clus scale="   62.767">  1  4  2 -1</clus>
<clus scale="   82.868">  2  5  1 -1</clus>
<clus scale="   95.307">  2  3  1 -1</clus>
<clus scale="   82.868">  2  3  1 -1</clus>
</clustering>
</event>
<event>
 6    0  0.4081161E+002  0.8937589E+02  0.7546771E-02  0.1304370E+00
         21   -1    0    0  505  502  0.00000000000E+00  0.00000000000E+00  0.18098743801E+04  0.18098743801E+04  0.00000000000E+00 0.  1.
          2   -1    0    0  503    0 -0.00000000000E+00 -0.00000000000E+00 -0.20095797876E+04  0.20095797876E+04  0.00000000000E+00 0. -1.
         21    1    1    2  503  502  0.51483554087E+02 -0.11933479950E+02  0.27778646472E+03  0.28276895917E+03  0.00000000000E+00 0. -1.
         21    1    1    2  504  501  0.14739519606E+03 -0.93264775523E+01 -0.31722479773E+03  0.34991984697E+03  0.00000000000E+00 0. -1.
         21    1    1    2  505  504 -0.11760835462E+03  0.49783705172E+02  0.15094426026E+04  0.15148356719E+04  0.00000000000E+00 0.  1.
          2    1    1    2  501    0 -0.81270395528E+02 -0.28523747670E+02 -0.16697096770E+04  0.16719296896E+04  0.00000000000E+00 0. -1.
<scales pt_clust_3="52.84850" pt_clust_4="89.37589" pt_clust_5="76.76921" pt_clust_6="14000.00000"></scales>
<clustering>
<clus scale="   52.849">  1  3  2 -1</clus>
<clus scale="   76.769">  1  5  2 -1</clus>
<clus scale="   89.376">  1  4  2 -1</clus>
<clus scale="   52.849">  1  3  2 -1</clus>
</clustering>
</event>
<event>
 6    0  0.4081161E+002  0.1265691E+03  0.7546771E-02  0.1232637E+00
         -2   -1    0    0    0  501 -0.00000000000E+00  0.00000000000E+00  0.19438477133E+04  0.19438477133E+04  0.00000000000E+00 0. -1.
         21   -1    0    0  504  502  0.00000000000E+00 -0.00000000000E+00 -0.24639245460E+03  0.24639245460E+03  0.00000000000E+00 0.  1.
         21    1    1    2  503  501  0.11090321032E+03  0.18171424454E+02  0.42124007823E+03  0.43597353846E+03  0.00000000000E+00 0. -1.
         21    1    1    2  504  503 -0.97816668226E+02  0.97957230015E+01 -0.48348425982E+02  0.10955193776E+03  0.00000000000E+00 0. -1.
         21    1    1    2  505  502 -0.14307868246E+02 -0.90361064772E+02 -0.14628794212E+03  0.17253984795E+03  0.00000000000E+00 0.  1.
         -2    1    1    2    0  505  0.12213261480E+01  0.62393917317E+02  0.14708515486E+04  0.14721748437E+04  0.00000000000E+00 0. -1.
<scales pt_clust_3="126.56907" pt_clust_4="14000.00000" pt_clust_5="89.76926" pt_clust_6="62.40587"></scales>
<clustering>
<clus scale="   62.406">  1  6  2 -1</clus>
<clus scale="   89.769">  2  5  1 -1</clus>
<clus scale="  126.569">  1  3  2 -1</clus>
<clus scale="   89.769">  2  3  1 -1</clus>
</clustering>
</event>
<event>
 6    0  0.4081161E+002  0.1023650E+03  0.7546771E-02  0.1275400E+00
          2   -1    0    0  504    0 -0.00000000000E+00  0.00000000000E+00  0.13437025996E+04  0.13437025996E+04  0.00000000000E+00 0. -1.
         21   -1    0    0  503  502  0.00000000000E+00 -0.00000000000E+00 -0.69494400478E+02  0.69494400478E+02  0.00000000000E+00 0.  1.
         21    1    1    2  503  501  0.52241252254E+02 -0.81543584046E+02  0.50627833220E+02  0.10927800343E+03  0.00000000000E+00 0.  1.
         21    1    1    2  504  505 -0.50250077364E+02  0.77260775272E+02  0.42216058544E+03  0.43210398930E+03  0.00000000000E+00 0. -1.
         21    1    1    2  505  502 -0.24611279270E+02 -0.23598253047E+02 -0.26458632450E+02  0.43158450451E+02  0.00000000000E+00 0.  1.
          2    1    1    2  501    0  0.22620104380E+02  0.27881061820E+02  0.82787841295E+03  0.82865655694E+03  0.00000000000E+00 0. -1.
<scales pt_clust_3="14000.00000" pt_clust_4="102.36497" pt_clust_5="34.09681" pt_clust_6="35.52351"></scales>
<clustering>
<clus scale="   34.097">  2  5  1 -1</clus>
<clus scale="   35.524">  1  6  2 -1</clus>
<clus scale="  102.365">  1  4  2 -1</clus>
<clus scale="   34.097">  2  3  1 -1</clus>
</clustering>
</event>
<event>
 6    0  0.4081161E+002  0.7221244E+02  0.7546771E-02  0.1352727E+00
         21   -1    0    0  504  502  0.00000000000E+00  0.00000000000E+00  0.48323242444E+02  0.48323242444E+02  0.00000000000E+00 0.  1.
          1   -1    0    0  505    0 -0.00000000000E+00 -0.00000000000E+00 -0.17489574025E+04  0.17489574025E+04  0.00000000000E+00 0.  1.
         21    1    1    2  503  502  0.24919665015E+02 -0.78848166825E+02 -0.25762549460E+02  0.86612539917E+02  0.00000000000E+00 0.  1.
         21    1    1    2  504  501 -0.56183083840E+02  0.15474410895E+02 -0.41882523103E+02  0.71764490131E+02  0.00000000000E+00 0.  1.
         21    1    1    2  505  503  0.10756775506E+02  0.98067013136E+02 -0.11235696116E+04  0.11278925124E+04  0.00000000000E+00 0.  1.
          1    1    1    2  501    0  0.20506643318E+02 -0.34693257206E+02 -0.50941947591E+03  0.51101110257E+03  0.00000000000E+00 0.  1.
<scales pt_clust_3="14000.00000" pt_clust_4="56.96016" pt_clust_5="72.21244" pt_clust_6="40.30068"></scales>
<clustering>
<clus scale="   40.301">  2  6  1 -1</clus>
<clus scale="   56.960">  1  4  2 -1</clus>
<clus scale="   72.212">  2  5  1 -1</clus>
<clus scale="   56.960">  1  3  2 -1</clus>
</clustering>
</event>
<event>
 6    0  0.4081161E+002  0.1285769E+03  0.7546771E-02  0.1229583E+00
         21   -1    0    0  504  502  0.00000000000E+00  0.00000000000E+00  0.11177442449E+03  0.11177442449E+03  0.00000000000E+00 0. -1.
          4   -1    0    0  505    0 -0.00000000000E+00 -0.00000000000E+00 -0.69308273680E+03  0.69308273680E+03  0.00000000000E+00 0. -1.
         21    1    1    2  503  501  0.56091311160E+02  0.58542936471E+02 -0.46467583573E+03  0.47169602808E+03  0.00000000000E+00 0. -1.
         21    1    1    2  504  503 -0.47758558225E+02 -0.68762388149E+02 -0.13430216754E+01  0.83731413549E+02  0.00000000000E+00 0. -1.
         21    1    1    2  505  502 -0.24384524698E+02 -0.36897768349E+02  0.55825601408E+02  0.71221823386E+02  0.00000000000E+00 0. -1.
          4    1    1    2  501    0  0.16051771763E+02  0.47117220027E+02 -0.17111505631E+03  0.17820789628E+03  0.00000000000E+00 0. -1.
<scales pt_clust_3="33.02386" pt_clust_4="121.47287" pt_clust_5="44.22726" pt_clust_6="33.02386"></scales>
<clustering>
<clus scale="   33.024">  3  6 -1 -1</clus>
<clus scale="   44.227">  1  5  2 -1</clus>
<clus scale="  121.473">  1  4  2 -1</clus>
<clus scale="   44.227">  1  3  2 -1</clus>
</clustering>
</event>
<event>
 6    0  0.4081161E+002  0.6457747E+02  0.7546771E-02  0.1379568E+00
         21   -1    0    0  504  502  0.00000000000E+00  0.00000000000E+00  0.11247957594E+03  0.11247957594E+03  0.00000000000E+00 0.  1.
          1   -1    0    0  503    0 -0.00000000000E+00 -0.00000000000E+00 -0.74507020946E+03  0.74507020946E+03  0.00000000000E+00 0.  1.
         21    1    1    2  503  505 -0.30478654044E+02 -0.27533992910E+02 -0.49253358071E+02  0.64132381830E+02  0.00000000000E+00 0. -1.
         21    1    1    2  504  501 -0.58251376697E+02  0.19164360454E+02  0.61753811746E+02  0.87028896718E+02  0.00000000000E+00 0.  1.
         21    1    1    2  505  502  0.27569384821E+01 -0.53049403343E+02 -0.42641627550E+00  0.53122704521E+02  0.00000000000E+00 0. -1.
          1    1    1    2  501    0  0.85973092259E+02  0.61419035798E+02 -0.64466467092E+03  0.65326580233E+03  0.00000000000E+00 0.  1.
<scales pt_clust_3="41.07395" pt_clust_4="64.57747" pt_clust_5="54.14315" pt_clust_6="14000.00000"></scales>
<clustering>
<clus scale="   41.074">  2  3  1 -1</clus>
<clus scale="   54.143">  1  5  2 -1</clus>
<clus scale="   64.577">  1  4  2 -1</clus>
<clus scale="   54.143">  1  3  2 -1</clus>
</clustering>
</event>
<event>
 6    0  0.4081161E+002  0.2227924E+03  0.7546771E-02  0.1131818E+00
         21   -1    0    0  503  502  0.00000000000E+00  0.00000000000E+00  0.49723465456E+03  0.49723465456E+03  0.00000000000E+00 0. -1.
          2   -1    0    0  505    0 -0.00000000000E+00 -0.00000000000E+00 -0.11330698143E+04  0.11330698143E+04  0.00000000000E+00 0. -1.
         21    1    1    2  503  504 -0.74578108556E+02 -0.10899243227E+03  0.22249429992E+02  0.13392640405E+03  0.00000000000E+00 0. -1.
         21    1    1    2  504  501  0.14569119676E+03 -0.15302777747E+02 -0.60334832326E+03  0.62087784548E+03  0.00000000000E+00 0. -1.
         21    1    1    2  505  502 -0.12157107838E+03  0.68295590362E+02  0.39531137682E+03  0.41918361061E+03  0.00000000000E+00 0. -1.
          2    1    1    2  501    0  0.50457990180E+02  0.55999619653E+02 -0.45004764330E+03  0.45631660875E+03  0.00000000000E+00 0. -1.
<scales pt_clust_3="132.06530" pt_clust_4="73.76295" pt_clust_5="197.64201" pt_clust_6="73.76295"></scales>
<clustering>
<clus scale="   73.763">  4  6 -1 -1</clus>
<clus scale="  132.065">  1  3  2 -1</clus>
<clus scale="  197.642">  1  5  2 -1</clus>
<clus scale="  132.065">  1  3  2 -1</clus>
</clustering>
</event>
<event>
 6    0  0.4081161E+002  0.1268587E+03  0.7546771E-02  0.1232193E+00
         21   -1    0    0  505  502  0.00000000000E+00  0.00000000000E+00  0.32090238146E+03  0.32090238146E+03  0.00000000000E+00 0.  1.
          2   -1    0    0  504    0 -0.00000000000E+00 -0.00000000000E+00 -0.27176693159E+04  0.27176693159E+04  0.00000000000E+00 0.  1.
         21    1    1    2  503  502 -0.64701937375E+02 -0.61252344745E+01  0.28523779490E+03  0.29254821626E+03  0.00000000000E+00 0.  1.
         21    1    1    2  504  503 -0.23640008264E+02 -0.94378262061E+02 -0.49544997503E+02  0.10918247624E+03  0.00000000000E+00 0.  1.
         21    1    1    2  505  501  0.42694794454E+02  0.92040171854E+02 -0.14982149517E+04  0.15016465231E+04  0.00000000000E+00 0.  1.
          2    1    1    2  501    0  0.45647151186E+02  0.84633246820E+01 -0.11342447801E+04  0.11351944818E+04  0.00000000000E+00 0.  1.
<scales pt_clust_3="64.88445" pt_clust_4="14000.00000" pt_clust_5="126.85875" pt_clust_6="46.42510"></scales>
<clustering>
<clus scale="   46.425">  2  6  1 -1</clus>
<clus scale="   64.884">  1  3  2 -1</clus>
<clus scale="  126.859">  2  5  1 -1</clus>
<clus scale="   64.884">  1  3  2 -1</clus>
</clustering>
</event>
<event>
 6    0  0.4081161E+002  0.2267200E+03  0.7546771E-02  0.1128970E+00
          2   -1    0    0  503    0 -0.00000000000E+00  0.00000000000E+00  0.29836648701E+04  0.29836648701E+04  0.00000000000E+00 0.  1.
         21   -1    0    0  504  502  0.00000000000E+00 -0.00000000000E+00 -0.15994994719E+03  0.15994994719E+03  0.00000000000E+00 0.  1.
         21    1    1    2  503  505  0.77558448522E+02  0.13351581655E+03  0.51591553426E+02  0.16279887774E+03  0.00000000000E+00 0.  1.
         21    1    1    2  504  501 -0.61610179968E+02 -0.27275923862E+02  0.10074216690E+04  0.10096723278E+04  0.00000000000E+00 0.  1.
         21    1    1    2  505  502  0.56695883835E+02  0.39006375540E+02 -0.87789378969E+02  0.11154772807E+03  0.00000000000E+00 0.  1.
          2    1    1    2  501    0 -0.72644152389E+02 -0.14524626823E+03  0.18524910795E+04  0.18595958837E+04  0.00000000000E+00 0.  1.
<scales pt_clust_3="213.52039" pt_clust_4="49.10120" pt_clust_5="68.81803" pt_clust_6="49.10120"></scales>
<clustering>
<clus scale="   49.101">  4  6 -1 -1</clus>
<clus scale="   68.818">  2  5  1 -1</clus>
<clus scale="  213.520">  2  3  1 -1</clus>
<clus scale="   68.818">  2  3  1 -1</clus>
</clustering>
</event>
<event>
 6    0  0.4081161E+002  0.9083998E+02  0.7546771E-02  0.1300830E+00
          2   -1    0    0  503    0 -0.00000000000E+00  0.00000000000E+00  0.75865853524E+02  0.75865853524E+02  0.00000000000E+00 0.  1.
         21   -1    0    0  504  502  0.00000000000E+00 -0.00000000000E+00 -0.94786152324E+03  0.94786152324E+03  0.00000000000E+00 0. -1.
         21    1    1    2  503  505 -0.33471621600E+02 -0.88551384576E+01 -0.96864791407E+02  0.10286666488E+03  0.00000000000E+00 0. -1.
         21    1    1    2  504  501 -0.64054772183E+02  0.65833966976E+02 -0.70844737899E+03  0.71437722097E+03  0.00000000000E+00 0. -1.
         21    1    1    2  505  502  0.32332379365E+02  0.62193867589E+01 -0.10342053948E+03  0.10853511650E+03  0.00000000000E+00 0.  1.
          2    1    1    2  501    0  0.65194014418E+02 -0.63198215277E+02  0.36737040159E+02  0.97948374411E+02  0.00000000000E+00 0.  1.
<scales pt_clust_3="30.72787" pt_clust_4="90.83998" pt_clust_5="32.92512" pt_clust_6="14000.00000"></scales>
<clustering>
<clus scale="   32.925">  2  5  1 -1</clus>
<clus scale="   30.728">  2  3  1 -1</clus>
<clus scale="   90.840">  2  4  1 -1</clus>
<clus scale="   32.925">  2  3  1 -1</clus>
</clustering>
</event>
<event>
 6    0  0.4081161E+002  0.1600464E+03  0.7546771E-02  0.1188644E+00
         21   -1    0    0  501  502  0.00000000000E+00  0.00000000000E+00  0.85963874461E+03  0.85963874461E+03  0.00000000000E+00 0. -1.
          4   -1    0    0  505    0 -0.00000000000E+00 -0.00000000000E+00 -0.63335926717E+03  0.63335926717E+03  0.00000000000E+00 0. -1.
         21    1    1    2  503  504  0.25763423557E+00  0.43726345984E+02  0.14092941805E+03  0.14755731286E+03  0.00000000000E+00 0. -1.
         21    1    1    2  504  502 -0.34689511398E+02  0.10356480369E+03  0.69622541918E+03  0.70474028200E+03  0.00000000000E+00 0. -1.
         21    1    1    2  505  503  0.27978960439E+02  0.13762129701E+02 -0.12292065385E+03  0.12681366482E+03  0.00000000000E+00 0. -1.
          4    1    1    2  501    0  0.64529167240E+01 -0.16105327938E+03 -0.48795470594E+03  0.51388675210E+03  0.00000000000E+00 0. -1.
<scales pt_clust_3="32.92364" pt_clust_4="32.92364" pt_clust_5="31.18042" pt_clust_6="151.36753"></scales>
<clustering>
<clus scale="   31.180">  2  5  1 -1</clus>
<clus scale="   32.924">  3  4 -1 -1</clus>
<clus scale="  151.368">  2  6  1 -1</clus>
<clus scale="  160.046">  1  3  2 -1</clus>
</clustering>
</event>
<event>
 6    0  0.4081161E+002  0.1340060E+03  0.7546771E-02  0.1221630E+00
         21   -1    0    0  504  502  0.00000000000E+00  0.00000000000E+00  0.41655212503E+03  0.41655212503E+03  0.00000000000E+00 0. -1.
          2   -1    0    0  505    0 -0.00000000000E+00 -0.00000000000E+00 -0.12780778953E+04  0.12780778953E+04  0.00000000000E+00 0. -1.
         21    1    1    2  503  501 -0.84233824089E+01 -0.11586072314E+03  0.14221851722E+03  0.18363215181E+03  0.00000000000E+00 0. -1.
         21    1    1    2  504  503 -0.26304361308E+02 -0.15768361949E+02  0.23957749189E+03  0.24153247252E+03  0.00000000000E+00 0. -1.
         21    1    1    2  505  502 -0.41464595147E+02  0.32910325942E+02 -0.61767716033E+02  0.81348957880E+02  0.00000000000E+00 0. -1.
          2    1    1    2  501    0  0.76192338864E+02  0.98718759142E+02 -0.11815540633E+04  0.11881164381E+04  0.00000000000E+00 0. -1.
<scales pt_clust_3="134.00603" pt_clust_4="30.66856" pt_clust_5="53.56236" pt_clust_6="14000.00000"></scales>
<clustering>
<clus scale="   30.669">  1  4  2 -1</clus>
<clus scale="   53.562">  2  5  1 -1</clus>
<clus scale="  134.006">  1  3  2 -1</clus>
<clus scale="   30.669">  1  3  2 -1</clus>
</clustering>
</event>
<event>
 6    0  0.4081161E+002  0.1142708E+03  0.7546771E-02  0.1252859E+00
         21   -1    0    0  505  502  0.00000000000E+00  0.00000000000E+00  0.13212994482E+02  0.13212994482E+02  0.00000000000E+00 0. -1.
          2   -1    0    0  503    0 -0.00000000000E+00 -0.00000000000E+00 -0.22851660492E+04  0.22851660492E+04  0.00000000000E+00 0. -1.
         21    1    1    2  503  504  0.14375521518E+01 -0.80579782671E+02 -0.32728570350E+03  0.33706245660E+03  0.00000000000E+00 0. -1.
         21    1    1    2  504  502  0.45965398380E+02 -0.26659886058E+02 -0.10832973418E+03  0.12066026140E+03  0.00000000000E+00 0. -1.
         21    1    1    2  505  501 -0.29434059663E+02  0.52045268542E+02 -0.60396119580E+03  0.60691366757E+03  0.00000000000E+00 0. -1.
          2    1    1    2  501    0 -0.17968890869E+02  0.55194400186E+02 -0.12323764212E+04  0.12337426581E+04  0.00000000000E+00 0. -1.
<scales pt_clust_3="104.52429" pt_clust_4="53.13725" pt_clust_5="45.49945" pt_clust_6="45.49945"></scales>
<clustering>
<clus scale="   45.499">  5  6 -1 -1</clus>
<clus scale="   53.137">  1  4  2 -1</clus>
<clus scale="  104.524">  1  3  2 -1</clus>
<clus scale="   53.137">  1  3  2 -1</clus>
</clustering>
</event>
<event>
 6    0  0.4081161E+002  0.6111368E+02  0.7546771E-02  0.1393217E+00
         21   -1    0    0  503  502  0.00000000000E+00  0.00000000000E+00  0.60105418655E+02  0.60105418655E+02  0.00000000000E+00 0. -1.
         -1   -1    0    0    0  501 -0.00000000000E+00 -0.00000000000E+00 -0.54569546663E+03  0.54569546663E+03  0.00000000000E+00 0.  1.
         21    1    1    2  503  505  0.14346434246E+02  0.46583279118E+02 -0.15317995182E+01  0.48766468795E+02  0.00000000000E+00 0. -1.
         21    1    1    2  504  502  0.45116593579E+02 -0.20450664044E+02 -0.32328483581E+01  0.49640588076E+02  0.00000000000E+00 0. -1.
         21    1    1    2  505  501  0.42400860543E+02 -0.37605248745E+02 -0.12814498932E+03  0.14011825718E+03  0.00000000000E+00 0. -1.
         -1    1    1    2    0  504 -0.10186388837E+03  0.11472633670E+02 -0.35268041078E+03  0.36727557123E+03  0.00000000000E+00 0.  1.
<scales pt_clust_3="48.74241" pt_clust_4="14000.00000" pt_clust_5="53.85834" pt_clust_6="61.11368"></scales>
<clustering>
<clus scale="   48.742">  1  3  2 -1</clus>
<clus scale="   53.858">  2  5  1 -1</clus>
<clus scale="   61.114">  2  6  1 -1</clus>
<clus scale="   48.742">  1  3  2 -1</clus>
</clustering>
</event>
<event>
 6    0  0.4081161E+002  0.1538724E+03  0.7546771E-02  0.1195794E+00
         21   -1    0    0  503  502  0.00000000000E+00  0.00000000000E+00  0.95403219320E+02  0.95403219320E+02  0.00000000000E+00 0.  1.
          1   -1    0    0  504    0 -0.00000000000E+00 -0.00000000000E+00 -0.42602847107E+04  0.42602847107E+04  0.00000000000E+00 0. -1.
         21    1    1    2  503  501  0.23339083596E+01  0.53072932162E+02 -0.86282295687E+02  0.10132530684E+03  0.00000000000E+00 0. -1.
         21    1    1    2  504  505  0.74881269200E+02 -0.10620557956E+01 -0.11547984977E+04  0.11572242232E+04  0.00000000000E+00 0. -1.
         21    1    1    2  505  502 -0.13887524319E+03 -0.13004795773E+03 -0.19635170614E+02  0.19127034377E+03  0.00000000000E+00 0.  1.
          1    1    1    2  501    0  0.61660065632E+02  0.78037081366E+02 -0.29041655274E+04  0.29058680562E+04  0.00000000000E+00 0. -1.
<scales pt_clust_3="53.12422" pt_clust_4="74.91420" pt_clust_5="14000.00000" pt_clust_6="153.87237"></scales>
<clustering>
<clus scale="   53.124">  1  3  2 -1</clus>
<clus scale="   74.914">  2  4  1 -1</clus>
<clus scale="  153.872">  2  6  1 -1</clus>
<clus scale="   53.124">  1  3  2 -1</clus>
</clustering>
</event>
<event>
 6    0  0.4081161E+002  0.1181061E+03  0.7546771E-02  0.1246254E+00
         21   -1    0    0  505  502  0.00000000000E+00  0.00000000000E+00  0.30629034243E+03  0.30629034243E+03  0.00000000000E+00 0.  1.
          2   -1    0    0  503    0 -0.00000000000E+00 -0.00000000000E+00 -0.19665383504E+04  0.19665383504E+04  0.00000000000E+00 0.  1.
         21    1    1    2  503  504  0.85652293153E+02  0.42449863773E+02 -0.15893424025E+03  0.18546805380E+03  0.00000000000E+00 0.  1.
         21    1    1    2  504  502 -0.15952527782E+03  0.22190899000E+02  0.13898584186E+03  0.21273884107E+03  0.00000000000E+00 0.  1.
         21    1    1    2  505  501  0.41085363119E+02 -0.41701042779E+02  0.10960550920E+03  0.12425921165E+03  0.00000000000E+00 0.  1.
          2    1    1    2  501    0  0.32787621552E+02 -0.22939719994E+02 -0.17499051187E+04  0.17503625863E+04  0.00000000000E+00 0.  1.
<scales pt_clust_3="118.10613" pt_clust_4="14000.00000" pt_clust_5="59.87331" pt_clust_6="40.01573"></scales>
<clustering>
<clus scale="   40.016">  2  6  1 -1</clus>
<clus scale="   59.873">  1  5  2 -1</clus>
<clus scale="  118.106">  2  3  1 -1</clus>
<clus scale="   59.873">  1  3  2 -1</clus>
</clustering>
</event>
<event>
 6    0  0.4081161E+002  0.1202889E+03  0.7546771E-02  0.1242621E+00
         -1   -1    0    0    0  501 -0.00000000000E+00  0.00000000000E+00  0.35538192679E+03  0.35538192679E+03  0.00000000000E+00 0. -1.
         21   -1    0    0  504  502  0.00000000000E+00 -0.00000000000E+00 -0.15452717780E+03  0.15452717780E+03  0.00000000000E+00 0.  1.
         21    1    1    2  503  502 -0.95617319209E+02  0.11538260975E+02 -0.91993681220E+02  0.13318648799E+03  0.00000000000E+00 0.  1.
         21    1    1    2  504  501 -0.49539178827E+02 -0.82750093424E+01  0.21116306563E+02  0.54483983163E+02  0.00000000000E+00 0.  1.
         21    1    1    2  505  503  0.77493429027E+02 -0.41461220012E+02  0.19067304667E+03  0.20995350684E+03  0.00000000000E+00 0. -1.
         -1    1    1    2    0  505  0.67663069009E+02  0.38197968379E+02  0.81059076972E+02  0.11228512660E+03  0.00000000000E+00 0. -1.
<scales pt_clust_3="120.28892" pt_clust_4="50.22555" pt_clust_5="14000.00000" pt_clust_6="72.37957"></scales>
<clustering>
<clus scale="   50.226">  2  4  1 -1</clus>
<clus scale="   72.380">  1  6  2 -1</clus>
<clus scale="  120.289">  2  3  1 -1</clus>
<clus scale="   50.226">  2  3  1 -1</clus>
</clustering>
</event>
<event>
 6    0  0.4081161E+002  0.1435933E+03  0.7546771E-02  0.1208574E+00
          2   -1    0    0  504    0 -0.00000000000E+00  0.00000000000E+00  0.74113895751E+03  0.74113895751E+03  0.00000000000E+00 0.  1.
         21   -1    0    0  503  502  0.00000000000E+00 -0.00000000000E+00 -0.46132236094E+03  0.46132236094E+03  0.00000000000E+00 0. -1.
         21    1    1    2  503  505  0.75087563058E+02  0.11822562908E+03 -0.35231822628E+03  0.37913529784E+03  0.00000000000E+00 0. -1.
         21    1    1    2  504  502  0.18639396359E+02 -0.22281950645E+03  0.67476896202E+02  0.23355746846E+03  0.00000000000E+00 0.  1.
         21    1    1    2  505  501 -0.26744987513E+02  0.77596067056E+02  0.17267722067E+03  0.19119065490E+03  0.00000000000E+00 0.  1.
          2    1    1    2  501    0 -0.66981971904E+02  0.26997810314E+02  0.39198070598E+03  0.39857789726E+03  0.00000000000E+00 0.  1.
<scales pt_clust_3="143.59327" pt_clust_4="14000.00000" pt_clust_5="110.76252" pt_clust_6="72.21819"></scales>
<clustering>
<clus scale="   72.218">  1  6  2 -1</clus>
<clus scale="  110.763">  1  5  2 -1</clus>
<clus scale="  143.593">  2  3  1 -1</clus>
<clus scale="  143.593">  2  3  1 -1</clus>
</clustering>
</event>
<event>
 6    0  0.4081161E+002  0.1032715E+03  0.7546771E-02  0.1273563E+00
         -3   -1    0    0    0  501 -0.00000000000E+00  0.00000000000E+00  0.22375031887E+03  0.22375031887E+03  0.00000000000E+00 0. -1.
         21   -1    0    0  505  502  0.00000000000E+00 -0.00000000000E+00 -0.87932304291E+03  0.87932304291E+03  0.00000000000E+00 0.  1.
         21    1    1    2  503  501  0.25406743100E+02 -0.16344562018E+02 -0.11062312780E+02  0.32171758835E+02  0.00000000000E+00 0. -1.
         21    1    1    2  504  502  0.23778855813E+02 -0.32660788391E+02 -0.86812503578E+02  0.95752659804E+02  0.00000000000E+00 0. -1.
         21    1    1    2  505  503 -0.88707830489E+02  0.11259433831E+03 -0.75272121947E+03  0.76624787011E+03  0.00000000000E+00 0.  1.
         -3    1    1    2    0  504  0.39522231576E+02 -0.63588987897E+02  0.19502331179E+03  0.20890107302E+03  0.00000000000E+00 0. -1.
<scales pt_clust_3="30.21005" pt_clust_4="40.99124" pt_clust_5="103.27146" pt_clust_6="14000.00000"></scales>
<clustering>
<clus scale="   30.210">  1  3  2 -1</clus>
<clus scale="   40.991">  2  4  1 -1</clus>
<clus scale="  103.271">  2  5  1 -1</clus>
<clus scale="   40.991">  2  3  1 -1</clus>
</clustering>
</event>
<event>
 6    0  0.4081161E+002  0.8799768E+02  0.7546771E-02  0.1307774E+00
          2   -1    0    0  504    0 -0.00000000000E+00  0.00000000000E+00  0.85174691554E+03  0.85174691554E+03  0.00000000000E+00 0.  1.
         21   -1    0    0  501  502  0.00000000000E+00 -0.00000000000E+00 -0.13174346413E+03  0.13174346413E+03  0.00000000000E+00 0.  1.
         21    1    1    2  503  502 -0.29525388558E+02 -0.15687192762E+02 -0.41449844105E+02  0.53253414563E+02  0.00000000000E+00 0.  1.
         21    1    1    2  504  505  0.32331922971E+01  0.41919365883E+02  0.22158611332E+03  0.22553955836E+03  0.00000000000E+00 0.  1.
         21    1    1    2  505  503 -0.55246200184E+02  0.43442634485E+02 -0.61774465664E+02  0.93570773930E+02  0.00000000000E+00 0.  1.
          2    1    1    2  501    0  0.81538396445E+02 -0.69674807606E+02  0.60164164786E+03  0.61112663283E+03  0.00000000000E+00 0.  1.
<scales pt_clust_3="33.43406" pt_clust_4="41.62958" pt_clust_5="87.99768" pt_clust_6="14000.00000"></scales>
<clustering>
<clus scale="   33.434">  2  3  1 -1</clus>
<clus scale="   41.630">  1  4  2 -1</clus>
<clus scale="   87.998">  2  5  1 -1</clus>
<clus scale="   33.434">  2  3  1 -1</clus>
</clustering>
</event>
<event>
 6    0  0.4081161E+002  0.1133634E+03  0.7546771E-02  0.1254465E+00
         21   -1    0    0  503  502  0.00000000000E+00  0.00000000000E+00  0.49575109404E+02  0.49575109404E+02  0.00000000000E+00 0.  1.
          2   -1    0    0  504    0 -0.00000000000E+00 -0.00000000000E+00 -0.32553457501E+04  0.32553457501E+04  0.00000000000E+00 0.  1.
         21    1    1    2  503  501 -0.26436109788E+02 -0.28737319712E+02 -0.39286583590E+02  0.55390767237E+02  0.00000000000E+00 0.  1.
         21    1    1    2  504  505 -0.87523037388E+01 -0.29734794097E+02 -0.16675638368E+03  0.16961265371E+03  0.00000000000E+00 0.  1.
         21    1    1    2  505  502  0.13868139144E+03  0.29396377540E+02 -0.89384489590E+02  0.16758956508E+03  0.00000000000E+00 0.  1.
          2    1    1    2  501    0 -0.10349297792E+03  0.29075736269E+02 -0.29103431838E+04  0.29123278734E+04  0.00000000000E+00 0.  1.
<scales pt_clust_3="39.47441" pt_clust_4="30.99614" pt_clust_5="113.36343" pt_clust_6="14000.00000"></scales>
<clustering>
<clus scale="   30.996">  2  4  1 -1</clus>
<clus scale="   39.474">  1  3  2 -1</clus>
<clus scale="  113.363">  1  5  2 -1</clus>
<clus scale="   39.474">  1  3  2 -1</clus>
</clustering>
</event>
<event>
 6    0  0.4081161E+002  0.9422745E+02  0.7546771E-02  0.1292926E+00
          2   -1    0    0  504    0 -0.00000000000E+00  0.00000000000E+00  0.12316374499E+04  0.12316374499E+04  0.00000000000E+00 0.  1.
         21   -1    0    0  505  502  0.00000000000E+00 -0.00000000000E+00 -0.17503149163E+03  0.17503149163E+03  0.00000000000E+00 0.  1.
         21    1    1    2  503  501 -0.65988338401E+02  0.28820686511E+01  0.66286673885E+03  0.66614944315E+03  0.00000000000E+00 0.  1.
         21    1    1    2  504  502  0.61355868613E+02 -0.11009018711E+03 -0.13409744618E+03  0.18402857654E+03  0.00000000000E+00 0.  1.
         21    1    1    2  505  503  0.13284986750E+02  0.46878592281E+02  0.35226579973E+02  0.60124913503E+02  0.00000000000E+00 0.  1.
          2    1    1    2  501    0 -0.86525169626E+01  0.60329526178E+02  0.49261008559E+03  0.49636600831E+03  0.00000000000E+00 0.  1.
<scales pt_clust_3="94.22745" pt_clust_4="14000.00000" pt_clust_5="48.72467" pt_clust_6="61.46149"></scales>
<clustering>
<clus scale="   48.725">  2  5  1 -1</clus>
<clus scale="   61.461">  1  6  2 -1</clus>
<clus scale="   94.227">  1  3  2 -1</clus>
<clus scale="   48.725">  2  3  1 -1</clus>
</clustering>
</event>
<event>
 6    0  0.4081161E+002  0.9764124E+02  0.7546771E-02  0.1285336E+00
         21   -1    0    0  503  502  0.00000000000E+00  0.00000000000E+00  0.13913517310E+04  0.13913517310E+04  0.00000000000E+00 0.  1.
          1   -1    0    0  505    0 -0.00000000000E+00 -0.00000000000E+00 -0.11813768678E+03  0.11813768678E+03  0.00000000000E+00 0. -1.
         21    1    1    2  503  501  0.57272452135E+02  0.34963225596E+02  0.90458261482E+03  0.90706795112E+03  0.00000000000E+00 0.  1.
         21    1    1    2  504  502 -0.87180171691E+02  0.64169598251E+02  0.44457834416E+03  0.45756750734E+03  0.00000000000E+00 0.  1.
         21    1    1    2  505  504  0.28235016353E+02 -0.43050400780E+02 -0.13361565752E+01  0.51500858926E+02  0.00000000000E+00 0.  1.
          1    1    1    2  501    0  0.16727032032E+01 -0.56082423067E+02 -0.74610758198E+02  0.93353100388E+02  0.00000000000E+00 0. -1.
<scales pt_clust_3="67.12734" pt_clust_4="97.64124" pt_clust_5="51.48352" pt_clust_6="14000.00000"></scales>
<clustering>
<clus scale="   51.484">  2  5  1 -1</clus>
<clus scale="   67.127">  1  3  2 -1</clus>
<clus scale="   97.641">  1  4  2 -1</clus>
<clus scale="   67.127">  1  3  2 -1</clus>
</clustering>
</event>
<event>
 6    0  0.4081161E+002  0.1142547E+03  0.7546771E-02  0.1252888E+00
          2   -1    0    0  503    0 -0.00000000000E+00  0.00000000000E+00  0.46765440443E+04  0.46765440443E+04  0.00000000000E+00 0.  1.
         21   -1    0    0  505  502  0.00000000000E+00 -0.00000000000E+00 -0.96668792290E+02  0.96668792290E+02  0.00000000000E+00 0.  1.
         21    1    1    2  503  504 -0.13070336726E+03  0.26353126046E+02  0.15734587673E+02  0.13425883478E+03  0.00000000000E+00 0.  1.
         21    1    1    2  504  502  0.11506228172E+01  0.47909096850E+02  0.11900341913E+03  0.12829037087E+03  0.00000000000E+00 0. -1.
         21    1    1    2  505  501  0.21088384519E+02 -0.39069706631E+02 -0.16651729564E+02  0.47417739669E+02  0.00000000000E+00 0.  1.
          2    1    1    2  501    0  0.10846435993E+03 -0.35192516265E+02  0.44617889747E+04  0.44632458912E+04  0.00000000000E+00 0.  1.
<scales pt_clust_3="114.25472" pt_clust_4="45.18093" pt_clust_5="44.39777" pt_clust_6="14000.00000"></scales>
<clustering>
<clus scale="   44.398">  2  5  1 -1</clus>
<clus scale="   45.181">  2  4  1 -1</clus>
<clus scale="  114.255">  2  3  1 -1</clus>
<clus scale="   44.398">  2  3  1 -1</clus>
</clustering>
</event>
<event>
 6    0  0.4081161E+002  0.1172768E+03  0.7546771E-02  0.1247658E+00
         21   -1    0    0  505  502  0.00000000000E+00  0.00000000000E+00  0.76238850872E+03  0.76238850872E+03  0.00000000000E+00 0.  1.
          1   -1    0    0  504    0 -0.00000000000E+00 -0.00000000000E+00 -0.53994194462E+03  0.53994194462E+03  0.00000000000E+00 0. -1.
         21    1    1    2  503  501  0.85744208919E+02  0.13693825664E+01 -0.36278816256E+02  0.93113356081E+02  0.00000000000E+00 0.  1.
         21    1    1    2  504  502  0.75556928458E+01 -0.60568932768E+02  0.33583335907E+02  0.69667241668E+02  0.00000000000E+00 0.  1.
         21    1    1    2  505  503 -0.11704078461E+03 -0.17343735103E+02  0.67363809299E+03  0.68395002065E+03  0.00000000000E+00 0.  1.
          1    1    1    2  501    0  0.23740882843E+02  0.76543285305E+02 -0.44849604854E+03  0.45559983495E+03  0.00000000000E+00 0. -1.
<scales pt_clust_3="117.27678" pt_clust_4="61.03838" pt_clust_5="14000.00000" pt_clust_6="79.86272"></scales>
<clustering>
<clus scale="   61.038">  1  4  2 -1</clus>
<clus scale="   79.863">  2  6  1 -1</clus>
<clus scale="  117.277">  2  3  1 -1</clus>
<clus scale="   61.038">  1  3  2 -1</clus>
</clustering>
</event>
<event>
 6    0  0.4081161E+002  0.1384257E+03  0.7546771E-02  0.1215463E+00
         21   -1    0    0  504  502  0.00000000000E+00  0.00000000000E+00  0.99936657953E+02  0.99936657953E+02  0.00000000000E+00 0. -1.
          1   -1    0    0  503    0 -0.00000000000E+00 -0.00000000000E+00 -0.38908363731E+04  0.38908363731E+04  0.00000000000E+00 0.  1.
         21    1    1    2  503  502  0.81788824902E+02 -0.70901232487E+02 -0.73893608410E+03  0.74682188843E+03  0.00000000000E+00 0. -1.
         21    1    1    2  504  505  0.41717215159E+02 -0.28738402445E+02  0.69013958043E+02  0.85610444576E+02  0.00000000000E+00 0. -1.
         21    1    1    2  505  501  0.30426302587E+02  0.61183796112E+02 -0.53556410667E+02  0.86818810861E+02  0.00000000000E+00 0. -1.
          1    1    1    2  501    0 -0.15393234265E+03  0.38455838819E+02 -0.30674211784E+04  0.30715218871E+04  0.00000000000E+00 0.  1.
<scales pt_clust_3="14000.00000" pt_clust_4="50.65789" pt_clust_5="73.05452" pt_clust_6="138.42569"></scales>
<clustering>
<clus scale="   50.658">  1  4  2 -1</clus>
<clus scale="   73.055">  1  5  2 -1</clus>
<clus scale="  138.426">  2  6  1 -1</clus>
<clus scale="   50.658">  1  3  2 -1</clus>
</clustering>
</event>
<event>
 6    0  0.4081161E+002  0.1192637E+03  0.7546771E-02  0.1244317E+00
         21   -1    0    0  504  502  0.00000000000E+00  0.00000000000E+00  0.29642717279E+03  0.29642717279E+03  0.00000000000E+00 0.  1.
          3   -1    0    0  505    0 -0.00000000000E+00 -0.00000000000E+00 -0.19891143870E+03  0.19891143870E+03  0.00000000000E+00 0. -1.
         21    1    1    2  503  502 -0.55258526056E+02 -0.51383974348E+02  0.30285301425E+02  0.81308160747E+02  0.00000000000E+00 0.  1.
         21    1    1    2  504  501  0.13200087822E+03 -0.70864786027E+01  0.17608425502E+03  0.22018200402E+03  0.00000000000E+00 0.  1.
         21    1    1    2  505  503  0.71520403488E+01  0.68790621259E+02 -0.77047427671E+02  0.10353553673E+03  0.00000000000E+00 0. -1.
          3    1    1    2  501    0 -0.83894392514E+02 -0.10320168308E+02 -0.31806394678E+02  0.90312909994E+02  0.00000000000E+00 0. -1.
<scales pt_clust_3="64.12205" pt_clust_4="119.26367" pt_clust_5="69.16141" pt_clust_6="14000.00000"></scales>
<clustering>
<clus scale="   69.161">  2  5  1 -1</clus>
<clus scale="   64.122">  2  3  1 -1</clus>
<clus scale="  119.264">  1  4  2 -1</clus>
<clus scale="  119.264">  1  3  2 -1</clus>
</clustering>
</event>
<event>
 6    0  0.4081161E+002  0.7718187E+02  0.7546771E-02  0.1337245E+00
          1   -1    0    0  505    0 -0.00000000000E+00  0.00000000000E+00  0.19280520578E+04  0.19280520578E+04  0.00000000000E+00 0. -1.
         21   -1    0    0  503  502  0.00000000000E+00 -0.00000000000E+00 -0.30736541945E+03  0.30736541945E+03  0.00000000000E+00 0. -1.
         21    1    1    2  503  504 -0.27773909094E+02 -0.56091414675E+02 -0.26181479477E+03  0.26919253999E+03  0.00000000000E+00 0. -1.
         21    1    1    2  504  501  0.10695757454E+03  0.64743500178E+02  0.56269590454E+02  0.13710547173E+03  0.00000000000E+00 0.  1.
         21    1    1    2  505  502 -0.41340498084E+02 -0.25527437312E+02  0.52914785419E+03  0.53137382175E+03  0.00000000000E+00 0. -1.
          1    1    1    2  501    0 -0.37843167365E+02  0.16875351808E+02  0.12970839885E+04  0.12977456438E+04  0.00000000000E+00 0. -1.
<scales pt_clust_3="62.60126" pt_clust_4="77.18187" pt_clust_5="14000.00000" pt_clust_6="41.43528"></scales>
<clustering>
<clus scale="   41.435">  1  6  2 -1</clus>
<clus scale="   62.601">  2  3  1 -1</clus>
<clus scale="   77.182">  2  4  1 -1</clus>
<clus scale="   62.601">  2  3  1 -1</clus>
</clustering>
</event>
<event>
 6    0  0.4081161E+002  0.2073952E+03  0.7546771E-02  0.1143645E+00
         -1   -1    0    0    0  501 -0.00000000000E+00  0.00000000000E+00  0.42331468332E+03  0.42331468332E+03  0.00000000000E+00 0.  1.
         21   -1    0    0  501  502  0.00000000000E+00 -0.00000000000E+00 -0.27291047247E+03  0.27291047247E+03  0.00000000000E+00 0. -1.
         21    1    1    2  503  504 -0.21444581886E+03  0.78786490728E+02  0.52662397264E+02  0.23445180408E+03  0.00000000000E+00 0. -1.
         21    1    1    2  504  502  0.17582849356E+03 -0.94402303994E+02 -0.11538678558E+03  0.23052454193E+03  0.00000000000E+00 0. -1.
         21    1    1    2  505  503  0.39172050702E+02 -0.23875571422E+02  0.78242519043E+02  0.90699417050E+02  0.00000000000E+00 0. -1.
         -1    1    1    2    0  505 -0.55472540078E+00  0.39491384689E+02  0.13488608012E+03  0.14054939272E+03  0.00000000000E+00 0.  1.
<scales pt_clust_3="14000.00000" pt_clust_4="207.39518" pt_clust_5="40.86986" pt_clust_6="39.49528"></scales>
<clustering>
<clus scale="   39.495">  1  6  2 -1</clus>
<clus scale="   40.870">  1  5  2 -1</clus>
<clus scale="  207.395">  2  4  1 -1</clus>
<clus scale="  207.395">  2  3  1 -1</clus>
</clustering>
</event>
<event>
 6    0  0.4081161E+002  0.8038268E+02  0.7546771E-02  0.1327969E+00
          2   -1    0    0  504    0 -0.00000000000E+00  0.00000000000E+00  0.92762308038E+03  0.92762308038E+03  0.00000000000E+00 0.  1.
         21   -1    0    0  503  502  0.00000000000E+00 -0.00000000000E+00 -0.30101729287E+03  0.30101729287E+03  0.00000000000E+00 0.  1.
         21    1    1    2  503  505  0.59068439799E+02 -0.14394514693E+02 -0.24044534270E+03  0.24801259133E+03  0.00000000000E+00 0.  1.
         21    1    1    2  504  502 -0.42900725775E+02 -0.18085680150E+02 -0.31737263800E+02  0.56345523443E+02  0.00000000000E+00 0.  1.
         21    1    1    2  505  501 -0.93585723921E+02  0.21673511960E+02  0.20830555404E+03  0.22938882424E+03  0.00000000000E+00 0. -1.
          2    1    1    2  501    0  0.77418009898E+02  0.10806682884E+02  0.69048283997E+03  0.69489343423E+03  0.00000000000E+00 0.  1.
<scales pt_clust_3="36.49966" pt_clust_4="46.55711" pt_clust_5="14000.00000" pt_clust_6="80.38268"></scales>
<clustering>
<clus scale="   46.557">  2  4  1 -1</clus>
<clus scale="   36.500">  2  3  1 -1</clus>
<clus scale="   80.383">  1  6  2 -1</clus>
<clus scale="   46.557">  2  3  1 -1</clus>
</clustering>
</event>
<event>
 6    0  0.4081161E+002  0.1284661E+03  0.7546771E-02  0.1229750E+00
         21   -1    0    0  503  502  0.00000000000E+00  0.00000000000E+00  0.13183624204E+04  0.13183624204E+04  0.00000000000E+00 0.  1.
         -4   -1    0    0    0  501 -0.00000000000E+00 -0.00000000000E+00 -0.84727979058E+02  0.84727979058E+02  0.00000000000E+00 0.  1.
         21    1    1    2  503  504  0.11634072721E+02  0.55107171486E+02 -0.32949477503E+02  0.65251973648E+02  0.00000000000E+00 0.  1.
         21    1    1    2  504  501  0.50358028494E+02  0.43090667898E+01  0.85936466110E+02  0.99697418713E+02  0.00000000000E+00 0.  1.
         21    1    1    2  505  502 -0.43011608455E+02 -0.13263944921E+03  0.11468415372E+04  0.11552872948E+04  0.00000000000E+00 0.  1.
         -4    1    1    2    0  505 -0.18980492760E+02  0.73223210930E+02  0.33805915518E+02  0.82853712339E+02  0.00000000000E+00 0.  1.
<scales pt_clust_3="72.29785" pt_clust_4="50.54205" pt_clust_5="128.46614" pt_clust_6="14000.00000"></scales>
<clustering>
<clus scale="   50.542">  2  4  1 -1</clus>
<clus scale="   72.298">  2  3  1 -1</clus>
<clus scale="  128.466">  1  5  2 -1</clus>
<clus scale="  128.466">  1  3  2 -1</clus>
</clustering>
</event>
<event>
 6    0  0.4081161E+002  0.1518774E+03  0.7546771E-02  0.1198185E+00
         21   -1    0    0  504  502  0.00000000000E+00  0.00000000000E+00  0.31465509589E+03  0.31465509589E+03  0.00000000000E+00 0. -1.
          1   -1    0    0  502    0 -0.00000000000E+00 -0.00000000000E+00 -0.12873400404E+03  0.12873400404E+03  0.00000000000E+00 0. -1.
         21    1    1    2  503  505  0.73595387175E+02 -0.10422834734E+03  0.10989053572E+03  0.16839168401E+03  0.00000000000E+00 0. -1.
         21    1    1    2  504  503  0.44557311736E+02  0.83054109134E+01  0.10268029745E+03  0.11223892980E+03  0.00000000000E+00 0. -1.
         21    1    1    2  505  501 -0.64252822337E+02  0.29643976797E+02 -0.30922057906E+02  0.77222821780E+02  0.00000000000E+00 0. -1.
          1    1    1    2  501    0 -0.53899876574E+02  0.66278959632E+02  0.42723165860E+01  0.85535664337E+02  0.00000000000E+00 0. -1.
<scales pt_clust_3="142.99615" pt_clust_4="45.32476" pt_clust_5="46.38106" pt_clust_6="46.38106"></scales>
<clustering>
<clus scale="   45.325">  1  4  2 -1</clus>
<clus scale="   46.381">  5  6 -1 -1</clus>
<clus scale="  142.996">  1  3  2 -1</clus>
<clus scale="   45.325">  1  3  2 -1</clus>
</clustering>
</event>
<event>
 6    0  0.4081161E+002  0.7265182E+02  0.7546771E-02  0.1351301E+00
          2   -1    0    0  503    0 -0.00000000000E+00  0.00000000000E+00  0.11920220287E+04  0.11920220287E+04  0.00000000000E+00 0.  1.
         21   -1    0    0  504  502  0.00000000000E+00 -0.00000000000E+00 -0.40714670489E+03  0.40714670489E+03  0.00000000000E+00 0.  1.
         21    1    1    2  503  502  0.15168315858E+02 -0.31029622010E+02  0.81084770962E+02  0.88134302800E+02  0.00000000000E+00 0.  1.
         21    1    1    2  504  505  0.66883863510E+02 -0.27238849313E+02 -0.38932709531E+03  0.39596842456E+03  0.00000000000E+00 0.  1.
         21    1    1    2  505  501 -0.13235544773E+03  0.33939315659E+02  0.47030099359E+03  0.48974775779E+03  0.00000000000E+00 0.  1.
          2    1    1    2  501    0  0.50303268359E+02  0.24329155664E+02  0.62281665454E+03  0.62531824841E+03  0.00000000000E+00 0.  1.
<scales pt_clust_3="34.53861" pt_clust_4="72.65182" pt_clust_5="14000.00000" pt_clust_6="59.24765"></scales>
<clustering>
<clus scale="   34.539">  1  3  2 -1</clus>
<clus scale="   59.248">  1  6  2 -1</clus>
<clus scale="   72.652">  2  4  1 -1</clus>
<clus scale="   72.652">  2  3  1 -1</clus>
</clustering>
</event>
<event>
 6    0  0.4081161E+002  0.7549415E+02  0.7546771E-02  0.1342348E+00
         -1   -1    0    0    0  501 -0.00000000000E+00  0.00000000000E+00  0.24649314166E+04  0.24649314166E+04  0.00000000000E+00 0.  1.
         21   -1    0    0  503  502  0.00000000000E+00 -0.00000000000E+00 -0.11186335701E+03  0.11186335701E+03  0.00000000000E+00 0. -1.
         21    1    1    2  503  505 -0.50965437763E+02  0.33444760424E+01 -0.62829122152E+02  0.80970117677E+02  0.00000000000E+00 0. -1.
         21    1    1    2  504  502  0.10522438998E+03  0.24941175752E+02  0.47925675777E+02  0.11828400100E+03  0.00000000000E+00 0. -1.
         21    1    1    2  505  501 -0.24575994961E+02  0.69217455346E+02  0.17230796955E+04  0.17246445062E+04  0.00000000000E+00 0. -1.
         -1    1    1    2    0  504 -0.29682957255E+02 -0.97503107140E+02  0.64489181042E+03  0.65289614871E+03  0.00000000000E+00 0.  1.
<scales pt_clust_3="51.07506" pt_clust_4="66.49059" pt_clust_5="75.49415" pt_clust_6="14000.00000"></scales>
<clustering>
<clus scale="   51.075">  2  3  1 -1</clus>
<clus scale="   66.491">  2  4  1 -1</clus>
<clus scale="   75.494">  1  5  2 -1</clus>
<clus scale="   51.075">  2  3  1 -1</clus>
</clustering>
</event>
<event>
 6    0  0.4081161E+002  0.7890470E+02  0.7546771E-02  0.1332189E+00
         21   -1    0    0  503  502  0.00000000000E+00  0.00000000000E+00  0.64449959889E+02  0.64449959889E+02  0.00000000000E+00 0. -1.
          2   -1    0    0  504    0 -0.00000000000E+00 -0.00000000000E+00 -0.24711589879E+04  0.24711589879E+04  0.00000000000E+00 0.  1.
         21    1    1    2  503  501  0.74738466575E+02  0.96087797787E+02 -0.11118031896E+03  0.16486287209E+03  0.00000000000E+00 0. -1.
         21    1    1    2  504  505  0.20386101726E+01 -0.34402765069E+02 -0.17069880985E+03  0.17414301554E+03  0.00000000000E+00 0.  1.
         21    1    1    2  505  502 -0.45929192857E+02 -0.24066301338E+02  0.16734640039E+02  0.54486014662E+02  0.00000000000E+00 0.  1.
          2    1    1    2  501    0 -0.30847883891E+02 -0.37618731380E+02 -0.21415645392E+04  0.21421170455E+04  0.00000000000E+00 0.  1.
<scales pt_clust_3="14000.00000" pt_clust_4="34.46311" pt_clust_5="51.96939" pt_clust_6="78.90470"></scales>
<clustering>
<clus scale="   34.463">  2  4  1 -1</clus>
<clus scale="   51.969">  1  5  2 -1</clus>
<clus scale="   78.905">  2  6  1 -1</clus>
<clus scale="   51.969">  1  3  2 -1</clus>
</clustering>
</event>
<event>
 6    0  0.4081161E+002  0.1251327E+03  0.7546771E-02  0.1234862E+00
          2   -1    0    0  504    0 -0.00000000000E+00  0.00000000000E+00  0.20195199004E+04  0.20195199004E+04  0.00000000000E+00 0. -1.
         21   -1    0    0  503  502  0.00000000000E+00 -0.00000000000E+00 -0.86982224544E+03  0.86982224544E+03  0.00000000000E+00 0.  1.
         21    1    1    2  503  505  0.43975121910E+01  0.33566137914E+02 -0.61898784052E+03  0.61991287326E+03  0.00000000000E+00 0.  1.
         21    1    1    2  504  502  0.10275221379E+02  0.11918014331E+03  0.16737876890E+04  0.16780568270E+04  0.00000000000E+00 0. -1.
         21    1    1    2  505  501  0.40225599738E+02  0.64985068131E+02 -0.20381566532E+03  0.21767403011E+03  0.00000000000E+00 0.  1.
          2    1    1    2  501    0 -0.54898333307E+02 -0.21773134935E+03  0.29871347171E+03  0.37369841540E+03  0.00000000000E+00 0. -1.
<scales pt_clust_3="33.85297" pt_clust_4="125.13274" pt_clust_5="103.06807" pt_clust_6="14000.00000"></scales>
<clustering>
<clus scale="   33.853">  2  3  1 -1</clus>
<clus scale="  103.068">  2  5  1 -1</clus>
<clus scale="  125.133">  1  4  2 -1</clus>
<clus scale="   33.853">  2  3  1 -1</clus>
</clustering>
</event>
<event>
 6    0  0.4081161E+002  0.1748586E+03  0.7546771E-02  0.1172874E+00
          2   -1    0    0  502    0 -0.00000000000E+00  0.00000000000E+00  0.10574350055E+03  0.10574350055E+03  0.00000000000E+00 0. -1.
         21   -1    0    0  505  502  0.00000000000E+00 -0.00000000000E+00 -0.14971818352E+04  0.14971818352E+04  0.00000000000E+00 0. -1.
         21    1    1    2  503  504 -0.46217726939E+02 -0.14273116736E+03 -0.84257395022E+03  0.85582657473E+03  0.00000000000E+00 0. -1.
         21    1    1    2  504  501  0.13472780388E+02  0.40355134283E+02 -0.15437090701E+02  0.45258772009E+02  0.00000000000E+00 0.  1.
         21    1    1    2  505  503 -0.49229177288E+02  0.38635337647E+01 -0.56716901990E+03  0.56931461946E+03  0.00000000000E+00 0. -1.
          2    1    1    2  501    0  0.81974123840E+02  0.98512499309E+02  0.33741726144E+02  0.13252536958E+03  0.00000000000E+00 0. -1.
<scales pt_clust_3="166.42634" pt_clust_4="30.90872" pt_clust_5="49.38055" pt_clust_6="30.90872"></scales>
<clustering>
<clus scale="   30.909">  4  6 -1 -1</clus>
<clus scale="   49.381">  2  5  1 -1</clus>
<clus scale="  166.426">  2  3  1 -1</clus>
<clus scale="   49.381">  2  3  1 -1</clus>
</clustering>
</event>
<event>
 6    0  0.4081161E+002  0.7437022E+02  0.7546771E-02  0.1345832E+00
          2   -1    0    0  503    0 -0.00000000000E+00  0.00000000000E+00  0.91163412232E+03  0.91163412232E+03  0.00000000000E+00 0. -1.
         21   -1    0    0  501  502  0.00000000000E+00 -0.00000000000E+00 -0.23056432767E+04  0.23056432767E+04  0.00000000000E+00 0.  1.
         21    1    1    2  503  504 -0.41128697124E+02  0.92489118946E+01  0.34787116718E+01  0.42299096128E+02  0.00000000000E+00 0. -1.
         21    1    1    2  504  505  0.61075387820E+02 -0.86063849869E+02 -0.36793608935E+03  0.38277167489E+03  0.00000000000E+00 0. -1.
         21    1    1    2  505  502 -0.64484243272E+02  0.33053267286E+02 -0.19090850775E+04  0.19104597795E+04  0.00000000000E+00 0.  1.
          2    1    1    2  501    0  0.44537552576E+02  0.43761670688E+02  0.87953330084E+03  0.88174684842E+03  0.00000000000E+00 0. -1.
<scales pt_clust_3="42.15581" pt_clust_4="14000.00000" pt_clust_5="74.37022" pt_clust_6="53.06133"></scales>
<clustering>
<clus scale="   42.156">  1  3  2 -1</clus>
<clus scale="   53.061">  1  6  2 -1</clus>
<clus scale="   74.370">  2  5  1 -1</clus>
<clus scale="   74.370">  2  3  1 -1</clus>
</clustering>
</event>
<event>
 6    0  0.4081161E+002  0.7684626E+02  0.7546771E-02  0.1338247E+00
          1   -1    0    0  504    0 -0.00000000000E+00  0.00000000000E+00  0.77846209944E+03  0.77846209944E+03  0.00000000000E+00 0.  1.
         21   -1    0    0  503  502  0.00000000000E+00 -0.00000000000E+00 -0.11570653446E+03  0.11570653446E+03  0.00000000000E+00 0.  1.
         21    1    1    2  503  505 -0.16299134309E+02 -0.46752123966E+02 -0.29461577717E+02  0.57614298887E+02  0.00000000000E+00 0. -1.
         21    1    1    2  504  502 -0.55439194287E+02  0.10088593812E+01 -0.52117840396E+02  0.76097249280E+02  0.00000000000E+00 0.  1.
         21    1    1    2  505  501  0.73892656062E+02 -0.23863057443E+02  0.26677083789E+03  0.27784213158E+03  0.00000000000E+00 0.  1.
          1    1    1    2  501    0 -0.21543274669E+01  0.69606322028E+02  0.47756414520E+03  0.48261495415E+03  0.00000000000E+00 0.  1.
<scales pt_clust_3="49.51185" pt_clust_4="76.84626" pt_clust_5="14000.00000" pt_clust_6="68.02491"></scales>
<clustering>
<clus scale="   49.512">  2  3  1 -1</clus>
<clus scale="   68.025">  1  6  2 -1</clus>
<clus scale="   76.846">  2  4  1 -1</clus>
<clus scale="   49.512">  2  3  1 -1</clus>
</clustering>
</event>
<event>
 6    0  0.4081161E+002  0.2280363E+03  0.7546771E-02  0.1128030E+00
         21   -1    0    0  501  502  0.00000000000E+00  0.00000000000E+00  0.12012910405E+03  0.12012910405E+03  0.00000000000E+00 0. -1.
          2   -1    0    0  505    0 -0.00000000000E+00 -0.00000000000E+00 -0.13102096775E+04  0.13102096775E+04  0.00000000000E+00 0.  1.
         21    1    1    2  503  502 -0.72167107086E+02 -0.24599870075E+03 -0.12075213262E+03  0.28338053859E+03  0.00000000000E+00 0. -1.
         21    1    1    2  504  503 -0.19851172977E+02  0.19363158880E+03 -0.27659688826E+03  0.33822048998E+03  0.00000000000E+00 0. -1.
         21    1    1    2  505  504  0.36794152814E+01 -0.31662332446E+02 -0.89297220574E+02  0.94815795072E+02  0.00000000000E+00 0. -1.
          2    1    1    2  501    0  0.88338864782E+02  0.84029444393E+02 -0.70343433200E+03  0.71392195791E+03  0.00000000000E+00 0.  1.
<scales pt_clust_3="14000.00000" pt_clust_4="228.03627" pt_clust_5="31.87540" pt_clust_6="111.76369"></scales>
<clustering>
<clus scale="   31.875">  2  5  1 -1</clus>
<clus scale="  111.764">  2  6  1 -1</clus>
<clus scale="  228.036">  2  4  1 -1</clus>
<clus scale="  228.036">  1  3  2 -1</clus>
</clustering>
</event>
<event>
 6    0  0.4081161E+002  0.1583976E+03  0.7546771E-02  0.1190518E+00
         21   -1    0    0  504  502  0.00000000000E+00  0.00000000000E+00  0.48701294484E+02  0.48701294484E+02  0.00000000000E+00 0.  1.
          2   -1    0    0  502    0 -0.00000000000E+00 -0.00000000000E+00 -0.21308909324E+04  0.21308909324E+04  0.00000000000E+00 0. -1.
         21    1    1    2  503  501 -0.56586094664E+02  0.93809562778E+02 -0.85717065176E+03  0.86414335987E+03  0.00000000000E+00 0.  1.
         21    1    1    2  504  505  0.26713101984E+02 -0.68221165205E+02 -0.33640926109E+01  0.73341900157E+02  0.00000000000E+00 0.  1.
         21    1    1    2  505  503  0.53044908219E+02 -0.81056207657E+02 -0.24284369522E+03  0.26145158519E+03  0.00000000000E+00 0. -1.
          2    1    1    2  501    0 -0.23171915539E+02  0.55467810084E+02 -0.97881119831E+03  0.98065538166E+03  0.00000000000E+00 0. -1.
<scales pt_clust_3="45.71058" pt_clust_4="73.26471" pt_clust_5="145.88294" pt_clust_6="45.71058"></scales>
<clustering>
<clus scale="   45.711">  3  6 -1 -1</clus>
<clus scale="   73.265">  1  4  2 -1</clus>
<clus scale="  145.883">  1  5  2 -1</clus>
<clus scale="   73.265">  1  3  2 -1</clus>
</clustering>
</event>
<event>
 6    0  0.4081161E+002  0.8191368E+02  0.7546771E-02  0.1323707E+00
          2   -1    0    0  505    0 -0.00000000000E+00  0.00000000000E+00  0.11650410549E+04  0.11650410549E+04  0.00000000000E+00 0. -1.
         21   -1    0    0  504  502  0.00000000000E+00 -0.00000000000E+00 -0.59907076735E+02  0.59907076735E+02  0.00000000000E+00 0. -1.
         21    1    1    2  503  501 -0.10267798934E+02  0.58174954579E+02  0.41232035059E+03  0.41653070060E+03  0.00000000000E+00 0. -1.
         21    1    1    2  504  503 -0.47579235729E+02  0.21610955083E+02  0.32724212300E+02  0.61657855321E+02  0.00000000000E+00 0. -1.
         21    1    1    2  505  502  0.87023560245E+02 -0.96850360557E+02  0.56017744957E+02  0.14174300733E+03  0.00000000000E+00 0. -1.
          2    1    1    2  501    0 -0.29176525582E+02  0.17064450894E+02  0.60407167032E+03  0.60501656838E+03  0.00000000000E+00 0. -1.
<scales pt_clust_3="14000.00000" pt_clust_4="55.08877" pt_clust_5="81.91368" pt_clust_6="33.80037"></scales>
<clustering>
<clus scale="   33.800">  1  6  2 -1</clus>
<clus scale="   55.089">  2  4  1 -1</clus>
<clus scale="   81.914">  2  5  1 -1</clus>
<clus scale="   55.089">  2  3  1 -1</clus>
</clustering>
</event>
<event>
 6    0  0.4081161E+002  0.1668296E+03  0.7546771E-02  0.1181195E+00
         21   -1    0    0  505  502  0.00000000000E+00  0.00000000000E+00  0.14225326334E+04  0.14225326334E+04  0.00000000000E+00 0. -1.
          2   -1    0    0  503    0 -0.00000000000E+00 -0.00000000000E+00 -0.21179133459E+04  0.21179133459E+04  0.00000000000E+00 0.  1.
         21    1    1    2  503  502 -0.14871931256E+02  0.30295483221E+02 -0.14809529265E+03  0.15189208784E+03  0.00000000000E+00 0.  1.
         21    1    1    2  504  501  0.40868881003E+01  0.19945405044E+03  0.50178943402E+03  0.53999190455E+03  0.00000000000E+00 0. -1.
         21    1    1    2  505  504  0.33258997705E+02 -0.15294711393E+03  0.89210574614E+03  0.90573265530E+03  0.00000000000E+00 0. -1.
          2    1    1    2  501    0 -0.22473954549E+02 -0.76802419727E+02 -0.19411805999E+04  0.19428293316E+04  0.00000000000E+00 0.  1.
<scales pt_clust_3="33.74894" pt_clust_4="166.82956" pt_clust_5="14000.00000" pt_clust_6="59.83551"></scales>
<clustering>
<clus scale="   33.749">  2  3  1 -1</clus>
<clus scale="   59.836">  2  6  1 -1</clus>
<clus scale="  166.830">  2  4  1 -1</clus>
<clus scale="  166.830">  1  3  2 -1</clus>
</clustering>
</event>
<event>
 6    0  0.4081161E+002  0.1076614E+03  0.7546771E-02  0.1264963E+00
          2   -1    0    0  504    0 -0.00000000000E+00  0.00000000000E+00  0.14549463117E+04  0.14549463117E+04  0.00000000000E+00 0. -1.
         21   -1    0    0  503  502  0.00000000000E+00 -0.00000000000E+00 -0.67377801019E+02  0.67377801019E+02  0.00000000000E+00 0.  1.
         21    1    1    2  503  505  0.30355589794E+02  0.95711837235E+02  0.55637481431E+01  0.10056427254E+03  0.00000000000E+00 0.  1.
         21    1    1    2  504  502 -0.40537046017E+02  0.50977590738E+02  0.36486396417E+03  0.37063146009E+03  0.00000000000E+00 0. -1.
         21    1    1    2  505  501 -0.18655699602E+02 -0.17219318064E+03  0.44234524322E+03  0.47504509342E+03  0.00000000000E+00 0.  1.
          2    1    1    2  501    0  0.28837155825E+02  0.25503752669E+02  0.57479555517E+03  0.57608328668E+03  0.00000000000E+00 0. -1.
<scales pt_clust_3="107.66139" pt_clust_4="67.90247" pt_clust_5="14000.00000" pt_clust_6="38.49705"></scales>
<clustering>
<clus scale="   38.497">  1  6  2 -1</clus>
<clus scale="   67.902">  1  4  2 -1</clus>
<clus scale="  107.661">  2  3  1 -1</clus>
<clus scale="  107.661">  2  3  1 -1</clus>
</clustering>
</event>
<event>
 6    0  0.4081161E+002  0.1323507E+03  0.7546771E-02  0.1224009E+00
         -1   -1    0    0    0  501 -0.00000000000E+00  0.00000000000E+00  0.16737055204E+04  0.16737055204E+04  0.00000000000E+00 0.  1.
         21   -1    0    0  504  502  0.00000000000E+00 -0.00000000000E+00 -0.37835188131E+02  0.37835188131E+02  0.00000000000E+00 0.  1.
         21    1    1    2  503  502 -0.22309517561E+02  0.33564957956E+02  0.44716152077E+02  0.60198465371E+02  0.00000000000E+00 0.  1.
         21    1    1    2  504  501  0.34001676110E+02 -0.54647609702E+02  0.44093611604E+03  0.44560872259E+03  0.00000000000E+00 0. -1.
         21    1    1    2  505  503 -0.95028708907E+02  0.43043788397E+01  0.60566313121E+02  0.11277083612E+03  0.00000000000E+00 0.  1.
         -1    1    1    2    0  505  0.83336550358E+02  0.16778272906E+02  0.10896517510E+04  0.10929626844E+04  0.00000000000E+00 0.  1.
<scales pt_clust_3="39.22556" pt_clust_4="64.36206" pt_clust_5="39.22556" pt_clust_6="117.83497"></scales>
<clustering>
<clus scale="   39.226">  3  5 -1 -1</clus>
<clus scale="   64.362">  1  4  2 -1</clus>
<clus scale="  117.835">  1  6  2 -1</clus>
<clus scale="  132.351">  2  3  1 -1</clus>
</clustering>
</event>
<event>
 6    0  0.4081161E+002  0.8441020E+02  0.7546771E-02  0.1316982E+00
         21   -1    0    0  504  502  0.00000000000E+00  0.00000000000E+00  0.11422626594E+03  0.11422626594E+03  0.00000000000E+00 0.  1.
          2   -1    0    0  505    0 -0.00000000000E+00 -0.00000000000E+00 -0.34002693413E+04  0.34002693413E+04  0.00000000000E+00 0.  1.
         21    1    1    2  503  501  0.31963452070E+02 -0.47994219305E+02 -0.81168368217E+03  0.81372938208E+03  0.00000000000E+00 0.  1.
         21    1    1    2  504  503 -0.10961615436E+03  0.76380089302E+02 -0.30032909596E+03  0.32870531669E+03  0.00000000000E+00 0.  1.
         21    1    1    2  505  502  0.49189699127E+02 -0.65708690850E+02  0.81718466854E+02  0.11582385928E+03  0.00000000000E+00 0.  1.
          2    1    1    2  501    0  0.28463003164E+02  0.37322820853E+02 -0.22557487640E+04  0.22562370492E+04  0.00000000000E+00 0.  1.
<scales pt_clust_3="56.42956" pt_clust_4="14000.00000" pt_clust_5="84.41020" pt_clust_6="46.93757"></scales>
<clustering>
<clus scale="   46.938">  2  6  1 -1</clus>
<clus scale="   56.430">  2  3  1 -1</clus>
<clus scale="   84.410">  1  5  2 -1</clus>
<clus scale="   84.410">  1  3  2 -1</clus>
</clustering>
</event>
<event>
 6    0  0.4081161E+002  0.1389432E+03  0.7546771E-02  0.1214758E+00
         21   -1    0    0  505  502  0.00000000000E+00  0.00000000000E+00  0.37762990577E+03  0.37762990577E+03  0.00000000000E+00 0.  1.
         -4   -1    0    0    0  501 -0.00000000000E+00 -0.00000000000E+00 -0.66818207501E+03  0.66818207501E+03  0.00000000000E+00 0.  1.
         21    1    1    2  503  502 -0.24902614643E+02  0.10572331453E+03  0.20364417136E+03  0.23079971399E+03  0.00000000000E+00 0.  1.
         21    1    1    2  504  501 -0.82618561992E+02  0.58440312548E+02 -0.70278884789E+02  0.12320802962E+03  0.00000000000E+00 0.  1.
         21    1    1    2  505  504  0.35037760371E+02 -0.22424400692E+02  0.11898219165E+03  0.12604467592E+03  0.00000000000E+00 0.  1.
         -4    1    1    2    0  503  0.72483416264E+02 -0.14173922638E+03 -0.54289964746E+03  0.56575956125E+03  0.00000000000E+00 0.  1.
<scales pt_clust_3="86.77000" pt_clust_4="138.94321" pt_clust_5="41.59926" pt_clust_6="14000.00000"></scales>
<clustering>
<clus scale="   41.599">  1  5  2 -1</clus>
<clus scale="   86.770">  1  3  2 -1</clus>
<clus scale="  138.943">  1  4  2 -1</clus>
<clus scale="   41.599">  1  3  2 -1</clus>
</clustering>
</event>
<event>
 6    0  0.4081161E+002  0.1586635E+03  0.7546771E-02  0.1190214E+00
          2   -1    0    0  505    0 -0.00000000000E+00  0.00000000000E+00  0.22259531099E+04  0.22259531099E+04  0.00000000000E+00 0.  1.
         21   -1    0    0  504  502  0.00000000000E+00 -0.00000000000E+00 -0.72632121810E+02  0.72632121810E+02  0.00000000000E+00 0.  1.
         21    1    1    2  503  502 -0.58479895674E+01  0.55721547084E+02  0.19837708030E+03  0.20613722560E+03  0.00000000000E+00 0. -1.
         21    1    1    2  504  501 -0.53204413115E+02 -0.15186365189E+03  0.38006540667E+02  0.16534139068E+03  0.00000000000E+00 0.  1.
         21    1    1    2  505  503  0.35074473621E+02 -0.21717283838E+02  0.13616166149E+03  0.14227388086E+03  0.00000000000E+00 0.  1.
          2    1    1    2  501    0  0.23977929062E+02  0.11785938864E+03  0.17807757056E+04  0.17848327346E+04  0.00000000000E+00 0.  1.
<scales pt_clust_3="53.67247" pt_clust_4="14000.00000" pt_clust_5="41.25360" pt_clust_6="158.66350"></scales>
<clustering>
<clus scale="   41.254">  1  5  2 -1</clus>
<clus scale="   53.672">  1  3  2 -1</clus>
<clus scale="  158.664">  1  6  2 -1</clus>
<clus scale="  158.664">  2  3  1 -1</clus>
</clustering>
</event>
<event>
 6    0  0.4081161E+002  0.1035933E+03  0.7546771E-02  0.1272916E+00
         -4   -1    0    0    0  501 -0.00000000000E+00  0.00000000000E+00  0.42802467031E+03  0.42802467031E+03  0.00000000000E+00 0. -1.
         21   -1    0    0  503  502  0.00000000000E+00 -0.00000000000E+00 -0.18429132562E+03  0.18429132562E+03  0.00000000000E+00 0. -1.
         21    1    1    2  503  501 -0.10969540544E+03 -0.21821030761E+01  0.31944784910E+03  0.33776437326E+03  0.00000000000E+00 0. -1.
         21    1    1    2  504  505  0.41431828425E+02 -0.22319937212E+02 -0.24814878450E+02  0.53202952890E+02  0.00000000000E+00 0. -1.
         21    1    1    2  505  502 -0.12026483431E+02 -0.29781897962E+02 -0.10538074799E+03  0.11016669096E+03  0.00000000000E+00 0. -1.
         -4    1    1    2    0  504  0.80290060446E+02  0.54283938250E+02  0.54481122027E+02  0.11118197883E+03  0.00000000000E+00 0. -1.
<scales pt_clust_3="103.59334" pt_clust_4="51.50342" pt_clust_5="32.11850" pt_clust_6="14000.00000"></scales>
<clustering>
<clus scale="   32.118">  2  5  1 -1</clus>
<clus scale="   51.503">  2  4  1 -1</clus>
<clus scale="  103.593">  1  3  2 -1</clus>
<clus scale="   32.118">  2  3  1 -1</clus>
</clustering>
</event>
<event>
 6    0  0.4081161E+002  0.1119723E+03  0.7546771E-02  0.1256961E+00
         21   -1    0    0  503  502  0.00000000000E+00  0.00000000000E+00  0.42112960282E+03  0.42112960282E+03  0.00000000000E+00 0.  1.
         -4   -1    0    0    0  501 -0.00000000000E+00 -0.00000000000E+00 -0.23122549810E+03  0.23122549810E+03  0.00000000000E+00 0.  1.
         21    1    1    2  503  504  0.23155042054E+02  0.32262323733E+02  0.27722870305E+03  0.28005850692E+03  0.00000000000E+00 0.  1.
         21    1    1    2  504  501  0.88294716546E+02 -0.11579436005E+03 -0.63511790870E+02  0.15886484309E+03  0.00000000000E+00 0.  1.
         21    1    1    2  505  502 -0.10068729045E+03 -0.13409248302E+02  0.24641319165E+02  0.10452240433E+03  0.00000000000E+00 0.  1.
         -4    1    1    2    0  505 -0.10762468153E+02  0.96941284622E+02 -0.48454126617E+02  0.10890934657E+03  0.00000000000E+00 0.  1.
<scales pt_clust_3="39.71163" pt_clust_4="14000.00000" pt_clust_5="90.20042" pt_clust_6="111.97227"></scales>
<clustering>
<clus scale="   39.712">  1  3  2 -1</clus>
<clus scale="   90.200">  1  5  2 -1</clus>
<clus scale="  111.972">  2  6  1 -1</clus>
<clus scale="   39.712">  1  3  2 -1</clus>
</clustering>
</event>
<event>
 6    0  0.4081161E+002  0.1018311E+03  0.7546771E-02  0.1276492E+00
         21   -1    0    0  505  502  0.00000000000E+00  0.00000000000E+00  0.24416516963E+03  0.24416516963E+03  0.00000000000E+00 0. -1.
          2   -1    0    0  502    0 -0.00000000000E+00 -0.00000000000E+00 -0.11136904516E+04  0.11136904516E+04  0.00000000000E+00 0. -1.
         21    1    1    2  503  504 -0.78921171921E+02 -0.63389400411E+02  0.50926013301E+02  0.11331472231E+03  0.00000000000E+00 0.  1.
         21    1    1    2  504  501 -0.15530965172E+02 -0.37454340968E+02 -0.99166246028E+01  0.41741801351E+02  0.00000000000E+00 0.  1.
         21    1    1    2  505  503  0.45022407950E+02  0.33713534762E+02  0.13900521416E+03  0.14995355684E+03  0.00000000000E+00 0. -1.
          2    1    1    2  501    0  0.49429729143E+02  0.67130206617E+02 -0.10495398849E+04  0.10528455407E+04  0.00000000000E+00 0. -1.
<scales pt_clust_3="36.19187" pt_clust_4="36.19187" pt_clust_5="56.24606" pt_clust_6="84.25841"></scales>
<clustering>
<clus scale="   36.192">  3  4 -1 -1</clus>
<clus scale="   56.246">  1  5  2 -1</clus>
<clus scale="   84.258">  2  6  1 -1</clus>
<clus scale="   56.246">  1  3  2 -1</clus>
</clustering>
</event>
<event>
 6    0  0.4081161E+002  0.1162361E+03  0.7546771E-02  0.1249439E+00
         21   -1    0    0  504  502  0.00000000000E+00  0.00000000000E+00  0.24291821201E+03  0.24291821201E+03  0.00000000000E+00 0.  1.
          2   -1    0    0  503    0 -0.00000000000E+00 -0.00000000000E+00 -0.13162339118E+04  0.13162339118E+04  0.00000000000E+00 0. -1.
         21    1    1    2  503  505 -0.91746721616E+01  0.35396902387E+02 -0.66444238903E+02  0.75841625717E+02  0.00000000000E+00 0.  1.
         21    1    1    2  504  501 -0.10827382950E+03  0.42924010320E+02  0.17671252766E+03  0.21164359250E+03  0.00000000000E+00 0.  1.
         21    1    1    2  505  502  0.13838456505E+03  0.51709459314E+02 -0.96100259322E+02  0.17623681757E+03  0.00000000000E+00 0. -1.
          2    1    1    2  501    0 -0.20936063392E+02 -0.13003037202E+03 -0.10874837292E+04  0.10954300880E+04  0.00000000000E+00 0. -1.
<scales pt_clust_3="36.56659" pt_clust_4="116.23613" pt_clust_5="14000.00000" pt_clust_6="103.15518"></scales>
<clustering>
<clus scale="   36.567">  2  3  1 -1</clus>
<clus scale="  103.155">  2  6  1 -1</clus>
<clus scale="  116.236">  1  4  2 -1</clus>
<clus scale="  116.236">  1  3  2 -1</clus>
</clustering>
</event>
<event>
 6    0  0.4081161E+002  0.8529535E+02  0.7546771E-02  0.1314662E+00
         21   -1    0    0  505  502  0.00000000000E+00  0.00000000000E+00  0.86250711366E+03  0.86250711366E+03  0.00000000000E+00 0. -1.
          4   -1    0    0  503    0 -0.00000000000E+00 -0.00000000000E+00 -0.23574110087E+03  0.23574110087E+03  0.00000000000E+00 0. -1.
         21    1    1    2  503  504 -0.21762511387E+02 -0.33927314345E+02 -0.11084730734E+02  0.41803598123E+02  0.00000000000E+00 0. -1.
         21    1    1    2  504  502  0.96481711513E+02 -0.63135642228E+02  0.58454791604E+03  0.59581129237E+03  0.00000000000E+00 0. -1.
         21    1    1    2  505  501 -0.19247039878E+02  0.29466052937E+02  0.24627285869E+03  0.24877503441E+03  0.00000000000E+00 0. -1.
          4    1    1    2  501    0 -0.55472160249E+02  0.67596903637E+02 -0.19297003120E+03  0.21185828963E+03  0.00000000000E+00 0. -1.
<scales pt_clust_3="39.95534" pt_clust_4="85.29535" pt_clust_5="35.19512" pt_clust_6="14000.00000"></scales>
<clustering>
<clus scale="   35.195">  1  5  2 -1</clus>
<clus scale="   39.955">  2  3  1 -1</clus>
<clus scale="   85.295">  1  4  2 -1</clus>
<clus scale="   35.195">  1  3  2 -1</clus>
</clustering>
</event>
<event>
 6    0  0.4081161E+002  0.1505343E+03  0.7546771E-02  0.1199818E+00
          2   -1    0    0  504    0 -0.00000000000E+00  0.00000000000E+00  0.15050102847E+04  0.15050102847E+04  0.00000000000E+00 0.  1.
         21   -1    0    0  501  502  0.00000000000E+00 -0.00000000000E+00 -0.32342616542E+03  0.32342616542E+03  0.00000000000E+00 0.  1.
         21    1    1    2  503  502 -0.91568931126E+02 -0.11940438087E+03 -0.28941498525E+03  0.32619520077E+03  0.00000000000E+00 0.  1.
         21    1    1    2  504  505 -0.20778021059E+01  0.39207695020E+02  0.48194070489E+02  0.62162923360E+02  0.00000000000E+00 0.  1.
         21    1    1    2  505  503  0.73687472864E+00 -0.43732940342E+02  0.11337872963E+03  0.12152304056E+03  0.00000000000E+00 0.  1.
          2    1    1    2  501    0  0.92909858504E+02  0.12392962619E+03  0.13094263044E+04  0.13185552854E+04  0.00000000000E+00 0.  1.
<scales pt_clust_3="150.53433" pt_clust_4="39.26271" pt_clust_5="40.56071" pt_clust_6="14000.00000"></scales>
<clustering>
<clus scale="   39.263">  1  4  2 -1</clus>
<clus scale="   40.561">  1  5  2 -1</clus>
<clus scale="  150.534">  2  3  1 -1</clus>
<clus scale="  150.534">  2  3  1 -1</clus>
</clustering>
</event>
<event>
 6    0  0.4081161E+002  0.8452886E+02  0.7546771E-02  0.1316669E+00
          1   -1    0    0  504    0 -0.00000000000E+00  0.00000000000E+00  0.13066128368E+04  0.13066128368E+04  0.00000000000E+00 0. -1.
         21   -1    0    0  503  502  0.00000000000E+00 -0.00000000000E+00 -0.14087248430E+03  0.14087248430E+03  0.00000000000E+00 0.  1.
         21    1    1    2  503  505 -0.19484679292E+02  0.44095299419E+02 -0.11243694370E+03  0.12233607181E+03  0.00000000000E+00 0.  1.
         21    1    1    2  504  502  0.39644586407E+02 -0.45763872969E+02  0.15889008854E+03  0.17003554199E+03  0.00000000000E+00 0.  1.
         21    1    1    2  505  501 -0.84929264662E+02 -0.50370384187E+02  0.13463989128E+03  0.16696723009E+03  0.00000000000E+00 0. -1.
          1    1    1    2  501    0  0.64769357548E+02  0.52038957737E+02  0.98464731640E+03  0.98814647724E+03  0.00000000000E+00 0. -1.
<scales pt_clust_3="48.20838" pt_clust_4="49.72575" pt_clust_5="14000.00000" pt_clust_6="84.52886"></scales>
<clustering>
<clus scale="   48.208">  2  3  1 -1</clus>
<clus scale="   49.726">  2  4  1 -1</clus>
<clus scale="   84.529">  1  6  2 -1</clus>
<clus scale="   48.208">  2  3  1 -1</clus>
</clustering>
</event>
<event>
 6    0  0.4081161E+002  0.1761922E+03  0.7546771E-02  0.1171540E+00
          2   -1    0    0  504    0 -0.00000000000E+00  0.00000000000E+00  0.58039113236E+03  0.58039113236E+03  0.00000000000E+00 0.  1.
         21   -1    0    0  503  502  0.00000000000E+00 -0.00000000000E+00 -0.69675050608E+03  0.69675050608E+03  0.00000000000E+00 0. -1.
         21    1    1    2  503  501 -0.16926472503E+03 -0.53215606661E+02  0.17166373940E+03  0.24688233504E+03  0.00000000000E+00 0. -1.
         21    1    1    2  504  505  0.45160864868E+01  0.53488431230E+02 -0.32711346003E+01  0.53778319369E+02  0.00000000000E+00 0. -1.
         21    1    1    2  505  502  0.72457089201E+01 -0.61202028399E+02 -0.60835172170E+03  0.61146545763E+03  0.00000000000E+00 0. -1.
          2    1    1    2  501    0  0.15750292962E+03  0.60929203830E+02  0.32359974319E+03  0.36501552639E+03  0.00000000000E+00 0.  1.
<scales pt_clust_3="14000.00000" pt_clust_4="53.67874" pt_clust_5="61.48198" pt_clust_6="176.19221"></scales>
<clustering>
<clus scale="   53.679">  1  4  2 -1</clus>
<clus scale="   61.482">  2  5  1 -1</clus>
<clus scale="  176.192">  1  6  2 -1</clus>
<clus scale="   61.482">  2  3  1 -1</clus>
</clustering>
</event>
<event>
 6    0  0.4081161E+002  0.9520361E+02  0.7546771E-02  0.1290718E+00
         21   -1    0    0  503  502  0.00000000000E+00  0.00000000000E+00  0.72347350690E+03  0.72347350690E+03  0.00000000000E+00 0.  1.
          2   -1    0    0  505    0 -0.00000000000E+00 -0.00000000000E+00 -0.88778715848E+02  0.88778715848E+02  0.00000000000E+00 0.  1.
         21    1    1    2  503  504  0.21083649166E+02 -0.22671480267E+02  0.56475799036E+03  0.56560596174E+03  0.00000000000E+00 0.  1.
         21    1    1    2  504  501 -0.35658088679E+02 -0.50447687139E+01  0.27431798061E+02  0.45270879431E+02  0.00000000000E+00 0. -1.
         21    1    1    2  505  502  0.37224982612E+02 -0.78791024393E+02  0.98600580229E+01  0.87698036463E+02  0.00000000000E+00 0.  1.
          2    1    1    2  501    0 -0.22650543099E+02  0.10650727337E+03  0.32644944610E+02  0.11367734512E+03  0.00000000000E+00 0.  1.
<scales pt_clust_3="30.95991" pt_clust_4="32.47661" pt_clust_5="95.20361" pt_clust_6="14000.00000"></scales>
<clustering>
<clus scale="   30.960">  1  3  2 -1</clus>
<clus scale="   32.477">  1  4  2 -1</clus>
<clus scale="   95.204">  2  5  1 -1</clus>
<clus scale="   30.960">  1  3  2 -1</clus>
</clustering>
</event>
<event>
 6    0  0.4081161E+002  0.1664119E+03  0.7546771E-02  0.1181642E+00
          2   -1    0    0  503    0 -0.00000000000E+00  0.00000000000E+00  0.83005878268E+03  0.83005878268E+03  0.00000000000E+00 0. -1.
         21   -1    0    0  505  502  0.00000000000E+00 -0.00000000000E+00 -0.33125915202E+03  0.33125915202E+03  0.00000000000E+00 0. -1.
         21    1    1    2  503  502 -0.24433654102E+02  0.17631948519E+02  0.27610829813E+02  0.40868655279E+02  0.00000000000E+00 0.  1.
         21    1    1    2  504  501 -0.72073129504E+02  0.45353168342E+02 -0.90354827224E+02  0.12415893314E+03  0.00000000000E+00 0. -1.
         21    1    1    2  505  504 -0.58230790480E+02  0.26304370198E+02 -0.20213498293E+03  0.21199362296E+03  0.00000000000E+00 0. -1.
          2    1    1    2  501    0  0.15473757409E+03 -0.89289487058E+02  0.76367861100E+03  0.78429672333E+03  0.00000000000E+00 0. -1.
<scales pt_clust_3="30.13120" pt_clust_4="63.12048" pt_clust_5="63.12048" pt_clust_6="149.52792"></scales>
<clustering>
<clus scale="   30.131">  1  3  2 -1</clus>
<clus scale="   63.120">  4  5 -1 -1</clus>
<clus scale="  149.528">  1  6  2 -1</clus>
<clus scale="  166.412">  2  3  1 -1</clus>
</clustering>
</event>
<event>
 6    0  0.4081161E+002  0.7465635E+02  0.7546771E-02  0.1344939E+00
         21   -1    0    0  504  502  0.00000000000E+00  0.00000000000E+00  0.10881584019E+03  0.10881584019E+03  0.00000000000E+00 0.  1.
         -1   -1    0    0    0  501 -0.00000000000E+00 -0.00000000000E+00 -0.36518168335E+03  0.36518168335E+03  0.00000000000E+00 0. -1.
         21    1    1    2  503  502 -0.24078841550E+02  0.32991479817E+02 -0.14798954869E+02  0.43442345887E+02  0.00000000000E+00 0.  1.
         21    1    1    2  504  505  0.90725009904E+02 -0.68441630038E+02  0.45248828576E+02  0.12232228183E+03  0.00000000000E+00 0.  1.
         21    1    1    2  505  501 -0.43419009427E+02 -0.20548277562E+02 -0.86482640050E+02  0.98927696427E+02  0.00000000000E+00 0. -1.
         -1    1    1    2    0  503 -0.23227158927E+02  0.55998427782E+02 -0.20033307682E+03  0.20930519940E+03  0.00000000000E+00 0. -1.
<scales pt_clust_3="40.84395" pt_clust_4="74.65635" pt_clust_5="48.61157" pt_clust_6="14000.00000"></scales>
<clustering>
<clus scale="   40.844">  1  3  2 -1</clus>
<clus scale="   48.612">  2  5  1 -1</clus>
<clus scale="   74.656">  1  4  2 -1</clus>
<clus scale="   40.844">  1  3  2 -1</clus>
</clustering>
</event>
<event>
 6    0  0.4081161E+002  0.1577661E+03  0.7546771E-02  0.1191242E+00
         21   -1    0    0  505  502  0.00000000000E+00  0.00000000000E+00  0.56365214446E+03  0.56365214446E+03  0.00000000000E+00 0.  1.
          2   -1    0    0  503    0 -0.00000000000E+00 -0.00000000000E+00 -0.27169186784E+04  0.27169186784E+04  0.00000000000E+00 0. -1.
         21    1    1    2  503  502  0.22287347940E+02 -0.38344929804E+02 -0.12561044978E+04  0.12568872538E+04  0.00000000000E+00 0. -1.
         21    1    1    2  504  501 -0.17676827635E+03 -0.79068769165E+02 -0.97588818992E+02  0.21684665405E+03  0.00000000000E+00 0.  1.
         21    1    1    2  505  504  0.13570850378E+03  0.75068318379E+02  0.49126729450E+03  0.51516560935E+03  0.00000000000E+00 0.  1.
          2    1    1    2  501    0  0.18772424638E+02  0.42345380590E+02 -0.12908405117E+04  0.12916713056E+04  0.00000000000E+00 0. -1.
<scales pt_clust_3="44.35154" pt_clust_4="157.76612" pt_clust_5="14000.00000" pt_clust_6="39.39335"></scales>
<clustering>
<clus scale="   44.352">  2  3  1 -1</clus>
<clus scale="   39.393">  2  6  1 -1</clus>
<clus scale="  157.766">  2  4  1 -1</clus>
<clus scale="  157.766">  1  3  2 -1</clus>
</clustering>
</event>
<event>
 6    0  0.4081161E+002  0.1928495E+03  0.7546771E-02  0.1155916E+00
         21   -1    0    0  501  502  0.00000000000E+00  0.00000000000E+00  0.40737831035E+03  0.40737831035E+03  0.00000000000E+00 0. -1.
          1   -1    0    0  505    0 -0.00000000000E+00 -0.00000000000E+00 -0.45767952715E+04  0.45767952715E+04  0.00000000000E+00 0.  1.
         21    1    1    2  503  504  0.14999101168E+03 -0.11297147129E+03 -0.29675205623E+03  0.35117180950E+03  0.00000000000E+00 0. -1.
         21    1    1    2  504  502 -0.53576500968E+02  0.18859207288E+03  0.35171330899E+03  0.40266569648E+03  0.00000000000E+00 0. -1.
         21    1    1    2  505  503  0.33007262139E+02  0.11055444845E+02 -0.20452183138E+03  0.20746296470E+03  0.00000000000E+00 0. -1.
          1    1    1    2  501    0 -0.12942177285E+03 -0.86676046429E+02 -0.40198563825E+04  0.40228731111E+04  0.00000000000E+00 0.  1.
<scales pt_clust_3="14000.00000" pt_clust_4="192.84948" pt_clust_5="34.80951" pt_clust_6="125.15792"></scales>
<clustering>
<clus scale="   34.810">  2  5  1 -1</clus>
<clus scale="  125.158">  2  6  1 -1</clus>
<clus scale="  192.849">  1  4  2 -1</clus>
<clus scale="  192.849">  1  3  2 -1</clus>
</clustering>
</event>
<event>
 6    0  0.4081161E+002  0.1117585E+03  0.7546771E-02  0.1257348E+00
         21   -1    0    0  501  502  0.00000000000E+00  0.00000000000E+00  0.12100399536E+03  0.12100399536E+03  0.00000000000E+00 0. -1.
          2   -1    0    0  505    0 -0.00000000000E+00 -0.00000000000E+00 -0.61838177763E+03  0.61838177763E+03  0.00000000000E+00 0.  1.
         21    1    1    2  503  502 -0.10099838919E+03  0.49474246534E+02  0.69761971426E+02  0.13234465741E+03  0.00000000000E+00 0. -1.
         21    1    1    2  504  503  0.32545262523E+01  0.40515458287E+02 -0.37816925208E+02  0.55517692077E+02  0.00000000000E+00 0.  1.
         21    1    1    2  505  504  0.31893642475E+02  0.30698256685E+01 -0.54627115435E+02  0.63330482398E+02  0.00000000000E+00 0.  1.
          2    1    1    2  501    0  0.65850220463E+02 -0.93059530490E+02 -0.47469571305E+03  0.48819294110E+03  0.00000000000E+00 0.  1.
<scales pt_clust_3="14000.00000" pt_clust_4="41.19841" pt_clust_5="32.04104" pt_clust_6="111.75849"></scales>
<clustering>
<clus scale="   32.041">  2  5  1 -1</clus>
<clus scale="   41.198">  2  4  1 -1</clus>
<clus scale="  111.758">  2  6  1 -1</clus>
<clus scale="  111.758">  1  3  2 -1</clus>
</clustering>
</event>
<event>
 6    0  0.4081161E+002  0.1240935E+03  0.7546771E-02  0.1236493E+00
         21   -1    0    0  505  502  0.00000000000E+00  0.00000000000E+00  0.56612706218E+02  0.56612706218E+02  0.00000000000E+00 0.  1.
         -1   -1    0    0    0  501 -0.00000000000E+00 -0.00000000000E+00 -0.93564992585E+03  0.93564992585E+03  0.00000000000E+00 0.  1.
         21    1    1    2  503  501 -0.27918403934E+02  0.16555838093E+02 -0.29003011521E+03  0.29184071132E+03  0.00000000000E+00 0.  1.
         21    1    1    2  504  502 -0.93473706906E+02  0.30699761209E+02 -0.12645187200E+03  0.16021824226E+03  0.00000000000E+00 0.  1.
         21    1    1    2  505  503  0.16208800293E+03  0.67323133504E+01 -0.15178127772E+03  0.22216075487E+03  0.00000000000E+00 0.  1.
         -1    1    1    2    0  504 -0.40695892090E+02 -0.53987912653E+02 -0.31077395469E+03  0.31804292361E+03  0.00000000000E+00 0.  1.
<scales pt_clust_3="32.45817" pt_clust_4="124.09353" pt_clust_5="14000.00000" pt_clust_6="71.11806"></scales>
<clustering>
<clus scale="   32.458">  2  3  1 -1</clus>
<clus scale="   71.118">  2  6  1 -1</clus>
<clus scale="  124.094">  1  4  2 -1</clus>
<clus scale="  124.094">  1  3  2 -1</clus>
</clustering>
</event>
<event>
 6    0  0.4081161E+002  0.3728809E+03  0.7546771E-02  0.1053597E+00
         21   -1    0    0  505  502  0.00000000000E+00  0.00000000000E+00  0.45125872522E+03  0.45125872522E+03  0.00000000000E+00 0. -1.
          2   -1    0    0  503    0 -0.00000000000E+00 -0.00000000000E+00 -0.52017452724E+03  0.52017452724E+03  0.00000000000E+00 0. -1.
         21    1    1    2  503  502 -0.10982830771E+03  0.34346409446E+03  0.85993275679E+02  0.37070835548E+03  0.00000000000E+00 0. -1.
         21    1    1    2  504  501 -0.42054273671E+02 -0.12333328880E+03 -0.78661012186E+02  0.15220780827E+03  0.00000000000E+00 0. -1.
         21    1    1    2  505  504  0.17262947556E+03  0.37320737120E+02  0.81108080380E+01  0.17680372863E+03  0.00000000000E+00 0. -1.
          2    1    1    2  501    0 -0.20746894179E+02 -0.25745154278E+03 -0.84358873550E+02  0.27171336008E+03  0.00000000000E+00 0. -1.
<scales pt_clust_3="367.21601" pt_clust_4="45.99106" pt_clust_5="176.61759" pt_clust_6="45.99106"></scales>
<clustering>
<clus scale="   45.991">  4  6 -1 -1</clus>
<clus scale="  176.618">  1  5  2 -1</clus>
<clus scale="  367.216">  1  3  2 -1</clus>
<clus scale="  176.618">  1  3  2 -1</clus>
</clustering>
</event>
<event>
 6    0  0.4081161E+002  0.7243718E+02  0.7546771E-02  0.1351996E+00
          2   -1    0    0  505    0 -0.00000000000E+00  0.00000000000E+00  0.65977368874E+03  0.65977368874E+03  0.00000000000E+00 0. -1.
         21   -1    0    0  503  502  0.00000000000E+00 -0.00000000000E+00 -0.81042791305E+03  0.81042791305E+03  0.00000000000E+00 0. -1.
         21    1    1    2  503  501  0.56286491094E+02 -0.84161208473E+02 -0.73530825684E+02  0.12513217179E+03  0.00000000000E+00 0. -1.
         21    1    1    2  504  502  0.34392285154E+01  0.71608642575E+02 -0.70442349459E+03  0.70806220469E+03  0.00000000000E+00 0. -1.
         21    1    1    2  505  504 -0.68796345467E+01 -0.36636719741E+02  0.16961906770E+03  0.17366694197E+03  0.00000000000E+00 0. -1.
          2    1    1    2  501    0 -0.52846085062E+02  0.49189285639E+02  0.45768102827E+03  0.46334028334E+03  0.00000000000E+00 0. -1.
<scales pt_clust_3="72.43718" pt_clust_4="14000.00000" pt_clust_5="37.27705" pt_clust_6="61.11237"></scales>
<clustering>
<clus scale="   37.277">  1  5  2 -1</clus>
<clus scale="   61.112">  1  6  2 -1</clus>
<clus scale="   72.437">  1  3  2 -1</clus>
<clus scale="   72.437">  2  3  1 -1</clus>
</clustering>
</event>
<event>
 6    0  0.4081161E+002  0.1113036E+03  0.7546771E-02  0.1258175E+00
         21   -1    0    0  503  502  0.00000000000E+00  0.00000000000E+00  0.54327430089E+02  0.54327430089E+02  0.00000000000E+00 0.  1.
          1   -1    0    0  504    0 -0.00000000000E+00 -0.00000000000E+00 -0.12549201495E+04  0.12549201495E+04  0.00000000000E+00 0.  1.
         21    1    1    2  503  501 -0.39133977484E+02 -0.28969437216E+02 -0.48512960775E+03  0.48756684957E+03  0.00000000000E+00 0. -1.
         21    1    1    2  504  505  0.71746247642E+02  0.77701221504E+02 -0.18228142262E+03  0.21074041118E+03  0.00000000000E+00 0.  1.
         21    1    1    2  505  502  0.31437309021E+02 -0.59753672962E+02  0.60655083351E+01  0.67790826977E+02  0.00000000000E+00 0.  1.
          1    1    1    2  501    0 -0.64049579179E+02  0.11021888674E+02 -0.53924719741E+03  0.54314949189E+03  0.00000000000E+00 0.  1.
<scales pt_clust_3="39.27899" pt_clust_4="101.63221" pt_clust_5="67.51893" pt_clust_6="39.27899"></scales>
<clustering>
<clus scale="   39.279">  3  6 -1 -1</clus>
<clus scale="   67.519">  1  5  2 -1</clus>
<clus scale="  101.632">  1  4  2 -1</clus>
<clus scale="   67.519">  1  3  2 -1</clus>
</clustering>
</event>
<event>
 6    0  0.4081161E+002  0.1314381E+03  0.7546771E-02  0.1225337E+00
         21   -1    0    0  504  502  0.00000000000E+00  0.00000000000E+00  0.21094122457E+03  0.21094122457E+03  0.00000000000E+00 0. -1.
          2   -1    0    0  505    0 -0.00000000000E+00 -0.00000000000E+00 -0.15386295025E+04  0.15386295025E+04  0.00000000000E+00 0.  1.
         21    1    1    2  503  502 -0.25232605632E+02  0.62674904909E+02 -0.42646408737E+02  0.79897085495E+02  0.00000000000E+00 0. -1.
         21    1    1    2  504  501 -0.74141605081E+02  0.23854638613E+02  0.17788120030E+03  0.19418481611E+03  0.00000000000E+00 0. -1.
         21    1    1    2  505  503  0.14860570435E+01  0.34093501499E+02 -0.37180867999E+03  0.37337149024E+03  0.00000000000E+00 0.  1.
          2    1    1    2  501    0  0.97888153670E+02 -0.12062304502E+03 -0.10911143895E+04  0.11021173352E+04  0.00000000000E+00 0.  1.
<scales pt_clust_3="69.20020" pt_clust_4="131.43809" pt_clust_5="34.12587" pt_clust_6="14000.00000"></scales>
<clustering>
<clus scale="   34.126">  2  5  1 -1</clus>
<clus scale="   69.200">  1  3  2 -1</clus>
<clus scale="  131.438">  1  4  2 -1</clus>
<clus scale="   69.200">  1  3  2 -1</clus>
</clustering>
</event>
<event>
 6    0  0.4081161E+002  0.8579251E+02  0.7546771E-02  0.1313373E+00
         21   -1    0    0  504  502  0.00000000000E+00  0.00000000000E+00  0.54458954745E+03  0.54458954745E+03  0.00000000000E+00 0.  1.
          4   -1    0    0  503    0 -0.00000000000E+00 -0.00000000000E+00 -0.92490916706E+02  0.92490916706E+02  0.00000000000E+00 0.  1.
         21    1    1    2  503  505  0.41190010995E+02  0.58789130199E+02  0.20215572790E+02  0.74575117959E+02  0.00000000000E+00 0.  1.
         21    1    1    2  504  501  0.41183086440E+02 -0.11759942081E+03  0.39796025660E+03  0.41701083465E+03  0.00000000000E+00 0.  1.
         21    1    1    2  505  502 -0.62008378502E+01  0.38646839326E+02  0.51574927665E+02  0.64745669689E+02  0.00000000000E+00 0.  1.
          4    1    1    2  501    0 -0.76172259586E+02  0.20163451289E+02 -0.17652126308E+02  0.80748841858E+02  0.00000000000E+00 0.  1.
<scales pt_clust_3="74.56742" pt_clust_4="14000.00000" pt_clust_5="39.14114" pt_clust_6="85.79251"></scales>
<clustering>
<clus scale="   39.141">  1  5  2 -1</clus>
<clus scale="   74.567">  2  3  1 -1</clus>
<clus scale="   85.793">  2  6  1 -1</clus>
<clus scale="   39.141">  1  3  2 -1</clus>
</clustering>
</event>
<event>
 6    0  0.4081161E+002  0.1697571E+03  0.7546771E-02  0.1178101E+00
         21   -1    0    0  503  502  0.00000000000E+00  0.00000000000E+00  0.51734927280E+03  0.51734927280E+03  0.00000000000E+00 0.  1.
          1   -1    0    0  504    0 -0.00000000000E+00 -0.00000000000E+00 -0.14808686722E+04  0.14808686722E+04  0.00000000000E+00 0.  1.
         21    1    1    2  503  501 -0.35188407827E+02 -0.39920649853E+02  0.28661576071E+03  0.29151411049E+03  0.00000000000E+00 0.  1.
         21    1    1    2  504  505 -0.58507654853E+02  0.15371358870E+03 -0.51725511471E+03  0.54277423182E+03  0.00000000000E+00 0.  1.
         21    1    1    2  505  502 -0.54218104145E+01  0.30381299896E+02  0.20629824935E+03  0.20859383283E+03  0.00000000000E+00 0.  1.
          1    1    1    2  501    0  0.99117873094E+02 -0.14417423875E+03 -0.93917829473E+03  0.95533576986E+03  0.00000000000E+00 0.  1.
<scales pt_clust_3="41.87911" pt_clust_4="14000.00000" pt_clust_5="30.86129" pt_clust_6="169.75711"></scales>
<clustering>
<clus scale="   30.861">  1  5  2 -1</clus>
<clus scale="   41.879">  1  3  2 -1</clus>
<clus scale="  169.757">  2  6  1 -1</clus>
<clus scale="   30.861">  1  3  2 -1</clus>
</clustering>
</event>
<event>
 6    0  0.4081161E+002  0.3063146E+03  0.7546771E-02  0.1082126E+00
         21   -1    0    0  503  502  0.00000000000E+00  0.00000000000E+00  0.26757183903E+04  0.26757183903E+04  0.00000000000E+00 0.  1.
          1   -1    0    0  505    0 -0.00000000000E+00 -0.00000000000E+00 -0.10808391074E+03  0.10808391074E+03  0.00000000000E+00 0. -1.
         21    1    1    2  503  501 -0.92298823759E+02 -0.18814631253E+03  0.77639272951E+03  0.80417894664E+03  0.00000000000E+00 0.  1.
         21    1    1    2  504  502  0.26267873861E+02  0.38194982652E+02  0.80979515999E+03  0.81112086586E+03  0.00000000000E+00 0.  1.
         21    1    1    2  505  504 -0.22363759611E+03  0.24221426361E+03  0.48772747809E+03  0.58869314314E+03  0.00000000000E+00 0.  1.
          1    1    1    2  501    0  0.28966854601E+03 -0.92262933737E+02  0.49371911198E+03  0.57980934541E+03  0.00000000000E+00 0. -1.
<scales pt_clust_3="190.15774" pt_clust_4="46.35578" pt_clust_5="14000.00000" pt_clust_6="306.31458"></scales>
<clustering>
<clus scale="   46.356">  1  4  2 -1</clus>
<clus scale="  190.158">  1  3  2 -1</clus>
<clus scale="  306.315">  2  6  1 -1</clus>
<clus scale="   46.356">  1  3  2 -1</clus>
</clustering>
</event>
<event>
 6    0  0.4081161E+002  0.1613380E+03  0.7546771E-02  0.1187194E+00
         -1   -1    0    0    0  501 -0.00000000000E+00  0.00000000000E+00  0.77724724644E+02  0.77724724644E+02  0.00000000000E+00 0.  1.
         21   -1    0    0  505  502  0.00000000000E+00 -0.00000000000E+00 -0.14118540923E+04  0.14118540923E+04  0.00000000000E+00 0. -1.
         21    1    1    2  503  502 -0.66830474544E+02 -0.98828231424E+02 -0.23146060914E+03  0.26039843555E+03  0.00000000000E+00 0.  1.
         21    1    1    2  504  503 -0.45611152315E+02  0.21680050217E+02  0.40336939220E+01  0.50662337881E+02  0.00000000000E+00 0.  1.
         21    1    1    2  505  501  0.16966991077E+03  0.88481635114E+02 -0.11036310926E+04  0.11200975256E+04  0.00000000000E+00 0. -1.
         -1    1    1    2    0  504 -0.57228283914E+02 -0.11333453907E+02 -0.30713598302E+01  0.58420517872E+02  0.00000000000E+00 0.  1.
<scales pt_clust_3="161.33799" pt_clust_4="32.43272" pt_clust_5="14000.00000" pt_clust_6="109.07861"></scales>
<clustering>
<clus scale="   32.433">  4  6 -1 -1</clus>
<clus scale="  109.079">  1  4  2 -1</clus>
<clus scale="  161.338">  1  3  2 -1</clus>
<clus scale="  161.338">  2  3  1 -1</clus>
</clustering>
</event>
<event>
 6    0  0.4081161E+002  0.9758569E+02  0.7546771E-02  0.1285456E+00
          2   -1    0    0  503    0 -0.00000000000E+00  0.00000000000E+00  0.11875016585E+04  0.11875016585E+04  0.00000000000E+00 0. -1.
         21   -1    0    0  505  502  0.00000000000E+00 -0.00000000000E+00 -0.61745573414E+02  0.61745573414E+02  0.00000000000E+00 0. -1.
         21    1    1    2  503  504  0.91396259857E+02  0.47012900265E+01  0.81347620320E+03  0.81860791079E+03  0.00000000000E+00 0. -1.
         21    1    1    2  504  502 -0.55235940859E+01  0.31749762604E+02 -0.17570005709E+02  0.36705076183E+02  0.00000000000E+00 0. -1.
         21    1    1    2  505  501  0.38145832902E+02  0.49239843292E+01 -0.70007437093E+00  0.38468692382E+02  0.00000000000E+00 0. -1.
          2    1    1    2  501    0 -0.12401849867E+03 -0.41375036959E+02  0.33054996196E+03  0.35546555255E+03  0.00000000000E+00 0. -1.
<scales pt_clust_3="14000.00000" pt_clust_4="32.22666" pt_clust_5="41.83777" pt_clust_6="97.58569"></scales>
<clustering>
<clus scale="   32.227">  2  4  1 -1</clus>
<clus scale="   41.838">  2  5  1 -1</clus>
<clus scale="   97.586">  2  6  1 -1</clus>
<clus scale="   32.227">  2  3  1 -1</clus>
</clustering>
</event>
<event>
 6    0  0.4081161E+002  0.1205990E+03  0.7546771E-02  0.1242112E+00
         21   -1    0    0  503  502  0.00000000000E+00  0.00000000000E+00  0.12658239467E+03  0.12658239467E+03  0.00000000000E+00 0.  1.
          2   -1    0    0  502    0 -0.00000000000E+00 -0.00000000000E+00 -0.17914410770E+04  0.17914410770E+04  0.00000000000E+00 0.  1.
         21    1    1    2  503  505 -0.53037361216E+02  0.74233180730E+02  0.67298990630E+02  0.11336966502E+03  0.00000000000E+00 0.  1.
         21    1    1    2  504  501  0.10104515482E+02 -0.58236050944E+02 -0.78453327024E+02  0.98226592040E+02  0.00000000000E+00 0.  1.
         21    1    1    2  505  504 -0.42143911296E+02 -0.75224580585E+02 -0.50602584890E+02  0.99977339338E+02  0.00000000000E+00 0.  1.
          2    1    1    2  501    0  0.85076757030E+02  0.59227450799E+02 -0.16031017611E+04  0.16064498753E+04  0.00000000000E+00 0.  1.
<scales pt_clust_3="91.23336" pt_clust_4="50.97784" pt_clust_5="50.97784" pt_clust_6="103.69677"></scales>
<clustering>
<clus scale="   50.978">  4  5 -1 -1</clus>
<clus scale="   91.233">  1  3  2 -1</clus>
<clus scale="  103.697">  2  6  1 -1</clus>
<clus scale="   91.233">  1  3  2 -1</clus>
</clustering>
</event>
<event>
 6    0  0.4081161E+002  0.2995076E+03  0.7546771E-02  0.1085487E+00
         21   -1    0    0  505  502  0.00000000000E+00  0.00000000000E+00  0.99413218450E+03  0.99413218450E+03  0.00000000000E+00 0. -1.
          2   -1    0    0  503    0 -0.00000000000E+00 -0.00000000000E+00 -0.19257538357E+04  0.19257538357E+04  0.00000000000E+00 0. -1.
         21    1    1    2  503  502 -0.31180551611E+03 -0.32795106388E+02 -0.15175343436E+03  0.34832069091E+03  0.00000000000E+00 0. -1.
         21    1    1    2  504  501  0.12332098993E+03  0.20209794630E+02 -0.55552883450E+03  0.56941091342E+03  0.00000000000E+00 0. -1.
         21    1    1    2  505  504  0.31487434333E+02 -0.43586213110E+02  0.88184027994E+03  0.88347806754E+03  0.00000000000E+00 0. -1.
          2    1    1    2  501    0  0.15699709185E+03  0.56171524868E+02 -0.11061796623E+04  0.11186763483E+04  0.00000000000E+00 0. -1.
<scales pt_clust_3="292.83730" pt_clust_4="54.60795" pt_clust_5="53.77003" pt_clust_6="54.60795"></scales>
<clustering>
<clus scale="   53.770">  1  5  2 -1</clus>
<clus scale="   54.608">  4  6 -1 -1</clus>
<clus scale="  292.837">  1  3  2 -1</clus>
<clus scale="   53.770">  1  3  2 -1</clus>
</clustering>
</event>
<event>
 6    0  0.4081161E+002  0.1755442E+03  0.7546771E-02  0.1172186E+00
          2   -1    0    0  505    0 -0.00000000000E+00  0.00000000000E+00  0.21360648125E+04  0.21360648125E+04  0.00000000000E+00 0. -1.
         21   -1    0    0  503  502  0.00000000000E+00 -0.00000000000E+00 -0.74193751243E+03  0.74193751243E+03  0.00000000000E+00 0.  1.
         21    1    1    2  503  501  0.21576455529E+02 -0.13136334828E+03 -0.35063759128E+03  0.37505811966E+03  0.00000000000E+00 0. -1.
         21    1    1    2  504  502  0.93098470092E+02 -0.39011442056E+01 -0.36824733633E+03  0.37985345170E+03  0.00000000000E+00 0.  1.
         21    1    1    2  505  504 -0.40781855607E+01  0.61618341220E+02  0.37928910409E+03  0.38428332784E+03  0.00000000000E+00 0. -1.
          2    1    1    2  501    0 -0.11059674006E+03  0.73646151264E+02  0.17337231236E+04  0.17388074257E+04  0.00000000000E+00 0. -1.
<scales pt_clust_3="175.54418" pt_clust_4="93.15838" pt_clust_5="61.75315" pt_clust_6="14000.00000"></scales>
<clustering>
<clus scale="   61.753">  1  5  2 -1</clus>
<clus scale="   93.158">  2  4  1 -1</clus>
<clus scale="  175.544">  2  3  1 -1</clus>
<clus scale="   93.158">  2  3  1 -1</clus>
</clustering>
</event>
<event>
 6    0  0.4081161E+002  0.8763492E+02  0.7546771E-02  0.1308682E+00
          2   -1    0    0  505    0 -0.00000000000E+00  0.00000000000E+00  0.90615630203E+03  0.90615630203E+03  0.00000000000E+00 0.  1.
         21   -1    0    0  504  502  0.00000000000E+00 -0.00000000000E+00 -0.61475243839E+02  0.61475243839E+02  0.00000000000E+00 0.  1.
         21    1    1    2  503  502 -0.10859654052E+03  0.80424493552E+02  0.10241656630E+03  0.16955960848E+03  0.00000000000E+00 0.  1.
         21    1    1    2  504  501  0.41920876462E+02 -0.49120347267E+02  0.43553761937E+02  0.77891582201E+02  0.00000000000E+00 0.  1.
         21    1    1    2  505  503  0.23654884931E+02  0.50464810262E+02  0.10088164338E+03  0.11525344519E+03  0.00000000000E+00 0.  1.
          2    1    1    2  501    0  0.43020779127E+02 -0.81768956547E+02  0.59782908657E+03  0.60492691000E+03  0.00000000000E+00 0.  1.
<scales pt_clust_3="87.63492" pt_clust_4="62.94315" pt_clust_5="55.73375" pt_clust_6="14000.00000"></scales>
<clustering>
<clus scale="   55.734">  1  5  2 -1</clus>
<clus scale="   62.943">  2  4  1 -1</clus>
<clus scale="   87.635">  2  3  1 -1</clus>
<clus scale="   62.943">  2  3  1 -1</clus>
</clustering>
</event>
<event>
 6    0  0.4081161E+002  0.7517291E+02  0.7546771E-02  0.1343336E+00
         21   -1    0    0  505  502  0.00000000000E+00  0.00000000000E+00  0.47240077801E+03  0.47240077801E+03  0.00000000000E+00 0. -1.
          2   -1    0    0  504    0 -0.00000000000E+00 -0.00000000000E+00 -0.62162886712E+03  0.62162886712E+03  0.00000000000E+00 0. -1.
         21    1    1    2  503  501  0.53860540122E+02  0.35148575747E+02  0.27203172628E+03  0.27953110786E+03  0.00000000000E+00 0. -1.
         21    1    1    2  504  502 -0.60638483541E+02  0.73901998218E+02 -0.29443516780E+03  0.30956517741E+03  0.00000000000E+00 0. -1.
         21    1    1    2  505  503  0.18976060566E+02 -0.57594260197E+02  0.18188489029E+03  0.19172715770E+03  0.00000000000E+00 0. -1.
          2    1    1    2  501    0 -0.12198117148E+02 -0.51456313768E+02 -0.30870953788E+03  0.31320620216E+03  0.00000000000E+00 0. -1.
<scales pt_clust_3="75.17291" pt_clust_4="14000.00000" pt_clust_5="61.35509" pt_clust_6="52.88238"></scales>
<clustering>
<clus scale="   52.882">  2  6  1 -1</clus>
<clus scale="   61.355">  1  5  2 -1</clus>
<clus scale="   75.173">  1  3  2 -1</clus>
<clus scale="   61.355">  1  3  2 -1</clus>
</clustering>
</event>
<event>
 6    0  0.4081161E+002  0.1426566E+03  0.7546771E-02  0.1209798E+00
          2   -1    0    0  504    0 -0.00000000000E+00  0.00000000000E+00  0.40091882462E+03  0.40091882462E+03  0.00000000000E+00 0.  1.
         21   -1    0    0  503  502  0.00000000000E+00 -0.00000000000E+00 -0.31728578243E+03  0.31728578243E+03  0.00000000000E+00 0.  1.
         21    1    1    2  503  501 -0.56747206734E+02 -0.21141455529E+02 -0.18047623202E+03  0.19036511481E+03  0.00000000000E+00 0.  1.
         21    1    1    2  504  505 -0.32314677785E+02  0.79120707836E+01  0.39078196962E+02  0.51321971340E+02  0.00000000000E+00 0.  1.
         21    1    1    2  505  502  0.11679898239E+03 -0.11125449450E+03 -0.53687385899E+02  0.17000558885E+03  0.00000000000E+00 0.  1.
          2    1    1    2  501    0 -0.27737097875E+02  0.12448387924E+03  0.27871846315E+03  0.30651193205E+03  0.00000000000E+00 0.  1.
<scales pt_clust_3="60.94053" pt_clust_4="33.26919" pt_clust_5="14000.00000" pt_clust_6="142.65660"></scales>
<clustering>
<clus scale="   33.269">  1  4  2 -1</clus>
<clus scale="   60.941">  2  3  1 -1</clus>
<clus scale="  142.657">  1  6  2 -1</clus>
<clus scale="   60.941">  2  3  1 -1</clus>
</clustering>
</event>
<event>
 6    0  0.4081161E+002  0.1031552E+03  0.7546771E-02  0.1273797E+00
         -3   -1    0    0    0  501 -0.00000000000E+00  0.00000000000E+00  0.13807590088E+03  0.13807590088E+03  0.00000000000E+00 0. -1.
         21   -1    0    0  504  502  0.00000000000E+00 -0.00000000000E+00 -0.24000245213E+04  0.24000245213E+04  0.00000000000E+00 0. -1.
         21    1    1    2  503  501 -0.72607766699E+01 -0.42436140872E+02 -0.38242621211E+02  0.57585093619E+02  0.00000000000E+00 0. -1.
         21    1    1    2  504  503  0.41063237034E+02 -0.69248124605E+02 -0.70994294597E+03  0.71449316213E+03  0.00000000000E+00 0. -1.
         21    1    1    2  505  502 -0.27991903926E+02  0.17115697046E+03 -0.16279407459E+04  0.16371528112E+04  0.00000000000E+00 0. -1.
         -3    1    1    2    0  505 -0.58105564377E+01 -0.59472704979E+02  0.11417769267E+03  0.12886935519E+03  0.00000000000E+00 0. -1.
<scales pt_clust_3="43.05282" pt_clust_4="81.09034" pt_clust_5="14000.00000" pt_clust_6="103.15521"></scales>
<clustering>
<clus scale="   43.053">  1  3  2 -1</clus>
<clus scale="   81.090">  2  4  1 -1</clus>
<clus scale="  103.155">  1  6  2 -1</clus>
<clus scale="   81.090">  2  3  1 -1</clus>
</clustering>
</event>
<event>
 6    0  0.4081161E+002  0.1686454E+03  0.7546771E-02  0.1179268E+00
          2   -1    0    0  503    0 -0.00000000000E+00  0.00000000000E+00  0.56834781130E+03  0.56834781130E+03  0.00000000000E+00 0. -1.
         21   -1    0    0  501  502  0.00000000000E+00 -0.00000000000E+00 -0.14318463324E+03  0.14318463324E+03  0.00000000000E+00 0.  1.
         21    1    1    2  503  504  0.74077627875E+02 -0.53837954893E+02  0.53419457825E+02  0.10601725715E+03  0.00000000000E+00 0.  1.
         21    1    1    2  504  505  0.15674606669E+02 -0.59444788024E+02 -0.10404051593E+02  0.62350785135E+02  0.00000000000E+00 0.  1.
         21    1    1    2  505  502 -0.21569507626E+02 -0.23655018970E+02 -0.63978247202E+02  0.71540336152E+02  0.00000000000E+00 0.  1.
          2    1    1    2  501    0 -0.68182726918E+02  0.13693776189E+03  0.44612601903E+03  0.47162406611E+03  0.00000000000E+00 0. -1.
<scales pt_clust_3="66.16949" pt_clust_4="66.16949" pt_clust_5="32.01255" pt_clust_6="151.10337"></scales>
<clustering>
<clus scale="   32.013">  2  5  1 -1</clus>
<clus scale="   66.169">  3  4 -1 -1</clus>
<clus scale="  151.103">  1  6  2 -1</clus>
<clus scale="   32.013">  2  3  1 -1</clus>
</clustering>
</event>
<event>
 6    0  0.4081161E+002  0.2867956E+03  0.7546771E-02  0.1092034E+00
          2   -1    0    0  502    0 -0.00000000000E+00  0.00000000000E+00  0.10053166956E+04  0.10053166956E+04  0.00000000000E+00 0.  1.
         21   -1    0    0  504  502  0.00000000000E+00 -0.00000000000E+00 -0.55982039224E+03  0.55982039224E+03  0.00000000000E+00 0.  1.
         21    1    1    2  503  505  0.28249195158E+03  0.12241383855E+03 -0.34288265949E+03  0.46082032156E+03  0.00000000000E+00 0.  1.
         21    1    1    2  504  503 -0.10555717197E+02 -0.10784676269E+03 -0.11425989283E+03  0.15747276113E+03  0.00000000000E+00 0.  1.
         21    1    1    2  505  501 -0.17172159501E+03 -0.32049045536E+02  0.67975972646E+03  0.70184665935E+03  0.00000000000E+00 0.  1.
          2    1    1    2  501    0 -0.10021463938E+03  0.17481969677E+02  0.22287912924E+03  0.24499734582E+03  0.00000000000E+00 0.  1.
<scales pt_clust_3="273.23349" pt_clust_4="108.36211" pt_clust_5="66.50566" pt_clust_6="66.50566"></scales>
<clustering>
<clus scale="   66.506">  5  6 -1 -1</clus>
<clus scale="  108.362">  2  4  1 -1</clus>
<clus scale="  273.233">  2  3  1 -1</clus>
<clus scale="  108.362">  2  3  1 -1</clus>
</clustering>
</event>
<event>
 6    0  0.4081161E+002  0.1107580E+03  0.7546771E-02  0.1259173E+00
         21   -1    0    0  503  502  0.00000000000E+00  0.00000000000E+00  0.26524007184E+03  0.26524007184E+03  0.00000000000E+00 0.  1.
          1   -1    0    0  504    0 -0.00000000000E+00 -0.00000000000E+00 -0.20720909090E+04  0.20720909090E+04  0.00000000000E+00 0. -1.
         21    1    1    2  503  501  0.72810249149E+02  0.19360099851E+02 -0.30597914285E+03  0.31511804408E+03  0.00000000000E+00 0.  1.
         21    1    1    2  504  505  0.81105829827E+02  0.29348959583E+02 -0.55913742023E+02  0.10279038675E+03  0.00000000000E+00 0.  1.
         21    1    1    2  505  502 -0.10610883933E+03 -0.44577315649E+02  0.22290776726E+03  0.25086668883E+03  0.00000000000E+00 0.  1.
          1    1    1    2  501    0 -0.47807239641E+02 -0.41317437849E+01 -0.16678657195E+04  0.16685558612E+04  0.00000000000E+00 0. -1.
<scales pt_clust_3="39.51637" pt_clust_4="110.75800" pt_clust_5="14000.00000" pt_clust_6="47.98545"></scales>
<clustering>
<clus scale="   47.985">  2  6  1 -1</clus>
<clus scale="   39.516">  2  3  1 -1</clus>
<clus scale="  110.758">  2  4  1 -1</clus>
<clus scale="  110.758">  1  3  2 -1</clus>
</clustering>
</event>
<event>
 6    0  0.4081161E+002  0.6799182E+02  0.7546771E-02  0.1367058E+00
         -1   -1    0    0    0  501 -0.00000000000E+00  0.00000000000E+00  0.20507593862E+04  0.20507593862E+04  0.00000000000E+00 0.  1.
         21   -1    0    0  505  502  0.00000000000E+00 -0.00000000000E+00 -0.41614752473E+02  0.41614752473E+02  0.00000000000E+00 0. -1.
         21    1    1    2  503  502  0.63235379921E+02  0.42125985762E+02  0.11635603114E+03  0.13896775861E+03  0.00000000000E+00 0. -1.
         21    1    1    2  504  501 -0.70204685685E+01  0.60145356056E+02  0.63544263632E+03  0.63832131007E+03  0.00000000000E+00 0. -1.
         21    1    1    2  505  504  0.14630062036E+01 -0.75254053997E+02  0.22446230986E+02  0.78543913295E+02  0.00000000000E+00 0. -1.
         -1    1    1    2    0  503 -0.57677917556E+02 -0.27017287820E+02  0.12348997352E+04  0.12365411567E+04  0.00000000000E+00 0.  1.
<scales pt_clust_3="14000.00000" pt_clust_4="60.55370" pt_clust_5="67.99182" pt_clust_6="68.73840"></scales>
<clustering>
<clus scale="   60.554">  1  4  2 -1</clus>
<clus scale="   68.738">  1  6  2 -1</clus>
<clus scale="   67.992">  2  5  1 -1</clus>
<clus scale="   67.992">  2  3  1 -1</clus>
</clustering>
</event>
<event>
 6    0  0.4081161E+002  0.8843863E+02  0.7546771E-02  0.1306677E+00
         21   -1    0    0  504  502  0.00000000000E+00  0.00000000000E+00  0.97035715203E+02  0.97035715203E+02  0.00000000000E+00 0.  1.
         -1   -1    0    0    0  501 -0.00000000000E+00 -0.00000000000E+00 -0.26944414799E+03  0.26944414799E+03  0.00000000000E+00 0. -1.
         21    1    1    2  503  502  0.53954177963E+02 -0.17209418780E+02 -0.10574015287E+02  0.57610999068E+02  0.00000000000E+00 0.  1.
         21    1    1    2  504  501 -0.70699163621E+02  0.91030283375E+02  0.11587352027E+02  0.11584105902E+03  0.00000000000E+00 0.  1.
         21    1    1    2  505  503  0.26057379070E+02 -0.41759524937E+02 -0.12373544308E+03  0.13316645524E+03  0.00000000000E+00 0. -1.
         -1    1    1    2    0  505 -0.93123934116E+01 -0.32061339658E+02 -0.49686326448E+02  0.59861349865E+02  0.00000000000E+00 0. -1.
<scales pt_clust_3="56.63230" pt_clust_4="79.79150" pt_clust_5="31.41169" pt_clust_6="31.41169"></scales>
<clustering>
<clus scale="   31.412">  5  6 -1 -1</clus>
<clus scale="   56.632">  1  3  2 -1</clus>
<clus scale="   79.791">  1  4  2 -1</clus>
<clus scale="   56.632">  1  3  2 -1</clus>
</clustering>
</event>
<event>
 6    0  0.8106852E+002  0.1310398E+03  0.7546771E-02  0.1225921E+00
          2   -1    0    0  502    0 -0.00000000000E+00  0.00000000000E+00  0.16119430187E+04  0.16119430187E+04  0.00000000000E+00 0. -1.
         21   -1    0    0  504  502  0.00000000000E+00 -0.00000000000E+00 -0.96113929651E+03  0.96113929651E+03  0.00000000000E+00 0. -1.
         21    1    1    2  503  505 -0.13072058402E+03 -0.58465046468E+01  0.10633197163E+03  0.16860765372E+03  0.00000000000E+00 0. -1.
         21    1    1    2  504  503  0.12140330783E+03 -0.50408165645E+02 -0.92207404180E+03  0.93139695344E+03  0.00000000000E+00 0. -1.
         21    1    1    2  505  501  0.30011902015E+02  0.29490785308E+02  0.14206884897E+03  0.14816875018E+03  0.00000000000E+00 0.  1.
          2    1    1    2  501    0 -0.20694625822E+02  0.26763884984E+02  0.13244769434E+04  0.13249089579E+04  0.00000000000E+00 0. -1.
<scales pt_clust_3="14000.00000" pt_clust_4="131.03983" pt_clust_5="47.24933" pt_clust_6="33.83154"></scales>
<clustering>
<clus scale="   33.832">  1  6  2 -1</clus>
<clus scale="   47.249">  1  5  2 -1</clus>
<clus scale="  131.040">  2  4  1 -1</clus>
<clus scale="  131.040">  2  3  1 -1</clus>
</clustering>
</event>
<event>
 6    0  0.4081161E+002  0.3752773E+03  0.7546771E-02  0.1052693E+00
         21   -1    0    0  503  502  0.00000000000E+00  0.00000000000E+00  0.83800278507E+03  0.83800278507E+03  0.00000000000E+00 0.  1.
         -1   -1    0    0    0  501 -0.00000000000E+00 -0.00000000000E+00 -0.28484185197E+03  0.28484185197E+03  0.00000000000E+00 0.  1.
         21    1    1    2  503  505  0.83132180564E+01 -0.34595624911E+02  0.64686408918E+02  0.73826135996E+02  0.00000000000E+00 0. -1.
         21    1    1    2  504  502 -0.90000051363E+02 -0.22770020771E+03  0.73521591842E+01  0.24495193014E+03  0.00000000000E+00 0.  1.
         21    1    1    2  505  501  0.15077493649E+03  0.34410786511E+03  0.55768822198E+03  0.67242803127E+03  0.00000000000E+00 0.  1.
         -1    1    1    2    0  504 -0.69088103182E+02 -0.81812032488E+02 -0.76565856973E+02  0.13163853963E+03  0.00000000000E+00 0.  1.
<scales pt_clust_3="35.58043" pt_clust_4="82.93624" pt_clust_5="353.42619" pt_clust_6="82.93624"></scales>
<clustering>
<clus scale="   35.580">  1  3  2 -1</clus>
<clus scale="   82.936">  4  6 -1 -1</clus>
<clus scale="  353.426">  1  5  2 -1</clus>
<clus scale="   35.580">  1  3  2 -1</clus>
</clustering>
</event>
<event>
 6    0  0.4081161E+002  0.8993476E+02  0.7546771E-02  0.1303010E+00
          2   -1    0    0  505    0 -0.00000000000E+00  0.00000000000E+00  0.50778259497E+03  0.50778259497E+03  0.00000000000E+00 0.  1.
         21   -1    0    0  503  502  0.00000000000E+00 -0.00000000000E+00 -0.36946527263E+03  0.36946527263E+03  0.00000000000E+00 0. -1.
         21    1    1    2  503  501  0.11894107890E+02  0.49645655504E+02 -0.68220957624E+02  0.85207159160E+02  0.00000000000E+00 0. -1.
         21    1    1    2  504  502  0.28097834467E+01 -0.13478347173E+03 -0.26327367446E+03  0.29578287104E+03  0.00000000000E+00 0. -1.
         21    1    1    2  505  504 -0.17328044404E+02 -0.35320588297E+02  0.11805801771E+03  0.12444075147E+03  0.00000000000E+00 0.  1.
          2    1    1    2  501    0  0.26241530679E+01  0.12045840452E+03  0.35175393672E+03  0.37181708594E+03  0.00000000000E+00 0.  1.
<scales pt_clust_3="50.20750" pt_clust_4="14000.00000" pt_clust_5="39.34215" pt_clust_6="89.93476"></scales>
<clustering>
<clus scale="   39.342">  1  5  2 -1</clus>
<clus scale="   50.207">  2  3  1 -1</clus>
<clus scale="   89.935">  1  6  2 -1</clus>
<clus scale="   50.207">  2  3  1 -1</clus>
</clustering>
</event>
<event>
 6    0  0.4081161E+002  0.1522693E+03  0.7546771E-02  0.1197712E+00
          1   -1    0    0  504    0 -0.00000000000E+00  0.00000000000E+00  0.21055146255E+04  0.21055146255E+04  0.00000000000E+00 0. -1.
         21   -1    0    0  503  502  0.00000000000E+00 -0.00000000000E+00 -0.65690050371E+02  0.65690050371E+02  0.00000000000E+00 0.  1.
         21    1    1    2  503  501 -0.77799396233E+02  0.21525543521E+02  0.92720815279E+03  0.93071534514E+03  0.00000000000E+00 0. -1.
         21    1    1    2  504  505  0.18598604447E+03  0.57753419680E+02  0.14217212870E+03  0.24112067602E+03  0.00000000000E+00 0.  1.
         21    1    1    2  505  502 -0.50498482375E+02 -0.42772055193E+02  0.69964208005E+02  0.96304391538E+02  0.00000000000E+00 0.  1.
          1    1    1    2  501    0 -0.57688165862E+02 -0.36506908008E+02  0.90048008559E+03  0.90306426314E+03  0.00000000000E+00 0. -1.
<scales pt_clust_3="56.10552" pt_clust_4="139.51311" pt_clust_5="66.17813" pt_clust_6="56.10552"></scales>
<clustering>
<clus scale="   56.106">  3  6 -1 -1</clus>
<clus scale="   66.178">  2  5  1 -1</clus>
<clus scale="  139.513">  2  4  1 -1</clus>
<clus scale="   66.178">  2  3  1 -1</clus>
</clustering>
</event>
<event>
 6    0  0.4081161E+002  0.6175661E+02  0.7546771E-02  0.1390604E+00
         21   -1    0    0  505  502  0.00000000000E+00  0.00000000000E+00  0.33279615237E+03  0.33279615237E+03  0.00000000000E+00 0.  1.
          2   -1    0    0  503    0 -0.00000000000E+00 -0.00000000000E+00 -0.27517906530E+04  0.27517906530E+04  0.00000000000E+00 0.  1.
         21    1    1    2  503  504  0.38002742642E+02 -0.35341891276E+02 -0.11127060034E+03  0.12277786538E+03  0.00000000000E+00 0. -1.
         21    1    1    2  504  502 -0.35503611020E+02 -0.50492130132E+02  0.26718436897E+03  0.27422153202E+03  0.00000000000E+00 0.  1.
         21    1    1    2  505  501  0.81872686596E+02  0.14857343313E+02  0.23795808375E+02  0.86545467571E+02  0.00000000000E+00 0.  1.
          2    1    1    2  501    0 -0.84371818218E+02  0.70976678095E+02 -0.25987040777E+04  0.26010419404E+04  0.00000000000E+00 0.  1.
<scales pt_clust_3="51.89661" pt_clust_4="14000.00000" pt_clust_5="61.75661" pt_clust_6="59.16446"></scales>
<clustering>
<clus scale="   51.897">  2  3  1 -1</clus>
<clus scale="   59.164">  2  6  1 -1</clus>
<clus scale="   61.757">  2  5  1 -1</clus>
<clus scale="   61.757">  1  3  2 -1</clus>
</clustering>
</event>
<event>
 6    0  0.4081161E+002  0.8240884E+02  0.7546771E-02  0.1322351E+00
         21   -1    0    0  505  502  0.00000000000E+00  0.00000000000E+00  0.83070235035E+03  0.83070235035E+03  0.00000000000E+00 0.  1.
         -2   -1    0    0    0  501 -0.00000000000E+00 -0.00000000000E+00 -0.16813658406E+03  0.16813658406E+03  0.00000000000E+00 0.  1.
         21    1    1    2  503  501  0.60089451990E+02 -0.68149024764E+01 -0.49017452540E+02  0.77845332485E+02  0.00000000000E+00 0.  1.
         21    1    1    2  504  503  0.62893121534E+02  0.43203727266E+02  0.89809506696E+02  0.11784674064E+03  0.00000000000E+00 0.  1.
         21    1    1    2  505  504  0.12147092250E+02 -0.31621471160E+02  0.66138383530E+03  0.66225074321E+03  0.00000000000E+00 0.  1.
         -2    1    1    2    0  502 -0.13512966577E+03 -0.47673536296E+01 -0.39610123169E+02  0.14089611808E+03  0.00000000000E+00 0.  1.
<scales pt_clust_3="61.86211" pt_clust_4="82.40884" pt_clust_5="33.87432" pt_clust_6="14000.00000"></scales>
<clustering>
<clus scale="   33.874">  1  5  2 -1</clus>
<clus scale="   61.862">  2  3  1 -1</clus>
<clus scale="   82.409">  1  4  2 -1</clus>
<clus scale="   33.874">  1  3  2 -1</clus>
</clustering>
</event>
<event>
 6    0  0.4081161E+002  0.5972517E+02  0.7546771E-02  0.1398989E+00
          2   -1    0    0  505    0 -0.00000000000E+00  0.00000000000E+00  0.27413698954E+03  0.27413698954E+03  0.00000000000E+00 0. -1.
         21   -1    0    0  504  502  0.00000000000E+00 -0.00000000000E+00 -0.50373861842E+03  0.50373861842E+03  0.00000000000E+00 0. -1.
         21    1    1    2  503  502 -0.17264570656E+02 -0.32745069973E+02 -0.25965065371E+02  0.45216032855E+02  0.00000000000E+00 0. -1.
         21    1    1    2  504  501  0.75160475825E+02  0.29925096546E+02 -0.43168257589E+03  0.43919751235E+03  0.00000000000E+00 0. -1.
         21    1    1    2  505  503  0.13032236625E+02  0.55766427378E+02  0.99988442416E+01  0.58135277587E+02  0.00000000000E+00 0. -1.
          2    1    1    2  501    0 -0.70928141795E+02 -0.52946453951E+02  0.21804716814E+03  0.23532678517E+03  0.00000000000E+00 0. -1.
<scales pt_clust_3="37.01763" pt_clust_4="59.72517" pt_clust_5="55.42976" pt_clust_6="14000.00000"></scales>
<clustering>
<clus scale="   37.018">  2  3  1 -1</clus>
<clus scale="   55.430">  1  5  2 -1</clus>
<clus scale="   59.725">  2  4  1 -1</clus>
<clus scale="   37.018">  2  3  1 -1</clus>
</clustering>
</event>
<event>
 6    0  0.4081161E+002  0.9762993E+02  0.7546771E-02  0.1285360E+00
         21   -1    0    0  504  502  0.00000000000E+00  0.00000000000E+00  0.14065620458E+04  0.14065620458E+04  0.00000000000E+00 0.  1.
          3   -1    0    0  505    0 -0.00000000000E+00 -0.00000000000E+00 -0.88948249789E+02  0.88948249789E+02  0.00000000000E+00 0.  1.
         21    1    1    2  503  502 -0.47195694849E+01  0.33179916457E+02  0.99930339876E+03  0.99986522290E+03  0.00000000000E+00 0.  1.
         21    1    1    2  504  501  0.56474186066E+02  0.67501467256E+01  0.27969300815E+03  0.28541737329E+03  0.00000000000E+00 0.  1.
         21    1    1    2  505  503 -0.11732706717E+03 -0.61554245957E+02  0.29800021856E+01  0.13252715306E+03  0.00000000000E+00 0.  1.
          3    1    1    2  501    0  0.65572450587E+02  0.21624182774E+02  0.35637386950E+02  0.77700546364E+02  0.00000000000E+00 0.  1.
<scales pt_clust_3="33.51390" pt_clust_4="60.96877" pt_clust_5="14000.00000" pt_clust_6="97.62993"></scales>
<clustering>
<clus scale="   33.514">  1  3  2 -1</clus>
<clus scale="   60.969">  1  4  2 -1</clus>
<clus scale="   97.630">  2  6  1 -1</clus>
<clus scale="   33.514">  1  3  2 -1</clus>
</clustering>
</event>
<event>
 6    0  0.4081161E+002  0.9963493E+02  0.7546771E-02  0.1281066E+00
         21   -1    0    0  504  502  0.00000000000E+00  0.00000000000E+00  0.82635655959E+02  0.82635655959E+02  0.00000000000E+00 0. -1.
          2   -1    0    0  503    0 -0.00000000000E+00 -0.00000000000E+00 -0.10163659336E+04  0.10163659336E+04  0.00000000000E+00 0.  1.
         21    1    1    2  503  505  0.99005986961E+01 -0.37657528736E+02 -0.35715841099E+03  0.35927460509E+03  0.00000000000E+00 0.  1.
         21    1    1    2  504  501  0.15287397818E+02  0.52802693258E+02  0.14018756245E+02  0.56730542691E+02  0.00000000000E+00 0. -1.
         21    1    1    2  505  502 -0.10357828500E+03  0.31161335682E+01 -0.18490367654E+02  0.10526188821E+03  0.00000000000E+00 0. -1.
          2    1    1    2  501    0  0.78390288489E+02 -0.18261298090E+02 -0.57210025526E+03  0.57773455358E+03  0.00000000000E+00 0.  1.
<scales pt_clust_3="38.93727" pt_clust_4="53.89068" pt_clust_5="99.63493" pt_clust_6="14000.00000"></scales>
<clustering>
<clus scale="   38.937">  2  3  1 -1</clus>
<clus scale="   53.891">  1  4  2 -1</clus>
<clus scale="   99.635">  1  5  2 -1</clus>
<clus scale="   53.891">  1  3  2 -1</clus>
</clustering>
</event>
<event>
 6    0  0.4081161E+002  0.1202713E+03  0.7546771E-02  0.1242650E+00
          2   -1    0    0  504    0 -0.00000000000E+00  0.00000000000E+00  0.59107941767E+03  0.59107941767E+03  0.00000000000E+00 0.  1.
         21   -1    0    0  503  502  0.00000000000E+00 -0.00000000000E+00 -0.11863101902E+03  0.11863101902E+03  0.00000000000E+00 0.  1.
         21    1    1    2  503  501 -0.25844710681E+02  0.14374142208E+03  0.18893291759E+03  0.23879948249E+03  0.00000000000E+00 0.  1.
         21    1    1    2  504  505 -0.90096424924E+02  0.83701866216E+01 -0.13602645007E+02  0.91501135290E+02  0.00000000000E+00 0.  1.
         21    1    1    2  505  502  0.28023547499E+02 -0.74184776798E+02  0.25218237908E+02  0.83214541074E+02  0.00000000000E+00 0.  1.
          2    1    1    2  501    0  0.87917588106E+02 -0.77926831900E+02  0.27189988817E+03  0.29619527784E+03  0.00000000000E+00 0.  1.
<scales pt_clust_3="14000.00000" pt_clust_4="81.61148" pt_clust_5="79.30133" pt_clust_6="120.27133"></scales>
<clustering>
<clus scale="   79.301">  2  5  1 -1</clus>
<clus scale="   81.611">  2  4  1 -1</clus>
<clus scale="  120.271">  1  6  2 -1</clus>
<clus scale="   79.301">  2  3  1 -1</clus>
</clustering>
</event>
<event>
 6    0  0.4081161E+002  0.1403066E+03  0.7546771E-02  0.1212917E+00
         21   -1    0    0  505  502  0.00000000000E+00  0.00000000000E+00  0.88717055553E+02  0.88717055553E+02  0.00000000000E+00 0. -1.
          2   -1    0    0  504    0 -0.00000000000E+00 -0.00000000000E+00 -0.10331379184E+04  0.10331379184E+04  0.00000000000E+00 0. -1.
         21    1    1    2  503  502 -0.18638868247E+03 -0.30838749208E+02 -0.16783516533E+03  0.25270617746E+03  0.00000000000E+00 0. -1.
         21    1    1    2  504  503 -0.44103324159E+01  0.73156053644E+02 -0.30380697710E+03  0.31252190092E+03  0.00000000000E+00 0. -1.
         21    1    1    2  505  501  0.62667839148E+02  0.24657364025E+02 -0.55871325506E+01  0.67575585194E+02  0.00000000000E+00 0.  1.
          2    1    1    2  501    0  0.12813117574E+03 -0.66974668460E+02 -0.46719158789E+03  0.48905131040E+03  0.00000000000E+00 0. -1.
<scales pt_clust_3="140.30656" pt_clust_4="75.01811" pt_clust_5="67.34422" pt_clust_6="14000.00000"></scales>
<clustering>
<clus scale="   67.344">  1  5  2 -1</clus>
<clus scale="   75.018">  2  4  1 -1</clus>
<clus scale="  140.307">  1  3  2 -1</clus>
<clus scale="   67.344">  1  3  2 -1</clus>
</clustering>
</event>
<event>
 6    0  0.4081161E+002  0.8761710E+02  0.7546771E-02  0.1308727E+00
         21   -1    0    0  503  502  0.00000000000E+00  0.00000000000E+00  0.25152581993E+04  0.25152581993E+04  0.00000000000E+00 0.  1.
          1   -1    0    0  505    0 -0.00000000000E+00 -0.00000000000E+00 -0.58080054903E+03  0.58080054903E+03  0.00000000000E+00 0.  1.
         21    1    1    2  503  504  0.61604555736E+02 -0.82023292277E+01  0.84617019145E+03  0.84844940473E+03  0.00000000000E+00 0. -1.
         21    1    1    2  504  501  0.34745340191E+02 -0.52785427833E+02 -0.37722071836E+02  0.73596839335E+02  0.00000000000E+00 0.  1.
         21    1    1    2  505  502 -0.10645527977E+03 -0.35344094960E+02  0.16436069779E+04  0.16474300682E+04  0.00000000000E+00 0.  1.
          1    1    1    2  501    0  0.10105383839E+02  0.96331852021E+02 -0.51759744731E+03  0.52658243605E+03  0.00000000000E+00 0.  1.
<scales pt_clust_3="62.14821" pt_clust_4="87.61710" pt_clust_5="63.03398" pt_clust_6="14000.00000"></scales>
<clustering>
<clus scale="   62.148">  1  3  2 -1</clus>
<clus scale="   63.034">  1  5  2 -1</clus>
<clus scale="   87.617">  1  4  2 -1</clus>
<clus scale="   62.148">  1  3  2 -1</clus>
</clustering>
</event>
<event>
 6    0  0.4081161E+002  0.1875914E+03  0.7546771E-02  0.1160652E+00
         21   -1    0    0  503  502  0.00000000000E+00  0.00000000000E+00  0.40110366417E+02  0.40110366417E+02  0.00000000000E+00 0.  1.
          2   -1    0    0  504    0 -0.00000000000E+00 -0.00000000000E+00 -0.14803583348E+04  0.14803583348E+04  0.00000000000E+00 0. -1.
         21    1    1    2  503  505  0.10083337869E+02 -0.68596696931E+02 -0.15244895142E+03  0.16747496327E+03  0.00000000000E+00 0. -1.
         21    1    1    2  504  502 -0.17799377210E+03 -0.15810780908E+02 -0.32317530210E+03  0.36928855870E+03  0.00000000000E+00 0.  1.
         21    1    1    2  505  501  0.74945582767E+02  0.14733592546E+02 -0.35805759780E+03  0.36611359230E+03  0.00000000000E+00 0. -1.
          2    1    1    2  501    0  0.92964851466E+02  0.69673885293E+02 -0.60656611708E+03  0.61759158697E+03  0.00000000000E+00 0. -1.
<scales pt_clust_3="69.33383" pt_clust_4="182.57080" pt_clust_5="34.95464" pt_clust_6="34.95464"></scales>
<clustering>
<clus scale="   34.955">  5  6 -1 -1</clus>
<clus scale="   69.334">  1  3  2 -1</clus>
<clus scale="  182.571">  1  4  2 -1</clus>
<clus scale="   69.334">  1  3  2 -1</clus>
</clustering>
</event>
<event>
 6    0  0.6158394E+002  0.9873883E+02  0.7546771E-02  0.1282971E+00
          2   -1    0    0  505    0 -0.00000000000E+00  0.00000000000E+00  0.78423490701E+03  0.78423490701E+03  0.00000000000E+00 0.  1.
         21   -1    0    0  501  502  0.00000000000E+00 -0.00000000000E+00 -0.62403687475E+03  0.62403687475E+03  0.00000000000E+00 0.  1.
         21    1    1    2  503  504  0.55604919958E+02  0.50956473327E+02 -0.72094377175E+02  0.10433632406E+03  0.00000000000E+00 0. -1.
         21    1    1    2  504  502 -0.72890153196E+02 -0.77907312935E+02 -0.51624536023E+03  0.52715443259E+03  0.00000000000E+00 0.  1.
         21    1    1    2  505  503 -0.19274877905E+02 -0.23968583204E+02  0.56729663560E+01  0.31276132215E+02  0.00000000000E+00 0.  1.
          2    1    1    2  501    0  0.36560111142E+02  0.50919422812E+02  0.74286480331E+03  0.74550489290E+03  0.00000000000E+00 0.  1.
<scales pt_clust_3="98.73883" pt_clust_4="14000.00000" pt_clust_5="30.75734" pt_clust_6="32.87938"></scales>
<clustering>
<clus scale="   30.757">  1  5  2 -1</clus>
<clus scale="   32.879">  1  6  2 -1</clus>
<clus scale="   98.739">  1  3  2 -1</clus>
<clus scale="   98.739">  2  3  1 -1</clus>
</clustering>
</event>
<event>
 6    0  0.4081161E+002  0.1048064E+03  0.7546771E-02  0.1270502E+00
         21   -1    0    0  505  502  0.00000000000E+00  0.00000000000E+00  0.61046189104E+02  0.61046189104E+02  0.00000000000E+00 0.  1.
          1   -1    0    0  504    0 -0.00000000000E+00 -0.00000000000E+00 -0.26670423390E+04  0.26670423390E+04  0.00000000000E+00 0.  1.
         21    1    1    2  503  502 -0.33202036930E+02 -0.23833171194E+02 -0.12563789647E+03  0.13211841784E+03  0.00000000000E+00 0. -1.
         21    1    1    2  504  503  0.87460232162E+02  0.14035543524E+03 -0.11833530776E+04  0.11948528975E+04  0.00000000000E+00 0.  1.
         21    1    1    2  505  501  0.15843015973E+02 -0.76032672150E+02  0.21137659002E+02  0.80490800825E+02  0.00000000000E+00 0.  1.
          1    1    1    2  501    0 -0.70101211205E+02 -0.40489591891E+02 -0.13181428348E+04  0.13206264119E+04  0.00000000000E+00 0.  1.
<scales pt_clust_3="40.87047" pt_clust_4="104.80637" pt_clust_5="14000.00000" pt_clust_6="81.82797"></scales>
<clustering>
<clus scale="   40.870">  1  3  2 -1</clus>
<clus scale="   81.828">  2  6  1 -1</clus>
<clus scale="  104.806">  2  4  1 -1</clus>
<clus scale="   40.870">  1  3  2 -1</clus>
</clustering>
</event>
<event>
 6    0  0.4081161E+002  0.1886411E+03  0.7546771E-02  0.1159693E+00
         21   -1    0    0  503  502  0.00000000000E+00  0.00000000000E+00  0.23646473881E+03  0.23646473881E+03  0.00000000000E+00 0.  1.
          1   -1    0    0  505    0 -0.00000000000E+00 -0.00000000000E+00 -0.52877667488E+03  0.52877667488E+03  0.00000000000E+00 0.  1.
         21    1    1    2  503  501  0.17472709564E+03  0.90496576176E+02 -0.11616141125E+03  0.22850090090E+03  0.00000000000E+00 0.  1.
         21    1    1    2  504  502  0.71137576403E+01  0.39116557620E+02  0.87051924931E+02  0.95701349322E+02  0.00000000000E+00 0.  1.
         21    1    1    2  505  504 -0.58769731899E+02  0.14373646165E+02  0.47656614738E+02  0.77017115110E+02  0.00000000000E+00 0.  1.
          1    1    1    2  501    0 -0.12307112138E+03 -0.14398677996E+03 -0.31085906448E+03  0.36402204836E+03  0.00000000000E+00 0.  1.
<scales pt_clust_3="188.64111" pt_clust_4="39.75815" pt_clust_5="63.84487" pt_clust_6="14000.00000"></scales>
<clustering>
<clus scale="   39.758">  1  4  2 -1</clus>
<clus scale="   63.845">  1  5  2 -1</clus>
<clus scale="  188.641">  1  3  2 -1</clus>
<clus scale="   39.758">  1  3  2 -1</clus>
</clustering>
</event>
<event>
 6    0  0.4081161E+002  0.9802425E+02  0.7546771E-02  0.1284506E+00
          1   -1    0    0  504    0 -0.00000000000E+00  0.00000000000E+00  0.53497717179E+03  0.53497717179E+03  0.00000000000E+00 0.  1.
         21   -1    0    0  501  502  0.00000000000E+00 -0.00000000000E+00 -0.17733830499E+03  0.17733830499E+03  0.00000000000E+00 0. -1.
         21    1    1    2  503  505 -0.70685595253E+02  0.11358123341E+03  0.90791962121E+02  0.16167971532E+03  0.00000000000E+00 0. -1.
         21    1    1    2  504  503  0.24968346719E+02  0.46497166719E+02  0.10529214260E+03  0.11777877629E+03  0.00000000000E+00 0.  1.
         21    1    1    2  505  502  0.19933789156E+02 -0.91980038121E+02 -0.11400790428E+03  0.14783600915E+03  0.00000000000E+00 0. -1.
          1    1    1    2  501    0  0.25783459379E+02 -0.68098362008E+02  0.27556266636E+03  0.28502097603E+03  0.00000000000E+00 0.  1.
<scales pt_clust_3="98.02425" pt_clust_4="52.77693" pt_clust_5="14000.00000" pt_clust_6="56.41817"></scales>
<clustering>
<clus scale="   52.777">  1  4  2 -1</clus>
<clus scale="   56.418">  1  6  2 -1</clus>
<clus scale="   98.024">  1  3  2 -1</clus>
<clus scale="   98.024">  2  3  1 -1</clus>
</clustering>
</event>
<event>
 6    0  0.4081161E+002  0.2771973E+03  0.7546771E-02  0.1097230E+00
          2   -1    0    0  505    0 -0.00000000000E+00  0.00000000000E+00  0.19166243326E+04  0.19166243326E+04  0.00000000000E+00 0. -1.
         21   -1    0    0  503  502  0.00000000000E+00 -0.00000000000E+00 -0.85828070723E+02  0.85828070723E+02  0.00000000000E+00 0. -1.
         21    1    1    2  503  504 -0.36243732411E+02  0.28026159148E+02  0.79813451716E+02  0.92028586920E+02  0.00000000000E+00 0. -1.
         21    1    1    2  504  501  0.45332892246E+02  0.26930805907E+02  0.38989206397E+02  0.65578179615E+02  0.00000000000E+00 0.  1.
         21    1    1    2  505  502  0.25776150541E+03 -0.12502373879E+03  0.33639511061E+03  0.44185246335E+03  0.00000000000E+00 0. -1.
          2    1    1    2  501    0 -0.26685066524E+03  0.70066773737E+02  0.13755984932E+04  0.14029931735E+04  0.00000000000E+00 0. -1.
<scales pt_clust_3="45.81565" pt_clust_4="50.42275" pt_clust_5="277.19728" pt_clust_6="14000.00000"></scales>
<clustering>
<clus scale="   45.816">  2  3  1 -1</clus>
<clus scale="   50.423">  2  4  1 -1</clus>
<clus scale="  277.197">  2  5  1 -1</clus>
<clus scale="   45.816">  2  3  1 -1</clus>
</clustering>
</event>
<event>
 6    0  0.4081161E+002  0.5505092E+02  0.7546771E-02  0.1419858E+00
         21   -1    0    0  505  502  0.00000000000E+00  0.00000000000E+00  0.24616972208E+03  0.24616972208E+03  0.00000000000E+00 0.  1.
         -1   -1    0    0    0  501 -0.00000000000E+00 -0.00000000000E+00 -0.47512805616E+03  0.47512805616E+03  0.00000000000E+00 0. -1.
         21    1    1    2  503  502 -0.58676648851E+02  0.57773652301E+02  0.12142243762E+03  0.14671111880E+03  0.00000000000E+00 0.  1.
         21    1    1    2  504  503 -0.28642354727E+01 -0.72918041766E+02 -0.99156285552E+02  0.12311463611E+03  0.00000000000E+00 0. -1.
         21    1    1    2  505  501  0.34566063588E+02 -0.30711119242E+02  0.92628403215E+02  0.10352780631E+03  0.00000000000E+00 0.  1.
         -1    1    1    2    0  504  0.26974820735E+02  0.45855508708E+02 -0.34385288937E+03  0.34794421702E+03  0.00000000000E+00 0. -1.
<scales pt_clust_3="40.59742" pt_clust_4="14000.00000" pt_clust_5="46.23836" pt_clust_6="55.05092"></scales>
<clustering>
<clus scale="   46.238">  1  5  2 -1</clus>
<clus scale="   40.597">  1  3  2 -1</clus>
<clus scale="   55.051">  2  6  1 -1</clus>
<clus scale="   46.238">  1  3  2 -1</clus>
</clustering>
</event>
<event>
 6    0  0.4081161E+002  0.3338378E+03  0.7546771E-02  0.1069451E+00
          2   -1    0    0  505    0 -0.00000000000E+00  0.00000000000E+00  0.12826747972E+04  0.12826747972E+04  0.00000000000E+00 0.  1.
         21   -1    0    0  504  502  0.00000000000E+00 -0.00000000000E+00 -0.55791466934E+03  0.55791466934E+03  0.00000000000E+00 0.  1.
         21    1    1    2  503  502 -0.78160382743E+02 -0.14178420445E+02 -0.18587068698E+03  0.20213358285E+03  0.00000000000E+00 0.  1.
         21    1    1    2  504  501 -0.66343091265E+02  0.55164894319E+02  0.41613334738E+03  0.42498415750E+03  0.00000000000E+00 0.  1.
         21    1    1    2  505  503  0.35918786955E+03 -0.14252595594E+03 -0.23091926788E+03  0.45017028115E+03  0.00000000000E+00 0.  1.
          2    1    1    2  501    0 -0.21468439554E+03  0.10153948206E+03  0.72541673532E+03  0.76330144503E+03  0.00000000000E+00 0.  1.
<scales pt_clust_3="79.43597" pt_clust_4="44.10162" pt_clust_5="325.72116" pt_clust_6="44.10162"></scales>
<clustering>
<clus scale="   44.102">  4  6 -1 -1</clus>
<clus scale="   79.436">  2  3  1 -1</clus>
<clus scale="  325.721">  2  5  1 -1</clus>
<clus scale="   79.436">  2  3  1 -1</clus>
</clustering>
</event>
<event>
 6    0  0.4081161E+002  0.1339099E+03  0.7546771E-02  0.1221767E+00
          3   -1    0    0  503    0 -0.00000000000E+00  0.00000000000E+00  0.73010773677E+03  0.73010773677E+03  0.00000000000E+00 0.  1.
         21   -1    0    0  504  502  0.00000000000E+00 -0.00000000000E+00 -0.76157071764E+02  0.76157071764E+02  0.00000000000E+00 0.  1.
         21    1    1    2  503  505  0.43024137441E+02  0.22349017757E+02  0.29811600227E+03  0.30203262375E+03  0.00000000000E+00 0.  1.
         21    1    1    2  504  501 -0.11838644894E+03 -0.84745492869E+02  0.16280598187E+03  0.21841002172E+03  0.00000000000E+00 0.  1.
         21    1    1    2  505  502  0.10238409065E+03  0.77308415872E+02  0.47100320700E+02  0.13666577257E+03  0.00000000000E+00 0.  1.
          3    1    1    2  501    0 -0.27021779146E+02 -0.14911940760E+02  0.14592836017E+03  0.14915639050E+03  0.00000000000E+00 0.  1.
<scales pt_clust_3="32.59261" pt_clust_4="133.90988" pt_clust_5="14000.00000" pt_clust_6="30.86329"></scales>
<clustering>
<clus scale="   30.863">  1  6  2 -1</clus>
<clus scale="   32.593">  1  3  2 -1</clus>
<clus scale="  133.910">  1  4  2 -1</clus>
<clus scale="  133.910">  2  3  1 -1</clus>
</clustering>
</event>
<event>
 6    0  0.4081161E+002  0.8130030E+02  0.7546771E-02  0.1325401E+00
         21   -1    0    0  505  502  0.00000000000E+00  0.00000000000E+00  0.65575505976E+03  0.65575505976E+03  0.00000000000E+00 0.  1.
          1   -1    0    0  504    0 -0.00000000000E+00 -0.00000000000E+00 -0.11932996026E+04  0.11932996026E+04  0.00000000000E+00 0. -1.
         21    1    1    2  503  501  0.70205633635E+02  0.13436648249E+03  0.11221819695E+02  0.15201681436E+03  0.00000000000E+00 0.  1.
         21    1    1    2  504  502  0.14543424095E+02 -0.27930075303E+02 -0.25762575232E+03  0.25954311501E+03  0.00000000000E+00 0. -1.
         21    1    1    2  505  503 -0.45906063164E+02 -0.63869405136E+02  0.56951058859E+03  0.57491649660E+03  0.00000000000E+00 0.  1.
          1    1    1    2  501    0 -0.38842994566E+02 -0.42567002054E+02 -0.86065119878E+03  0.86257823637E+03  0.00000000000E+00 0. -1.
<scales pt_clust_3="14000.00000" pt_clust_4="31.48969" pt_clust_5="81.30030" pt_clust_6="72.89495"></scales>
<clustering>
<clus scale="   31.490">  2  4  1 -1</clus>
<clus scale="   72.895">  2  6  1 -1</clus>
<clus scale="   81.300">  1  5  2 -1</clus>
<clus scale="   81.300">  1  3  2 -1</clus>
</clustering>
</event>
<event>
 6    0  0.4081161E+002  0.1040025E+03  0.7546771E-02  0.1272098E+00
          1   -1    0    0  504    0 -0.00000000000E+00  0.00000000000E+00  0.29380755800E+04  0.29380755800E+04  0.00000000000E+00 0. -1.
         21   -1    0    0  505  502  0.00000000000E+00 -0.00000000000E+00 -0.84002532228E+03  0.84002532228E+03  0.00000000000E+00 0.  1.
         21    1    1    2  503  501 -0.37204000556E+00  0.54927646079E+02  0.66678597434E+03  0.66904463251E+03  0.00000000000E+00 0.  1.
         21    1    1    2  504  502 -0.77380300964E+02  0.67912791765E+02 -0.78890615427E+03  0.79559586381E+03  0.00000000000E+00 0.  1.
         21    1    1    2  505  503  0.64234752111E+02 -0.15711846182E+03  0.10847310936E+03  0.20144162895E+03  0.00000000000E+00 0. -1.
          1    1    1    2  501    0  0.13517588859E+02  0.34278023972E+02  0.21116973282E+04  0.21120187770E+04  0.00000000000E+00 0. -1.
<scales pt_clust_3="83.30947" pt_clust_4="14000.00000" pt_clust_5="104.00248" pt_clust_6="36.84709"></scales>
<clustering>
<clus scale="   36.847">  1  6  2 -1</clus>
<clus scale="   83.309">  1  3  2 -1</clus>
<clus scale="  104.002">  1  5  2 -1</clus>
<clus scale="  104.002">  2  3  1 -1</clus>
</clustering>
</event>
<event>
 6    0  0.4081161E+002  0.1603827E+03  0.7546771E-02  0.1188265E+00
         21   -1    0    0  504  502  0.00000000000E+00  0.00000000000E+00  0.27552033785E+03  0.27552033785E+03  0.00000000000E+00 0. -1.
          2   -1    0    0  503    0 -0.00000000000E+00 -0.00000000000E+00 -0.86158684145E+03  0.86158684145E+03  0.00000000000E+00 0.  1.
         21    1    1    2  503  505 -0.39470238510E+02 -0.36320869030E+02 -0.77816830241E+02  0.94512244306E+02  0.00000000000E+00 0.  1.
         21    1    1    2  504  501  0.27854379330E+02  0.85012407327E+02  0.18274071187E+03  0.20346288021E+03  0.00000000000E+00 0. -1.
         21    1    1    2  505  502  0.70461282201E+02  0.53776006437E+02  0.41003436031E+02  0.97662341381E+02  0.00000000000E+00 0. -1.
          2    1    1    2  501    0 -0.58845423021E+02 -0.10246754473E+03 -0.73199382126E+03  0.74146971340E+03  0.00000000000E+00 0.  1.
<scales pt_clust_3="53.63865" pt_clust_4="14000.00000" pt_clust_5="86.68658" pt_clust_6="160.38269"></scales>
<clustering>
<clus scale="   53.639">  2  3  1 -1</clus>
<clus scale="   86.687">  1  5  2 -1</clus>
<clus scale="  160.383">  2  6  1 -1</clus>
<clus scale="   86.687">  1  3  2 -1</clus>
</clustering>
</event>
<event>
 6    0  0.4081161E+002  0.7720636E+02  0.7546771E-02  0.1337172E+00
          1   -1    0    0  504    0 -0.00000000000E+00  0.00000000000E+00  0.11032176437E+03  0.11032176437E+03  0.00000000000E+00 0.  1.
         21   -1    0    0  503  502  0.00000000000E+00 -0.00000000000E+00 -0.40457917973E+03  0.40457917973E+03  0.00000000000E+00 0.  1.
         21    1    1    2  503  501  0.30544302256E+02 -0.48438973559E+02 -0.23518247562E+03  0.24205388945E+03  0.00000000000E+00 0.  1.
         21    1    1    2  504  505  0.22991791131E+02 -0.31104104438E+02 -0.21195281195E+02  0.44105869419E+02  0.00000000000E+00 0. -1.
         21    1    1    2  505  502 -0.74799625541E+02 -0.20642426887E+02 -0.85786140909E+02  0.11567348763E+03  0.00000000000E+00 0.  1.
          1    1    1    2  501    0  0.21263532154E+02  0.10018550488E+03  0.47906482361E+02  0.11306769760E+03  0.00000000000E+00 0.  1.
<scales pt_clust_3="58.60563" pt_clust_4="38.67929" pt_clust_5="14000.00000" pt_clust_6="77.20636"></scales>
<clustering>
<clus scale="   38.679">  1  4  2 -1</clus>
<clus scale="   58.606">  2  3  1 -1</clus>
<clus scale="   77.206">  1  6  2 -1</clus>
<clus scale="   58.606">  2  3  1 -1</clus>
</clustering>
</event>
<event>
 6    0  0.4081161E+002  0.8352412E+02  0.7546771E-02  0.1319338E+00
         21   -1    0    0  503  502  0.00000000000E+00  0.00000000000E+00  0.79728898151E+02  0.79728898151E+02  0.00000000000E+00 0. -1.
          2   -1    0    0  504    0 -0.00000000000E+00 -0.00000000000E+00 -0.31648367476E+04  0.31648367476E+04  0.00000000000E+00 0.  1.
         21    1    1    2  503  501 -0.53816659951E+02  0.10376676799E+03  0.17839072012E+02  0.11824553910E+03  0.00000000000E+00 0. -1.
         21    1    1    2  504  505 -0.53742831955E+01 -0.36406160693E+02 -0.10518358640E+03  0.11143553430E+03  0.00000000000E+00 0. -1.
         21    1    1    2  505  502 -0.16707429206E+02 -0.32676238144E+02 -0.34257533509E+02  0.50204116684E+02  0.00000000000E+00 0.  1.
          2    1    1    2  501    0  0.75898372353E+02 -0.34684369152E+02 -0.29635058016E+04  0.29646804557E+04  0.00000000000E+00 0.  1.
<scales pt_clust_3="14000.00000" pt_clust_4="38.31867" pt_clust_5="36.69979" pt_clust_6="83.52412"></scales>
<clustering>
<clus scale="   36.700">  1  5  2 -1</clus>
<clus scale="   38.319">  1  4  2 -1</clus>
<clus scale="   83.524">  2  6  1 -1</clus>
<clus scale="   36.700">  1  3  2 -1</clus>
</clustering>
</event>
<event>
 6    0  0.4081161E+002  0.7681299E+02  0.7546771E-02  0.1338347E+00
         21   -1    0    0  504  502  0.00000000000E+00  0.00000000000E+00  0.43434646245E+02  0.43434646245E+02  0.00000000000E+00 0.  1.
          2   -1    0    0  505    0 -0.00000000000E+00 -0.00000000000E+00 -0.32026414954E+04  0.32026414954E+04  0.00000000000E+00 0.  1.
         21    1    1    2  503  502 -0.66192782130E+02 -0.51695163760E+01  0.64205840993E+01  0.66704064388E+02  0.00000000000E+00 0.  1.
         21    1    1    2  504  501  0.87108809278E+02 -0.67793895666E+02 -0.59073628086E+03  0.60096032354E+03  0.00000000000E+00 0.  1.
         21    1    1    2  505  503 -0.35373683857E+02  0.63196197371E+01 -0.25509227066E+03  0.25761075610E+03  0.00000000000E+00 0. -1.
          2    1    1    2  501    0  0.14457656709E+02  0.66643792305E+02 -0.23197988818E+04  0.23208009977E+04  0.00000000000E+00 0.  1.
<scales pt_clust_3="66.75016" pt_clust_4="76.81299" pt_clust_5="35.93376" pt_clust_6="14000.00000"></scales>
<clustering>
<clus scale="   35.934">  2  5  1 -1</clus>
<clus scale="   66.750">  1  3  2 -1</clus>
<clus scale="   76.813">  1  4  2 -1</clus>
<clus scale="   66.750">  1  3  2 -1</clus>
</clustering>
</event>
<event>
 6    0  0.4081161E+002  0.1022178E+03  0.7546771E-02  0.1275700E+00
          2   -1    0    0  503    0 -0.00000000000E+00  0.00000000000E+00  0.32229775782E+03  0.32229775782E+03  0.00000000000E+00 0. -1.
         21   -1    0    0  501  502  0.00000000000E+00 -0.00000000000E+00 -0.53020734686E+03  0.53020734686E+03  0.00000000000E+00 0.  1.
         21    1    1    2  503  505  0.29681606332E+02  0.96432726015E+01  0.32064475272E+02  0.44745067162E+02  0.00000000000E+00 0. -1.
         21    1    1    2  504  502 -0.47500132348E+02  0.90357470908E+02 -0.49061647841E+03  0.50112400063E+03  0.00000000000E+00 0.  1.
         21    1    1    2  505  504 -0.40846534120E+02 -0.80110413714E+01  0.10586883871E+02  0.42949950449E+02  0.00000000000E+00 0. -1.
          2    1    1    2  501    0  0.58665060136E+02 -0.91989702138E+02  0.24005553024E+03  0.26368608643E+03  0.00000000000E+00 0. -1.
<scales pt_clust_3="31.20882" pt_clust_4="102.21784" pt_clust_5="38.70495" pt_clust_6="14000.00000"></scales>
<clustering>
<clus scale="   31.209">  1  3  2 -1</clus>
<clus scale="   38.705">  1  5  2 -1</clus>
<clus scale="  102.218">  2  4  1 -1</clus>
<clus scale="  102.218">  2  3  1 -1</clus>
</clustering>
</event>
<event>
 6    0  0.4081161E+002  0.1524171E+03  0.7546771E-02  0.1197534E+00
          2   -1    0    0  505    0 -0.00000000000E+00  0.00000000000E+00  0.33316197922E+03  0.33316197922E+03  0.00000000000E+00 0.  1.
         21   -1    0    0  503  502  0.00000000000E+00 -0.00000000000E+00 -0.64725871344E+03  0.64725871344E+03  0.00000000000E+00 0. -1.
         21    1    1    2  503  501 -0.70234225600E+01  0.33577478671E+02 -0.78799459095E+02  0.85942598821E+02  0.00000000000E+00 0. -1.
         21    1    1    2  504  502 -0.47552499493E+02 -0.77387316443E+02 -0.48428602402E+03  0.49273013914E+03  0.00000000000E+00 0. -1.
         21    1    1    2  505  504 -0.12661397356E+03  0.43972248856E+02  0.10184661424E+03  0.16833713138E+03  0.00000000000E+00 0. -1.
          2    1    1    2  501    0  0.18118989561E+03 -0.16241108359E+00  0.14714213466E+03  0.23341082332E+03  0.00000000000E+00 0.  1.
<scales pt_clust_3="34.30416" pt_clust_4="72.20451" pt_clust_5="152.41713" pt_clust_6="14000.00000"></scales>
<clustering>
<clus scale="   34.304">  2  3  1 -1</clus>
<clus scale="   72.205">  2  4  1 -1</clus>
<clus scale="  152.417">  1  5  2 -1</clus>
<clus scale="   34.304">  2  3  1 -1</clus>
</clustering>
</event>
<event>
 6    0  0.4081161E+002  0.7879192E+02  0.7546771E-02  0.1332515E+00
          1   -1    0    0  504    0 -0.00000000000E+00  0.00000000000E+00  0.18667975635E+04  0.18667975635E+04  0.00000000000E+00 0. -1.
         21   -1    0    0  503  502  0.00000000000E+00 -0.00000000000E+00 -0.22461106010E+02  0.22461106010E+02  0.00000000000E+00 0.  1.
         21    1    1    2  503  501 -0.14669912156E-01  0.53221550421E+02  0.28146117348E+03  0.28644881885E+03  0.00000000000E+00 0.  1.
         21    1    1    2  504  505 -0.70182843381E+02 -0.26786002862E+02  0.29425617788E+03  0.30369362798E+03  0.00000000000E+00 0.  1.
         21    1    1    2  505  502 -0.64445278825E+01 -0.48820586415E+02  0.29452008416E+02  0.57379459716E+02  0.00000000000E+00 0.  1.
          1    1    1    2  501    0  0.76642041176E+02  0.22385038856E+02  0.12391670977E+04  0.12417367629E+04  0.00000000000E+00 0. -1.
<scales pt_clust_3="38.94029" pt_clust_4="14000.00000" pt_clust_5="49.24410" pt_clust_6="78.79192"></scales>
<clustering>
<clus scale="   49.244">  2  5  1 -1</clus>
<clus scale="   38.940">  2  3  1 -1</clus>
<clus scale="   78.792">  1  6  2 -1</clus>
<clus scale="   49.244">  2  3  1 -1</clus>
</clustering>
</event>
<event>
 6    0  0.4081161E+002  0.8028938E+02  0.7546771E-02  0.1328232E+00
          1   -1    0    0  503    0 -0.00000000000E+00  0.00000000000E+00  0.90864427944E+03  0.90864427944E+03  0.00000000000E+00 0.  1.
         21   -1    0    0  504  502  0.00000000000E+00 -0.00000000000E+00 -0.21440753635E+03  0.21440753635E+03  0.00000000000E+00 0. -1.
         21    1    1    2  503  505  0.31957922486E+01 -0.75792451654E+02  0.44537932725E+02  0.87967813814E+02  0.00000000000E+00 0. -1.
         21    1    1    2  504  501 -0.48904306299E+01  0.77148746922E+02 -0.17718436621E+02  0.79308186587E+02  0.00000000000E+00 0. -1.
         21    1    1    2  505  502 -0.47659012208E+02  0.67875591677E+01 -0.13936463603E+03  0.14744474958E+03  0.00000000000E+00 0. -1.
          1    1    1    2  501    0  0.49353650590E+02 -0.81438544356E+01  0.80678188302E+03  0.80833106581E+03  0.00000000000E+00 0.  1.
<scales pt_clust_3="80.28938" pt_clust_4="14000.00000" pt_clust_5="48.13993" pt_clust_6="49.49600"></scales>
<clustering>
<clus scale="   48.140">  2  5  1 -1</clus>
<clus scale="   49.496">  1  6  2 -1</clus>
<clus scale="   80.289">  1  3  2 -1</clus>
<clus scale="   48.140">  2  3  1 -1</clus>
</clustering>
</event>
<event>
 6    0  0.4081161E+002  0.1075754E+03  0.7546771E-02  0.1265127E+00
          2   -1    0    0  505    0 -0.00000000000E+00  0.00000000000E+00  0.23689419576E+03  0.23689419576E+03  0.00000000000E+00 0.  1.
         21   -1    0    0  504  502  0.00000000000E+00 -0.00000000000E+00 -0.34896821912E+03  0.34896821912E+03  0.00000000000E+00 0. -1.
         21    1    1    2  503  502  0.61636130843E+02  0.27881722045E+02  0.84870600617E+01  0.68179419461E+02  0.00000000000E+00 0.  1.
         21    1    1    2  504  501 -0.59173763916E+02 -0.96013135051E+02 -0.27199800457E+03  0.29445368215E+03  0.00000000000E+00 0. -1.
         21    1    1    2  505  503  0.51283795565E+02 -0.24187723171E+02  0.60775056459E+02  0.83118476449E+02  0.00000000000E+00 0.  1.
          2    1    1    2  501    0 -0.53746162492E+02  0.92319136177E+02  0.90661864690E+02  0.14011083683E+03  0.00000000000E+00 0.  1.
<scales pt_clust_3="76.84901" pt_clust_4="107.57538" pt_clust_5="56.70162" pt_clust_6="14000.00000"></scales>
<clustering>
<clus scale="   56.702">  1  5  2 -1</clus>
<clus scale="   76.849">  1  3  2 -1</clus>
<clus scale="  107.575">  2  4  1 -1</clus>
<clus scale="  107.575">  2  3  1 -1</clus>
</clustering>
</event>
<event>
 6    0  0.4081161E+002  0.9581888E+02  0.7546771E-02  0.1289342E+00
          2   -1    0    0  504    0 -0.00000000000E+00  0.00000000000E+00  0.70146361768E+03  0.70146361768E+03  0.00000000000E+00 0. -1.
         21   -1    0    0  505  502  0.00000000000E+00 -0.00000000000E+00 -0.73632243806E+02  0.73632243806E+02  0.00000000000E+00 0. -1.
         21    1    1    2  503  502 -0.10449900760E+02 -0.54274059682E+02  0.23657482378E+03  0.24294551082E+03  0.00000000000E+00 0. -1.
         21    1    1    2  504  503  0.94726431683E+01  0.31442566272E+02  0.70131232418E+02  0.77438722244E+02  0.00000000000E+00 0. -1.
         21    1    1    2  505  501 -0.75748861933E+02  0.60811043542E+02 -0.23226910393E+02  0.99876736366E+02  0.00000000000E+00 0. -1.
          2    1    1    2  501    0  0.76726119524E+02 -0.37979550132E+02  0.34435222807E+03  0.35483489206E+03  0.00000000000E+00 0. -1.
<scales pt_clust_3="42.81222" pt_clust_4="32.83848" pt_clust_5="95.81888" pt_clust_6="14000.00000"></scales>
<clustering>
<clus scale="   32.838">  1  4  2 -1</clus>
<clus scale="   42.812">  1  3  2 -1</clus>
<clus scale="   95.819">  2  5  1 -1</clus>
<clus scale="   95.819">  2  3  1 -1</clus>
</clustering>
</event>
<event>
 6    0  0.4081161E+002  0.1120419E+03  0.7546771E-02  0.1256835E+00
          1   -1    0    0  505    0 -0.00000000000E+00  0.00000000000E+00  0.55583390974E+03  0.55583390974E+03  0.00000000000E+00 0. -1.
         21   -1    0    0  503  502  0.00000000000E+00 -0.00000000000E+00 -0.49657967492E+03  0.49657967492E+03  0.00000000000E+00 0.  1.
         21    1    1    2  503  504 -0.53011647992E+02  0.55552911467E+02 -0.43502919449E+03  0.44175418601E+03  0.00000000000E+00 0.  1.
         21    1    1    2  504  501 -0.20609717233E+02 -0.41129513539E+02  0.11885916452E+03  0.12745155283E+03  0.00000000000E+00 0. -1.
         21    1    1    2  505  502  0.89518522382E+02  0.42306656434E+02 -0.41396989028E+01  0.99098719140E+02  0.00000000000E+00 0.  1.
          1    1    1    2  501    0 -0.15897157157E+02 -0.56730054362E+02  0.37956396369E+03  0.38410912668E+03  0.00000000000E+00 0. -1.
<scales pt_clust_3="76.78776" pt_clust_4="42.92319" pt_clust_5="100.96495" pt_clust_6="42.92319"></scales>
<clustering>
<clus scale="   42.923">  4  6 -1 -1</clus>
<clus scale="   76.788">  2  3  1 -1</clus>
<clus scale="  100.965">  2  5  1 -1</clus>
<clus scale="   76.788">  2  3  1 -1</clus>
</clustering>
</event>
<event>
 6    0  0.4081161E+002  0.1943889E+03  0.7546771E-02  0.1154561E+00
          2   -1    0    0  504    0 -0.00000000000E+00  0.00000000000E+00  0.35943819859E+04  0.35943819859E+04  0.00000000000E+00 0. -1.
         21   -1    0    0  503  502  0.00000000000E+00 -0.00000000000E+00 -0.41818206451E+03  0.41818206451E+03  0.00000000000E+00 0. -1.
         21    1    1    2  503  501  0.89646938143E+02  0.69902443519E+02  0.44295842231E+02  0.12200428995E+03  0.00000000000E+00 0.  1.
         21    1    1    2  504  505  0.14934329971E+03  0.13316041974E+03  0.10683826157E+04  0.10869574656E+04  0.00000000000E+00 0. -1.
         21    1    1    2  505  502 -0.66240263431E+02 -0.26802453802E+03 -0.31446458645E+03  0.41846493475E+03  0.00000000000E+00 0. -1.
          2    1    1    2  501    0 -0.17274997443E+03  0.64961674761E+02  0.23779860499E+04  0.23851373601E+04  0.00000000000E+00 0. -1.
<scales pt_clust_3="113.67904" pt_clust_4="14000.00000" pt_clust_5="194.38889" pt_clust_6="184.00372"></scales>
<clustering>
<clus scale="  113.679">  2  3  1 -1</clus>
<clus scale="  184.004">  1  6  2 -1</clus>
<clus scale="  194.389">  2  5  1 -1</clus>
<clus scale="  113.679">  2  3  1 -1</clus>
</clustering>
</event>
<event>
 6    0  0.4081161E+002  0.1695006E+03  0.7546771E-02  0.1178370E+00
         21   -1    0    0  503  502  0.00000000000E+00  0.00000000000E+00  0.22054714610E+03  0.22054714610E+03  0.00000000000E+00 0.  1.
          1   -1    0    0  505    0 -0.00000000000E+00 -0.00000000000E+00 -0.16741473132E+04  0.16741473132E+04  0.00000000000E+00 0. -1.
         21    1    1    2  503  501  0.12033216529E+01  0.31184247169E+02  0.18050470797E+03  0.18318257246E+03  0.00000000000E+00 0.  1.
         21    1    1    2  504  502 -0.21059141989E+02  0.16645732271E+03 -0.20775077467E+03  0.26704290315E+03  0.00000000000E+00 0.  1.
         21    1    1    2  505  504 -0.46682975021E+02 -0.88485431311E+02 -0.59924801446E+03  0.60754189531E+03  0.00000000000E+00 0. -1.
          1    1    1    2  501    0  0.66538795357E+02 -0.10915613857E+03 -0.82710608593E+03  0.83692708837E+03  0.00000000000E+00 0. -1.
<scales pt_clust_3="31.20746" pt_clust_4="169.50064" pt_clust_5="97.04023" pt_clust_6="14000.00000"></scales>
<clustering>
<clus scale="   31.207">  1  3  2 -1</clus>
<clus scale="   97.040">  2  5  1 -1</clus>
<clus scale="  169.501">  1  4  2 -1</clus>
<clus scale="   31.207">  1  3  2 -1</clus>
</clustering>
</event>
<event>
 6    0  0.4081161E+002  0.1364242E+03  0.7546771E-02  0.1218223E+00
         21   -1    0    0  503  502  0.00000000000E+00  0.00000000000E+00  0.79333135651E+03  0.79333135651E+03  0.00000000000E+00 0.  1.
         -1   -1    0    0    0  501 -0.00000000000E+00 -0.00000000000E+00 -0.35250113734E+03  0.35250113734E+03  0.00000000000E+00 0. -1.
         21    1    1    2  503  505 -0.24732380839E+02  0.32799802015E+02  0.14708951155E+03  0.15271817863E+03  0.00000000000E+00 0. -1.
         21    1    1    2  504  502 -0.52340763406E+02 -0.14353817668E+03  0.60304063531E+03  0.62209386069E+03  0.00000000000E+00 0.  1.
         21    1    1    2  505  501 -0.12340850363E+01 -0.31497570325E+02 -0.15014841428E+02  0.34915116573E+02  0.00000000000E+00 0.  1.
         -1    1    1    2    0  504  0.78307229282E+02  0.14223594499E+03 -0.29428508626E+03  0.33610533795E+03  0.00000000000E+00 0. -1.
<scales pt_clust_3="40.87006" pt_clust_4="14000.00000" pt_clust_5="31.52174" pt_clust_6="136.42417"></scales>
<clustering>
<clus scale="   31.522">  2  5  1 -1</clus>
<clus scale="   40.870">  1  3  2 -1</clus>
<clus scale="  136.424">  2  6  1 -1</clus>
<clus scale="   40.870">  1  3  2 -1</clus>
</clustering>
</event>
<event>
 6    0  0.4081161E+002  0.1389131E+03  0.7546771E-02  0.1214799E+00
          2   -1    0    0  505    0 -0.00000000000E+00  0.00000000000E+00  0.21149066690E+04  0.21149066690E+04  0.00000000000E+00 0. -1.
         21   -1    0    0  503  502  0.00000000000E+00 -0.00000000000E+00 -0.55098003898E+02  0.55098003898E+02  0.00000000000E+00 0. -1.
         21    1    1    2  503  504 -0.34266877348E+01  0.11462285783E+03  0.71781893763E+03  0.72692101975E+03  0.00000000000E+00 0. -1.
         21    1    1    2  504  501  0.35571753598E+02 -0.67742715949E+02  0.52380966112E+03  0.52936847875E+03  0.00000000000E+00 0. -1.
         21    1    1    2  505  502 -0.34686482564E+02  0.21945013321E+02 -0.37303185164E+02  0.55464072207E+02  0.00000000000E+00 0. -1.
          2    1    1    2  501    0  0.25414167007E+01 -0.68825155201E+02  0.85548325155E+03  0.85825110223E+03  0.00000000000E+00 0. -1.
<scales pt_clust_3="127.91050" pt_clust_4="54.14379" pt_clust_5="41.04553" pt_clust_6="54.14379"></scales>
<clustering>
<clus scale="   41.046">  2  5  1 -1</clus>
<clus scale="   54.144">  4  6 -1 -1</clus>
<clus scale="  127.911">  2  3  1 -1</clus>
<clus scale="   41.046">  2  3  1 -1</clus>
</clustering>
</event>
<event>
 6    0  0.4081161E+002  0.1206947E+03  0.7546771E-02  0.1241955E+00
         21   -1    0    0  505  502  0.00000000000E+00  0.00000000000E+00  0.91770131420E+02  0.91770131420E+02  0.00000000000E+00 0.  1.
         -4   -1    0    0    0  501 -0.00000000000E+00 -0.00000000000E+00 -0.96799781564E+03  0.96799781564E+03  0.00000000000E+00 0.  1.
         21    1    1    2  503  502  0.10024002931E+03  0.50410767350E+02  0.30672856355E+02  0.11631910014E+03  0.00000000000E+00 0.  1.
         21    1    1    2  504  503 -0.38290169849E+02 -0.58879363802E+02 -0.34104792209E+03  0.34820482729E+03  0.00000000000E+00 0.  1.
         21    1    1    2  505  501 -0.71187379502E+02  0.71770753554E+02 -0.20279396401E+03  0.22659231210E+03  0.00000000000E+00 0.  1.
         -4    1    1    2    0  504  0.92375200444E+01 -0.63302157102E+02 -0.36305865448E+03  0.36865170753E+03  0.00000000000E+00 0.  1.
<scales pt_clust_3="110.55486" pt_clust_4="46.21444" pt_clust_5="101.08751" pt_clust_6="46.21444"></scales>
<clustering>
<clus scale="   46.214">  4  6 -1 -1</clus>
<clus scale="  101.088">  2  5  1 -1</clus>
<clus scale="  110.555">  1  3  2 -1</clus>
<clus scale="  110.555">  1  3  2 -1</clus>
</clustering>
</event>
<event>
 6    0  0.4081161E+002  0.8197858E+02  0.7546771E-02  0.1323528E+00
          2   -1    0    0  505    0 -0.00000000000E+00  0.00000000000E+00  0.60584120932E+03  0.60584120932E+03  0.00000000000E+00 0. -1.
         21   -1    0    0  503  502  0.00000000000E+00 -0.00000000000E+00 -0.61626990453E+03  0.61626990453E+03  0.00000000000E+00 0. -1.
         21    1    1    2  503  501 -0.10046163595E+03 -0.85214360520E+01 -0.48582368354E+03  0.49617517739E+03  0.00000000000E+00 0. -1.
         21    1    1    2  504  502  0.30722591788E+02 -0.39262847909E+02 -0.10034409164E+03  0.11204635469E+03  0.00000000000E+00 0. -1.
         21    1    1    2  505  504  0.69848428188E+02  0.77525542272E+01  0.49098291291E+02  0.85729500320E+02  0.00000000000E+00 0. -1.
          2    1    1    2  501    0 -0.10938402432E+00  0.40031729734E+02  0.52664078868E+03  0.52816008146E+03  0.00000000000E+00 0. -1.
<scales pt_clust_3="14000.00000" pt_clust_4="47.53293" pt_clust_5="81.97858" pt_clust_6="40.03188"></scales>
<clustering>
<clus scale="   40.032">  1  6  2 -1</clus>
<clus scale="   47.533">  2  4  1 -1</clus>
<clus scale="   81.979">  1  5  2 -1</clus>
<clus scale="   47.533">  2  3  1 -1</clus>
</clustering>
</event>
<event>
 6    0  0.4081161E+002  0.1177337E+03  0.7546771E-02  0.1246883E+00
          1   -1    0    0  503    0 -0.00000000000E+00  0.00000000000E+00  0.51122255932E+03  0.51122255932E+03  0.00000000000E+00 0. -1.
         21   -1    0    0  505  502  0.00000000000E+00 -0.00000000000E+00 -0.11119015275E+03  0.11119015275E+03  0.00000000000E+00 0.  1.
         21    1    1    2  503  502 -0.15404599482E+02  0.25746304240E+02 -0.75972097681E+02  0.81681904319E+02  0.00000000000E+00 0.  1.
         21    1    1    2  504  501 -0.46379996609E+02  0.31443205159E+02  0.10686037219E+03  0.12066034303E+03  0.00000000000E+00 0.  1.
         21    1    1    2  505  504  0.10168054868E+03 -0.79059055998E+02  0.15685144250E+03  0.20295724508E+03  0.00000000000E+00 0. -1.
          1    1    1    2  501    0 -0.39895952594E+02  0.21869546599E+02  0.21229268955E+03  0.21711321963E+03  0.00000000000E+00 0. -1.
<scales pt_clust_3="30.00290" pt_clust_4="38.62574" pt_clust_5="109.15454" pt_clust_6="38.62574"></scales>
<clustering>
<clus scale="   30.003">  2  3  1 -1</clus>
<clus scale="   38.626">  4  6 -1 -1</clus>
<clus scale="  109.155">  2  5  1 -1</clus>
<clus scale="   30.003">  2  3  1 -1</clus>
</clustering>
</event>
<event>
 6    0  0.4081161E+002  0.1576162E+03  0.7546771E-02  0.1191415E+00
          2   -1    0    0  505    0 -0.00000000000E+00  0.00000000000E+00  0.17511607400E+04  0.17511607400E+04  0.00000000000E+00 0. -1.
         21   -1    0    0  503  502  0.00000000000E+00 -0.00000000000E+00 -0.25970085656E+03  0.25970085656E+03  0.00000000000E+00 0.  1.
         21    1    1    2  503  504 -0.91939296018E+02  0.68934348459E+02 -0.21764527907E+03  0.24611835781E+03  0.00000000000E+00 0.  1.
         21    1    1    2  504  501  0.68732326426E+02 -0.16699965392E+02  0.70658532855E+03  0.71011678481E+03  0.00000000000E+00 0. -1.
         21    1    1    2  505  502 -0.38114943985E+02  0.94780715479E+01 -0.82388531329E+01  0.40130555643E+02  0.00000000000E+00 0.  1.
          2    1    1    2  501    0  0.61321913578E+02 -0.61712454614E+02  0.10107586871E+04  0.10144958983E+04  0.00000000000E+00 0. -1.
<scales pt_clust_3="151.28469" pt_clust_4="39.85440" pt_clust_5="39.27573" pt_clust_6="39.85440"></scales>
<clustering>
<clus scale="   39.276">  2  5  1 -1</clus>
<clus scale="   39.854">  4  6 -1 -1</clus>
<clus scale="  151.285">  2  3  1 -1</clus>
<clus scale="   39.276">  2  3  1 -1</clus>
</clustering>
</event>
<event>
 6    0  0.4081161E+002  0.1322364E+03  0.7546771E-02  0.1224175E+00
         21   -1    0    0  504  502  0.00000000000E+00  0.00000000000E+00  0.34090919353E+03  0.34090919353E+03  0.00000000000E+00 0. -1.
          1   -1    0    0  505    0 -0.00000000000E+00 -0.00000000000E+00 -0.66384558884E+03  0.66384558884E+03  0.00000000000E+00 0. -1.
         21    1    1    2  503  501  0.73369176953E+02  0.11474341189E+03  0.26095218434E+03  0.29435544706E+03  0.00000000000E+00 0. -1.
         21    1    1    2  504  503 -0.30360955216E+02  0.11550064414E+02  0.47680286264E+02  0.57694031648E+02  0.00000000000E+00 0.  1.
         21    1    1    2  505  502  0.15984319509E+02 -0.38594563203E+02 -0.71990813395E+02  0.83232902102E+02  0.00000000000E+00 0. -1.
          1    1    1    2  501    0 -0.58992541246E+02 -0.87698913100E+02 -0.55957805252E+03  0.56947240156E+03  0.00000000000E+00 0. -1.
<scales pt_clust_3="14000.00000" pt_clust_4="32.48371" pt_clust_5="41.34155" pt_clust_6="132.23641"></scales>
<clustering>
<clus scale="   32.484">  1  4  2 -1</clus>
<clus scale="   41.342">  2  5  1 -1</clus>
<clus scale="  132.236">  2  6  1 -1</clus>
<clus scale="   32.484">  1  3  2 -1</clus>
</clustering>
</event>
<event>
 6    0  0.4081161E+002  0.2160456E+03  0.7546771E-02  0.1136866E+00
          1   -1    0    0  504    0 -0.00000000000E+00  0.00000000000E+00  0.29726419522E+03  0.29726419522E+03  0.00000000000E+00 0. -1.
         21   -1    0    0  503  502  0.00000000000E+00 -0.00000000000E+00 -0.30856035170E+03  0.30856035170E+03  0.00000000000E+00 0. -1.
         21    1    1    2  503  505  0.27837561300E+02  0.16759301504E+02 -0.67797166121E+02  0.75181511956E+02  0.00000000000E+00 0.  1.
         21    1    1    2  504  502 -0.12493021877E+03 -0.18147953013E+03 -0.12432270549E+03  0.25297927686E+03  0.00000000000E+00 0. -1.
         21    1    1    2  505  501  0.94173571008E+02  0.73998743012E+02  0.97224090253E+02  0.15426276015E+03  0.00000000000E+00 0. -1.
          1    1    1    2  501    0  0.29190864613E+01  0.90721485619E+02  0.83599624868E+02  0.12340099796E+03  0.00000000000E+00 0. -1.
<scales pt_clust_3="32.49314" pt_clust_4="197.06727" pt_clust_5="76.49258" pt_clust_6="76.49258"></scales>
<clustering>
<clus scale="   32.493">  2  3  1 -1</clus>
<clus scale="   76.493">  5  6 -1 -1</clus>
<clus scale="  197.067">  2  4  1 -1</clus>
<clus scale="   32.493">  2  3  1 -1</clus>
</clustering>
</event>
<event>
 6    0  0.4081161E+002  0.1922279E+03  0.7546771E-02  0.1156467E+00
          2   -1    0    0  505    0 -0.00000000000E+00  0.00000000000E+00  0.31081134550E+04  0.31081134550E+04  0.00000000000E+00 0. -1.
         21   -1    0    0  503  502  0.00000000000E+00 -0.00000000000E+00 -0.35112220449E+02  0.35112220449E+02  0.00000000000E+00 0. -1.
         21    1    1    2  503  504  0.51169237111E+02  0.14819708482E+03  0.20122908128E+03  0.25509568779E+03  0.00000000000E+00 0. -1.
         21    1    1    2  504  501 -0.77996308872E+01 -0.67507584957E+02  0.55651014235E+03  0.56064395725E+03  0.00000000000E+00 0. -1.
         21    1    1    2  505  502 -0.34708699947E+02  0.28376314265E+02  0.10076844556E+03  0.11029138083E+03  0.00000000000E+00 0. -1.
          2    1    1    2  501    0 -0.86609062764E+01 -0.10906581413E+03  0.22144935654E+04  0.22171946496E+04  0.00000000000E+00 0. -1.
<scales pt_clust_3="174.57064" pt_clust_4="62.99965" pt_clust_5="44.83201" pt_clust_6="62.99965"></scales>
<clustering>
<clus scale="   44.832">  2  5  1 -1</clus>
<clus scale="   63.000">  4  6 -1 -1</clus>
<clus scale="  174.571">  2  3  1 -1</clus>
<clus scale="   44.832">  2  3  1 -1</clus>
</clustering>
</event>
<event>
 6    0  0.4081161E+002  0.9775056E+02  0.7546771E-02  0.1285099E+00
         -2   -1    0    0    0  501 -0.00000000000E+00  0.00000000000E+00  0.15389001978E+04  0.15389001978E+04  0.00000000000E+00 0.  1.
         21   -1    0    0  503  502  0.00000000000E+00 -0.00000000000E+00 -0.23026456824E+03  0.23026456824E+03  0.00000000000E+00 0. -1.
         21    1    1    2  503  504 -0.20334761162E+02 -0.37342624931E+02 -0.16125018489E+03  0.16676209484E+03  0.00000000000E+00 0. -1.
         21    1    1    2  504  505 -0.18074214101E+02 -0.56806031692E+02 -0.43051068929E+02  0.73532285344E+02  0.00000000000E+00 0.  1.
         21    1    1    2  505  501 -0.22812093563E+02 -0.24828799484E+02  0.53009314285E+02  0.62823946847E+02  0.00000000000E+00 0. -1.
         -2    1    1    2    0  502  0.61221068826E+02  0.11897745611E+03  0.14599275691E+04  0.14660464391E+04  0.00000000000E+00 0.  1.
<scales pt_clust_3="42.58116" pt_clust_4="14000.00000" pt_clust_5="33.71737" pt_clust_6="97.75056"></scales>
<clustering>
<clus scale="   33.717">  1  5  2 -1</clus>
<clus scale="   42.581">  2  3  1 -1</clus>
<clus scale="   97.751">  1  6  2 -1</clus>
<clus scale="   42.581">  2  3  1 -1</clus>
</clustering>
</event>
<event>
 6    0  0.4081161E+002  0.7831808E+02  0.7546771E-02  0.1333893E+00
         21   -1    0    0  505  502  0.00000000000E+00  0.00000000000E+00  0.65900565897E+03  0.65900565897E+03  0.00000000000E+00 0. -1.
          2   -1    0    0  504    0 -0.00000000000E+00 -0.00000000000E+00 -0.13118484348E+04  0.13118484348E+04  0.00000000000E+00 0.  1.
         21    1    1    2  503  502 -0.66198726255E+02 -0.32050148754E+02  0.48495602552E+03  0.49050161068E+03  0.00000000000E+00 0. -1.
         21    1    1    2  504  503 -0.34088602281E+02 -0.16126665749E+02 -0.19820899202E+03  0.20176448317E+03  0.00000000000E+00 0.  1.
         21    1    1    2  505  501  0.85488470530E+02  0.92279398818E+02  0.14559295059E+03  0.19240861025E+03  0.00000000000E+00 0. -1.
          2    1    1    2  501    0  0.14798858006E+02 -0.44102584315E+02 -0.10851827599E+04  0.10861793896E+04  0.00000000000E+00 0.  1.
<scales pt_clust_3="14000.00000" pt_clust_4="37.71077" pt_clust_5="78.31808" pt_clust_6="62.63974"></scales>
<clustering>
<clus scale="   37.711">  2  4  1 -1</clus>
<clus scale="   62.640">  2  6  1 -1</clus>
<clus scale="   78.318">  2  5  1 -1</clus>
<clus scale="   78.318">  1  3  2 -1</clus>
</clustering>
</event>
<event>
 6    0  0.4081161E+002  0.1222499E+03  0.7546771E-02  0.1239431E+00
          1   -1    0    0  503    0 -0.00000000000E+00  0.00000000000E+00  0.26030335514E+04  0.26030335514E+04  0.00000000000E+00 0.  1.
         21   -1    0    0  501  502  0.00000000000E+00 -0.00000000000E+00 -0.27935215649E+02  0.27935215649E+02  0.00000000000E+00 0.  1.
         21    1    1    2  503  504  0.16853359337E+02  0.36030160312E+02  0.23256229843E+03  0.23593946432E+03  0.00000000000E+00 0. -1.
         21    1    1    2  504  505  0.99310959446E+02  0.59161746669E+02  0.17870691569E+03  0.21283547790E+03  0.00000000000E+00 0.  1.
         21    1    1    2  505  502 -0.24440443804E+02  0.34363190013E+02  0.65698831794E+02  0.78067282649E+02  0.00000000000E+00 0.  1.
          1    1    1    2  501    0 -0.91723874979E+02 -0.12955509699E+03  0.20981302899E+04  0.21041265422E+04  0.00000000000E+00 0.  1.
<scales pt_clust_3="39.77698" pt_clust_4="122.24991" pt_clust_5="42.77576" pt_clust_6="14000.00000"></scales>
<clustering>
<clus scale="   39.777">  1  3  2 -1</clus>
<clus scale="   42.776">  2  5  1 -1</clus>
<clus scale="  122.250">  2  4  1 -1</clus>
<clus scale="   42.776">  2  3  1 -1</clus>
</clustering>
</event>
<event>
 6    0  0.4081161E+002  0.1529218E+03  0.7546771E-02  0.1196928E+00
          2   -1    0    0  502    0 -0.00000000000E+00  0.00000000000E+00  0.30093582912E+04  0.30093582912E+04  0.00000000000E+00 0.  1.
         21   -1    0    0  505  502  0.00000000000E+00 -0.00000000000E+00 -0.19219010857E+02  0.19219010857E+02  0.00000000000E+00 0.  1.
         21    1    1    2  503  504 -0.10021582379E+03 -0.56269998324E+02  0.20700653370E+03  0.23677252594E+03  0.00000000000E+00 0.  1.
         21    1    1    2  504  501  0.87630515186E+02  0.12625980107E+02  0.14371473716E+04  0.14398719006E+04  0.00000000000E+00 0.  1.
         21    1    1    2  505  503 -0.40373826257E+02 -0.13092119120E+01  0.21151667605E+03  0.21533941611E+03  0.00000000000E+00 0.  1.
          2    1    1    2  501    0  0.52959134857E+02  0.44953230129E+02  0.11344686990E+04  0.11365934594E+04  0.00000000000E+00 0.  1.
<scales pt_clust_3="146.63344" pt_clust_4="38.44453" pt_clust_5="40.39505" pt_clust_6="38.44453"></scales>
<clustering>
<clus scale="   38.445">  4  6 -1 -1</clus>
<clus scale="   40.395">  2  5  1 -1</clus>
<clus scale="  146.633">  2  3  1 -1</clus>
<clus scale="   40.395">  2  3  1 -1</clus>
</clustering>
</event>
<event>
 6    0  0.4081161E+002  0.8749355E+02  0.7546771E-02  0.1309037E+00
          1   -1    0    0  505    0 -0.00000000000E+00  0.00000000000E+00  0.11335987710E+04  0.11335987710E+04  0.00000000000E+00 0.  1.
         21   -1    0    0  501  502  0.00000000000E+00 -0.00000000000E+00 -0.38873157012E+02  0.38873157012E+02  0.00000000000E+00 0.  1.
         21    1    1    2  503  504  0.58021291280E+02 -0.21112527107E+02  0.74404625276E+02  0.96686386349E+02  0.00000000000E+00 0.  1.
         21    1    1    2  504  502  0.33423660413E+02  0.83048540383E+01 -0.77918726112E+01  0.35310408590E+02  0.00000000000E+00 0.  1.
         21    1    1    2  505  503  0.31830961804E+02  0.16180080759E+02  0.27968288833E+03  0.28195305135E+03  0.00000000000E+00 0.  1.
          1    1    1    2  501    0 -0.12327591350E+03 -0.33724076903E+01  0.74842997298E+03  0.75852208171E+03  0.00000000000E+00 0.  1.
<scales pt_clust_3="87.49355" pt_clust_4="34.43997" pt_clust_5="37.90964" pt_clust_6="14000.00000"></scales>
<clustering>
<clus scale="   34.440">  2  4  1 -1</clus>
<clus scale="   37.910">  1  5  2 -1</clus>
<clus scale="   87.494">  2  3  1 -1</clus>
<clus scale="   34.440">  2  3  1 -1</clus>
</clustering>
</event>
<event>
 6    0  0.4081161E+002  0.1851616E+03  0.7546771E-02  0.1162899E+00
          1   -1    0    0  504    0 -0.00000000000E+00  0.00000000000E+00  0.17270086022E+04  0.17270086022E+04  0.00000000000E+00 0. -1.
         21   -1    0    0  505  502  0.00000000000E+00 -0.00000000000E+00 -0.11183633222E+03  0.11183633222E+03  0.00000000000E+00 0.  1.
         21    1    1    2  503  501 -0.23412930455E+02  0.12705404825E+03 -0.19725093879E+02  0.13069038150E+03  0.00000000000E+00 0.  1.
         21    1    1    2  504  502 -0.57853615870E+01 -0.32559851777E+02  0.11042990146E+03  0.11527522498E+03  0.00000000000E+00 0. -1.
         21    1    1    2  505  503 -0.41014618328E+02  0.39859574859E+02 -0.36047309396E+01  0.57306009368E+02  0.00000000000E+00 0.  1.
          1    1    1    2  501    0  0.70212910371E+02 -0.13435377133E+03  0.15280721934E+04  0.15355733186E+04  0.00000000000E+00 0. -1.
<scales pt_clust_3="35.17788" pt_clust_4="33.06984" pt_clust_5="35.17788" pt_clust_6="177.47541"></scales>
<clustering>
<clus scale="   33.070">  1  4  2 -1</clus>
<clus scale="   35.178">  3  5 -1 -1</clus>
<clus scale="  177.475">  1  6  2 -1</clus>
<clus scale="  185.162">  2  3  1 -1</clus>
</clustering>
</event>
<event>
 6    0  0.4081161E+002  0.1346847E+03  0.7546771E-02  0.1220666E+00
          3   -1    0    0  504    0 -0.00000000000E+00  0.00000000000E+00  0.49919005130E+03  0.49919005130E+03  0.00000000000E+00 0.  1.
         21   -1    0    0  505  502  0.00000000000E+00 -0.00000000000E+00 -0.33226033150E+03  0.33226033150E+03  0.00000000000E+00 0. -1.
         21    1    1    2  503  502 -0.42366341678E+02 -0.84351624115E+02 -0.16498359146E+03  0.19007811249E+03  0.00000000000E+00 0. -1.
         21    1    1    2  504  503 -0.17912991060E+02 -0.30843062247E+02  0.26052583720E+02  0.44169071260E+02  0.00000000000E+00 0. -1.
         21    1    1    2  505  501  0.22323792723E+02  0.21338505729E+03 -0.54845970535E+02  0.22144889902E+03  0.00000000000E+00 0. -1.
          3    1    1    2  501    0  0.37955540015E+02 -0.98190370924E+02  0.36070669807E+03  0.37575430003E+03  0.00000000000E+00 0.  1.
<scales pt_clust_3="95.35592" pt_clust_4="35.66749" pt_clust_5="14000.00000" pt_clust_6="134.68467"></scales>
<clustering>
<clus scale="   35.667">  1  4  2 -1</clus>
<clus scale="   95.356">  2  3  1 -1</clus>
<clus scale="  134.685">  1  6  2 -1</clus>
<clus scale="   95.356">  2  3  1 -1</clus>
</clustering>
</event>
<event>
 6    0  0.4081161E+002  0.1072161E+03  0.7546771E-02  0.1265814E+00
          2   -1    0    0  504    0 -0.00000000000E+00  0.00000000000E+00  0.22198968697E+04  0.22198968697E+04  0.00000000000E+00 0.  1.
         21   -1    0    0  503  502  0.00000000000E+00 -0.00000000000E+00 -0.13317681208E+03  0.13317681208E+03  0.00000000000E+00 0.  1.
         21    1    1    2  503  501  0.49536341483E+02  0.44183069819E+02  0.37478704615E+03  0.38061965628E+03  0.00000000000E+00 0. -1.
         21    1    1    2  504  505 -0.13843878123E+02 -0.30047633972E+02  0.28078154209E+03  0.28272387173E+03  0.00000000000E+00 0. -1.
         21    1    1    2  505  502 -0.10492985259E+03 -0.33395561219E+02 -0.10484930946E+03  0.15204905513E+03  0.00000000000E+00 0.  1.
          2    1    1    2  501    0  0.69237389228E+02  0.19260125372E+02  0.15360007788E+04  0.15376810986E+04  0.00000000000E+00 0.  1.
<scales pt_clust_3="107.21608" pt_clust_4="33.08343" pt_clust_5="14000.00000" pt_clust_6="58.43861"></scales>
<clustering>
<clus scale="   33.083">  1  4  2 -1</clus>
<clus scale="   58.439">  1  6  2 -1</clus>
<clus scale="  107.216">  1  3  2 -1</clus>
<clus scale="  107.216">  2  3  1 -1</clus>
</clustering>
</event>
<event>
 6    0  0.4081161E+002  0.9847913E+02  0.7546771E-02  0.1283527E+00
          1   -1    0    0  503    0 -0.00000000000E+00  0.00000000000E+00  0.26642734520E+04  0.26642734520E+04  0.00000000000E+00 0. -1.
         21   -1    0    0  504  502  0.00000000000E+00 -0.00000000000E+00 -0.60120330702E+02  0.60120330702E+02  0.00000000000E+00 0. -1.
         21    1    1    2  503  505 -0.11993686388E+02  0.42961260769E+02  0.62390843622E+03  0.62550080354E+03  0.00000000000E+00 0. -1.
         21    1    1    2  504  501  0.53662730201E+01 -0.10546037137E+03  0.42651656763E+02  0.11388525208E+03  0.00000000000E+00 0. -1.
         21    1    1    2  505  502  0.23059556804E+02  0.89699266842E+02  0.67399646466E+02  0.11454437557E+03  0.00000000000E+00 0. -1.
          1    1    1    2  501    0 -0.16432143436E+02 -0.27200156238E+02  0.18701933818E+04  0.18704633515E+04  0.00000000000E+00 0. -1.
<scales pt_clust_3="32.95390" pt_clust_4="98.47913" pt_clust_5="14000.00000" pt_clust_6="31.77835"></scales>
<clustering>
<clus scale="   31.778">  1  6  2 -1</clus>
<clus scale="   32.954">  1  3  2 -1</clus>
<clus scale="   98.479">  2  4  1 -1</clus>
<clus scale="   98.479">  2  3  1 -1</clus>
</clustering>
</event>
<event>
 6    0  0.4081161E+002  0.7141136E+02  0.7546771E-02  0.1355358E+00
          2   -1    0    0  505    0 -0.00000000000E+00  0.00000000000E+00  0.84142460124E+03  0.84142460124E+03  0.00000000000E+00 0.  1.
         21   -1    0    0  504  502  0.00000000000E+00 -0.00000000000E+00 -0.38618174154E+03  0.38618174154E+03  0.00000000000E+00 0.  1.
         21    1    1    2  503  502 -0.63624239307E+01  0.81724361260E+02 -0.28203935436E+03  0.29370997442E+03  0.00000000000E+00 0.  1.
         21    1    1    2  504  501  0.32746457430E+02 -0.13820823127E+02 -0.70729492676E+02  0.79158112410E+02  0.00000000000E+00 0.  1.
         21    1    1    2  505  503 -0.71535629437E+02 -0.26854549732E+01  0.75711344752E+03  0.76049019084E+03  0.00000000000E+00 0.  1.
          2    1    1    2  501    0  0.45151595938E+02 -0.65218083160E+02  0.50898259219E+02  0.94248065117E+02  0.00000000000E+00 0.  1.
<scales pt_clust_3="14000.00000" pt_clust_4="35.54357" pt_clust_5="71.41136" pt_clust_6="70.53077"></scales>
<clustering>
<clus scale="   35.544">  2  4  1 -1</clus>
<clus scale="   71.411">  1  5  2 -1</clus>
<clus scale="   70.531">  1  6  2 -1</clus>
<clus scale="   35.544">  2  3  1 -1</clus>
</clustering>
</event>
<event>
 6    0  0.4081161E+002  0.9577605E+02  0.7546771E-02  0.1289438E+00
         21   -1    0    0  501  502  0.00000000000E+00  0.00000000000E+00  0.87953431602E+02  0.87953431602E+02  0.00000000000E+00 0. -1.
          2   -1    0    0  503    0 -0.00000000000E+00 -0.00000000000E+00 -0.14476952453E+04  0.14476952453E+04  0.00000000000E+00 0. -1.
         21    1    1    2  503  505 -0.32807937144E+02 -0.35092029195E+02 -0.24284652483E+03  0.24755251135E+03  0.00000000000E+00 0. -1.
         21    1    1    2  504  502  0.89778829114E+02 -0.55598246508E+02  0.37140504668E+02  0.11194114641E+03  0.00000000000E+00 0. -1.
         21    1    1    2  505  504 -0.59945309659E+02  0.29994185608E+02 -0.10010951805E+03  0.12047824253E+03  0.00000000000E+00 0. -1.
          2    1    1    2  501    0  0.29744176883E+01  0.60696090095E+02 -0.10539262755E+04  0.10556767766E+04  0.00000000000E+00 0. -1.
<scales pt_clust_3="48.03968" pt_clust_4="95.77605" pt_clust_5="14000.00000" pt_clust_6="39.50571"></scales>
<clustering>
<clus scale="   48.040">  2  3  1 -1</clus>
<clus scale="   39.506">  2  6  1 -1</clus>
<clus scale="   95.776">  1  4  2 -1</clus>
<clus scale="   95.776">  1  3  2 -1</clus>
</clustering>
</event>
<event>
 6    0  0.4081161E+002  0.1402555E+03  0.7546771E-02  0.1212986E+00
         21   -1    0    0  505  502  0.00000000000E+00  0.00000000000E+00  0.28011673204E+03  0.28011673204E+03  0.00000000000E+00 0.  1.
          2   -1    0    0  504    0 -0.00000000000E+00 -0.00000000000E+00 -0.27097280151E+04  0.27097280151E+04  0.00000000000E+00 0. -1.
         21    1    1    2  503  501 -0.10548672644E+02 -0.85123356345E+02 -0.12685932611E+04  0.12714897256E+04  0.00000000000E+00 0. -1.
         21    1    1    2  504  502  0.61138998302E+02  0.12206371759E+03  0.24966288453E+03  0.28455067067E+03  0.00000000000E+00 0.  1.
         21    1    1    2  505  503 -0.48919826301E+02  0.10852156893E+02 -0.45190071657E+02  0.67476375799E+02  0.00000000000E+00 0. -1.
          2    1    1    2  501    0 -0.16704993575E+01 -0.47792518139E+02 -0.13654908349E+04  0.13663279751E+04  0.00000000000E+00 0. -1.
<scales pt_clust_3="32.26531" pt_clust_4="133.43288" pt_clust_5="50.10907" pt_clust_6="32.26531"></scales>
<clustering>
<clus scale="   32.265">  3  6 -1 -1</clus>
<clus scale="   50.109">  1  5  2 -1</clus>
<clus scale="  133.433">  1  4  2 -1</clus>
<clus scale="   50.109">  1  3  2 -1</clus>
</clustering>
</event>
<event>
 6    0  0.4081161E+002  0.8899018E+02  0.7546771E-02  0.1305316E+00
         21   -1    0    0  504  502  0.00000000000E+00  0.00000000000E+00  0.12275973315E+04  0.12275973315E+04  0.00000000000E+00 0. -1.
          2   -1    0    0  503    0 -0.00000000000E+00 -0.00000000000E+00 -0.40207791134E+04  0.40207791134E+04  0.00000000000E+00 0.  1.
         21    1    1    2  503  505 -0.60727077934E+02  0.14655457475E+02 -0.91625787020E+02  0.11089565039E+03  0.00000000000E+00 0. -1.
         21    1    1    2  504  501 -0.20288132592E+02  0.42677277895E+02  0.26396128971E+03  0.26815764176E+03  0.00000000000E+00 0. -1.
         21    1    1    2  505  502 -0.66898325610E+02 -0.23607458257E+02  0.94910983600E+03  0.95175741597E+03  0.00000000000E+00 0. -1.
          2    1    1    2  501    0  0.14791353614E+03 -0.33725277112E+02 -0.39146271206E+04  0.39175657368E+04  0.00000000000E+00 0.  1.
<scales pt_clust_3="62.76950" pt_clust_4="47.25419" pt_clust_5="14000.00000" pt_clust_6="88.99018"></scales>
<clustering>
<clus scale="   47.254">  1  4  2 -1</clus>
<clus scale="   62.769">  2  3  1 -1</clus>
<clus scale="   88.990">  2  6  1 -1</clus>
<clus scale="   47.254">  1  3  2 -1</clus>
</clustering>
</event>
<event>
 6    0  0.4081161E+002  0.1242889E+03  0.7546771E-02  0.1236185E+00
          2   -1    0    0  505    0 -0.00000000000E+00  0.00000000000E+00  0.80859493508E+03  0.80859493508E+03  0.00000000000E+00 0.  1.
         21   -1    0    0  504  502  0.00000000000E+00 -0.00000000000E+00 -0.55807951167E+03  0.55807951167E+03  0.00000000000E+00 0.  1.
         21    1    1    2  503  501 -0.93083766950E+02  0.30831837018E+01 -0.65750334392E+02  0.11400526376E+03  0.00000000000E+00 0.  1.
         21    1    1    2  504  503  0.43001650686E+02  0.40404220622E+02 -0.44205131988E+03  0.44597198613E+03  0.00000000000E+00 0.  1.
         21    1    1    2  505  502 -0.69164672157E+02 -0.13388090653E+01  0.45622272723E+02  0.82866978060E+02  0.00000000000E+00 0.  1.
          2    1    1    2  501    0  0.11924678842E+03 -0.42148595259E+02  0.71269480496E+03  0.72383021880E+03  0.00000000000E+00 0.  1.
<scales pt_clust_3="124.28892" pt_clust_4="59.00545" pt_clust_5="62.36636" pt_clust_6="14000.00000"></scales>
<clustering>
<clus scale="   59.005">  2  4  1 -1</clus>
<clus scale="   62.366">  2  5  1 -1</clus>
<clus scale="  124.289">  2  3  1 -1</clus>
<clus scale="   59.005">  2  3  1 -1</clus>
</clustering>
</event>
<event>
 6    0  0.4081161E+002  0.1140728E+03  0.7546771E-02  0.1253208E+00
          3   -1    0    0  502    0 -0.00000000000E+00  0.00000000000E+00  0.44210129216E+03  0.44210129216E+03  0.00000000000E+00 0.  1.
         21   -1    0    0  505  502  0.00000000000E+00 -0.00000000000E+00 -0.76316208636E+02  0.76316208636E+02  0.00000000000E+00 0. -1.
         21    1    1    2  503  501  0.42624931137E+02 -0.22029451695E+02  0.15253926406E+03  0.15990750006E+03  0.00000000000E+00 0.  1.
         21    1    1    2  504  503 -0.79612337752E+02  0.29363357230E+02  0.96092447418E+01  0.85397123222E+02  0.00000000000E+00 0. -1.
         21    1    1    2  505  504  0.14058651523E+02  0.62704948535E+02  0.88713971753E+01  0.64871087097E+02  0.00000000000E+00 0. -1.
          3    1    1    2  501    0  0.22928755091E+02 -0.70038854069E+02  0.19476517755E+03  0.20824179042E+03  0.00000000000E+00 0.  1.
<scales pt_clust_3="37.32369" pt_clust_4="104.27340" pt_clust_5="64.26162" pt_clust_6="37.32369"></scales>
<clustering>
<clus scale="   37.324">  3  6 -1 -1</clus>
<clus scale="   64.262">  2  5  1 -1</clus>
<clus scale="  104.273">  2  4  1 -1</clus>
<clus scale="   64.262">  2  3  1 -1</clus>
</clustering>
</event>
<event>
 6    0  0.4081161E+002  0.1539430E+03  0.7546771E-02  0.1195710E+00
          1   -1    0    0  504    0 -0.00000000000E+00  0.00000000000E+00  0.75713937111E+03  0.75713937111E+03  0.00000000000E+00 0. -1.
         21   -1    0    0  503  502  0.00000000000E+00 -0.00000000000E+00 -0.40799954777E+03  0.40799954777E+03  0.00000000000E+00 0.  1.
         21    1    1    2  503  505 -0.99519085921E+01 -0.46725277810E+02 -0.16506561926E+03  0.17183989855E+03  0.00000000000E+00 0.  1.
         21    1    1    2  504  502  0.46184668442E+02  0.45443115650E+01  0.10558646100E+02  0.47593690487E+02  0.00000000000E+00 0.  1.
         21    1    1    2  505  501  0.10751862095E+03 -0.18056759526E+02 -0.19849874064E+03  0.22646865225E+03  0.00000000000E+00 0.  1.
          1    1    1    2  501    0 -0.14375138080E+03  0.60237725771E+02  0.70214553714E+03  0.71923667760E+03  0.00000000000E+00 0. -1.
<scales pt_clust_3="45.86837" pt_clust_4="46.40770" pt_clust_5="153.94298" pt_clust_6="14000.00000"></scales>
<clustering>
<clus scale="   46.408">  2  4  1 -1</clus>
<clus scale="   45.868">  2  3  1 -1</clus>
<clus scale="  153.943">  2  5  1 -1</clus>
<clus scale="   46.408">  2  3  1 -1</clus>
</clustering>
</event>
<event>
 6    0  0.4081161E+002  0.1233383E+03  0.7546771E-02  0.1237689E+00
          2   -1    0    0  504    0 -0.00000000000E+00  0.00000000000E+00  0.11603769251E+04  0.11603769251E+04  0.00000000000E+00 0.  1.
         21   -1    0    0  503  502  0.00000000000E+00 -0.00000000000E+00 -0.69865180045E+02  0.69865180045E+02  0.00000000000E+00 0. -1.
         21    1    1    2  503  501  0.59109953945E+02 -0.61882676701E+02 -0.13252634400E+01  0.85587432806E+02  0.00000000000E+00 0. -1.
         21    1    1    2  504  505 -0.15895287745E+03  0.22430785019E+02  0.34971132089E+03  0.38479496530E+03  0.00000000000E+00 0.  1.
         21    1    1    2  505  502  0.48154422442E+02 -0.19795248282E+02  0.98169643438E+02  0.11112146124E+03  0.00000000000E+00 0. -1.
          2    1    1    2  501    0  0.51688501061E+02  0.59247139965E+02  0.64395604416E+03  0.64873824579E+03  0.00000000000E+00 0.  1.
<scales pt_clust_3="123.33827" pt_clust_4="14000.00000" pt_clust_5="52.06439" pt_clust_6="79.27849"></scales>
<clustering>
<clus scale="   52.064">  2  5  1 -1</clus>
<clus scale="   79.278">  1  6  2 -1</clus>
<clus scale="  123.338">  2  3  1 -1</clus>
<clus scale="   52.064">  2  3  1 -1</clus>
</clustering>
</event>
<event>
 6    0  0.4081161E+002  0.9271965E+02  0.7546771E-02  0.1296396E+00
          2   -1    0    0  504    0 -0.00000000000E+00  0.00000000000E+00  0.84169821077E+03  0.84169821077E+03  0.00000000000E+00 0.  1.
         21   -1    0    0  503  502  0.00000000000E+00 -0.00000000000E+00 -0.36273172831E+03  0.36273172831E+03  0.00000000000E+00 0.  1.
         21    1    1    2  503  501 -0.10901352867E+03 -0.10859889262E+03 -0.21041019589E+02  0.15530741585E+03  0.00000000000E+00 0.  1.
         21    1    1    2  504  505  0.16226470405E+02  0.35550016939E+02  0.31759009967E+02  0.50356099534E+02  0.00000000000E+00 0. -1.
         21    1    1    2  505  502  0.29120541924E+02  0.82511241755E+02 -0.25657812351E+03  0.27108752174E+03  0.00000000000E+00 0.  1.
          2    1    1    2  501    0  0.63666516343E+02 -0.94623660733E+01  0.72482661559E+03  0.72767890195E+03  0.00000000000E+00 0.  1.
<scales pt_clust_3="92.71965" pt_clust_4="39.07815" pt_clust_5="14000.00000" pt_clust_6="81.62971"></scales>
<clustering>
<clus scale="   39.078">  1  4  2 -1</clus>
<clus scale="   81.630">  1  6  2 -1</clus>
<clus scale="   92.720">  1  3  2 -1</clus>
<clus scale="   92.720">  2  3  1 -1</clus>
</clustering>
</event>
<event>
 6    0  0.4081161E+002  0.8032525E+02  0.7546771E-02  0.1328131E+00
         -3   -1    0    0    0  501 -0.00000000000E+00  0.00000000000E+00  0.35551010491E+03  0.35551010491E+03  0.00000000000E+00 0.  1.
         21   -1    0    0  504  502  0.00000000000E+00 -0.00000000000E+00 -0.30690356284E+03  0.30690356284E+03  0.00000000000E+00 0.  1.
         21    1    1    2  503  505  0.52003884638E+02 -0.26509964344E+02  0.55188808668E+02  0.80330485055E+02  0.00000000000E+00 0. -1.
         21    1    1    2  504  503  0.76178180671E+02 -0.19688451864E+02 -0.25182131044E+03  0.26382706976E+03  0.00000000000E+00 0.  1.
         21    1    1    2  505  501  0.15782515113E+01 -0.40757627013E+02  0.23659083171E+02  0.47153231640E+02  0.00000000000E+00 0. -1.
         -3    1    1    2    0  502 -0.12976031682E+03  0.86956043221E+02  0.22157996068E+03  0.27110288130E+03  0.00000000000E+00 0.  1.
<scales pt_clust_3="63.03896" pt_clust_4="80.32525" pt_clust_5="40.78817" pt_clust_6="14000.00000"></scales>
<clustering>
<clus scale="   40.788">  1  5  2 -1</clus>
<clus scale="   63.039">  1  3  2 -1</clus>
<clus scale="   80.325">  2  4  1 -1</clus>
<clus scale="   80.325">  2  3  1 -1</clus>
</clustering>
</event>
<event>
 6    0  0.4081161E+002  0.1254518E+03  0.7546771E-02  0.1234365E+00
          1   -1    0    0  505    0 -0.00000000000E+00  0.00000000000E+00  0.38584651918E+03  0.38584651918E+03  0.00000000000E+00 0. -1.
         21   -1    0    0  503  502  0.00000000000E+00 -0.00000000000E+00 -0.17584095398E+04  0.17584095398E+04  0.00000000000E+00 0. -1.
         21    1    1    2  503  501  0.64035077456E+02  0.37611618486E+02 -0.72389986031E+02  0.10370841368E+03  0.00000000000E+00 0. -1.
         21    1    1    2  504  502 -0.15109679193E+02 -0.16271448161E+03 -0.16321101294E+04  0.16402706422E+04  0.00000000000E+00 0. -1.
         21    1    1    2  505  504 -0.96308495608E+02  0.37339164488E+02  0.84359218439E+02  0.13336422784E+03  0.00000000000E+00 0. -1.
          1    1    1    2  501    0  0.47383097345E+02  0.87763698632E+02  0.24757787643E+03  0.26691277529E+03  0.00000000000E+00 0. -1.
<scales pt_clust_3="74.26389" pt_clust_4="14000.00000" pt_clust_5="125.45185" pt_clust_6="100.10565"></scales>
<clustering>
<clus scale="   74.264">  2  3  1 -1</clus>
<clus scale="  100.106">  1  6  2 -1</clus>
<clus scale="  125.452">  1  5  2 -1</clus>
<clus scale="   74.264">  2  3  1 -1</clus>
</clustering>
</event>
<event>
 6    0  0.4081161E+002  0.1009822E+03  0.7546771E-02  0.1278244E+00
         21   -1    0    0  504  502  0.00000000000E+00  0.00000000000E+00  0.57379640155E+03  0.57379640155E+03  0.00000000000E+00 0.  1.
          2   -1    0    0  505    0 -0.00000000000E+00 -0.00000000000E+00 -0.68058688221E+03  0.68058688221E+03  0.00000000000E+00 0. -1.
         21    1    1    2  503  502 -0.15444444123E+01  0.38725852587E+02  0.43689545883E+03  0.43861112493E+03  0.00000000000E+00 0.  1.
         21    1    1    2  504  501 -0.97483812949E+02 -0.15957272530E+02  0.10751249062E+03  0.14600227386E+03  0.00000000000E+00 0. -1.
         21    1    1    2  505  503  0.58036684665E+01  0.30393783727E+02 -0.48069969644E+02  0.57168056102E+02  0.00000000000E+00 0.  1.
          2    1    1    2  501    0  0.93224588895E+02 -0.53162363784E+02 -0.60312846047E+03  0.61260182886E+03  0.00000000000E+00 0. -1.
<scales pt_clust_3="38.79781" pt_clust_4="14000.00000" pt_clust_5="30.94293" pt_clust_6="100.98219"></scales>
<clustering>
<clus scale="   30.943">  2  5  1 -1</clus>
<clus scale="   38.798">  1  3  2 -1</clus>
<clus scale="  100.982">  2  6  1 -1</clus>
<clus scale="   38.798">  1  3  2 -1</clus>
</clustering>
</event>
<event>
 6    0  0.4081161E+002  0.1197356E+03  0.7546771E-02  0.1243534E+00
          1   -1    0    0  505    0 -0.00000000000E+00  0.00000000000E+00  0.53796836689E+03  0.53796836689E+03  0.00000000000E+00 0. -1.
         21   -1    0    0  504  502  0.00000000000E+00 -0.00000000000E+00 -0.12623001431E+03  0.12623001431E+03  0.00000000000E+00 0.  1.
         21    1    1    2  503  502  0.31094874872E+02  0.31493125444E+02  0.63997406118E+02  0.77809872017E+02  0.00000000000E+00 0.  1.
         21    1    1    2  504  501 -0.79041438017E+02 -0.93924011073E+02 -0.67800530682E+02  0.14023616060E+03  0.00000000000E+00 0.  1.
         21    1    1    2  505  503  0.26310775492E+02 -0.33411924170E+02  0.41499501871E+02  0.59420722305E+02  0.00000000000E+00 0.  1.
          1    1    1    2  501    0  0.21635787653E+02  0.95842809799E+02  0.37404197527E+03  0.38673162627E+03  0.00000000000E+00 0. -1.
<scales pt_clust_3="43.91886" pt_clust_4="119.73558" pt_clust_5="42.52780" pt_clust_6="14000.00000"></scales>
<clustering>
<clus scale="   42.528">  1  5  2 -1</clus>
<clus scale="   43.919">  1  3  2 -1</clus>
<clus scale="  119.736">  2  4  1 -1</clus>
<clus scale="  119.736">  2  3  1 -1</clus>
</clustering>
</event>
<event>
 6    0  0.4081161E+002  0.1540617E+03  0.7546771E-02  0.1195569E+00
          2   -1    0    0  505    0 -0.00000000000E+00  0.00000000000E+00  0.21921151937E+04  0.21921151937E+04  0.00000000000E+00 0. -1.
         21   -1    0    0  503  502  0.00000000000E+00 -0.00000000000E+00 -0.31090669957E+03  0.31090669957E+03  0.00000000000E+00 0. -1.
         21    1    1    2  503  501  0.71300429073E+02 -0.45530822736E+02 -0.21742417247E+03  0.23330254559E+03  0.00000000000E+00 0. -1.
         21    1    1    2  504  502  0.44549102446E+02 -0.57489464401E+02 -0.57008764831E+02  0.92410282509E+02  0.00000000000E+00 0. -1.
         21    1    1    2  505  504  0.22408247713E+02 -0.66672875520E+02  0.89896179183E+03  0.90170932404E+03  0.00000000000E+00 0. -1.
          2    1    1    2  501    0 -0.13825777923E+03  0.16969316266E+03  0.12566796396E+04  0.12755997411E+04  0.00000000000E+00 0. -1.
<scales pt_clust_3="154.06168" pt_clust_4="73.64096" pt_clust_5="70.33777" pt_clust_6="14000.00000"></scales>
<clustering>
<clus scale="   70.338">  1  5  2 -1</clus>
<clus scale="   73.641">  2  4  1 -1</clus>
<clus scale="  154.062">  2  3  1 -1</clus>
<clus scale="   73.641">  2  3  1 -1</clus>
</clustering>
</event>
<event>
 6    0  0.4212869E+002  0.9549493E+02  0.7546771E-02  0.1290065E+00
         21   -1    0    0  501  502  0.00000000000E+00  0.00000000000E+00  0.76140627812E+03  0.76140627812E+03  0.00000000000E+00 0.  1.
          2   -1    0    0  503    0 -0.00000000000E+00 -0.00000000000E+00 -0.25466094394E+04  0.25466094394E+04  0.00000000000E+00 0.  1.
         21    1    1    2  503  505  0.48871199140E+02 -0.59059522477E+02 -0.14582614272E+03  0.16474733746E+03  0.00000000000E+00 0. -1.
         21    1    1    2  504  502  0.13050207153E+02 -0.57998283646E+02  0.72743342725E+03  0.72985854786E+03  0.00000000000E+00 0.  1.
         21    1    1    2  505  504 -0.81971264609E+02  0.18305676020E+02 -0.57236258791E+02  0.10163845393E+03  0.00000000000E+00 0.  1.
          2    1    1    2  501    0  0.20049858316E+02  0.98752130103E+02 -0.23095741870E+04  0.23117713782E+04  0.00000000000E+00 0.  1.
<scales pt_clust_3="14000.00000" pt_clust_4="59.44837" pt_clust_5="76.08258" pt_clust_6="95.49493"></scales>
<clustering>
<clus scale="   59.448">  1  4  2 -1</clus>
<clus scale="   76.083">  1  5  2 -1</clus>
<clus scale="   95.495">  2  6  1 -1</clus>
<clus scale="   59.448">  1  3  2 -1</clus>
</clustering>
</event>
<event>
 6    0  0.4081161E+002  0.3038570E+03  0.7546771E-02  0.1083328E+00
          1   -1    0    0  504    0 -0.00000000000E+00  0.00000000000E+00  0.44437321250E+04  0.44437321250E+04  0.00000000000E+00 0. -1.
         21   -1    0    0  503  502  0.00000000000E+00 -0.00000000000E+00 -0.55951774742E+02  0.55951774742E+02  0.00000000000E+00 0. -1.
         21    1    1    2  503  501  0.59824404027E+02  0.42912656147E+02  0.95974068257E+03  0.96256045688E+03  0.00000000000E+00 0. -1.
         21    1    1    2  504  505 -0.27742507202E+03 -0.30086816700E+01  0.44367814562E+03  0.52328196955E+03  0.00000000000E+00 0. -1.
         21    1    1    2  505  502 -0.15036560472E+02 -0.36286306312E+02  0.27756393143E+02  0.48095857793E+02  0.00000000000E+00 0. -1.
          1    1    1    2  501    0  0.23263722846E+03 -0.36176681650E+01  0.29566051289E+04  0.29657456155E+04  0.00000000000E+00 0. -1.
<scales pt_clust_3="46.02075" pt_clust_4="292.54551" pt_clust_5="39.27842" pt_clust_6="46.02075"></scales>
<clustering>
<clus scale="   39.278">  2  5  1 -1</clus>
<clus scale="   46.021">  3  6 -1 -1</clus>
<clus scale="  292.546">  2  4  1 -1</clus>
<clus scale="   39.278">  2  3  1 -1</clus>
</clustering>
</event>
<event>
 6    0  0.4081161E+002  0.1782394E+03  0.7546771E-02  0.1169518E+00
          2   -1    0    0  505    0 -0.00000000000E+00  0.00000000000E+00  0.12325512620E+04  0.12325512620E+04  0.00000000000E+00 0.  1.
         21   -1    0    0  504  502  0.00000000000E+00 -0.00000000000E+00 -0.16116194695E+04  0.16116194695E+04  0.00000000000E+00 0.  1.
         21    1    1    2  503  502 -0.35463927766E+00  0.31073544997E+02 -0.11399381980E+03  0.11815363694E+03  0.00000000000E+00 0. -1.
         21    1    1    2  504  501  0.17747106405E+03 -0.16201031863E+01 -0.14750909095E+04  0.14857293813E+04  0.00000000000E+00 0.  1.
         21    1    1    2  505  503 -0.61854328955E+02  0.37533412867E+02  0.89895882892E+03  0.90186567247E+03  0.00000000000E+00 0.  1.
          2    1    1    2  501    0 -0.11526209582E+03 -0.66986854677E+02  0.31105769288E+03  0.33842204085E+03  0.00000000000E+00 0.  1.
<scales pt_clust_3="31.07557" pt_clust_4="14000.00000" pt_clust_5="72.36730" pt_clust_6="178.23939"></scales>
<clustering>
<clus scale="   31.076">  2  3  1 -1</clus>
<clus scale="   72.367">  1  5  2 -1</clus>
<clus scale="  178.239">  1  6  2 -1</clus>
<clus scale="   31.076">  2  3  1 -1</clus>
</clustering>
</event>
<event>
 6    0  0.4081161E+002  0.3159972E+03  0.7546771E-02  0.1077506E+00
          2   -1    0    0  504    0 -0.00000000000E+00  0.00000000000E+00  0.60093711558E+03  0.60093711558E+03  0.00000000000E+00 0. -1.
         21   -1    0    0  505  502  0.00000000000E+00 -0.00000000000E+00 -0.48302258866E+03  0.48302258866E+03  0.00000000000E+00 0.  1.
         21    1    1    2  503  502 -0.28580673216E+02  0.10637122045E+02 -0.30607215464E+03  0.30758765757E+03  0.00000000000E+00 0.  1.
         21    1    1    2  504  503 -0.37668881016E+02  0.30023648144E+03  0.30454606856E+03  0.42931247042E+03  0.00000000000E+00 0.  1.
         21    1    1    2  505  501 -0.12926182107E+02 -0.93167632767E+02  0.39171321538E+02  0.10189056095E+03  0.00000000000E+00 0.  1.
          2    1    1    2  501    0  0.79175736338E+02 -0.21770597071E+03  0.80269291467E+02  0.24516901530E+03  0.00000000000E+00 0. -1.
<scales pt_clust_3="30.49595" pt_clust_4="307.73584" pt_clust_5="46.39965" pt_clust_6="46.39965"></scales>
<clustering>
<clus scale="   30.496">  2  3  1 -1</clus>
<clus scale="   46.400">  5  6 -1 -1</clus>
<clus scale="  307.736">  1  4  2 -1</clus>
<clus scale="   30.496">  2  3  1 -1</clus>
</clustering>
</event>
<event>
 6    0  0.4081161E+002  0.1101727E+03  0.7546771E-02  0.1260250E+00
          1   -1    0    0  503    0 -0.00000000000E+00  0.00000000000E+00  0.32917408702E+03  0.32917408702E+03  0.00000000000E+00 0. -1.
         21   -1    0    0  505  502  0.00000000000E+00 -0.00000000000E+00 -0.51519466183E+03  0.51519466183E+03  0.00000000000E+00 0. -1.
         21    1    1    2  503  504 -0.16832933736E+02  0.30376447980E+02  0.36452141004E+01  0.34919390542E+02  0.00000000000E+00 0.  1.
         21    1    1    2  504  502  0.23347295489E+02 -0.70367472256E+02 -0.25390525585E+03  0.26450814034E+03  0.00000000000E+00 0. -1.
         21    1    1    2  505  501 -0.65461247736E+02 -0.38435682922E+02 -0.22608440562E+03  0.23848822852E+03  0.00000000000E+00 0. -1.
          1    1    1    2  501    0  0.58946885983E+02  0.78426707199E+02  0.29032387256E+03  0.30645298946E+03  0.00000000000E+00 0. -1.
<scales pt_clust_3="34.72861" pt_clust_4="73.55576" pt_clust_5="14000.00000" pt_clust_6="110.17267"></scales>
<clustering>
<clus scale="   34.729">  1  3  2 -1</clus>
<clus scale="   73.556">  2  4  1 -1</clus>
<clus scale="  110.173">  1  6  2 -1</clus>
<clus scale="   73.556">  2  3  1 -1</clus>
</clustering>
</event>
<event>
 6    0  0.4081161E+002  0.9956195E+02  0.7546771E-02  0.1281220E+00
         21   -1    0    0  505  502  0.00000000000E+00  0.00000000000E+00  0.63771422864E+03  0.63771422864E+03  0.00000000000E+00 0.  1.
         -1   -1    0    0    0  501 -0.00000000000E+00 -0.00000000000E+00 -0.18813336350E+03  0.18813336350E+03  0.00000000000E+00 0.  1.
         21    1    1    2  503  504 -0.11815363839E+02 -0.60493092068E+02 -0.92145241189E+02  0.11085920117E+03  0.00000000000E+00 0.  1.
         21    1    1    2  504  502  0.30508576871E+02 -0.73904831230E+02  0.17916067313E+03  0.19619185543E+03  0.00000000000E+00 0.  1.
         21    1    1    2  505  501 -0.39830266551E+02  0.11099437839E+03  0.42918443214E+03  0.44509041662E+03  0.00000000000E+00 0.  1.
         -1    1    1    2    0  503  0.21137053519E+02  0.23403544903E+02 -0.66618998951E+02  0.73706118923E+02  0.00000000000E+00 0.  1.
<scales pt_clust_3="40.85644" pt_clust_4="14000.00000" pt_clust_5="99.56195" pt_clust_6="31.53571"></scales>
<clustering>
<clus scale="   31.536">  2  6  1 -1</clus>
<clus scale="   40.856">  2  3  1 -1</clus>
<clus scale="   99.562">  1  5  2 -1</clus>
<clus scale="   99.562">  1  3  2 -1</clus>
</clustering>
</event>
<event>
 6    0  0.4081161E+002  0.1114989E+03  0.7546771E-02  0.1257819E+00
         21   -1    0    0  503  502  0.00000000000E+00  0.00000000000E+00  0.12963676077E+04  0.12963676077E+04  0.00000000000E+00 0. -1.
         -3   -1    0    0    0  501 -0.00000000000E+00 -0.00000000000E+00 -0.65669344098E+02  0.65669344098E+02  0.00000000000E+00 0. -1.
         21    1    1    2  503  505  0.83135441000E+01  0.40229997866E+02  0.34091862392E+03  0.34338473449E+03  0.00000000000E+00 0. -1.
         21    1    1    2  504  502  0.18733138445E+02 -0.48743077923E+02  0.69655434288E+03  0.69850896251E+03  0.00000000000E+00 0. -1.
         21    1    1    2  505  501 -0.22796941244E+01 -0.10916825413E+03  0.22779290419E+02  0.11154282042E+03  0.00000000000E+00 0. -1.
         -3    1    1    2    0  504 -0.24766988421E+02  0.11768133419E+03  0.17044600636E+03  0.20860043436E+03  0.00000000000E+00 0. -1.
<scales pt_clust_3="41.08002" pt_clust_4="31.45462" pt_clust_5="14000.00000" pt_clust_6="111.49893"></scales>
<clustering>
<clus scale="   41.080">  1  3  2 -1</clus>
<clus scale="   31.455">  1  4  2 -1</clus>
<clus scale="  111.499">  1  6  2 -1</clus>
<clus scale="   41.080">  1  3  2 -1</clus>
</clustering>
</event>
<event>
 6    0  0.4081161E+002  0.7041148E+02  0.7546771E-02  0.1358699E+00
         21   -1    0    0  503  502  0.00000000000E+00  0.00000000000E+00  0.11427208407E+03  0.11427208407E+03  0.00000000000E+00 0. -1.
          2   -1    0    0  505    0 -0.00000000000E+00 -0.00000000000E+00 -0.10327085299E+04  0.10327085299E+04  0.00000000000E+00 0. -1.
         21    1    1    2  503  504 -0.69576076031E+01  0.58287256176E+02  0.92157449854E+02  0.10926485299E+03  0.00000000000E+00 0. -1.
         21    1    1    2  504  501  0.97825711245E+02 -0.42012524619E+02 -0.27867840200E+03  0.29832293534E+03  0.00000000000E+00 0. -1.
         21    1    1    2  505  502 -0.43968665750E+02 -0.12771046375E+02 -0.53429672927E+03  0.53625491895E+03  0.00000000000E+00 0.  1.
          2    1    1    2  501    0 -0.46899437892E+02 -0.35036851819E+01 -0.19761876441E+03  0.20313790668E+03  0.00000000000E+00 0. -1.
<scales pt_clust_3="58.57775" pt_clust_4="14000.00000" pt_clust_5="45.78584" pt_clust_6="70.41148"></scales>
<clustering>
<clus scale="   45.786">  2  5  1 -1</clus>
<clus scale="   58.578">  1  3  2 -1</clus>
<clus scale="   70.411">  2  6  1 -1</clus>
<clus scale="   58.578">  1  3  2 -1</clus>
</clustering>
</event>
<event>
 6    0  0.4081161E+002  0.1295447E+03  0.7546771E-02  0.1228133E+00
          1   -1    0    0  503    0 -0.00000000000E+00  0.00000000000E+00  0.68352591976E+03  0.68352591976E+03  0.00000000000E+00 0. -1.
         21   -1    0    0  504  502  0.00000000000E+00 -0.00000000000E+00 -0.24217559881E+03  0.24217559881E+03  0.00000000000E+00 0.  1.
         21    1    1    2  503  505 -0.24909253023E+02  0.36864014770E+02  0.62900716233E+02  0.77044964623E+02  0.00000000000E+00 0.  1.
         21    1    1    2  504  501  0.15083156543E+03  0.12875694163E+02 -0.50986899229E+02  0.15973605893E+03  0.00000000000E+00 0.  1.
         21    1    1    2  505  502 -0.11695201485E+03  0.29820194346E+02 -0.97982393823E+02  0.15545921416E+03  0.00000000000E+00 0.  1.
          1    1    1    2  501    0 -0.89702975591E+01 -0.79559903279E+02  0.52741889777E+03  0.53346128086E+03  0.00000000000E+00 0. -1.
<scales pt_clust_3="44.49075" pt_clust_4="14000.00000" pt_clust_5="129.54474" pt_clust_6="56.61154"></scales>
<clustering>
<clus scale="   44.491">  1  3  2 -1</clus>
<clus scale="   56.612">  1  6  2 -1</clus>
<clus scale="  129.545">  2  5  1 -1</clus>
<clus scale="  129.545">  2  3  1 -1</clus>
</clustering>
</event>
<event>
 6    0  0.4081161E+002  0.1424780E+03  0.7546771E-02  0.1210033E+00
          1   -1    0    0  504    0 -0.00000000000E+00  0.00000000000E+00  0.28144401521E+04  0.28144401521E+04  0.00000000000E+00 0.  1.
         21   -1    0    0  503  502  0.00000000000E+00 -0.00000000000E+00 -0.10549308930E+04  0.10549308930E+04  0.00000000000E+00 0. -1.
         21    1    1    2  503  505  0.64539411300E+02 -0.10443750149E+03 -0.92520597365E+03  0.93331592776E+03  0.00000000000E+00 0. -1.
         21    1    1    2  504  502  0.29147899401E+02  0.82126495400E+01 -0.12201133785E+03  0.12571322212E+03  0.00000000000E+00 0.  1.
         21    1    1    2  505  501 -0.53404169657E+02  0.60454170426E+02  0.11974402316E+04  0.12001540819E+04  0.00000000000E+00 0.  1.
          1    1    1    2  501    0 -0.40283141045E+02  0.35770681528E+02  0.16092863391E+04  0.16101878134E+04  0.00000000000E+00 0.  1.
<scales pt_clust_3="134.27212" pt_clust_4="30.28279" pt_clust_5="38.94678" pt_clust_6="38.94678"></scales>
<clustering>
<clus scale="   30.283">  2  4  1 -1</clus>
<clus scale="   38.947">  5  6 -1 -1</clus>
<clus scale="  134.272">  2  3  1 -1</clus>
<clus scale="   30.283">  2  3  1 -1</clus>
</clustering>
</event>
<event>
 6    0  0.4081161E+002  0.7180524E+02  0.7546771E-02  0.1354060E+00
          2   -1    0    0  503    0 -0.00000000000E+00  0.00000000000E+00  0.16783237015E+04  0.16783237015E+04  0.00000000000E+00 0. -1.
         21   -1    0    0  505  502  0.00000000000E+00 -0.00000000000E+00 -0.34316183583E+02  0.34316183583E+02  0.00000000000E+00 0. -1.
         21    1    1    2  503  504  0.34566220349E+02  0.38567496723E+02  0.23449832165E+03  0.24014940818E+03  0.00000000000E+00 0.  1.
         21    1    1    2  504  502 -0.69106715864E+02  0.78754513165E+02  0.14040168184E+03  0.17518745327E+03  0.00000000000E+00 0. -1.
         21    1    1    2  505  501  0.14766562357E+02 -0.42193319707E+02  0.25886201160E+02  0.51656780796E+02  0.00000000000E+00 0. -1.
          2    1    1    2  501    0  0.19773933158E+02 -0.75128690181E+02  0.12432213133E+04  0.12456462429E+04  0.00000000000E+00 0. -1.
<scales pt_clust_3="49.21897" pt_clust_4="14000.00000" pt_clust_5="44.70266" pt_clust_6="71.80524"></scales>
<clustering>
<clus scale="   44.703">  2  5  1 -1</clus>
<clus scale="   49.219">  1  3  2 -1</clus>
<clus scale="   71.805">  1  6  2 -1</clus>
<clus scale="   44.703">  2  3  1 -1</clus>
</clustering>
</event>
<event>
 6    0  0.4081161E+002  0.9772546E+02  0.7546771E-02  0.1285153E+00
         21   -1    0    0  503  502  0.00000000000E+00  0.00000000000E+00  0.98138077245E+02  0.98138077245E+02  0.00000000000E+00 0. -1.
          2   -1    0    0  504    0 -0.00000000000E+00 -0.00000000000E+00 -0.41005550678E+03  0.41005550678E+03  0.00000000000E+00 0. -1.
         21    1    1    2  503  501 -0.73874570229E+02 -0.10240122005E+02 -0.34661325407E+02  0.82241836702E+02  0.00000000000E+00 0. -1.
         21    1    1    2  504  505 -0.26165998089E+02  0.84606033993E+02 -0.62509635150E+02  0.10839877735E+03  0.00000000000E+00 0. -1.
         21    1    1    2  505  502  0.13796592071E+03 -0.47677319645E+02 -0.63193202719E+02  0.15906320428E+03  0.00000000000E+00 0. -1.
          2    1    1    2  501    0 -0.37925352395E+02 -0.26688592342E+02 -0.15155326626E+03  0.15848976569E+03  0.00000000000E+00 0. -1.
<scales pt_clust_3="84.17134" pt_clust_4="97.72546" pt_clust_5="14000.00000" pt_clust_6="46.37471"></scales>
<clustering>
<clus scale="   46.375">  2  6  1 -1</clus>
<clus scale="   84.171">  1  3  2 -1</clus>
<clus scale="   97.725">  2  4  1 -1</clus>
<clus scale="   84.171">  1  3  2 -1</clus>
</clustering>
</event>
<event>
 6    0  0.4081161E+002  0.6897604E+02  0.7546771E-02  0.1363610E+00
          2   -1    0    0  503    0 -0.00000000000E+00  0.00000000000E+00  0.34496520352E+04  0.34496520352E+04  0.00000000000E+00 0.  1.
         21   -1    0    0  504  502  0.00000000000E+00 -0.00000000000E+00 -0.55852662662E+02  0.55852662662E+02  0.00000000000E+00 0.  1.
         21    1    1    2  503  505 -0.47411791336E+02 -0.20587214918E+02  0.25410363155E+03  0.25930747568E+03  0.00000000000E+00 0.  1.
         21    1    1    2  504  501  0.20575468819E+02  0.25924877167E+02  0.18894484226E+01  0.33151458317E+02  0.00000000000E+00 0.  1.
         21    1    1    2  505  502 -0.86508717051E+02 -0.30468473630E+02  0.21016587727E+02  0.94094542726E+02  0.00000000000E+00 0.  1.
          2    1    1    2  501    0  0.11334503957E+03  0.25130811382E+02  0.31167897048E+04  0.31189512211E+04  0.00000000000E+00 0.  1.
<scales pt_clust_3="49.80995" pt_clust_4="33.09757" pt_clust_5="14000.00000" pt_clust_6="68.97604"></scales>
<clustering>
<clus scale="   33.098">  2  4  1 -1</clus>
<clus scale="   49.810">  1  3  2 -1</clus>
<clus scale="   68.976">  1  6  2 -1</clus>
<clus scale="   33.098">  2  3  1 -1</clus>
</clustering>
</event>
<event>
 6    0  0.4081161E+002  0.1188931E+03  0.7546771E-02  0.1244934E+00
          2   -1    0    0  504    0 -0.00000000000E+00  0.00000000000E+00  0.51220518414E+03  0.51220518414E+03  0.00000000000E+00 0. -1.
         21   -1    0    0  503  502  0.00000000000E+00 -0.00000000000E+00 -0.15443227743E+03  0.15443227743E+03  0.00000000000E+00 0. -1.
         21    1    1    2  503  501 -0.17404882660E+02  0.51137335720E+02  0.91931574183E+01  0.54794809866E+02  0.00000000000E+00 0.  1.
         21    1    1    2  504  505  0.12680079723E+02 -0.40215606955E+02  0.84375850805E+02  0.94325837731E+02  0.00000000000E+00 0. -1.
         21    1    1    2  505  502  0.52133074545E+02  0.71579538238E+02 -0.10436087142E+03  0.13686737829E+03  0.00000000000E+00 0. -1.
          2    1    1    2  501    0 -0.47408271609E+02 -0.82501267004E+02  0.36856476990E+03  0.38064943568E+03  0.00000000000E+00 0. -1.
<scales pt_clust_3="50.82853" pt_clust_4="42.16728" pt_clust_5="14000.00000" pt_clust_6="118.89305"></scales>
<clustering>
<clus scale="   42.167">  1  4  2 -1</clus>
<clus scale="   50.829">  2  3  1 -1</clus>
<clus scale="  118.893">  1  6  2 -1</clus>
<clus scale="   50.829">  2  3  1 -1</clus>
</clustering>
</event>
<event>
 6    0  0.4081161E+002  0.1076155E+03  0.7546771E-02  0.1265050E+00
         21   -1    0    0  504  502  0.00000000000E+00  0.00000000000E+00  0.92407690958E+02  0.92407690958E+02  0.00000000000E+00 0.  1.
          2   -1    0    0  505    0 -0.00000000000E+00 -0.00000000000E+00 -0.42126753931E+03  0.42126753931E+03  0.00000000000E+00 0.  1.
         21    1    1    2  503  501  0.43911826016E+01  0.59500054429E+02  0.47403900242E+01  0.59849897738E+02  0.00000000000E+00 0.  1.
         21    1    1    2  504  503  0.38535318327E+02  0.34469385106E+02  0.24972170432E+02  0.57417058130E+02  0.00000000000E+00 0.  1.
         21    1    1    2  505  502  0.43452114862E+02 -0.64443598094E+02 -0.16370561844E+03  0.18121973714E+03  0.00000000000E+00 0. -1.
          2    1    1    2  501    0 -0.86378615790E+02 -0.29525841441E+02 -0.19486679037E+03  0.21518853726E+03  0.00000000000E+00 0.  1.
<scales pt_clust_3="43.62128" pt_clust_4="43.62128" pt_clust_5="77.72428" pt_clust_6="96.87792"></scales>
<clustering>
<clus scale="   43.621">  3  4 -1 -1</clus>
<clus scale="   77.724">  2  5  1 -1</clus>
<clus scale="   96.878">  2  6  1 -1</clus>
<clus scale="  107.615">  1  3  2 -1</clus>
</clustering>
</event>
<event>
 6    0  0.4081161E+002  0.8873772E+02  0.7546771E-02  0.1305938E+00
         21   -1    0    0  505  502  0.00000000000E+00  0.00000000000E+00  0.39968711025E+03  0.39968711025E+03  0.00000000000E+00 0. -1.
          2   -1    0    0  504    0 -0.00000000000E+00 -0.00000000000E+00 -0.10041999812E+04  0.10041999812E+04  0.00000000000E+00 0. -1.
         21    1    1    2  503  502  0.10813828214E+03  0.61512623815E+02  0.36263052945E+03  0.38337787083E+03  0.00000000000E+00 0. -1.
         21    1    1    2  504  503 -0.43345666704E+02 -0.43123522617E+02 -0.41087685905E+03  0.41540134609E+03  0.00000000000E+00 0.  1.
         21    1    1    2  505  501 -0.30463852590E+02 -0.16467256317E+02  0.11356625859E+02  0.36444338328E+02  0.00000000000E+00 0.  1.
          2    1    1    2  501    0 -0.34328762850E+02 -0.19218448810E+01 -0.56762316717E+03  0.56866353616E+03  0.00000000000E+00 0. -1.
<scales pt_clust_3="88.73772" pt_clust_4="14000.00000" pt_clust_5="35.52722" pt_clust_6="34.38252"></scales>
<clustering>
<clus scale="   34.383">  2  6  1 -1</clus>
<clus scale="   35.527">  1  5  2 -1</clus>
<clus scale="   88.738">  1  3  2 -1</clus>
<clus scale="   35.527">  1  3  2 -1</clus>
</clustering>
</event>
<event>
 6    0  0.4081161E+002  0.3380798E+03  0.7546771E-02  0.1067617E+00
          1   -1    0    0  505    0 -0.00000000000E+00  0.00000000000E+00  0.23313058501E+03  0.23313058501E+03  0.00000000000E+00 0.  1.
         21   -1    0    0  501  502  0.00000000000E+00 -0.00000000000E+00 -0.84981138561E+03  0.84981138561E+03  0.00000000000E+00 0.  1.
         21    1    1    2  503  502 -0.22238603069E+02 -0.65859567826E+02 -0.11849199338E+03  0.13737681987E+03  0.00000000000E+00 0. -1.
         21    1    1    2  504  503 -0.20116071333E+03  0.31657927205E+03 -0.41244869707E+03  0.55749618456E+03  0.00000000000E+00 0.  1.
         21    1    1    2  505  504 -0.25072417824E+02 -0.55099133574E+02 -0.46753871079E+00  0.60537255047E+02  0.00000000000E+00 0.  1.
          1    1    1    2  501    0  0.24847173422E+03 -0.19562057065E+03 -0.85272571434E+02  0.32753171115E+03  0.00000000000E+00 0.  1.
<scales pt_clust_3="72.31341" pt_clust_4="338.07976" pt_clust_5="60.53545" pt_clust_6="14000.00000"></scales>
<clustering>
<clus scale="   60.535">  1  5  2 -1</clus>
<clus scale="   72.313">  2  3  1 -1</clus>
<clus scale="  338.080">  2  4  1 -1</clus>
<clus scale="   72.313">  2  3  1 -1</clus>
</clustering>
</event>
<event>
 6    0  0.4081161E+002  0.1055023E+03  0.7546771E-02  0.1269133E+00
          2   -1    0    0  505    0 -0.00000000000E+00  0.00000000000E+00  0.13490507352E+04  0.13490507352E+04  0.00000000000E+00 0.  1.
         21   -1    0    0  503  502  0.00000000000E+00 -0.00000000000E+00 -0.10629804867E+03  0.10629804867E+03  0.00000000000E+00 0.  1.
         21    1    1    2  503  501  0.85645674639E+02  0.35196310038E+02  0.32500681293E+03  0.33793992110E+03  0.00000000000E+00 0.  1.
         21    1    1    2  504  502 -0.91858876087E+02 -0.54316786216E+02 -0.68463512467E+02  0.12678966409E+03  0.00000000000E+00 0.  1.
         21    1    1    2  505  504  0.80945451043E+01 -0.36621402299E+02  0.37559265452E+03  0.37746058191E+03  0.00000000000E+00 0.  1.
          2    1    1    2  501    0 -0.18813436562E+01  0.55741878477E+02  0.61061673160E+03  0.61315861682E+03  0.00000000000E+00 0.  1.
<scales pt_clust_3="105.50230" pt_clust_4="14000.00000" pt_clust_5="37.50532" pt_clust_6="32.85794"></scales>
<clustering>
<clus scale="   37.505">  1  5  2 -1</clus>
<clus scale="   32.858">  1  6  2 -1</clus>
<clus scale="  105.502">  1  3  2 -1</clus>
<clus scale="  105.502">  2  3  1 -1</clus>
</clustering>
</event>
<event>
 6    0  0.4081161E+002  0.9127174E+02  0.7546771E-02  0.1299801E+00
          2   -1    0    0  503    0 -0.00000000000E+00  0.00000000000E+00  0.19580848280E+03  0.19580848280E+03  0.00000000000E+00 0.  1.
         21   -1    0    0  505  502  0.00000000000E+00 -0.00000000000E+00 -0.82614049383E+03  0.82614049383E+03  0.00000000000E+00 0.  1.
         21    1    1    2  503  504  0.44838776747E+02 -0.47963269967E+02  0.10310734261E+03  0.12223794528E+03  0.00000000000E+00 0.  1.
         21    1    1    2  504  502 -0.24682814220E+02 -0.70079066084E+02 -0.34746289524E+03  0.35531785824E+03  0.00000000000E+00 0.  1.
         21    1    1    2  505  501  0.21773066648E+02  0.13479555520E+03 -0.44761984675E+03  0.46798230238E+03  0.00000000000E+00 0. -1.
          2    1    1    2  501    0 -0.41929029174E+02 -0.16753219152E+02  0.61643388348E+02  0.76410870735E+02  0.00000000000E+00 0.  1.
<scales pt_clust_3="63.30705" pt_clust_4="14000.00000" pt_clust_5="91.27174" pt_clust_6="45.15212"></scales>
<clustering>
<clus scale="   45.152">  1  6  2 -1</clus>
<clus scale="   63.307">  1  3  2 -1</clus>
<clus scale="   91.272">  1  5  2 -1</clus>
<clus scale="   91.272">  2  3  1 -1</clus>
</clustering>
</event>
<event>
 6    0  0.4081161E+002  0.1086040E+03  0.7546771E-02  0.1263177E+00
          2   -1    0    0  503    0 -0.00000000000E+00  0.00000000000E+00  0.69830663292E+03  0.69830663292E+03  0.00000000000E+00 0.  1.
         21   -1    0    0  505  502  0.00000000000E+00 -0.00000000000E+00 -0.22929491069E+04  0.22929491069E+04  0.00000000000E+00 0.  1.
         21    1    1    2  503  504  0.17956270011E+02 -0.54923673188E+02  0.43465759411E+03  0.43848176887E+03  0.00000000000E+00 0.  1.
         21    1    1    2  504  502 -0.27130354523E+02  0.71310616716E+02 -0.20895915950E+04  0.20909840492E+04  0.00000000000E+00 0.  1.
         21    1    1    2  505  501  0.68906062914E+02  0.30849159139E+02 -0.18772939439E+03  0.20234139874E+03  0.00000000000E+00 0.  1.
          2    1    1    2  501    0 -0.59731978402E+02 -0.47236102667E+02  0.24802092134E+03  0.25944852295E+03  0.00000000000E+00 0.  1.
<scales pt_clust_3="57.78441" pt_clust_4="108.60400" pt_clust_5="75.34455" pt_clust_6="14000.00000"></scales>
<clustering>
<clus scale="   57.784">  1  3  2 -1</clus>
<clus scale="   75.345">  2  5  1 -1</clus>
<clus scale="  108.604">  2  4  1 -1</clus>
<clus scale="   75.345">  2  3  1 -1</clus>
</clustering>
</event>
<event>
 6    0  0.4081161E+002  0.9486123E+02  0.7546771E-02  0.1291489E+00
          2   -1    0    0  504    0 -0.00000000000E+00  0.00000000000E+00  0.20267024721E+04  0.20267024721E+04  0.00000000000E+00 0.  1.
         21   -1    0    0  505  502  0.00000000000E+00 -0.00000000000E+00 -0.79024458559E+02  0.79024458559E+02  0.00000000000E+00 0. -1.
         21    1    1    2  503  502 -0.35247799701E+02  0.44288830803E+02 -0.52279589726E+02  0.77052342078E+02  0.00000000000E+00 0. -1.
         21    1    1    2  504  503 -0.38905317447E+02 -0.12084750208E+03  0.32017304228E+03  0.34442491124E+03  0.00000000000E+00 0.  1.
         21    1    1    2  505  501  0.58367689594E+02  0.33053109476E+02  0.65620404595E+03  0.65962341161E+03  0.00000000000E+00 0. -1.
          2    1    1    2  501    0  0.15785427555E+02  0.43505561798E+02  0.10235805150E+04  0.10246262657E+04  0.00000000000E+00 0.  1.
<scales pt_clust_3="56.90427" pt_clust_4="14000.00000" pt_clust_5="94.86123" pt_clust_6="46.28081"></scales>
<clustering>
<clus scale="   46.281">  1  6  2 -1</clus>
<clus scale="   56.904">  2  3  1 -1</clus>
<clus scale="   94.861">  1  5  2 -1</clus>
<clus scale="   56.904">  2  3  1 -1</clus>
</clustering>
</event>
<event>
 6    0  0.4081161E+002  0.8566062E+02  0.7546771E-02  0.1313714E+00
          2   -1    0    0  505    0 -0.00000000000E+00  0.00000000000E+00  0.86878204400E+03  0.86878204400E+03  0.00000000000E+00 0.  1.
         21   -1    0    0  504  502  0.00000000000E+00 -0.00000000000E+00 -0.91161741001E+02  0.91161741001E+02  0.00000000000E+00 0.  1.
         21    1    1    2  503  501 -0.49138414794E+02 -0.71894844235E+02  0.44709741011E+01  0.87197718120E+02  0.00000000000E+00 0.  1.
         21    1    1    2  504  503  0.37551390158E+02 -0.11169347957E+02 -0.32886006493E+02  0.51150275265E+02  0.00000000000E+00 0.  1.
         21    1    1    2  505  502 -0.11541774351E+02 -0.32016511541E+02  0.94465330662E+02  0.10040900489E+03  0.00000000000E+00 0. -1.
          2    1    1    2  501    0  0.23128798987E+02  0.11508070373E+03  0.71157000473E+03  0.72118678673E+03  0.00000000000E+00 0.  1.
<scales pt_clust_3="85.66062" pt_clust_4="39.15646" pt_clust_5="34.03336" pt_clust_6="14000.00000"></scales>
<clustering>
<clus scale="   34.033">  1  5  2 -1</clus>
<clus scale="   39.156">  2  4  1 -1</clus>
<clus scale="   85.661">  2  3  1 -1</clus>
<clus scale="   39.156">  2  3  1 -1</clus>
</clustering>
</event>
<event>
 6    0  0.4081161E+002  0.1271292E+03  0.7546771E-02  0.1231779E+00
         21   -1    0    0  505  502  0.00000000000E+00  0.00000000000E+00  0.25361959214E+03  0.25361959214E+03  0.00000000000E+00 0.  1.
          2   -1    0    0  503    0 -0.00000000000E+00 -0.00000000000E+00 -0.71535950248E+03  0.71535950248E+03  0.00000000000E+00 0.  1.
         21    1    1    2  503  504  0.11067873987E+03 -0.82099487297E+02  0.18743046771E+02  0.13907340176E+03  0.00000000000E+00 0.  1.
         21    1    1    2  504  502 -0.90106359841E+02  0.84185658782E+02  0.14371500552E+03  0.18936838183E+03  0.00000000000E+00 0.  1.
         21    1    1    2  505  501 -0.40176520155E+02 -0.41550121987E+02 -0.10827224500E+03  0.12273322471E+03  0.00000000000E+00 0.  1.
          2    1    1    2  501    0  0.19604140122E+02  0.39463950502E+02 -0.51592571763E+03  0.51780408632E+03  0.00000000000E+00 0.  1.
<scales pt_clust_3="127.12918" pt_clust_4="14000.00000" pt_clust_5="34.25063" pt_clust_6="44.06502"></scales>
<clustering>
<clus scale="   44.065">  2  6  1 -1</clus>
<clus scale="   34.251">  2  5  1 -1</clus>
<clus scale="  127.129">  2  3  1 -1</clus>
<clus scale="  127.129">  1  3  2 -1</clus>
</clustering>
</event>
<event>
 6    0  0.4081161E+002  0.1449583E+03  0.7546771E-02  0.1206809E+00
         21   -1    0    0  503  502  0.00000000000E+00  0.00000000000E+00  0.44201969878E+03  0.44201969878E+03  0.00000000000E+00 0. -1.
          4   -1    0    0  504    0 -0.00000000000E+00 -0.00000000000E+00 -0.61320638419E+03  0.61320638419E+03  0.00000000000E+00 0.  1.
         21    1    1    2  503  505  0.43125550278E+02  0.46599436007E+02  0.27159168712E+03  0.27891461962E+03  0.00000000000E+00 0. -1.
         21    1    1    2  504  502 -0.38970405302E+02 -0.72122580808E+02 -0.18767074934E+03  0.20479421210E+03  0.00000000000E+00 0.  1.
         21    1    1    2  505  501  0.53684730577E+02  0.52825221149E+02  0.14656498199E+03  0.16478424752E+03  0.00000000000E+00 0.  1.
          4    1    1    2  501    0 -0.57839875553E+02 -0.27302076348E+02 -0.40167260518E+03  0.40673300374E+03  0.00000000000E+00 0.  1.
<scales pt_clust_3="48.20276" pt_clust_4="135.11743" pt_clust_5="48.20276" pt_clust_6="63.95979"></scales>
<clustering>
<clus scale="   48.203">  3  5 -1 -1</clus>
<clus scale="   63.960">  2  6  1 -1</clus>
<clus scale="  135.117">  2  4  1 -1</clus>
<clus scale="  144.958">  1  3  2 -1</clus>
</clustering>
</event>
<event>
 6    0  0.4081161E+002  0.6812226E+02  0.7546771E-02  0.1366597E+00
         21   -1    0    0  503  502  0.00000000000E+00  0.00000000000E+00  0.18670374158E+03  0.18670374158E+03  0.00000000000E+00 0.  1.
          1   -1    0    0  504    0 -0.00000000000E+00 -0.00000000000E+00 -0.26497531304E+04  0.26497531304E+04  0.00000000000E+00 0.  1.
         21    1    1    2  503  501  0.28067853848E+02 -0.51758448605E+02  0.17481745876E+03  0.18446648831E+03  0.00000000000E+00 0.  1.
         21    1    1    2  504  505  0.23150083305E+02  0.34627525540E+02 -0.63627075848E+03  0.63763270774E+03  0.00000000000E+00 0. -1.
         21    1    1    2  505  502 -0.95895207965E+02  0.38662685979E+02 -0.44042508887E+03  0.45239910821E+03  0.00000000000E+00 0.  1.
          1    1    1    2  501    0  0.44677270812E+02 -0.21531762914E+02 -0.15611710003E+04  0.15619585678E+04  0.00000000000E+00 0.  1.
<scales pt_clust_3="58.83260" pt_clust_4="41.65323" pt_clust_5="14000.00000" pt_clust_6="68.12226"></scales>
<clustering>
<clus scale="   41.653">  2  4  1 -1</clus>
<clus scale="   58.833">  1  3  2 -1</clus>
<clus scale="   68.122">  2  6  1 -1</clus>
<clus scale="   58.833">  1  3  2 -1</clus>
</clustering>
</event>
<event>
 6    0  0.4081161E+002  0.1288343E+03  0.7546771E-02  0.1229196E+00
          2   -1    0    0  503    0 -0.00000000000E+00  0.00000000000E+00  0.14856810258E+04  0.14856810258E+04  0.00000000000E+00 0.  1.
         21   -1    0    0  504  502  0.00000000000E+00 -0.00000000000E+00 -0.21261374849E+02  0.21261374849E+02  0.00000000000E+00 0.  1.
         21    1    1    2  503  505 -0.77124521637E+02 -0.98243779654E+02  0.10643984550E+04  0.10717014990E+04  0.00000000000E+00 0.  1.
         21    1    1    2  504  501  0.32037220510E+02  0.45798672971E+02  0.10700864848E+03  0.12072594085E+03  0.00000000000E+00 0.  1.
         21    1    1    2  505  502  0.39991645813E+02 -0.17742916078E+02  0.10406642629E+03  0.11288916638E+03  0.00000000000E+00 0. -1.
          2    1    1    2  501    0  0.50956553147E+01  0.70188022760E+02  0.18894612119E+03  0.20162579437E+03  0.00000000000E+00 0.  1.
<scales pt_clust_3="122.91715" pt_clust_4="34.39651" pt_clust_5="43.75092" pt_clust_6="34.39651"></scales>
<clustering>
<clus scale="   34.397">  4  6 -1 -1</clus>
<clus scale="   43.751">  2  5  1 -1</clus>
<clus scale="  122.917">  1  3  2 -1</clus>
<clus scale="   43.751">  2  3  1 -1</clus>
</clustering>
</event>
<event>
 6    0  0.4081161E+002  0.1142259E+03  0.7546771E-02  0.1252938E+00
         21   -1    0    0  505  502  0.00000000000E+00  0.00000000000E+00  0.23733162774E+03  0.23733162774E+03  0.00000000000E+00 0. -1.
          2   -1    0    0  502    0 -0.00000000000E+00 -0.00000000000E+00 -0.25434053225E+04  0.25434053225E+04  0.00000000000E+00 0. -1.
         21    1    1    2  503  504  0.44757533974E+02 -0.20159149630E+02 -0.12271082938E+01  0.49103298830E+02  0.00000000000E+00 0.  1.
         21    1    1    2  504  501  0.31567031205E+02 -0.10216903095E+03 -0.49733613241E+02  0.11793396725E+03  0.00000000000E+00 0.  1.
         21    1    1    2  505  503 -0.19902164003E+02  0.22570303928E+02  0.17667155379E+03  0.17921593866E+03  0.00000000000E+00 0. -1.
          2    1    1    2  501    0 -0.56422401176E+02  0.99757876655E+02 -0.24317845270E+04  0.24344837455E+04  0.00000000000E+00 0. -1.
<scales pt_clust_3="38.36461" pt_clust_4="14000.00000" pt_clust_5="30.09177" pt_clust_6="114.22591"></scales>
<clustering>
<clus scale="   30.092">  1  5  2 -1</clus>
<clus scale="   38.365">  1  3  2 -1</clus>
<clus scale="  114.226">  2  6  1 -1</clus>
<clus scale="   30.092">  1  3  2 -1</clus>
</clustering>
</event>
<event>
 6    0  0.4081161E+002  0.1693700E+03  0.7546771E-02  0.1178506E+00
          2   -1    0    0  503    0 -0.00000000000E+00  0.00000000000E+00  0.10403754717E+04  0.10403754717E+04  0.00000000000E+00 0.  1.
         21   -1    0    0  501  502  0.00000000000E+00 -0.00000000000E+00 -0.37596998659E+03  0.37596998659E+03  0.00000000000E+00 0.  1.
         21    1    1    2  503  505  0.16260037291E+03 -0.10943450825E+03  0.21467444351E+03  0.29068868152E+03  0.00000000000E+00 0.  1.
         21    1    1    2  504  502  0.26576390621E+01 -0.80318014278E+02 -0.11132876837E+03  0.13730309949E+03  0.00000000000E+00 0.  1.
         21    1    1    2  505  504 -0.17216857265E+03  0.26875706491E+02 -0.16754434517E+03  0.24173421066E+03  0.00000000000E+00 0.  1.
          2    1    1    2  501    0  0.69105606816E+01  0.16287681604E+03  0.72860415517E+03  0.74661946665E+03  0.00000000000E+00 0.  1.
<scales pt_clust_3="169.37002" pt_clust_4="80.36197" pt_clust_5="14000.00000" pt_clust_6="160.15523"></scales>
<clustering>
<clus scale="   80.362">  2  4  1 -1</clus>
<clus scale="  160.155">  1  6  2 -1</clus>
<clus scale="  169.370">  1  3  2 -1</clus>
<clus scale="   80.362">  2  3  1 -1</clus>
</clustering>
</event>
<event>
 6    0  0.4081161E+002  0.7912808E+02  0.7546771E-02  0.1331544E+00
         21   -1    0    0  501  502  0.00000000000E+00  0.00000000000E+00  0.64283975622E+02  0.64283975622E+02  0.00000000000E+00 0.  1.
          1   -1    0    0  503    0 -0.00000000000E+00 -0.00000000000E+00 -0.27448481974E+04  0.27448481974E+04  0.00000000000E+00 0. -1.
         21    1    1    2  503  504 -0.46226520381E+02 -0.93629434397E+01 -0.18980412031E+03  0.19557648116E+03  0.00000000000E+00 0.  1.
         21    1    1    2  504  505  0.55639389864E+01  0.47929711557E+02 -0.53107657939E+03  0.53326405077E+03  0.00000000000E+00 0.  1.
         21    1    1    2  505  502  0.23368832073E+02  0.75255867568E+02  0.32169490873E+02  0.85114182478E+02  0.00000000000E+00 0.  1.
          1    1    1    2  501    0  0.17293749322E+02 -0.11382263569E+03 -0.19918530130E+04  0.19951774586E+04  0.00000000000E+00 0. -1.
<scales pt_clust_3="47.16520" pt_clust_4="46.15761" pt_clust_5="14000.00000" pt_clust_6="79.12808"></scales>
<clustering>
<clus scale="   47.165">  2  3  1 -1</clus>
<clus scale="   46.158">  2  4  1 -1</clus>
<clus scale="   79.128">  2  6  1 -1</clus>
<clus scale="   79.128">  1  3  2 -1</clus>
</clustering>
</event>
<event>
 6    0  0.4081161E+002  0.1004275E+03  0.7546771E-02  0.1279400E+00
         21   -1    0    0  504  502  0.00000000000E+00  0.00000000000E+00  0.52916165460E+02  0.52916165460E+02  0.00000000000E+00 0.  1.
          2   -1    0    0  505    0 -0.00000000000E+00 -0.00000000000E+00 -0.22049865368E+04  0.22049865368E+04  0.00000000000E+00 0. -1.
         21    1    1    2  503  502 -0.28433732918E+02  0.35727119303E+02  0.19696974950E+02  0.49728010653E+02  0.00000000000E+00 0.  1.
         21    1    1    2  504  501  0.36513425497E+02  0.76182515444E+02 -0.10166151982E+03  0.13218195987E+03  0.00000000000E+00 0. -1.
         21    1    1    2  505  503  0.45605220728E+02 -0.56841159664E+02 -0.71440884905E+03  0.71811611679E+03  0.00000000000E+00 0.  1.
          2    1    1    2  501    0 -0.53684913308E+02 -0.55068475084E+02 -0.13556969774E+04  0.13578766149E+04  0.00000000000E+00 0. -1.
<scales pt_clust_3="45.66075" pt_clust_4="14000.00000" pt_clust_5="68.22544" pt_clust_6="100.42746"></scales>
<clustering>
<clus scale="   45.661">  1  3  2 -1</clus>
<clus scale="   68.225">  2  5  1 -1</clus>
<clus scale="  100.427">  2  6  1 -1</clus>
<clus scale="   45.661">  1  3  2 -1</clus>
</clustering>
</event>
<event>
 6    0  0.4081161E+002  0.8020803E+02  0.7546771E-02  0.1328462E+00
         21   -1    0    0  505  502  0.00000000000E+00  0.00000000000E+00  0.17983280345E+03  0.17983280345E+03  0.00000000000E+00 0. -1.
         -1   -1    0    0    0  501 -0.00000000000E+00 -0.00000000000E+00 -0.31120913824E+04  0.31120913824E+04  0.00000000000E+00 0. -1.
         21    1    1    2  503  502  0.61440069979E+02 -0.54857728685E+02  0.16053166124E+03  0.18042911865E+03  0.00000000000E+00 0. -1.
         21    1    1    2  504  501 -0.34181972625E+02 -0.12330515504E+02 -0.76233397556E+03  0.76319954086E+03  0.00000000000E+00 0. -1.
         21    1    1    2  505  504 -0.63970012259E+02  0.74462622139E+01 -0.11559566500E+03  0.13232523212E+03  0.00000000000E+00 0.  1.
         -1    1    1    2    0  503  0.36711914904E+02  0.59741981976E+02 -0.22148605996E+04  0.22159702942E+04  0.00000000000E+00 0. -1.
<scales pt_clust_3="14000.00000" pt_clust_4="36.33798" pt_clust_5="80.20803" pt_clust_6="48.32225"></scales>
<clustering>
<clus scale="   36.338">  2  4  1 -1</clus>
<clus scale="   48.322">  2  6  1 -1</clus>
<clus scale="   80.208">  2  5  1 -1</clus>
<clus scale="   80.208">  1  3  2 -1</clus>
</clustering>
</event>
<event>
 6    0  0.4081161E+002  0.1256080E+03  0.7546771E-02  0.1234122E+00
          4   -1    0    0  504    0 -0.00000000000E+00  0.00000000000E+00  0.14420442412E+03  0.14420442412E+03  0.00000000000E+00 0. -1.
         21   -1    0    0  505  502  0.00000000000E+00 -0.00000000000E+00 -0.33328030394E+03  0.33328030394E+03  0.00000000000E+00 0. -1.
         21    1    1    2  503  501 -0.27508475257E+02  0.28943575812E+02 -0.11781280083E+02  0.41632263356E+02  0.00000000000E+00 0.  1.
         21    1    1    2  504  502  0.63773578211E+02 -0.15783134427E+03 -0.16893096508E+03  0.23982383842E+03  0.00000000000E+00 0. -1.
         21    1    1    2  505  503  0.25361236199E+02  0.98641130113E+02 -0.52331125735E+02  0.11450681889E+03  0.00000000000E+00 0.  1.
          4    1    1    2  501    0 -0.61626339154E+02  0.30246638348E+02  0.43967491082E+02  0.81521807395E+02  0.00000000000E+00 0. -1.
<scales pt_clust_3="39.50061" pt_clust_4="114.43296" pt_clust_5="101.84923" pt_clust_6="39.50061"></scales>
<clustering>
<clus scale="   39.501">  3  6 -1 -1</clus>
<clus scale="  101.849">  2  5  1 -1</clus>
<clus scale="  114.433">  2  4  1 -1</clus>
<clus scale="  101.849">  2  3  1 -1</clus>
</clustering>
</event>
<event>
 6    0  0.4081161E+002  0.1467563E+03  0.7546771E-02  0.1204516E+00
          1   -1    0    0  503    0 -0.00000000000E+00  0.00000000000E+00  0.60043285553E+03  0.60043285553E+03  0.00000000000E+00 0. -1.
         21   -1    0    0  505  502  0.00000000000E+00 -0.00000000000E+00 -0.27486562522E+03  0.27486562522E+03  0.00000000000E+00 0. -1.
         21    1    1    2  503  502 -0.91458698639E+02  0.53728766369E+01  0.15072832808E+02  0.92848002935E+02  0.00000000000E+00 0. -1.
         21    1    1    2  504  501  0.35625273317E+02 -0.11679740712E+02  0.61686410561E+02  0.72185799780E+02  0.00000000000E+00 0. -1.
         21    1    1    2  505  504 -0.31001960935E+02  0.80786350372E+02 -0.21541947173E+03  0.23214888497E+03  0.00000000000E+00 0. -1.
          1    1    1    2  501    0  0.86835386257E+02 -0.74479486297E+02  0.46422745868E+03  0.47811579307E+03  0.00000000000E+00 0. -1.
<scales pt_clust_3="133.08268" pt_clust_4="35.41156" pt_clust_5="86.53067" pt_clust_6="35.41156"></scales>
<clustering>
<clus scale="   35.412">  4  6 -1 -1</clus>
<clus scale="   86.531">  2  5  1 -1</clus>
<clus scale="  133.083">  2  3  1 -1</clus>
<clus scale="   86.531">  2  3  1 -1</clus>
</clustering>
</event>
<event>
 6    0  0.4081161E+002  0.5951807E+02  0.7546771E-02  0.1399865E+00
         21   -1    0    0  504  502  0.00000000000E+00  0.00000000000E+00  0.11568346771E+03  0.11568346771E+03  0.00000000000E+00 0. -1.
          1   -1    0    0  505    0 -0.00000000000E+00 -0.00000000000E+00 -0.10268981702E+04  0.10268981702E+04  0.00000000000E+00 0.  1.
         21    1    1    2  503  502 -0.90804105288E+02  0.92429358402E+00  0.74225656500E+02  0.11728464494E+03  0.00000000000E+00 0. -1.
         21    1    1    2  504  501  0.41313796793E+02  0.31042644290E+01 -0.12061934183E+02  0.43150394196E+02  0.00000000000E+00 0.  1.
         21    1    1    2  505  503 -0.18921611214E+00 -0.54053216243E+02 -0.27821992989E+03  0.28342215047E+03  0.00000000000E+00 0. -1.
          1    1    1    2  501    0  0.49679524608E+02  0.50024658230E+02 -0.69515849489E+03  0.69872444828E+03  0.00000000000E+00 0.  1.
<scales pt_clust_3="51.44650" pt_clust_4="41.43026" pt_clust_5="59.51807" pt_clust_6="14000.00000"></scales>
<clustering>
<clus scale="   41.430">  1  4  2 -1</clus>
<clus scale="   51.447">  1  3  2 -1</clus>
<clus scale="   59.518">  1  5  2 -1</clus>
<clus scale="   41.430">  1  3  2 -1</clus>
</clustering>
</event>
<event>
 6    0  0.4081161E+002  0.1134253E+03  0.7546771E-02  0.1254355E+00
         21   -1    0    0  503  502  0.00000000000E+00  0.00000000000E+00  0.11700958960E+04  0.11700958960E+04  0.00000000000E+00 0.  1.
          1   -1    0    0  505    0 -0.00000000000E+00 -0.00000000000E+00 -0.12224573809E+03  0.12224573809E+03  0.00000000000E+00 0.  1.
         21    1    1    2  503  504  0.13505243794E+02  0.46559552164E+02  0.17459180153E+03  0.18119735282E+03  0.00000000000E+00 0.  1.
         21    1    1    2  504  501 -0.30227718168E+02  0.98918945856E+02  0.79295070721E+02  0.13033181130E+03  0.00000000000E+00 0.  1.
         21    1    1    2  505  502 -0.61096617374E+02 -0.15052036343E+03  0.86209073960E+03  0.87726257173E+03  0.00000000000E+00 0.  1.
          1    1    1    2  501    0  0.77819091748E+02  0.50418654109E+01 -0.68127453929E+02  0.10354989824E+03  0.00000000000E+00 0.  1.
<scales pt_clust_3="48.47869" pt_clust_4="113.42532" pt_clust_5="14000.00000" pt_clust_6="78.28079"></scales>
<clustering>
<clus scale="   48.479">  1  3  2 -1</clus>
<clus scale="   78.281">  2  6  1 -1</clus>
<clus scale="  113.425">  2  4  1 -1</clus>
<clus scale="   48.479">  1  3  2 -1</clus>
</clustering>
</event>
<event>
 6    0  0.4081161E+002  0.1415779E+03  0.7546771E-02  0.1211221E+00
         21   -1    0    0  504  502  0.00000000000E+00  0.00000000000E+00  0.47244980750E+03  0.47244980750E+03  0.00000000000E+00 0.  1.
          1   -1    0    0  505    0 -0.00000000000E+00 -0.00000000000E+00 -0.61879163336E+03  0.61879163336E+03  0.00000000000E+00 0. -1.
         21    1    1    2  503  502  0.22499920532E+01  0.32755749640E+02  0.40948332174E+03  0.41079750776E+03  0.00000000000E+00 0.  1.
         21    1    1    2  504  501  0.63473585532E+02  0.35245713496E+02 -0.19615612003E+03  0.20916113359E+03  0.00000000000E+00 0. -1.
         21    1    1    2  505  503 -0.12196003156E+03 -0.90870943148E+02 -0.56740130407E+02  0.16233058863E+03  0.00000000000E+00 0.  1.
          1    1    1    2  501    0  0.56236453973E+02  0.22869480012E+02 -0.30292889716E+03  0.30895221088E+03  0.00000000000E+00 0. -1.
<scales pt_clust_3="32.83293" pt_clust_4="36.85187" pt_clust_5="135.63403" pt_clust_6="36.85187"></scales>
<clustering>
<clus scale="   32.833">  1  3  2 -1</clus>
<clus scale="   36.852">  4  6 -1 -1</clus>
<clus scale="  135.634">  1  5  2 -1</clus>
<clus scale="   32.833">  1  3  2 -1</clus>
</clustering>
</event>
<event>
 6    0  0.4081161E+002  0.7572222E+02  0.7546771E-02  0.1341649E+00
         -2   -1    0    0    0  501 -0.00000000000E+00  0.00000000000E+00  0.17356946529E+04  0.17356946529E+04  0.00000000000E+00 0. -1.
         21   -1    0    0  504  502  0.00000000000E+00 -0.00000000000E+00 -0.12929654984E+02  0.12929654984E+02  0.00000000000E+00 0. -1.
         21    1    1    2  503  501 -0.32412272556E+02 -0.47916687289E+02  0.53771924593E+03  0.54082210733E+03  0.00000000000E+00 0.  1.
         21    1    1    2  504  503 -0.78608141136E+02  0.30512152533E+02  0.42504259320E+03  0.43332601738E+03  0.00000000000E+00 0. -1.
         21    1    1    2  505  502  0.24746971581E+02 -0.21518270356E+02  0.62503562379E+02  0.70584303295E+02  0.00000000000E+00 0. -1.
         -2    1    1    2    0  505  0.86273442111E+02  0.38922805111E+02  0.69749959642E+03  0.70389187989E+03  0.00000000000E+00 0. -1.
<scales pt_clust_3="58.81538" pt_clust_4="75.72222" pt_clust_5="32.79403" pt_clust_6="14000.00000"></scales>
<clustering>
<clus scale="   32.794">  2  5  1 -1</clus>
<clus scale="   58.815">  1  3  2 -1</clus>
<clus scale="   75.722">  2  4  1 -1</clus>
<clus scale="   32.794">  2  3  1 -1</clus>
</clustering>
</event>
<event>
 6    0  0.4081161E+002  0.8951175E+02  0.7546771E-02  0.1304038E+00
          1   -1    0    0  503    0 -0.00000000000E+00  0.00000000000E+00  0.10134470040E+04  0.10134470040E+04  0.00000000000E+00 0. -1.
         21   -1    0    0  504  502  0.00000000000E+00 -0.00000000000E+00 -0.80033793232E+03  0.80033793232E+03  0.00000000000E+00 0.  1.
         21    1    1    2  503  505  0.54577951253E+02  0.12939195069E+03  0.54877149415E+03  0.56645492535E+03  0.00000000000E+00 0. -1.
         21    1    1    2  504  501  0.16472066342E+02 -0.28908417192E+02  0.17285114781E+01  0.33316862188E+02  0.00000000000E+00 0. -1.
         21    1    1    2  505  502 -0.53712326650E+02 -0.30047948542E+02 -0.77146691624E+03  0.77391801639E+03  0.00000000000E+00 0.  1.
          1    1    1    2  501    0 -0.17337690944E+02 -0.70435584958E+02  0.43407598226E+03  0.44009513236E+03  0.00000000000E+00 0. -1.
<scales pt_clust_3="89.51175" pt_clust_4="33.27199" pt_clust_5="69.49809" pt_clust_6="14000.00000"></scales>
<clustering>
<clus scale="   33.272">  2  4  1 -1</clus>
<clus scale="   69.498">  2  5  1 -1</clus>
<clus scale="   89.512">  2  3  1 -1</clus>
<clus scale="   33.272">  2  3  1 -1</clus>
</clustering>
</event>
<event>
 6    0  0.4081161E+002  0.1412652E+03  0.7546771E-02  0.1211637E+00
         21   -1    0    0  505  502  0.00000000000E+00  0.00000000000E+00  0.25649347499E+03  0.25649347499E+03  0.00000000000E+00 0. -1.
          2   -1    0    0  503    0 -0.00000000000E+00 -0.00000000000E+00 -0.97193724510E+03  0.97193724510E+03  0.00000000000E+00 0. -1.
         21    1    1    2  503  502 -0.25858990034E+02 -0.17041154134E+03  0.12560664128E+03  0.21327402355E+03  0.00000000000E+00 0. -1.
         21    1    1    2  504  501  0.63353329866E+02  0.71795354975E+02 -0.74848212351E+02  0.12153383189E+03  0.00000000000E+00 0. -1.
         21    1    1    2  505  504 -0.32674731179E+02  0.17505279923E+02  0.56141248208E+02  0.67274903443E+02  0.00000000000E+00 0.  1.
          2    1    1    2  501    0 -0.48196086532E+01  0.81110906437E+02 -0.82234344725E+03  0.82634796121E+03  0.00000000000E+00 0. -1.
<scales pt_clust_3="14000.00000" pt_clust_4="141.26522" pt_clust_5="37.06849" pt_clust_6="81.45417"></scales>
<clustering>
<clus scale="   37.068">  1  5  2 -1</clus>
<clus scale="   81.454">  2  6  1 -1</clus>
<clus scale="  141.265">  2  4  1 -1</clus>
<clus scale="   37.068">  1  3  2 -1</clus>
</clustering>
</event>
<event>
 6    0  0.4081161E+002  0.9137926E+02  0.7546771E-02  0.1299546E+00
          2   -1    0    0  505    0 -0.00000000000E+00  0.00000000000E+00  0.29287915638E+04  0.29287915638E+04  0.00000000000E+00 0.  1.
         21   -1    0    0  504  502  0.00000000000E+00 -0.00000000000E+00 -0.20882289281E+03  0.20882289281E+03  0.00000000000E+00 0.  1.
         21    1    1    2  503  502 -0.57903703715E+02  0.21796299697E+02 -0.19107351465E+03  0.20084074682E+03  0.00000000000E+00 0.  1.
         21    1    1    2  504  501 -0.33079753641E+02 -0.24099521451E+02  0.28365825548E+02  0.49796356234E+02  0.00000000000E+00 0.  1.
         21    1    1    2  505  503  0.11916244131E+03  0.19690307560E+02  0.19686491757E+04  0.19723506212E+04  0.00000000000E+00 0.  1.
          2    1    1    2  501    0 -0.28178983949E+02 -0.17387085806E+02  0.91402718436E+03  0.91462673241E+03  0.00000000000E+00 0.  1.
<scales pt_clust_3="91.37926" pt_clust_4="41.56797" pt_clust_5="14000.00000" pt_clust_6="33.11142"></scales>
<clustering>
<clus scale="   33.111">  1  6  2 -1</clus>
<clus scale="   41.568">  2  4  1 -1</clus>
<clus scale="   91.379">  2  3  1 -1</clus>
<clus scale="   41.568">  2  3  1 -1</clus>
</clustering>
</event>
<event>
 6    0  0.4081161E+002  0.8717294E+02  0.7546771E-02  0.1309846E+00
         21   -1    0    0  505  502  0.00000000000E+00  0.00000000000E+00  0.66243006437E+03  0.66243006437E+03  0.00000000000E+00 0. -1.
         -3   -1    0    0    0  501 -0.00000000000E+00 -0.00000000000E+00 -0.42037117568E+03  0.42037117568E+03  0.00000000000E+00 0.  1.
         21    1    1    2  503  502 -0.10212838455E+02  0.36350724769E+02  0.53264501592E+03  0.53398163849E+03  0.00000000000E+00 0. -1.
         21    1    1    2  504  501 -0.31968854696E+02  0.17210145557E+02 -0.95539048235E+02  0.10220521767E+03  0.00000000000E+00 0.  1.
         21    1    1    2  505  504  0.52253497888E+02 -0.11278373009E+03  0.91176269769E+02  0.15415482472E+03  0.00000000000E+00 0.  1.
         -3    1    1    2    0  503 -0.10071804736E+02  0.59222859762E+02 -0.28622334877E+03  0.29245955918E+03  0.00000000000E+00 0.  1.
<scales pt_clust_3="37.81060" pt_clust_4="36.30698" pt_clust_5="87.17294" pt_clust_6="14000.00000"></scales>
<clustering>
<clus scale="   36.307">  2  4  1 -1</clus>
<clus scale="   37.811">  1  3  2 -1</clus>
<clus scale="   87.173">  1  5  2 -1</clus>
<clus scale="   37.811">  1  3  2 -1</clus>
</clustering>
</event>
<event>
 6    0  0.4081161E+002  0.7989625E+02  0.7546771E-02  0.1329346E+00
          2   -1    0    0  503    0 -0.00000000000E+00  0.00000000000E+00  0.84164204233E+03  0.84164204233E+03  0.00000000000E+00 0. -1.
         21   -1    0    0  505  502  0.00000000000E+00 -0.00000000000E+00 -0.97713679865E+02  0.97713679865E+02  0.00000000000E+00 0. -1.
         21    1    1    2  503  502  0.72742882093E+02  0.74126526489E+02  0.79490885444E+01  0.10416072596E+03  0.00000000000E+00 0. -1.
         21    1    1    2  504  501 -0.22069555460E+02 -0.43220475880E+02  0.25216461050E+03  0.25679187215E+03  0.00000000000E+00 0.  1.
         21    1    1    2  505  504 -0.53798446595E+02  0.11651241104E+02 -0.30087871210E+02  0.62732003549E+02  0.00000000000E+00 0. -1.
          2    1    1    2  501    0  0.31251199620E+01 -0.42557291713E+02  0.51390253463E+03  0.51567112053E+03  0.00000000000E+00 0. -1.
<scales pt_clust_3="14000.00000" pt_clust_4="79.89625" pt_clust_5="54.48167" pt_clust_6="42.67188"></scales>
<clustering>
<clus scale="   42.672">  1  6  2 -1</clus>
<clus scale="   54.482">  2  5  1 -1</clus>
<clus scale="   79.896">  1  4  2 -1</clus>
<clus scale="   54.482">  2  3  1 -1</clus>
</clustering>
</event>
<event>
 6    0  0.4081161E+002  0.7605537E+02  0.7546771E-02  0.1340634E+00
         21   -1    0    0  503  502  0.00000000000E+00  0.00000000000E+00  0.31508365748E+03  0.31508365748E+03  0.00000000000E+00 0.  1.
         -3   -1    0    0    0  501 -0.00000000000E+00 -0.00000000000E+00 -0.90659641659E+03  0.90659641659E+03  0.00000000000E+00 0.  1.
         21    1    1    2  503  504  0.42425491798E+02 -0.67407944077E+02  0.26925430311E+03  0.28078752291E+03  0.00000000000E+00 0.  1.
         21    1    1    2  504  501 -0.43530241207E+02  0.63196624573E+01 -0.24055901086E+03  0.24454745498E+03  0.00000000000E+00 0. -1.
         21    1    1    2  505  502  0.40758661736E+02  0.75029389620E+02 -0.11464023955E+02  0.86151620174E+02  0.00000000000E+00 0.  1.
         -3    1    1    2    0  505 -0.39653912327E+02 -0.13941108000E+02 -0.60874402740E+03  0.61019347600E+03  0.00000000000E+00 0.  1.
<scales pt_clust_3="14000.00000" pt_clust_4="76.06932" pt_clust_5="76.05537" pt_clust_6="42.03317"></scales>
<clustering>
<clus scale="   42.033">  2  6  1 -1</clus>
<clus scale="   76.069">  2  4  1 -1</clus>
<clus scale="   76.055">  2  5  1 -1</clus>
<clus scale="   76.055">  1  3  2 -1</clus>
</clustering>
</event>
<event>
 6    0  0.4081161E+002  0.1925646E+03  0.7546771E-02  0.1156168E+00
         21   -1    0    0  505  502  0.00000000000E+00  0.00000000000E+00  0.19528311909E+04  0.19528311909E+04  0.00000000000E+00 0.  1.
          1   -1    0    0  503    0 -0.00000000000E+00 -0.00000000000E+00 -0.12778869602E+03  0.12778869602E+03  0.00000000000E+00 0. -1.
         21    1    1    2  503  502 -0.21593102733E+02  0.61055508398E+02  0.18714032045E+02  0.67411068726E+02  0.00000000000E+00 0. -1.
         21    1    1    2  504  501  0.80169119687E+02  0.84135636138E+02  0.15240274409E+03  0.19165721856E+03  0.00000000000E+00 0. -1.
         21    1    1    2  505  504 -0.56490486869E+02 -0.21904450611E+03  0.17124322901E+04  0.17273088951E+04  0.00000000000E+00 0.  1.
          1    1    1    2  501    0 -0.20855300848E+01  0.73853361574E+02 -0.58506571428E+02  0.94242704502E+02  0.00000000000E+00 0. -1.
<scales pt_clust_3="64.76139" pt_clust_4="14000.00000" pt_clust_5="192.56462" pt_clust_6="120.29214"></scales>
<clustering>
<clus scale="   64.761">  2  3  1 -1</clus>
<clus scale="  120.292">  2  6  1 -1</clus>
<clus scale="  192.565">  1  5  2 -1</clus>
<clus scale="  192.565">  1  3  2 -1</clus>
</clustering>
</event>
<event>
 6    0  0.4081161E+002  0.1121963E+03  0.7546771E-02  0.1256556E+00
         21   -1    0    0  503  502  0.00000000000E+00  0.00000000000E+00  0.52816580919E+03  0.52816580919E+03  0.00000000000E+00 0. -1.
         -2   -1    0    0    0  501 -0.00000000000E+00 -0.00000000000E+00 -0.75293724998E+03  0.75293724998E+03  0.00000000000E+00 0.  1.
         21    1    1    2  503  504  0.61590765058E+02  0.38523039016E+02  0.65604307633E+02  0.97884483221E+02  0.00000000000E+00 0. -1.
         21    1    1    2  504  501  0.33256643281E+02 -0.17279257833E+02 -0.26473341584E+02  0.45884800187E+02  0.00000000000E+00 0. -1.
         21    1    1    2  505  502  0.16498141886E+02 -0.11810882064E+03  0.42055997119E+03  0.43714136337E+03  0.00000000000E+00 0. -1.
         -2    1    1    2    0  505 -0.11134555023E+03  0.96865039458E+02 -0.68446237803E+03  0.70019241239E+03  0.00000000000E+00 0.  1.
<scales pt_clust_3="73.07824" pt_clust_4="37.47769" pt_clust_5="112.19632" pt_clust_6="14000.00000"></scales>
<clustering>
<clus scale="   37.478">  2  4  1 -1</clus>
<clus scale="   73.078">  1  3  2 -1</clus>
<clus scale="  112.196">  1  5  2 -1</clus>
<clus scale="   73.078">  1  3  2 -1</clus>
</clustering>
</event>
<event>
 6    0  0.4081161E+002  0.2917102E+03  0.7546771E-02  0.1089460E+00
         -4   -1    0    0    0  501 -0.00000000000E+00  0.00000000000E+00  0.38918033423E+03  0.38918033423E+03  0.00000000000E+00 0. -1.
         21   -1    0    0  503  502  0.00000000000E+00 -0.00000000000E+00 -0.19077629086E+04  0.19077629086E+04  0.00000000000E+00 0.  1.
         21    1    1    2  503  505  0.48219776598E+02  0.18565754136E+02 -0.70499710425E+03  0.70688807535E+03  0.00000000000E+00 0.  1.
         21    1    1    2  504  501 -0.14833543589E+02 -0.30658015388E+02 -0.39735476640E+01  0.34289021625E+02  0.00000000000E+00 0.  1.
         21    1    1    2  505  504 -0.59744445461E+01  0.27325067849E+03 -0.11178852566E+04  0.11508123540E+04  0.00000000000E+00 0.  1.
         -4    1    1    2    0  502 -0.27411788463E+02 -0.26115841723E+03  0.30827333409E+03  0.40495379187E+03  0.00000000000E+00 0. -1.
<scales pt_clust_3="51.60763" pt_clust_4="34.05801" pt_clust_5="291.71021" pt_clust_6="14000.00000"></scales>
<clustering>
<clus scale="   34.058">  1  4  2 -1</clus>
<clus scale="   51.608">  2  3  1 -1</clus>
<clus scale="  291.710">  2  5  1 -1</clus>
<clus scale="   51.608">  2  3  1 -1</clus>
</clustering>
</event>
<event>
 6    0  0.4081161E+002  0.1983931E+03  0.7546771E-02  0.1151102E+00
          2   -1    0    0  505    0 -0.00000000000E+00  0.00000000000E+00  0.33020606675E+04  0.33020606675E+04  0.00000000000E+00 0.  1.
         21   -1    0    0  503  502  0.00000000000E+00 -0.00000000000E+00 -0.25896198029E+02  0.25896198029E+02  0.00000000000E+00 0. -1.
         21    1    1    2  503  504  0.36774660200E+02  0.80349741311E+01  0.12763586555E+03  0.13307084811E+03  0.00000000000E+00 0.  1.
         21    1    1    2  504  501  0.64015710587E+02  0.72502384261E+02  0.10811213005E+04  0.10854390233E+04  0.00000000000E+00 0.  1.
         21    1    1    2  505  502 -0.15686921306E+03 -0.15670024141E+03  0.61127364210E+03  0.65024486248E+03  0.00000000000E+00 0. -1.
          2    1    1    2  501    0  0.56078842277E+02  0.76162883017E+02  0.14561336613E+04  0.14592021316E+04  0.00000000000E+00 0.  1.
<scales pt_clust_3="37.64222" pt_clust_4="31.45532" pt_clust_5="195.82655" pt_clust_6="31.45532"></scales>
<clustering>
<clus scale="   31.455">  4  6 -1 -1</clus>
<clus scale="   37.642">  2  3  1 -1</clus>
<clus scale="  195.827">  2  5  1 -1</clus>
<clus scale="   37.642">  2  3  1 -1</clus>
</clustering>
</event>
<event>
 6    0  0.4081161E+002  0.2347917E+03  0.7546771E-02  0.1123312E+00
          1   -1    0    0  505    0 -0.00000000000E+00  0.00000000000E+00  0.29991933397E+04  0.29991933397E+04  0.00000000000E+00 0.  1.
         21   -1    0    0  503  502  0.00000000000E+00 -0.00000000000E+00 -0.13519950067E+04  0.13519950067E+04  0.00000000000E+00 0. -1.
         21    1    1    2  503  501  0.27434403762E+03  0.78993371012E+02  0.44336832993E+03  0.52733298742E+03  0.00000000000E+00 0.  1.
         21    1    1    2  504  502 -0.69471933034E+01 -0.91346526713E+02 -0.94054410563E+03  0.94499506140E+03  0.00000000000E+00 0. -1.
         21    1    1    2  505  504 -0.41260928795E+02 -0.41212384448E+02 -0.35951277070E+03  0.36421196737E+03  0.00000000000E+00 0. -1.
          1    1    1    2  501    0 -0.22613591552E+03  0.53565540149E+02  0.25038868794E+04  0.25146483302E+04  0.00000000000E+00 0.  1.
<scales pt_clust_3="14000.00000" pt_clust_4="154.51590" pt_clust_5="50.33024" pt_clust_6="234.79168"></scales>
<clustering>
<clus scale="   50.330">  4  5 -1 -1</clus>
<clus scale="  154.516">  2  4  1 -1</clus>
<clus scale="  234.792">  1  6  2 -1</clus>
<clus scale="  154.516">  2  3  1 -1</clus>
</clustering>
</event>
<event>
 6    0  0.4081161E+002  0.9076305E+02  0.7546771E-02  0.1301014E+00
         21   -1    0    0  505  502  0.00000000000E+00  0.00000000000E+00  0.12567080623E+02  0.12567080623E+02  0.00000000000E+00 0. -1.
          1   -1    0    0  504    0 -0.00000000000E+00 -0.00000000000E+00 -0.25923752906E+04  0.25923752906E+04  0.00000000000E+00 0.  1.
         21    1    1    2  503  502  0.23671083413E+02  0.22674238920E+02 -0.13561945195E+03  0.13952446756E+03  0.00000000000E+00 0. -1.
         21    1    1    2  504  503  0.25664585498E+02 -0.51879564406E+02 -0.70222548303E+03  0.70460683304E+03  0.00000000000E+00 0. -1.
         21    1    1    2  505  501  0.32367203248E+02 -0.78285070279E+02 -0.27762972280E+03  0.29026617277E+03  0.00000000000E+00 0. -1.
          1    1    1    2  501    0 -0.81702872159E+02  0.10749039577E+03 -0.14643335522E+04  0.14705448979E+04  0.00000000000E+00 0.  1.
<scales pt_clust_3="32.77867" pt_clust_4="56.88643" pt_clust_5="90.76305" pt_clust_6="14000.00000"></scales>
<clustering>
<clus scale="   32.779">  1  3  2 -1</clus>
<clus scale="   56.886">  2  4  1 -1</clus>
<clus scale="   90.763">  1  5  2 -1</clus>
<clus scale="   32.779">  1  3  2 -1</clus>
</clustering>
</event>
<event>
 6    0  0.4081161E+002  0.1121769E+03  0.7546771E-02  0.1256591E+00
         21   -1    0    0  501  502  0.00000000000E+00  0.00000000000E+00  0.11059041444E+04  0.11059041444E+04  0.00000000000E+00 0. -1.
         -1   -1    0    0    0  501 -0.00000000000E+00 -0.00000000000E+00 -0.10241854038E+04  0.10241854038E+04  0.00000000000E+00 0. -1.
         21    1    1    2  503  505  0.85145493385E+02  0.85437702675E+02  0.83473169012E+01  0.12090919643E+03  0.00000000000E+00 0.  1.
         21    1    1    2  504  503 -0.42356912957E+02  0.37030891416E+02 -0.24083583346E+03  0.24732022495E+03  0.00000000000E+00 0.  1.
         21    1    1    2  505  502  0.11009377016E+02 -0.11350038781E+03  0.10338669294E+04  0.10401367083E+04  0.00000000000E+00 0. -1.
         -1    1    1    2    0  504 -0.53797957444E+02 -0.89682062839E+01 -0.71965967224E+03  0.72172341849E+03  0.00000000000E+00 0. -1.
<scales pt_clust_3="112.17692" pt_clust_4="90.66633" pt_clust_5="14000.00000" pt_clust_6="54.54034"></scales>
<clustering>
<clus scale="   54.540">  2  6  1 -1</clus>
<clus scale="   90.666">  2  4  1 -1</clus>
<clus scale="  112.177">  2  3  1 -1</clus>
<clus scale="  112.177">  1  3  2 -1</clus>
</clustering>
</event>
<event>
 6    0  0.4081161E+002  0.7080501E+02  0.7546771E-02  0.1357377E+00
          1   -1    0    0  504    0 -0.00000000000E+00  0.00000000000E+00  0.51009687599E+03  0.51009687599E+03  0.00000000000E+00 0.  1.
         21   -1    0    0  505  502  0.00000000000E+00 -0.00000000000E+00 -0.24266681992E+03  0.24266681992E+03  0.00000000000E+00 0.  1.
         21    1    1    2  503  501 -0.66760660372E+02 -0.87041160388E+02 -0.90050601421E+02  0.14192343073E+03  0.00000000000E+00 0.  1.
         21    1    1    2  504  502  0.45266268227E+02 -0.95295121662E+01  0.87729917687E+02  0.99178551606E+02  0.00000000000E+00 0.  1.
         21    1    1    2  505  503  0.82753987025E+01  0.47931707147E+02 -0.11435145024E+03  0.12426658822E+03  0.00000000000E+00 0.  1.
          1    1    1    2  501    0  0.13218993442E+02  0.48638965407E+02  0.38410219006E+03  0.38739512536E+03  0.00000000000E+00 0.  1.
<scales pt_clust_3="70.80501" pt_clust_4="46.25848" pt_clust_5="48.62384" pt_clust_6="14000.00000"></scales>
<clustering>
<clus scale="   46.258">  1  4  2 -1</clus>
<clus scale="   48.624">  2  5  1 -1</clus>
<clus scale="   70.805">  2  3  1 -1</clus>
<clus scale="   48.624">  2  3  1 -1</clus>
</clustering>
</event>
<event>
 6    0  0.4081161E+002  0.8046319E+02  0.7546771E-02  0.1327742E+00
         21   -1    0    0  505  502  0.00000000000E+00  0.00000000000E+00  0.98411612000E+03  0.98411612000E+03  0.00000000000E+00 0.  1.
         -2   -1    0    0    0  501 -0.00000000000E+00 -0.00000000000E+00 -0.13078609892E+03  0.13078609892E+03  0.00000000000E+00 0. -1.
         21    1    1    2  503  501  0.55424444913E+02  0.11467928691E+02  0.15775509131E+02  0.58755843716E+02  0.00000000000E+00 0. -1.
         21    1    1    2  504  502 -0.86045536037E+02 -0.24856451096E+02  0.78235831001E+03  0.78746822328E+03  0.00000000000E+00 0.  1.
         21    1    1    2  505  503  0.59971481938E+02 -0.37624690770E+02  0.14496932073E+03  0.16133288554E+03  0.00000000000E+00 0. -1.
         -2    1    1    2    0  504 -0.29350390814E+02  0.51013213174E+02 -0.89773118787E+02  0.10734526639E+03  0.00000000000E+00 0. -1.
<scales pt_clust_3="56.59843" pt_clust_4="14000.00000" pt_clust_5="80.46319" pt_clust_6="64.72988"></scales>
<clustering>
<clus scale="   56.598">  2  3  1 -1</clus>
<clus scale="   64.730">  2  6  1 -1</clus>
<clus scale="   80.463">  2  5  1 -1</clus>
<clus scale="   80.463">  1  3  2 -1</clus>
</clustering>
</event>
<event>
 6    0  0.4081161E+002  0.1121938E+03  0.7546771E-02  0.1256560E+00
         -2   -1    0    0    0  501 -0.00000000000E+00  0.00000000000E+00  0.20561143652E+02  0.20561143652E+02  0.00000000000E+00 0. -1.
         21   -1    0    0  503  502  0.00000000000E+00 -0.00000000000E+00 -0.17776901769E+04  0.17776901769E+04  0.00000000000E+00 0.  1.
         21    1    1    2  503  501 -0.48477389336E+02 -0.10726173658E+03 -0.11961974872E+04  0.12019748607E+04  0.00000000000E+00 0.  1.
         21    1    1    2  504  502  0.58727670903E+02  0.20416861568E+02 -0.38095649062E+03  0.38599693692E+03  0.00000000000E+00 0.  1.
         21    1    1    2  505  504  0.12245089640E+02  0.30814626280E+02 -0.12254211017E+03  0.12694901408E+03  0.00000000000E+00 0.  1.
         -2    1    1    2    0  505 -0.22495371208E+02  0.56030248733E+02 -0.57432945224E+02  0.83330508795E+02  0.00000000000E+00 0. -1.
<scales pt_clust_3="103.18202" pt_clust_4="32.17291" pt_clust_5="32.17291" pt_clust_6="60.37740"></scales>
<clustering>
<clus scale="   32.173">  4  5 -1 -1</clus>
<clus scale="   60.377">  1  6  2 -1</clus>
<clus scale="  103.182">  2  3  1 -1</clus>
<clus scale="  103.182">  2  3  1 -1</clus>
</clustering>
</event>
<event>
 6    0  0.4081161E+002  0.1052011E+03  0.7546771E-02  0.1269724E+00
         -2   -1    0    0    0  501 -0.00000000000E+00  0.00000000000E+00  0.53684571689E+03  0.53684571689E+03  0.00000000000E+00 0.  1.
         21   -1    0    0  504  502  0.00000000000E+00 -0.00000000000E+00 -0.35715651081E+03  0.35715651081E+03  0.00000000000E+00 0. -1.
         21    1    1    2  503  502 -0.41268489762E+02  0.17091101607E+02 -0.20131240351E+03  0.20620833593E+03  0.00000000000E+00 0. -1.
         21    1    1    2  504  501  0.73894167184E+01 -0.47061699048E+02 -0.74752906828E+01  0.48221229428E+02  0.00000000000E+00 0. -1.
         21    1    1    2  505  503 -0.14707422171E+02 -0.65477941272E+02 -0.11047177468E+03  0.12925819920E+03  0.00000000000E+00 0. -1.
         -2    1    1    2    0  505  0.48586495215E+02  0.95448538713E+02  0.49894867495E+03  0.51031446314E+03  0.00000000000E+00 0.  1.
<scales pt_clust_3="44.66759" pt_clust_4="43.95902" pt_clust_5="105.20110" pt_clust_6="14000.00000"></scales>
<clustering>
<clus scale="   44.668">  2  3  1 -1</clus>
<clus scale="   43.959">  2  4  1 -1</clus>
<clus scale="  105.201">  2  5  1 -1</clus>
<clus scale="   44.668">  2  3  1 -1</clus>
</clustering>
</event>
<event>
 6    0  0.4081161E+002  0.1245135E+03  0.7546771E-02  0.1235832E+00
          2   -1    0    0  504    0 -0.00000000000E+00  0.00000000000E+00  0.10884858903E+04  0.10884858903E+04  0.00000000000E+00 0. -1.
         21   -1    0    0  503  502  0.00000000000E+00 -0.00000000000E+00 -0.56291369579E+02  0.56291369579E+02  0.00000000000E+00 0.  1.
         21    1    1    2  503  505  0.90841323519E+02  0.68017176827E+02  0.22882095228E+02  0.11576732131E+03  0.00000000000E+00 0.  1.
         21    1    1    2  504  502 -0.99784732313E+01  0.38654739822E+02  0.86530848701E+02  0.95296099687E+02  0.00000000000E+00 0. -1.
         21    1    1    2  505  501 -0.45114714787E+02 -0.58725552468E+02  0.34577700946E+03  0.35361811079E+03  0.00000000000E+00 0.  1.
          2    1    1    2  501    0 -0.35748135500E+02 -0.47946364180E+02  0.57700456731E+03  0.58009572807E+03  0.00000000000E+00 0. -1.
<scales pt_clust_3="114.56708" pt_clust_4="39.92191" pt_clust_5="41.79701" pt_clust_6="41.79701"></scales>
<clustering>
<clus scale="   39.922">  1  4  2 -1</clus>
<clus scale="   41.797">  5  6 -1 -1</clus>
<clus scale="  114.567">  2  3  1 -1</clus>
<clus scale="  114.567">  2  3  1 -1</clus>
</clustering>
</event>
<event>
 6    0  0.4081161E+002  0.9899294E+02  0.7546771E-02  0.1282428E+00
         21   -1    0    0  505  502  0.00000000000E+00  0.00000000000E+00  0.30756154542E+02  0.30756154542E+02  0.00000000000E+00 0. -1.
          2   -1    0    0  504    0 -0.00000000000E+00 -0.00000000000E+00 -0.10693225616E+04  0.10693225616E+04  0.00000000000E+00 0. -1.
         21    1    1    2  503  502  0.78683752629E+02  0.35839372464E+02 -0.68422457500E+02  0.11025981243E+03  0.00000000000E+00 0. -1.
         21    1    1    2  504  503  0.35312837852E+02  0.23460844772E+02 -0.48259878355E+03  0.48445742190E+03  0.00000000000E+00 0.  1.
         21    1    1    2  505  501 -0.46545353414E+02 -0.41467497287E+02 -0.20099706267E+03  0.21044201686E+03  0.00000000000E+00 0. -1.
          2    1    1    2  501    0 -0.67451237067E+02 -0.17832719949E+02 -0.28654810335E+03  0.29491946497E+03  0.00000000000E+00 0. -1.
<scales pt_clust_3="92.85150" pt_clust_4="42.39585" pt_clust_5="32.44557" pt_clust_6="32.44557"></scales>
<clustering>
<clus scale="   32.446">  5  6 -1 -1</clus>
<clus scale="   42.396">  2  4  1 -1</clus>
<clus scale="   92.852">  1  3  2 -1</clus>
<clus scale="   92.852">  1  3  2 -1</clus>
</clustering>
</event>
<event>
 6    0  0.4081161E+002  0.8328112E+02  0.7546771E-02  0.1319990E+00
         21   -1    0    0  505  502  0.00000000000E+00  0.00000000000E+00  0.17562361734E+03  0.17562361734E+03  0.00000000000E+00 0. -1.
          2   -1    0    0  503    0 -0.00000000000E+00 -0.00000000000E+00 -0.26634412697E+04  0.26634412697E+04  0.00000000000E+00 0.  1.
         21    1    1    2  503  504 -0.70748374956E+02 -0.14574910741E+02 -0.41685303762E+03  0.42306526158E+03  0.00000000000E+00 0. -1.
         21    1    1    2  504  502  0.10002319764E+02  0.40325988812E+02  0.14140515891E+03  0.14738266771E+03  0.00000000000E+00 0. -1.
         21    1    1    2  505  501  0.16307753245E+01  0.48269832566E+02  0.56037744688E+01  0.48621378554E+02  0.00000000000E+00 0. -1.
          2    1    1    2  501    0  0.59115279868E+02 -0.74020910638E+02 -0.22179735481E+04  0.22199955792E+04  0.00000000000E+00 0.  1.
<scales pt_clust_3="70.54897" pt_clust_4="41.54795" pt_clust_5="14000.00000" pt_clust_6="83.28112"></scales>
<clustering>
<clus scale="   41.548">  1  4  2 -1</clus>
<clus scale="   70.549">  2  3  1 -1</clus>
<clus scale="   83.281">  2  6  1 -1</clus>
<clus scale="   41.548">  1  3  2 -1</clus>
</clustering>
</event>
<event>
 6    0  0.4081161E+002  0.1234059E+03  0.7546771E-02  0.1237582E+00
          2   -1    0    0  503    0 -0.00000000000E+00  0.00000000000E+00  0.18132234327E+04  0.18132234327E+04  0.00000000000E+00 0. -1.
         21   -1    0    0  504  502  0.00000000000E+00 -0.00000000000E+00 -0.98692883507E+02  0.98692883507E+02  0.00000000000E+00 0.  1.
         21    1    1    2  503  502 -0.93729312830E+02  0.20530875218E+02  0.34551577439E+03  0.35859148243E+03  0.00000000000E+00 0. -1.
         21    1    1    2  504  505 -0.12002602260E+03 -0.72511013461E+02  0.14177023936E+02  0.14094353898E+03  0.00000000000E+00 0.  1.
         21    1    1    2  505  501  0.93125151520E+02  0.41817739745E+02  0.74609093383E+02  0.12644182069E+03  0.00000000000E+00 0.  1.
          2    1    1    2  501    0  0.12063018391E+03  0.10162398498E+02  0.12802286575E+04  0.12859394742E+04  0.00000000000E+00 0. -1.
<scales pt_clust_3="95.95156" pt_clust_4="14000.00000" pt_clust_5="123.40592" pt_clust_6="47.57624"></scales>
<clustering>
<clus scale="   95.952">  1  3  2 -1</clus>
<clus scale="   47.576">  1  6  2 -1</clus>
<clus scale="  123.406">  1  5  2 -1</clus>
<clus scale="  123.406">  2  3  1 -1</clus>
</clustering>
</event>
<event>
 6    0  0.4081161E+002  0.1060079E+03  0.7546771E-02  0.1268146E+00
          2   -1    0    0  505    0 -0.00000000000E+00  0.00000000000E+00  0.90443160594E+03  0.90443160594E+03  0.00000000000E+00 0. -1.
         21   -1    0    0  503  502  0.00000000000E+00 -0.00000000000E+00 -0.12374143082E+03  0.12374143082E+03  0.00000000000E+00 0. -1.
         21    1    1    2  503  501  0.26166699027E+01  0.74589761034E+02 -0.68664235132E+02  0.10141625412E+03  0.00000000000E+00 0. -1.
         21    1    1    2  504  502  0.77221415256E+02  0.19681160811E+02  0.17321970264E+02  0.81550878100E+02  0.00000000000E+00 0. -1.
         21    1    1    2  505  504  0.11301111600E+00 -0.43810426731E+02  0.42908244880E+03  0.43131324362E+03  0.00000000000E+00 0. -1.
          2    1    1    2  501    0 -0.79951096275E+02 -0.50460495114E+02  0.40294999119E+03  0.41389266092E+03  0.00000000000E+00 0. -1.
<scales pt_clust_3="73.12389" pt_clust_4="106.00792" pt_clust_5="43.81057" pt_clust_6="14000.00000"></scales>
<clustering>
<clus scale="   43.811">  1  5  2 -1</clus>
<clus scale="   73.124">  2  3  1 -1</clus>
<clus scale="  106.008">  2  4  1 -1</clus>
<clus scale="   73.124">  2  3  1 -1</clus>
</clustering>
</event>
<event>
 6    0  0.4081161E+002  0.1354452E+03  0.7546771E-02  0.1219593E+00
          4   -1    0    0  505    0 -0.00000000000E+00  0.00000000000E+00  0.15408550126E+04  0.15408550126E+04  0.00000000000E+00 0. -1.
         21   -1    0    0  503  502  0.00000000000E+00 -0.00000000000E+00 -0.15128787407E+02  0.15128787407E+02  0.00000000000E+00 0. -1.
         21    1    1    2  503  501  0.13803925724E+02  0.36395131270E+02  0.11373494961E+03  0.12021144999E+03  0.00000000000E+00 0.  1.
         21    1    1    2  504  502  0.79225021044E+01 -0.34455923178E+02  0.13417811697E+03  0.13875786015E+03  0.00000000000E+00 0. -1.
         21    1    1    2  505  504 -0.97685580264E+02 -0.70014732515E+02  0.71605945185E+03  0.72607552909E+03  0.00000000000E+00 0. -1.
          4    1    1    2  501    0  0.75959152436E+02  0.68075524423E+02  0.56175370676E+03  0.57093896077E+03  0.00000000000E+00 0. -1.
<scales pt_clust_3="30.46732" pt_clust_4="35.35501" pt_clust_5="126.14665" pt_clust_6="30.46732"></scales>
<clustering>
<clus scale="   30.467">  3  6 -1 -1</clus>
<clus scale="   35.355">  2  4  1 -1</clus>
<clus scale="  126.147">  1  5  2 -1</clus>
<clus scale="   35.355">  2  3  1 -1</clus>
</clustering>
</event>
<event>
 6    0  0.4081161E+002  0.2640391E+03  0.7546771E-02  0.1104740E+00
         21   -1    0    0  504  502  0.00000000000E+00  0.00000000000E+00  0.87888333762E+03  0.87888333762E+03  0.00000000000E+00 0. -1.
          2   -1    0    0  505    0 -0.00000000000E+00 -0.00000000000E+00 -0.96212819146E+03  0.96212819146E+03  0.00000000000E+00 0.  1.
         21    1    1    2  503  502  0.16859264273E+03 -0.16178345274E+03  0.61415905379E+03  0.65710631417E+03  0.00000000000E+00 0. -1.
         21    1    1    2  504  501 -0.15830059528E+03  0.12234092047E+03  0.10056364112E+03  0.22391834495E+03  0.00000000000E+00 0.  1.
         21    1    1    2  505  503  0.74719296927E+02  0.61175138651E+02 -0.85166008654E+03  0.85711742132E+03  0.00000000000E+00 0.  1.
          2    1    1    2  501    0 -0.85011344380E+02 -0.21732606383E+02  0.53692537786E+02  0.10286944866E+03  0.00000000000E+00 0.  1.
<scales pt_clust_3="236.73633" pt_clust_4="77.43731" pt_clust_5="96.56796" pt_clust_6="77.43731"></scales>
<clustering>
<clus scale="   77.437">  4  6 -1 -1</clus>
<clus scale="   96.568">  2  5  1 -1</clus>
<clus scale="  236.736">  1  3  2 -1</clus>
<clus scale="  236.736">  1  3  2 -1</clus>
</clustering>
</event>
<event>
 6    0  0.4081161E+002  0.1964912E+03  0.7546771E-02  0.1152734E+00
         21   -1    0    0  503  502  0.00000000000E+00  0.00000000000E+00  0.10686439666E+03  0.10686439666E+03  0.00000000000E+00 0. -1.
          2   -1    0    0  504    0 -0.00000000000E+00 -0.00000000000E+00 -0.14606309687E+04  0.14606309687E+04  0.00000000000E+00 0.  1.
         21    1    1    2  503  505  0.16957866531E+03  0.11731319169E+02 -0.57255029076E+02  0.17936746063E+03  0.00000000000E+00 0. -1.
         21    1    1    2  504  502  0.14410584567E+02  0.33602620080E+02  0.29702057508E+02  0.47106403429E+02  0.00000000000E+00 0. -1.
         21    1    1    2  505  501 -0.87001233114E+02 -0.18638761377E+02 -0.42518486817E+03  0.43439473997E+03  0.00000000000E+00 0. -1.
          2    1    1    2  501    0 -0.96988016766E+02 -0.26695177871E+02 -0.90102873235E+03  0.90662676137E+03  0.00000000000E+00 0.  1.
<scales pt_clust_3="187.13592" pt_clust_4="36.56229" pt_clust_5="56.15630" pt_clust_6="56.15630"></scales>
<clustering>
<clus scale="   36.562">  1  4  2 -1</clus>
<clus scale="   56.156">  5  6 -1 -1</clus>
<clus scale="  187.136">  1  3  2 -1</clus>
<clus scale="   36.562">  1  3  2 -1</clus>
</clustering>
</event>
<event>
 6    0  0.4081161E+002  0.1376593E+03  0.7546771E-02  0.1216514E+00
         21   -1    0    0  504  502  0.00000000000E+00  0.00000000000E+00  0.73189644185E+03  0.73189644185E+03  0.00000000000E+00 0.  1.
          3   -1    0    0  505    0 -0.00000000000E+00 -0.00000000000E+00 -0.53451601036E+03  0.53451601036E+03  0.00000000000E+00 0. -1.
         21    1    1    2  503  502  0.97448281886E+02  0.42364690867E+01  0.35588299593E+02  0.10382987229E+03  0.00000000000E+00 0. -1.
         21    1    1    2  504  501  0.38507985268E+02  0.45024522526E+02  0.63403895158E+03  0.63680096158E+03  0.00000000000E+00 0.  1.
         21    1    1    2  505  503  0.43701919221E+02  0.13728105260E+01 -0.73778811915E+02  0.85761619853E+02  0.00000000000E+00 0. -1.
          3    1    1    2  501    0 -0.17965818637E+03 -0.50633802139E+02 -0.39846800776E+03  0.44001999848E+03  0.00000000000E+00 0. -1.
<scales pt_clust_3="137.65935" pt_clust_4="59.33538" pt_clust_5="43.72348" pt_clust_6="14000.00000"></scales>
<clustering>
<clus scale="   43.723">  2  5  1 -1</clus>
<clus scale="   59.335">  1  4  2 -1</clus>
<clus scale="  137.659">  1  3  2 -1</clus>
<clus scale="   59.335">  1  3  2 -1</clus>
</clustering>
</event>
<event>
 6    0  0.4081161E+002  0.1845321E+03  0.7546771E-02  0.1163488E+00
          1   -1    0    0  504    0 -0.00000000000E+00  0.00000000000E+00  0.52055837835E+03  0.52055837835E+03  0.00000000000E+00 0. -1.
         21   -1    0    0  505  502  0.00000000000E+00 -0.00000000000E+00 -0.41757699846E+03  0.41757699846E+03  0.00000000000E+00 0.  1.
         21    1    1    2  503  502  0.22527154973E+02 -0.27686288059E+02 -0.16878274835E+03  0.17251556277E+03  0.00000000000E+00 0.  1.
         21    1    1    2  504  503  0.14522944043E+03 -0.38212058989E+02 -0.20470911316E+03  0.25388495984E+03  0.00000000000E+00 0.  1.
         21    1    1    2  505  501 -0.94565142544E+02  0.33711117085E+02  0.32905458713E+03  0.34402896231E+03  0.00000000000E+00 0. -1.
          1    1    1    2  501    0 -0.73191452861E+02  0.32187229963E+02  0.14741865427E+03  0.16770589188E+03  0.00000000000E+00 0. -1.
<scales pt_clust_3="35.69318" pt_clust_4="178.02013" pt_clust_5="43.20723" pt_clust_6="43.20723"></scales>
<clustering>
<clus scale="   35.693">  2  3  1 -1</clus>
<clus scale="   43.207">  5  6 -1 -1</clus>
<clus scale="  178.020">  2  4  1 -1</clus>
<clus scale="   35.693">  2  3  1 -1</clus>
</clustering>
</event>
<event>
 6    0  0.4081161E+002  0.2229980E+03  0.7546771E-02  0.1131667E+00
         21   -1    0    0  503  502  0.00000000000E+00  0.00000000000E+00  0.24181515858E+03  0.24181515858E+03  0.00000000000E+00 0. -1.
          1   -1    0    0  505    0 -0.00000000000E+00 -0.00000000000E+00 -0.25091889194E+04  0.25091889194E+04  0.00000000000E+00 0.  1.
         21    1    1    2  503  501 -0.19607266091E+02 -0.11006609035E+03 -0.10571626555E+04  0.10630577921E+04  0.00000000000E+00 0.  1.
         21    1    1    2  504  502  0.12761453877E+02  0.34655378329E+02  0.77221768464E+02  0.85598197860E+02  0.00000000000E+00 0. -1.
         21    1    1    2  505  504 -0.21345821546E+02  0.18167612095E+03  0.10141366702E+03  0.20915685233E+03  0.00000000000E+00 0. -1.
          1    1    1    2  501    0  0.28191633760E+02 -0.10626540893E+03 -0.13888465408E+04  0.13931912358E+04  0.00000000000E+00 0.  1.
<scales pt_clust_3="57.24911" pt_clust_4="36.93034" pt_clust_5="215.41309" pt_clust_6="57.24911"></scales>
<clustering>
<clus scale="   36.930">  1  4  2 -1</clus>
<clus scale="   57.249">  3  6 -1 -1</clus>
<clus scale="  215.413">  1  5  2 -1</clus>
<clus scale="   36.930">  1  3  2 -1</clus>
</clustering>
</event>
<event>
 6    0  0.4081161E+002  0.1343268E+03  0.7546771E-02  0.1221173E+00
          2   -1    0    0  505    0 -0.00000000000E+00  0.00000000000E+00  0.22245439980E+04  0.22245439980E+04  0.00000000000E+00 0. -1.
         21   -1    0    0  504  502  0.00000000000E+00 -0.00000000000E+00 -0.67716726964E+03  0.67716726964E+03  0.00000000000E+00 0. -1.
         21    1    1    2  503  501  0.48341366483E+02 -0.10783450367E+02 -0.32571816894E+03  0.32946243503E+03  0.00000000000E+00 0. -1.
         21    1    1    2  504  503  0.21343504591E+02  0.44424927111E+02 -0.33269879152E+03  0.33632960799E+03  0.00000000000E+00 0. -1.
         21    1    1    2  505  502  0.38459042065E+02  0.17299208377E+02  0.19674925659E+02  0.46534537998E+02  0.00000000000E+00 0. -1.
          2    1    1    2  501    0 -0.10814391314E+03 -0.50940685121E+02  0.21861187632E+04  0.21893846867E+04  0.00000000000E+00 0. -1.
<scales pt_clust_3="61.28323" pt_clust_4="61.28323" pt_clust_5="42.17061" pt_clust_6="119.43730"></scales>
<clustering>
<clus scale="   42.171">  2  5  1 -1</clus>
<clus scale="   61.283">  3  4 -1 -1</clus>
<clus scale="  119.437">  1  6  2 -1</clus>
<clus scale="   42.171">  2  3  1 -1</clus>
</clustering>
</event>
<event>
 6    0  0.4081161E+002  0.1139068E+03  0.7546771E-02  0.1253502E+00
          1   -1    0    0  503    0 -0.00000000000E+00  0.00000000000E+00  0.11261449360E+03  0.11261449360E+03  0.00000000000E+00 0. -1.
         21   -1    0    0  501  502  0.00000000000E+00 -0.00000000000E+00 -0.65160367179E+03  0.65160367179E+03  0.00000000000E+00 0.  1.
         21    1    1    2  503  505 -0.14586387431E+03  0.44472623948E+02 -0.14399706636E+03  0.20973611808E+03  0.00000000000E+00 0.  1.
         21    1    1    2  504  502  0.47176193634E+02 -0.39426535977E+02 -0.22223533559E+03  0.23058315066E+03  0.00000000000E+00 0.  1.
         21    1    1    2  505  504  0.24309699909E+02  0.73535646397E+02 -0.19815949224E+03  0.21275722588E+03  0.00000000000E+00 0.  1.
          1    1    1    2  501    0  0.74377980762E+02 -0.78581734368E+02  0.25402716000E+02  0.11114167076E+03  0.00000000000E+00 0. -1.
<scales pt_clust_3="14000.00000" pt_clust_4="61.48207" pt_clust_5="72.02425" pt_clust_6="113.90675"></scales>
<clustering>
<clus scale="   61.482">  2  4  1 -1</clus>
<clus scale="   72.024">  2  5  1 -1</clus>
<clus scale="  113.907">  1  6  2 -1</clus>
<clus scale="   61.482">  2  3  1 -1</clus>
</clustering>
</event>
<event>
 6    0  0.4081161E+002  0.1174623E+03  0.7546771E-02  0.1247343E+00
         21   -1    0    0  505  502  0.00000000000E+00  0.00000000000E+00  0.70934079713E+03  0.70934079713E+03  0.00000000000E+00 0. -1.
          3   -1    0    0  503    0 -0.00000000000E+00 -0.00000000000E+00 -0.40704986771E+03  0.40704986771E+03  0.00000000000E+00 0.  1.
         21    1    1    2  503  504 -0.11036415665E+02 -0.28031116817E+02 -0.44039159773E+02  0.53357226073E+02  0.00000000000E+00 0.  1.
         21    1    1    2  504  502 -0.11154708623E+03 -0.54498920935E+02  0.50607097907E+03  0.52107650176E+03  0.00000000000E+00 0. -1.
         21    1    1    2  505  501  0.64004297927E+02  0.93020318835E+02  0.17154382534E+03  0.20536945704E+03  0.00000000000E+00 0. -1.
          3    1    1    2  501    0  0.58579203967E+02 -0.10490281083E+02 -0.33128471522E+03  0.33658747997E+03  0.00000000000E+00 0.  1.
<scales pt_clust_3="30.12550" pt_clust_4="14000.00000" pt_clust_5="117.46225" pt_clust_6="60.60352"></scales>
<clustering>
<clus scale="   30.126">  2  3  1 -1</clus>
<clus scale="   60.604">  2  6  1 -1</clus>
<clus scale="  117.462">  2  5  1 -1</clus>
<clus scale="  117.462">  1  3  2 -1</clus>
</clustering>
</event>
<event>
 6    0  0.4081161E+002  0.1009978E+03  0.7546771E-02  0.1278212E+00
         21   -1    0    0  503  502  0.00000000000E+00  0.00000000000E+00  0.25763162005E+03  0.25763162005E+03  0.00000000000E+00 0.  1.
          2   -1    0    0  504    0 -0.00000000000E+00 -0.00000000000E+00 -0.42428678056E+03  0.42428678056E+03  0.00000000000E+00 0. -1.
         21    1    1    2  503  501  0.85004307589E+02  0.48792588352E+02  0.16223467132E+03  0.18954297023E+03  0.00000000000E+00 0. -1.
         21    1    1    2  504  505 -0.28179800882E+02 -0.20230013293E+02 -0.23411945712E+02  0.41850613109E+02  0.00000000000E+00 0.  1.
         21    1    1    2  505  502 -0.55283975149E+02  0.53340999987E+02  0.46057803971E+02  0.89570650855E+02  0.00000000000E+00 0.  1.
          2    1    1    2  501    0 -0.15405315577E+01 -0.81903575046E+02 -0.35153569009E+03  0.36095416641E+03  0.00000000000E+00 0. -1.
<scales pt_clust_3="100.99782" pt_clust_4="34.68940" pt_clust_5="77.19125" pt_clust_6="14000.00000"></scales>
<clustering>
<clus scale="   34.689">  2  4  1 -1</clus>
<clus scale="   77.191">  1  5  2 -1</clus>
<clus scale="  100.998">  1  3  2 -1</clus>
<clus scale="   77.191">  1  3  2 -1</clus>
</clustering>
</event>
<event>
 6    0  0.4081161E+002  0.1315975E+03  0.7546771E-02  0.1225104E+00
          2   -1    0    0  504    0 -0.00000000000E+00  0.00000000000E+00  0.16300971847E+04  0.16300971847E+04  0.00000000000E+00 0. -1.
         21   -1    0    0  503  502  0.00000000000E+00 -0.00000000000E+00 -0.32873947726E+02  0.32873947726E+02  0.00000000000E+00 0. -1.
         21    1    1    2  503  505 -0.51980366311E+02 -0.35995944705E+02  0.10512951884E+03  0.12267796154E+03  0.00000000000E+00 0. -1.
         21    1    1    2  504  502  0.50196992866E+02  0.31801174357E+01  0.52630715062E+03  0.52870508607E+03  0.00000000000E+00 0. -1.
         21    1    1    2  505  501  0.48493634960E+01 -0.10543909868E+03  0.14565121906E+03  0.17987550548E+03  0.00000000000E+00 0. -1.
          2    1    1    2  501    0 -0.30659900502E+01  0.13825492595E+03  0.82013534850E+03  0.83171257938E+03  0.00000000000E+00 0. -1.
<scales pt_clust_3="58.83802" pt_clust_4="50.29763" pt_clust_5="14000.00000" pt_clust_6="131.59746"></scales>
<clustering>
<clus scale="   50.298">  1  4  2 -1</clus>
<clus scale="   58.838">  2  3  1 -1</clus>
<clus scale="  131.597">  1  6  2 -1</clus>
<clus scale="   58.838">  2  3  1 -1</clus>
</clustering>
</event>
<event>
 6    0  0.4081161E+002  0.1524625E+03  0.7546771E-02  0.1197479E+00
         21   -1    0    0  503  502  0.00000000000E+00  0.00000000000E+00  0.78534193826E+02  0.78534193826E+02  0.00000000000E+00 0.  1.
          4   -1    0    0  505    0 -0.00000000000E+00 -0.00000000000E+00 -0.73022005547E+03  0.73022005547E+03  0.00000000000E+00 0. -1.
         21    1    1    2  503  501 -0.70170615430E+02  0.40386977154E+02 -0.22646913742E+03  0.24050632714E+03  0.00000000000E+00 0. -1.
         21    1    1    2  504  502  0.12777753696E+02 -0.46731863849E+02 -0.15169292317E+02  0.50766578747E+02  0.00000000000E+00 0.  1.
         21    1    1    2  505  504  0.11926351278E+03 -0.19608939262E+02 -0.20981159869E+02  0.12267234834E+03  0.00000000000E+00 0.  1.
          4    1    1    2  501    0 -0.61870651043E+02  0.25953825957E+02 -0.38906627204E+03  0.39480899506E+03  0.00000000000E+00 0. -1.
<scales pt_clust_3="49.76592" pt_clust_4="48.44727" pt_clust_5="142.61522" pt_clust_6="49.76592"></scales>
<clustering>
<clus scale="   48.447">  1  4  2 -1</clus>
<clus scale="   49.766">  3  6 -1 -1</clus>
<clus scale="  142.615">  1  5  2 -1</clus>
<clus scale="   48.447">  1  3  2 -1</clus>
</clustering>
</event>
<event>
 6    0  0.4081161E+002  0.9636549E+02  0.7546771E-02  0.1288130E+00
         21   -1    0    0  504  502  0.00000000000E+00  0.00000000000E+00  0.64027290841E+03  0.64027290841E+03  0.00000000000E+00 0.  1.
         -2   -1    0    0    0  501 -0.00000000000E+00 -0.00000000000E+00 -0.22520105509E+03  0.22520105509E+03  0.00000000000E+00 0. -1.
         21    1    1    2  503  502 -0.32079946947E+02  0.17878098526E+02  0.18481100402E+03  0.18842467092E+03  0.00000000000E+00 0.  1.
         21    1    1    2  504  505 -0.36262772559E+02 -0.88382879897E+02  0.42540885579E+03  0.43600368888E+03  0.00000000000E+00 0.  1.
         21    1    1    2  505  501 -0.17326848268E+02  0.50675945477E+02 -0.73206845904E+02  0.90705641545E+02  0.00000000000E+00 0. -1.
         -2    1    1    2    0  503  0.85669567774E+02  0.19828835894E+02 -0.12194116059E+03  0.15033996216E+03  0.00000000000E+00 0. -1.
<scales pt_clust_3="36.72532" pt_clust_4="14000.00000" pt_clust_5="54.08475" pt_clust_6="96.36549"></scales>
<clustering>
<clus scale="   36.725">  1  3  2 -1</clus>
<clus scale="   54.085">  2  5  1 -1</clus>
<clus scale="   96.365">  2  6  1 -1</clus>
<clus scale="   36.725">  1  3  2 -1</clus>
</clustering>
</event>
<event>
 6    0  0.4081161E+002  0.1072053E+03  0.7546771E-02  0.1265835E+00
         21   -1    0    0  505  502  0.00000000000E+00  0.00000000000E+00  0.15421268479E+03  0.15421268479E+03  0.00000000000E+00 0. -1.
         -4   -1    0    0    0  501 -0.00000000000E+00 -0.00000000000E+00 -0.18399695777E+03  0.18399695777E+03  0.00000000000E+00 0. -1.
         21    1    1    2  503  502  0.74026143669E+02  0.63552874844E+02  0.34310368505E+02  0.10342165747E+03  0.00000000000E+00 0. -1.
         21    1    1    2  504  503 -0.69289111518E+02 -0.77481610606E+02 -0.57078663788E+02  0.11858480011E+03  0.00000000000E+00 0. -1.
         21    1    1    2  505  501 -0.10116968926E+02  0.48208673006E+02  0.35944844903E+02  0.60979185698E+02  0.00000000000E+00 0. -1.
         -4    1    1    2    0  504  0.53799367737E+01 -0.34279937245E+02 -0.42960822602E+02  0.55223999274E+02  0.00000000000E+00 0. -1.
<scales pt_clust_3="107.20528" pt_clust_4="14000.00000" pt_clust_5="46.04370" pt_clust_6="34.69954"></scales>
<clustering>
<clus scale="   34.700">  2  6  1 -1</clus>
<clus scale="   46.044">  1  5  2 -1</clus>
<clus scale="  107.205">  1  3  2 -1</clus>
<clus scale="   46.044">  1  3  2 -1</clus>
</clustering>
</event>
<event>
 6    0  0.4081161E+002  0.2841677E+03  0.7546771E-02  0.1093434E+00
          2   -1    0    0  505    0 -0.00000000000E+00  0.00000000000E+00  0.59403500024E+03  0.59403500024E+03  0.00000000000E+00 0.  1.
         21   -1    0    0  501  502  0.00000000000E+00 -0.00000000000E+00 -0.32623085666E+03  0.32623085666E+03  0.00000000000E+00 0. -1.
         21    1    1    2  503  504  0.43466698267E+01 -0.56114411790E+02 -0.11902695581E+01  0.56295092954E+02  0.00000000000E+00 0. -1.
         21    1    1    2  504  502  0.86529365956E+02 -0.19080298990E+03 -0.19637900859E+03  0.28715470942E+03  0.00000000000E+00 0. -1.
         21    1    1    2  505  503 -0.28715396822E+02 -0.37402806111E+02  0.42567234025E+02  0.63525690332E+02  0.00000000000E+00 0. -1.
          2    1    1    2  501    0 -0.62160638960E+02  0.28432020781E+03  0.42280618771E+03  0.51329036419E+03  0.00000000000E+00 0.  1.
<scales pt_clust_3="51.62179" pt_clust_4="51.62179" pt_clust_5="47.15447" pt_clust_6="266.55915"></scales>
<clustering>
<clus scale="   47.154">  1  5  2 -1</clus>
<clus scale="   51.622">  3  4 -1 -1</clus>
<clus scale="  266.559">  1  6  2 -1</clus>
<clus scale="  284.168">  2  3  1 -1</clus>
</clustering>
</event>
<event>
 6    0  0.4081161E+002  0.8826891E+02  0.7546771E-02  0.1307099E+00
          1   -1    0    0  502    0 -0.00000000000E+00  0.00000000000E+00  0.17902931429E+04  0.17902931429E+04  0.00000000000E+00 0.  1.
         21   -1    0    0  505  502  0.00000000000E+00 -0.00000000000E+00 -0.66499282401E+02  0.66499282401E+02  0.00000000000E+00 0. -1.
         21    1    1    2  503  504  0.31182964592E+02  0.46852348228E+02  0.17031134548E+02  0.58801185015E+02  0.00000000000E+00 0. -1.
         21    1    1    2  504  501  0.67435314952E+02  0.30020513750E+02  0.15708641238E+03  0.17356524394E+03  0.00000000000E+00 0. -1.
         21    1    1    2  505  503 -0.23115822223E+02 -0.26612881423E+02 -0.27459980182E+02  0.44683746556E+02  0.00000000000E+00 0. -1.
          1    1    1    2  501    0 -0.75502457321E+02 -0.50259980555E+02  0.15771362938E+04  0.15797422498E+04  0.00000000000E+00 0.  1.
<scales pt_clust_3="32.43041" pt_clust_4="88.26891" pt_clust_5="35.25034" pt_clust_6="14000.00000"></scales>
<clustering>
<clus scale="   35.250">  2  5  1 -1</clus>
<clus scale="   32.430">  2  3  1 -1</clus>
<clus scale="   88.269">  2  4  1 -1</clus>
<clus scale="   35.250">  2  3  1 -1</clus>
</clustering>
</event>
<event>
 6    0  0.4081161E+002  0.6079277E+02  0.7546771E-02  0.1394535E+00
          1   -1    0    0  504    0 -0.00000000000E+00  0.00000000000E+00  0.14430699859E+03  0.14430699859E+03  0.00000000000E+00 0. -1.
         21   -1    0    0  501  502  0.00000000000E+00 -0.00000000000E+00 -0.19941109857E+03  0.19941109857E+03  0.00000000000E+00 0. -1.
         21    1    1    2  503  502 -0.62418234569E+01 -0.54173842921E+02 -0.59560432402E+02  0.80754013676E+02  0.00000000000E+00 0. -1.
         21    1    1    2  504  505 -0.58737011207E+02 -0.12135264738E+02 -0.45615022816E+02  0.75352713569E+02  0.00000000000E+00 0. -1.
         21    1    1    2  505  503  0.60572331339E+01  0.86449232084E+02 -0.24886417973E+02  0.90163704453E+02  0.00000000000E+00 0. -1.
          1    1    1    2  501    0  0.58921601530E+02 -0.20140124425E+02  0.74957773213E+02  0.97447665460E+02  0.00000000000E+00 0. -1.
<scales pt_clust_3="54.53224" pt_clust_4="60.79277" pt_clust_5="62.42509" pt_clust_6="14000.00000"></scales>
<clustering>
<clus scale="   54.532">  2  3  1 -1</clus>
<clus scale="   62.425">  2  5  1 -1</clus>
<clus scale="   60.793">  2  4  1 -1</clus>
<clus scale="   54.532">  2  3  1 -1</clus>
</clustering>
</event>
<event>
 6    0  0.4081161E+002  0.6654929E+02  0.7546771E-02  0.1372237E+00
         21   -1    0    0  505  502  0.00000000000E+00  0.00000000000E+00  0.42719975746E+02  0.42719975746E+02  0.00000000000E+00 0. -1.
          1   -1    0    0  504    0 -0.00000000000E+00 -0.00000000000E+00 -0.25327681268E+04  0.25327681268E+04  0.00000000000E+00 0.  1.
         21    1    1    2  503  501  0.85618578381E+02 -0.39713932687E+02 -0.85770646576E+02  0.12753172636E+03  0.00000000000E+00 0. -1.
         21    1    1    2  504  502 -0.14827617394E+02 -0.45691647546E+02 -0.65217785554E+03  0.65394460021E+03  0.00000000000E+00 0.  1.
         21    1    1    2  505  503 -0.23108554641E+02  0.23952792352E+02  0.63159277557E+01  0.33876725084E+02  0.00000000000E+00 0. -1.
          1    1    1    2  501    0 -0.47682406346E+02  0.61452787881E+02 -0.17584155767E+04  0.17601350509E+04  0.00000000000E+00 0.  1.
<scales pt_clust_3="66.54929" pt_clust_4="47.44011" pt_clust_5="33.28275" pt_clust_6="14000.00000"></scales>
<clustering>
<clus scale="   33.283">  1  5  2 -1</clus>
<clus scale="   47.440">  2  4  1 -1</clus>
<clus scale="   66.549">  1  3  2 -1</clus>
<clus scale="   33.283">  1  3  2 -1</clus>
</clustering>
</event>
<event>
 6    0  0.4081161E+002  0.9197018E+02  0.7546771E-02  0.1298150E+00
         21   -1    0    0  505  502  0.00000000000E+00  0.00000000000E+00  0.98338857661E+02  0.98338857661E+02  0.00000000000E+00 0.  1.
          2   -1    0    0  503    0 -0.00000000000E+00 -0.00000000000E+00 -0.16391111274E+04  0.16391111274E+04  0.00000000000E+00 0. -1.
         21    1    1    2  503  504  0.15267657832E+02  0.36411260995E+02 -0.76386619856E+02  0.85987190883E+02  0.00000000000E+00 0.  1.
         21    1    1    2  504  502  0.92714482507E+02  0.50308996928E+02  0.32377514658E+02  0.11034162358E+03  0.00000000000E+00 0.  1.
         21    1    1    2  505  501 -0.39215666689E+02 -0.65075555990E+02 -0.46523202057E+02  0.89090430636E+02  0.00000000000E+00 0.  1.
          2    1    1    2  501    0 -0.68766473650E+02 -0.21644701932E+02 -0.14502399625E+04  0.14520307400E+04  0.00000000000E+00 0. -1.
<scales pt_clust_3="39.48267" pt_clust_4="91.97018" pt_clust_5="14000.00000" pt_clust_6="55.90855"></scales>
<clustering>
<clus scale="   39.483">  2  3  1 -1</clus>
<clus scale="   55.909">  2  6  1 -1</clus>
<clus scale="   91.970">  1  4  2 -1</clus>
<clus scale="   91.970">  1  3  2 -1</clus>
</clustering>
</event>
<event>
 6    0  0.4081161E+002  0.1343955E+03  0.7546771E-02  0.1221076E+00
         21   -1    0    0  503  502  0.00000000000E+00  0.00000000000E+00  0.52527469798E+04  0.52527469798E+04  0.00000000000E+00 0.  1.
         -1   -1    0    0    0  501 -0.00000000000E+00 -0.00000000000E+00 -0.25733493710E+03  0.25733493710E+03  0.00000000000E+00 0. -1.
         21    1    1    2  503  504  0.59547177390E+01 -0.31567375402E+02  0.36653949160E+03  0.36794450227E+03  0.00000000000E+00 0.  1.
         21    1    1    2  504  501  0.90556735933E+02  0.16325475313E+02  0.69299059734E+02  0.11519289582E+03  0.00000000000E+00 0.  1.
         21    1    1    2  505  502 -0.86801656825E+02 -0.76956793400E+02  0.47833331132E+04  0.47847395485E+04  0.00000000000E+00 0.  1.
         -1    1    1    2    0  505 -0.97097968473E+01  0.92198693489E+02 -0.22375962184E+03  0.24220497023E+03  0.00000000000E+00 0. -1.
<scales pt_clust_3="32.12410" pt_clust_4="92.02344" pt_clust_5="14000.00000" pt_clust_6="134.39554"></scales>
<clustering>
<clus scale="   32.124">  1  3  2 -1</clus>
<clus scale="   92.023">  2  4  1 -1</clus>
<clus scale="  134.396">  2  6  1 -1</clus>
<clus scale="   32.124">  1  3  2 -1</clus>
</clustering>
</event>
<event>
 6    0  0.4081161E+002  0.3147996E+03  0.7546771E-02  0.1078068E+00
         21   -1    0    0  503  502  0.00000000000E+00  0.00000000000E+00  0.43733476276E+03  0.43733476276E+03  0.00000000000E+00 0. -1.
         -2   -1    0    0    0  501 -0.00000000000E+00 -0.00000000000E+00 -0.35480224835E+03  0.35480224835E+03  0.00000000000E+00 0. -1.
         21    1    1    2  503  501  0.30276627590E+03 -0.88457845390E+02 -0.11677534153E+03  0.33634608459E+03  0.00000000000E+00 0. -1.
         21    1    1    2  504  502 -0.50301599795E+02  0.10689761864E+03  0.10556950168E+03  0.15843696380E+03  0.00000000000E+00 0. -1.
         21    1    1    2  505  504 -0.14844942267E+03 -0.30401434697E+02  0.11535834891E+03  0.19044428841E+03  0.00000000000E+00 0. -1.
         -2    1    1    2    0  505 -0.10401525343E+03  0.11961661446E+02 -0.21619994653E+02  0.10690967431E+03  0.00000000000E+00 0. -1.
<scales pt_clust_3="289.04106" pt_clust_4="118.14124" pt_clust_5="103.66853" pt_clust_6="103.66853"></scales>
<clustering>
<clus scale="  103.669">  5  6 -1 -1</clus>
<clus scale="  118.141">  1  4  2 -1</clus>
<clus scale="  289.041">  2  3  1 -1</clus>
<clus scale="  118.141">  1  3  2 -1</clus>
</clustering>
</event>
<event>
 6    0  0.4081161E+002  0.2115430E+03  0.7546771E-02  0.1140350E+00
          2   -1    0    0  505    0 -0.00000000000E+00  0.00000000000E+00  0.27280697460E+04  0.27280697460E+04  0.00000000000E+00 0.  1.
         21   -1    0    0  503  502  0.00000000000E+00 -0.00000000000E+00 -0.74734397211E+02  0.74734397211E+02  0.00000000000E+00 0. -1.
         21    1    1    2  503  501 -0.95168215109E+02  0.65570170556E+02  0.58682957596E+02  0.12961529981E+03  0.00000000000E+00 0. -1.
         21    1    1    2  504  502  0.26097088383E+03  0.67367784621E+02  0.54203260161E+03  0.60534582002E+03  0.00000000000E+00 0. -1.
         21    1    1    2  505  504 -0.47647977549E+02  0.46382233200E+01  0.17321105025E+03  0.17970506617E+03  0.00000000000E+00 0. -1.
          2    1    1    2  501    0 -0.11815469117E+03 -0.13757617850E+03  0.18794087393E+04  0.18881379572E+04  0.00000000000E+00 0.  1.
<scales pt_clust_3="117.11803" pt_clust_4="14000.00000" pt_clust_5="47.87320" pt_clust_6="211.54302"></scales>
<clustering>
<clus scale="   47.873">  1  5  2 -1</clus>
<clus scale="  117.118">  2  3  1 -1</clus>
<clus scale="  211.543">  1  6  2 -1</clus>
<clus scale="  117.118">  2  3  1 -1</clus>
</clustering>
</event>
<event>
 6    0  0.4081161E+002  0.1880355E+03  0.7546771E-02  0.1160245E+00
         21   -1    0    0  501  502  0.00000000000E+00  0.00000000000E+00  0.85157540335E+02  0.85157540335E+02  0.00000000000E+00 0. -1.
          2   -1    0    0  504    0 -0.00000000000E+00 -0.00000000000E+00 -0.27603330445E+04  0.27603330445E+04  0.00000000000E+00 0. -1.
         21    1    1    2  503  502 -0.89754493959E+01 -0.28985578235E+02  0.45167086422E+02  0.54413124642E+02  0.00000000000E+00 0. -1.
         21    1    1    2  504  505 -0.15727885296E+03  0.45872583098E+02 -0.93180517598E+03  0.94609820709E+03  0.00000000000E+00 0.  1.
         21    1    1    2  505  503 -0.45131571357E+02 -0.72927311945E+01 -0.17969054337E+01  0.45752284430E+02  0.00000000000E+00 0.  1.
          2    1    1    2  501    0  0.21138587372E+03 -0.95942736680E+01 -0.17867405092E+04  0.17992269687E+04  0.00000000000E+00 0. -1.
<scales pt_clust_3="30.34341" pt_clust_4="14000.00000" pt_clust_5="56.67213" pt_clust_6="188.03551"></scales>
<clustering>
<clus scale="   30.343">  1  3  2 -1</clus>
<clus scale="   56.672">  1  5  2 -1</clus>
<clus scale="  188.036">  2  6  1 -1</clus>
<clus scale="   30.343">  1  3  2 -1</clus>
</clustering>
</event>
<event>
 6    0  0.4081161E+002  0.8286173E+02  0.7546771E-02  0.1321121E+00
         21   -1    0    0  504  502  0.00000000000E+00  0.00000000000E+00  0.15020408638E+04  0.15020408638E+04  0.00000000000E+00 0.  1.
         -1   -1    0    0    0  501 -0.00000000000E+00 -0.00000000000E+00 -0.47646853810E+02  0.47646853810E+02  0.00000000000E+00 0. -1.
         21    1    1    2  503  505  0.71172147160E+02  0.51450552821E+02  0.62199245547E+03  0.62816180127E+03  0.00000000000E+00 0.  1.
         21    1    1    2  504  503  0.66193533803E+01 -0.41225785572E+02  0.70198968117E+03  0.70323032763E+03  0.00000000000E+00 0.  1.
         21    1    1    2  505  501  0.47653930238E+02 -0.67467693999E+01  0.49142462498E+02  0.68785155265E+02  0.00000000000E+00 0. -1.
         -1    1    1    2    0  502 -0.12544543078E+03 -0.34779978491E+01  0.81269410893E+02  0.14951043348E+03  0.00000000000E+00 0. -1.
<scales pt_clust_3="14000.00000" pt_clust_4="41.75382" pt_clust_5="49.12700" pt_clust_6="82.86173"></scales>
<clustering>
<clus scale="   41.754">  1  4  2 -1</clus>
<clus scale="   49.127">  2  5  1 -1</clus>
<clus scale="   82.862">  2  6  1 -1</clus>
<clus scale="   41.754">  1  3  2 -1</clus>
</clustering>
</event>
<event>
 6    0  0.4081161E+002  0.2567230E+03  0.7546771E-02  0.1109128E+00
         21   -1    0    0  505  502  0.00000000000E+00  0.00000000000E+00  0.80406131089E+03  0.80406131089E+03  0.00000000000E+00 0. -1.
          2   -1    0    0  503    0 -0.00000000000E+00 -0.00000000000E+00 -0.79865072268E+03  0.79865072268E+03  0.00000000000E+00 0. -1.
         21    1    1    2  503  502  0.57100498917E+01 -0.32630107628E+02  0.21277181934E+03  0.21533503128E+03  0.00000000000E+00 0. -1.
         21    1    1    2  504  501  0.21384399997E+01 -0.13801186672E+03 -0.31876556956E+03  0.34736628595E+03  0.00000000000E+00 0.  1.
         21    1    1    2  505  504  0.52421237633E+02  0.26318214149E+03  0.53700110133E+03  0.60031908897E+03  0.00000000000E+00 0. -1.
          2    1    1    2  501    0 -0.60269727524E+02 -0.92540167136E+02 -0.42559676290E+03  0.43969162737E+03  0.00000000000E+00 0. -1.
<scales pt_clust_3="33.12595" pt_clust_4="84.02371" pt_clust_5="238.86251" pt_clust_6="84.02371"></scales>
<clustering>
<clus scale="   33.126">  1  3  2 -1</clus>
<clus scale="   84.024">  4  6 -1 -1</clus>
<clus scale="  238.863">  1  5  2 -1</clus>
<clus scale="   33.126">  1  3  2 -1</clus>
</clustering>
</event>
<event>
 6    0  0.4081161E+002  0.1034382E+03  0.7546771E-02  0.1273228E+00
         21   -1    0    0  505  502  0.00000000000E+00  0.00000000000E+00  0.36472393930E+03  0.36472393930E+03  0.00000000000E+00 0.  1.
          2   -1    0    0  503    0 -0.00000000000E+00 -0.00000000000E+00 -0.20527849440E+03  0.20527849440E+03  0.00000000000E+00 0. -1.
         21    1    1    2  503  502 -0.22550686437E+02  0.61603557699E+02 -0.23567175479E+02  0.69706122686E+02  0.00000000000E+00 0.  1.
         21    1    1    2  504  501  0.59678951878E+02 -0.76910441347E+02  0.28265847471E+03  0.29895251565E+03  0.00000000000E+00 0.  1.
         21    1    1    2  505  504 -0.14572864095E+02 -0.40310414759E+02  0.34084318278E+02  0.54763479240E+02  0.00000000000E+00 0. -1.
          2    1    1    2  501    0 -0.22555401345E+02  0.55617298408E+02 -0.13373017260E+03  0.14658031613E+03  0.00000000000E+00 0. -1.
<scales pt_clust_3="103.43824" pt_clust_4="14000.00000" pt_clust_5="42.86371" pt_clust_6="59.38022"></scales>
<clustering>
<clus scale="   42.864">  1  5  2 -1</clus>
<clus scale="   59.380">  2  6  1 -1</clus>
<clus scale="  103.438">  2  3  1 -1</clus>
<clus scale="   42.864">  1  3  2 -1</clus>
</clustering>
</event>
<event>
 6    0  0.4081161E+002  0.7303903E+02  0.7546771E-02  0.1350053E+00
          1   -1    0    0  503    0 -0.00000000000E+00  0.00000000000E+00  0.10213519832E+04  0.10213519832E+04  0.00000000000E+00 0. -1.
         21   -1    0    0  505  502  0.00000000000E+00 -0.00000000000E+00 -0.26296795059E+03  0.26296795059E+03  0.00000000000E+00 0.  1.
         21    1    1    2  503  502  0.34755693116E+02  0.11167023570E+03  0.47293008529E+03  0.48717662641E+03  0.00000000000E+00 0.  1.
         21    1    1    2  504  501 -0.39494550229E+02 -0.24374171041E+02  0.11227907040E+02  0.47749194844E+02  0.00000000000E+00 0.  1.
         21    1    1    2  505  504  0.18384549980E+02 -0.27189425785E+02 -0.23458171261E+03  0.23686670607E+03  0.00000000000E+00 0.  1.
          1    1    1    2  501    0 -0.13645692866E+02 -0.60106638878E+02  0.50880775286E+03  0.51252740643E+03  0.00000000000E+00 0. -1.
<scales pt_clust_3="73.03903" pt_clust_4="50.52662" pt_clust_5="32.82159" pt_clust_6="14000.00000"></scales>
<clustering>
<clus scale="   32.822">  2  5  1 -1</clus>
<clus scale="   50.527">  2  4  1 -1</clus>
<clus scale="   73.039">  2  3  1 -1</clus>
<clus scale="   32.822">  2  3  1 -1</clus>
</clustering>
</event>
<event>
 6    0  0.4081161E+002  0.6858138E+02  0.7546771E-02  0.1364985E+00
          2   -1    0    0  504    0 -0.00000000000E+00  0.00000000000E+00  0.61011567242E+03  0.61011567242E+03  0.00000000000E+00 0.  1.
         21   -1    0    0  505  502  0.00000000000E+00 -0.00000000000E+00 -0.73986741974E+03  0.73986741974E+03  0.00000000000E+00 0. -1.
         21    1    1    2  503  502  0.35719700123E+02 -0.72001019244E+01 -0.84413078216E+02  0.91941863253E+02  0.00000000000E+00 0.  1.
         21    1    1    2  504  503  0.33137237947E+02  0.30571075782E+02  0.43355700444E+03  0.43589487644E+03  0.00000000000E+00 0.  1.
         21    1    1    2  505  501 -0.48769078067E+02  0.73359123400E+02 -0.63299633286E+03  0.63909650396E+03  0.00000000000E+00 0. -1.
          2    1    1    2  501    0 -0.20087860002E+02 -0.96730097257E+02  0.15410065932E+03  0.18304984850E+03  0.00000000000E+00 0.  1.
<scales pt_clust_3="36.43815" pt_clust_4="45.12348" pt_clust_5="14000.00000" pt_clust_6="68.58138"></scales>
<clustering>
<clus scale="   36.438">  2  3  1 -1</clus>
<clus scale="   45.123">  1  4  2 -1</clus>
<clus scale="   68.581">  1  6  2 -1</clus>
<clus scale="   36.438">  2  3  1 -1</clus>
</clustering>
</event>
<event>
 6    0  0.4081161E+002  0.1020248E+03  0.7546771E-02  0.1276095E+00
          2   -1    0    0  503    0 -0.00000000000E+00  0.00000000000E+00  0.23701925465E+04  0.23701925465E+04  0.00000000000E+00 0.  1.
         21   -1    0    0  505  502  0.00000000000E+00 -0.00000000000E+00 -0.10809560221E+03  0.10809560221E+03  0.00000000000E+00 0. -1.
         21    1    1    2  503  504 -0.31847357489E+02  0.93866196111E+01  0.12721664892E+03  0.13147790145E+03  0.00000000000E+00 0.  1.
         21    1    1    2  504  502 -0.10540381090E+03  0.41742460766E+02 -0.62339053281E+02  0.12937756354E+03  0.00000000000E+00 0. -1.
         21    1    1    2  505  501  0.36706487658E+02  0.31764235697E+02  0.64446147794E+02  0.80682333079E+02  0.00000000000E+00 0. -1.
          2    1    1    2  501    0  0.10054468073E+03 -0.82893316073E+02  0.21327732009E+04  0.21367503507E+04  0.00000000000E+00 0.  1.
<scales pt_clust_3="33.20185" pt_clust_4="102.02478" pt_clust_5="47.96966" pt_clust_6="14000.00000"></scales>
<clustering>
<clus scale="   33.202">  1  3  2 -1</clus>
<clus scale="   47.970">  2  5  1 -1</clus>
<clus scale="  102.025">  2  4  1 -1</clus>
<clus scale="   47.970">  2  3  1 -1</clus>
</clustering>
</event>
<event>
 6    0  0.4081161E+002  0.1481429E+03  0.7546771E-02  0.1202774E+00
         21   -1    0    0  504  502  0.00000000000E+00  0.00000000000E+00  0.44741250394E+03  0.44741250394E+03  0.00000000000E+00 0.  1.
          1   -1    0    0  505    0 -0.00000000000E+00 -0.00000000000E+00 -0.56028946592E+03  0.56028946592E+03  0.00000000000E+00 0. -1.
         21    1    1    2  503  502  0.31890497709E+02  0.50970411136E+01  0.51716213748E+02  0.60971718335E+02  0.00000000000E+00 0.  1.
         21    1    1    2  504  501 -0.13298683131E+03  0.26720277979E+02  0.11001815077E+03  0.17465240925E+03  0.00000000000E+00 0.  1.
         21    1    1    2  505  503 -0.48117262438E+02 -0.38652286195E+02  0.23399159837E+03  0.24199450052E+03  0.00000000000E+00 0. -1.
          1    1    1    2  501    0  0.14921359604E+03  0.68349671023E+01 -0.50860292487E+03  0.53008334176E+03  0.00000000000E+00 0. -1.
<scales pt_clust_3="32.29526" pt_clust_4="14000.00000" pt_clust_5="45.69542" pt_clust_6="148.14286"></scales>
<clustering>
<clus scale="   32.295">  1  3  2 -1</clus>
<clus scale="   45.695">  1  5  2 -1</clus>
<clus scale="  148.143">  2  6  1 -1</clus>
<clus scale="   32.295">  1  3  2 -1</clus>
</clustering>
</event>
<event>
 6    0  0.4081161E+002  0.1065922E+03  0.7546771E-02  0.1267014E+00
         21   -1    0    0  505  502  0.00000000000E+00  0.00000000000E+00  0.82640403837E+03  0.82640403837E+03  0.00000000000E+00 0.  1.
          2   -1    0    0  504    0 -0.00000000000E+00 -0.00000000000E+00 -0.10482220348E+03  0.10482220348E+03  0.00000000000E+00 0.  1.
         21    1    1    2  503  501  0.53402704706E+02  0.10472397371E+03  0.12840766801E+03  0.17409046138E+03  0.00000000000E+00 0.  1.
         21    1    1    2  504  502 -0.51587988826E+01 -0.50535213932E+02  0.99237436246E+01  0.51758107970E+02  0.00000000000E+00 0. -1.
         21    1    1    2  505  503  0.40131237828E+02 -0.27156016837E+02  0.60782149053E+03  0.60974989122E+03  0.00000000000E+00 0.  1.
          2    1    1    2  501    0 -0.88375143651E+02 -0.27032742937E+02 -0.24571067272E+02  0.95627781282E+02  0.00000000000E+00 0.  1.
<scales pt_clust_3="14000.00000" pt_clust_4="54.38634" pt_clust_5="48.45581" pt_clust_6="106.59224"></scales>
<clustering>
<clus scale="   48.456">  1  5  2 -1</clus>
<clus scale="   54.386">  2  4  1 -1</clus>
<clus scale="  106.592">  2  6  1 -1</clus>
<clus scale="   48.456">  1  3  2 -1</clus>
</clustering>
</event>
<event>
 6    0  0.4081161E+002  0.1385064E+03  0.7546771E-02  0.1215353E+00
         21   -1    0    0  503  502  0.00000000000E+00  0.00000000000E+00  0.15378549761E+03  0.15378549761E+03  0.00000000000E+00 0. -1.
         -3   -1    0    0    0  501 -0.00000000000E+00 -0.00000000000E+00 -0.36975935750E+03  0.36975935750E+03  0.00000000000E+00 0. -1.
         21    1    1    2  503  501 -0.75577510347E+01 -0.86442181326E+02 -0.16959426850E+03  0.19050350711E+03  0.00000000000E+00 0. -1.
         21    1    1    2  504  505 -0.19623332608E+02  0.46213810854E+02  0.13328458918E+01  0.50225172717E+02  0.00000000000E+00 0. -1.
         21    1    1    2  505  502 -0.29491010261E+02  0.77229667360E+02  0.94356932086E+02  0.12544868210E+03  0.00000000000E+00 0. -1.
         -3    1    1    2    0  504  0.56672093903E+02 -0.37001296888E+02 -0.14206936937E+03  0.15736749319E+03  0.00000000000E+00 0. -1.
<scales pt_clust_3="123.00314" pt_clust_4="49.62140" pt_clust_5="49.62140" pt_clust_6="67.68177"></scales>
<clustering>
<clus scale="   49.621">  4  5 -1 -1</clus>
<clus scale="   67.682">  2  6  1 -1</clus>
<clus scale="  123.003">  2  3  1 -1</clus>
<clus scale="  138.506">  1  3  2 -1</clus>
</clustering>
</event>
<event>
 6    0  0.4081161E+002  0.2088953E+03  0.7546771E-02  0.1142444E+00
          1   -1    0    0  503    0 -0.00000000000E+00  0.00000000000E+00  0.63331465155E+03  0.63331465155E+03  0.00000000000E+00 0. -1.
         21   -1    0    0  504  502  0.00000000000E+00 -0.00000000000E+00 -0.54841278201E+03  0.54841278201E+03  0.00000000000E+00 0. -1.
         21    1    1    2  503  505 -0.32777489614E+02  0.32342133843E+01  0.47518781530E+02  0.57817458952E+02  0.00000000000E+00 0. -1.
         21    1    1    2  504  501  0.25665740095E+03 -0.38573124098E+02 -0.38727556148E+03  0.46620088791E+03  0.00000000000E+00 0. -1.
         21    1    1    2  505  502 -0.14630473164E+03 -0.37911751098E+02 -0.59132216919E+02  0.16229292791E+03  0.00000000000E+00 0. -1.
          1    1    1    2  501    0 -0.77575179702E+02  0.73250661812E+02  0.48379086641E+03  0.49541615879E+03  0.00000000000E+00 0. -1.
<scales pt_clust_3="32.93667" pt_clust_4="208.89530" pt_clust_5="14000.00000" pt_clust_6="129.77849"></scales>
<clustering>
<clus scale="   32.937">  1  3  2 -1</clus>
<clus scale="  129.778">  1  6  2 -1</clus>
<clus scale="  208.895">  2  4  1 -1</clus>
<clus scale="  208.895">  2  3  1 -1</clus>
</clustering>
</event>
<event>
 6    0  0.4081161E+002  0.2135224E+03  0.7546771E-02  0.1138807E+00
          1   -1    0    0  504    0 -0.00000000000E+00  0.00000000000E+00  0.28678604529E+03  0.28678604529E+03  0.00000000000E+00 0. -1.
         21   -1    0    0  501  502  0.00000000000E+00 -0.00000000000E+00 -0.50591528022E+03  0.50591528022E+03  0.00000000000E+00 0. -1.
         21    1    1    2  503  505 -0.99299211593E+02  0.20585400191E+03  0.27311605950E+02  0.23017846847E+03  0.00000000000E+00 0. -1.
         21    1    1    2  504  503  0.74116704120E+02 -0.18958051128E+03  0.81027954950E+02  0.21908807720E+03  0.00000000000E+00 0.  1.
         21    1    1    2  505  502 -0.51608227347E+01 -0.47025258673E+02 -0.25263311165E+03  0.25702431431E+03  0.00000000000E+00 0. -1.
          1    1    1    2  501    0  0.30343330208E+02  0.30751768042E+02 -0.74835684181E+02  0.86410465527E+02  0.00000000000E+00 0. -1.
<scales pt_clust_3="14000.00000" pt_clust_4="213.52240" pt_clust_5="31.42371" pt_clust_6="43.20172"></scales>
<clustering>
<clus scale="   43.202">  2  6  1 -1</clus>
<clus scale="   31.424">  2  5  1 -1</clus>
<clus scale="  213.522">  1  4  2 -1</clus>
<clus scale="   43.202">  2  3  1 -1</clus>
</clustering>
</event>
<event>
 6    0  0.4081161E+002  0.1865442E+03  0.7546771E-02  0.1161616E+00
         21   -1    0    0  505  502  0.00000000000E+00  0.00000000000E+00  0.17312778652E+04  0.17312778652E+04  0.00000000000E+00 0.  1.
          2   -1    0    0  504    0 -0.00000000000E+00 -0.00000000000E+00 -0.14572419471E+03  0.14572419471E+03  0.00000000000E+00 0. -1.
         21    1    1    2  503  501  0.22310706326E+02  0.65765230430E+02 -0.94255497895E+01  0.70083337100E+02  0.00000000000E+00 0. -1.
         21    1    1    2  504  502 -0.18701211590E+01  0.33191337579E+02  0.43379489707E+03  0.43506686264E+03  0.00000000000E+00 0.  1.
         21    1    1    2  505  503 -0.10555934759E+03 -0.17217958049E+03  0.12257867858E+04  0.12423130959E+04  0.00000000000E+00 0.  1.
          2    1    1    2  501    0  0.85118762424E+02  0.73223012486E+02 -0.64602462650E+02  0.12953876429E+03  0.00000000000E+00 0. -1.
<scales pt_clust_3="46.72965" pt_clust_4="33.24398" pt_clust_5="176.88620" pt_clust_6="46.72965"></scales>
<clustering>
<clus scale="   33.244">  1  4  2 -1</clus>
<clus scale="   46.730">  3  6 -1 -1</clus>
<clus scale="  176.886">  1  5  2 -1</clus>
<clus scale="   33.244">  1  3  2 -1</clus>
</clustering>
</event>
<event>
 6    0  0.4081161E+002  0.1445527E+03  0.7546771E-02  0.1207331E+00
         21   -1    0    0  505  502  0.00000000000E+00  0.00000000000E+00  0.10846266483E+03  0.10846266483E+03  0.00000000000E+00 0.  1.
          1   -1    0    0  503    0 -0.00000000000E+00 -0.00000000000E+00 -0.28637822297E+04  0.28637822297E+04  0.00000000000E+00 0.  1.
         21    1    1    2  503  504 -0.63602883794E+02  0.19463125395E+01 -0.14224291059E+03  0.15582734219E+03  0.00000000000E+00 0.  1.
         21    1    1    2  504  502 -0.71243112531E+02 -0.61818397405E+02 -0.22668573405E+03  0.24552701962E+03  0.00000000000E+00 0. -1.
         21    1    1    2  505  501  0.24730513013E+02  0.13677134262E+03  0.36960876904E+02  0.14381969565E+03  0.00000000000E+00 0.  1.
          1    1    1    2  501    0  0.11011548331E+03 -0.76899257757E+02 -0.24233517971E+04  0.24270708371E+04  0.00000000000E+00 0.  1.
<scales pt_clust_3="46.52689" pt_clust_4="46.52689" pt_clust_5="132.99098" pt_clust_6="134.30903"></scales>
<clustering>
<clus scale="   46.527">  3  4 -1 -1</clus>
<clus scale="  134.309">  2  6  1 -1</clus>
<clus scale="  132.991">  1  5  2 -1</clus>
<clus scale="  132.991">  1  3  2 -1</clus>
</clustering>
</event>
<event>
 6    0  0.4081161E+002  0.1145444E+03  0.7546771E-02  0.1252378E+00
         21   -1    0    0  504  502  0.00000000000E+00  0.00000000000E+00  0.13751289613E+04  0.13751289613E+04  0.00000000000E+00 0. -1.
          2   -1    0    0  503    0 -0.00000000000E+00 -0.00000000000E+00 -0.19345777075E+04  0.19345777075E+04  0.00000000000E+00 0. -1.
         21    1    1    2  503  505  0.57748450338E+02 -0.11254109630E+02 -0.33950173845E+03  0.34456199574E+03  0.00000000000E+00 0. -1.
         21    1    1    2  504  501 -0.71278260570E+02 -0.42592576724E+02  0.12837706329E+04  0.12864531690E+04  0.00000000000E+00 0. -1.
         21    1    1    2  505  502 -0.21180202291E+02 -0.25429538474E+02  0.83135332560E+02  0.89480421970E+02  0.00000000000E+00 0.  1.
          2    1    1    2  501    0  0.34710012522E+02  0.79276224828E+02 -0.15868529732E+04  0.15892110821E+04  0.00000000000E+00 0. -1.
<scales pt_clust_3="58.80361" pt_clust_4="114.54441" pt_clust_5="33.09475" pt_clust_6="14000.00000"></scales>
<clustering>
<clus scale="   33.095">  1  5  2 -1</clus>
<clus scale="   58.804">  2  3  1 -1</clus>
<clus scale="  114.544">  1  4  2 -1</clus>
<clus scale="   33.095">  1  3  2 -1</clus>
</clustering>
</event>
<event>
 6    0  0.4081161E+002  0.1018022E+03  0.7546771E-02  0.1276551E+00
         21   -1    0    0  504  502  0.00000000000E+00  0.00000000000E+00  0.18647248424E+03  0.18647248424E+03  0.00000000000E+00 0. -1.
          1   -1    0    0  505    0 -0.00000000000E+00 -0.00000000000E+00 -0.90853619175E+03  0.90853619175E+03  0.00000000000E+00 0. -1.
         21    1    1    2  503  502  0.15741399156E+02  0.36090744105E+02  0.81057218285E+02  0.90114405583E+02  0.00000000000E+00 0. -1.
         21    1    1    2  504  501  0.50581015790E+02 -0.10474387434E+03  0.46280113546E+02  0.12518613054E+03  0.00000000000E+00 0. -1.
         21    1    1    2  505  503  0.25677505420E+02 -0.58038999787E+02 -0.36951314972E+03  0.37492376238E+03  0.00000000000E+00 0. -1.
          1    1    1    2  501    0 -0.91999920366E+02  0.12669213002E+03 -0.47988788962E+03  0.50478437749E+03  0.00000000000E+00 0. -1.
<scales pt_clust_3="39.37427" pt_clust_4="101.80218" pt_clust_5="62.75598" pt_clust_6="14000.00000"></scales>
<clustering>
<clus scale="   39.374">  1  3  2 -1</clus>
<clus scale="   62.756">  2  5  1 -1</clus>
<clus scale="  101.802">  1  4  2 -1</clus>
<clus scale="   39.374">  1  3  2 -1</clus>
</clustering>
</event>
<event>
 6    0  0.4081161E+002  0.2903057E+03  0.7546771E-02  0.1090190E+00
         -4   -1    0    0    0  501 -0.00000000000E+00  0.00000000000E+00  0.25403274548E+03  0.25403274548E+03  0.00000000000E+00 0.  1.
         21   -1    0    0  504  502  0.00000000000E+00 -0.00000000000E+00 -0.93786247964E+03  0.93786247964E+03  0.00000000000E+00 0. -1.
         21    1    1    2  503  502  0.71627765737E+02 -0.29016731406E+03 -0.67305508198E+03  0.73643109002E+03  0.00000000000E+00 0. -1.
         21    1    1    2  504  501 -0.39908437337E+02  0.84618628734E+01 -0.13505975373E+03  0.14108658183E+03  0.00000000000E+00 0. -1.
         21    1    1    2  505  503 -0.40988496713E+02  0.15074251191E+03  0.52864861662E+02  0.16491832936E+03  0.00000000000E+00 0. -1.
         -4    1    1    2    0  505  0.92691683122E+01  0.13096293927E+03  0.71420239893E+02  0.14945922390E+03  0.00000000000E+00 0.  1.
<scales pt_clust_3="285.05266" pt_clust_4="40.79567" pt_clust_5="50.24249" pt_clust_6="50.24249"></scales>
<clustering>
<clus scale="   40.796">  2  4  1 -1</clus>
<clus scale="   50.242">  5  6 -1 -1</clus>
<clus scale="  285.053">  2  3  1 -1</clus>
<clus scale="   40.796">  2  3  1 -1</clus>
</clustering>
</event>
<event>
 6    0  0.4081161E+002  0.7612316E+02  0.7546771E-02  0.1340428E+00
          1   -1    0    0  505    0 -0.00000000000E+00  0.00000000000E+00  0.20107127052E+04  0.20107127052E+04  0.00000000000E+00 0. -1.
         21   -1    0    0  501  502  0.00000000000E+00 -0.00000000000E+00 -0.27710088222E+03  0.27710088222E+03  0.00000000000E+00 0. -1.
         21    1    1    2  503  504  0.64986146945E+02  0.64380656536E+02  0.54527319815E+02  0.10649552496E+03  0.00000000000E+00 0. -1.
         21    1    1    2  504  502 -0.40657226343E+02  0.65941742813E+01 -0.24685431046E+03  0.25026694504E+03  0.00000000000E+00 0. -1.
         21    1    1    2  505  503  0.31222629395E+02 -0.11867969886E+01  0.16995375801E+03  0.17280202815E+03  0.00000000000E+00 0. -1.
          1    1    1    2  501    0 -0.55551549997E+02 -0.69788033829E+02  0.17559850556E+04  0.17582490892E+04  0.00000000000E+00 0. -1.
<scales pt_clust_3="14000.00000" pt_clust_4="41.15974" pt_clust_5="31.24518" pt_clust_6="76.12316"></scales>
<clustering>
<clus scale="   31.245">  1  5  2 -1</clus>
<clus scale="   41.160">  2  4  1 -1</clus>
<clus scale="   76.123">  1  6  2 -1</clus>
<clus scale="   41.160">  2  3  1 -1</clus>
</clustering>
</event>
<event>
 6    0  0.4081161E+002  0.1101405E+03  0.7546771E-02  0.1260310E+00
         21   -1    0    0  505  502  0.00000000000E+00  0.00000000000E+00  0.28696523238E+04  0.28696523238E+04  0.00000000000E+00 0. -1.
         -4   -1    0    0    0  501 -0.00000000000E+00 -0.00000000000E+00 -0.11116330001E+03  0.11116330001E+03  0.00000000000E+00 0. -1.
         21    1    1    2  503  502 -0.27345370455E+02 -0.29679028588E+02  0.61623051110E+03  0.61755052978E+03  0.00000000000E+00 0. -1.
         21    1    1    2  504  501 -0.52724987821E+02  0.97826746646E+02 -0.75892491106E+02  0.13457216245E+03  0.00000000000E+00 0. -1.
         21    1    1    2  505  504  0.43466462853E+01 -0.49299312838E+02  0.19156449502E+04  0.19162841362E+04  0.00000000000E+00 0. -1.
         -4    1    1    2    0  503  0.75723711991E+02 -0.18848405220E+02  0.30250605363E+03  0.31240879536E+03  0.00000000000E+00 0. -1.
<scales pt_clust_3="40.35609" pt_clust_4="110.14046" pt_clust_5="14000.00000" pt_clust_6="75.54572"></scales>
<clustering>
<clus scale="   40.356">  1  3  2 -1</clus>
<clus scale="   75.546">  1  6  2 -1</clus>
<clus scale="  110.140">  2  4  1 -1</clus>
<clus scale="   40.356">  1  3  2 -1</clus>
</clustering>
</event>
<event>
 6    0  0.4081161E+002  0.8246948E+02  0.7546771E-02  0.1322186E+00
          1   -1    0    0  504    0 -0.00000000000E+00  0.00000000000E+00  0.14996019424E+04  0.14996019424E+04  0.00000000000E+00 0. -1.
         21   -1    0    0  503  502  0.00000000000E+00 -0.00000000000E+00 -0.88097773414E+02  0.88097773414E+02  0.00000000000E+00 0. -1.
         21    1    1    2  503  505  0.40187062861E+02 -0.19940447628E+02 -0.67269926100E+02  0.80857061723E+02  0.00000000000E+00 0. -1.
         21    1    1    2  504  502 -0.65347917944E+01 -0.86544955555E+02  0.16748422011E+03  0.18863641435E+03  0.00000000000E+00 0. -1.
         21    1    1    2  505  501 -0.38367370772E+02  0.53446925902E+02  0.40109790082E+03  0.40645806065E+03  0.00000000000E+00 0. -1.
          1    1    1    2  501    0  0.47150997054E+01  0.53038477282E+02  0.91019197419E+03  0.91174817911E+03  0.00000000000E+00 0. -1.
<scales pt_clust_3="44.86225" pt_clust_4="82.46948" pt_clust_5="14000.00000" pt_clust_6="52.39500"></scales>
<clustering>
<clus scale="   44.862">  2  3  1 -1</clus>
<clus scale="   52.395">  1  6  2 -1</clus>
<clus scale="   82.469">  2  4  1 -1</clus>
<clus scale="   44.862">  2  3  1 -1</clus>
</clustering>
</event>
<event>
 6    0  0.4081161E+002  0.1010193E+03  0.7546771E-02  0.1278167E+00
          2   -1    0    0  503    0 -0.00000000000E+00  0.00000000000E+00  0.15772650796E+04  0.15772650796E+04  0.00000000000E+00 0.  1.
         21   -1    0    0  504  502  0.00000000000E+00 -0.00000000000E+00 -0.73887416956E+02  0.73887416956E+02  0.00000000000E+00 0.  1.
         21    1    1    2  503  505  0.33656015533E+02 -0.34261705697E+02  0.36226243964E+03  0.36543216475E+03  0.00000000000E+00 0.  1.
         21    1    1    2  504  501 -0.10650076406E+03  0.59446218900E+02  0.27180276885E+03  0.29791443544E+03  0.00000000000E+00 0.  1.
         21    1    1    2  505  502  0.99223008364E+02  0.24087922612E+02 -0.13705734425E+02  0.10302077732E+03  0.00000000000E+00 0.  1.
          2    1    1    2  501    0 -0.26378259835E+02 -0.49272435815E+02  0.88301818857E+03  0.88478511904E+03  0.00000000000E+00 0.  1.
<scales pt_clust_3="48.02699" pt_clust_4="101.01933" pt_clust_5="14000.00000" pt_clust_6="74.25337"></scales>
<clustering>
<clus scale="   48.027">  1  3  2 -1</clus>
<clus scale="   74.253">  1  6  2 -1</clus>
<clus scale="  101.019">  1  4  2 -1</clus>
<clus scale="  101.019">  2  3  1 -1</clus>
</clustering>
</event>
<event>
 6    0  0.4081161E+002  0.1813825E+03  0.7546771E-02  0.1166472E+00
         21   -1    0    0  503  502  0.00000000000E+00  0.00000000000E+00  0.92252205896E+03  0.92252205896E+03  0.00000000000E+00 0. -1.
          2   -1    0    0  504    0 -0.00000000000E+00 -0.00000000000E+00 -0.36641274930E+03  0.36641274930E+03  0.00000000000E+00 0. -1.
         21    1    1    2  503  501 -0.12599432269E+03  0.86361120292E+02  0.16769143110E+03  0.22683304105E+03  0.00000000000E+00 0. -1.
         21    1    1    2  504  505 -0.25350659633E+02  0.23632763699E+02 -0.72294938220E+02  0.80173072513E+02  0.00000000000E+00 0. -1.
         21    1    1    2  505  502  0.13487470712E+03 -0.14123830479E+03  0.70681822973E+03  0.73330174910E+03  0.00000000000E+00 0. -1.
          2    1    1    2  501    0  0.16470275207E+02  0.31244420799E+02 -0.24610541294E+03  0.24862694560E+03  0.00000000000E+00 0. -1.
<scales pt_clust_3="14000.00000" pt_clust_4="34.65781" pt_clust_5="181.38250" pt_clust_6="51.64687"></scales>
<clustering>
<clus scale="   34.658">  2  4  1 -1</clus>
<clus scale="   51.647">  2  6  1 -1</clus>
<clus scale="  181.382">  1  5  2 -1</clus>
<clus scale="  181.382">  1  3  2 -1</clus>
</clustering>
</event>
<event>
 6    0  0.4081161E+002  0.5033544E+02  0.7546771E-02  0.1443541E+00
         21   -1    0    0  503  502  0.00000000000E+00  0.00000000000E+00  0.13266887279E+04  0.13266887279E+04  0.00000000000E+00 0.  1.
          1   -1    0    0  504    0 -0.00000000000E+00 -0.00000000000E+00 -0.54981444716E+03  0.54981444716E+03  0.00000000000E+00 0.  1.
         21    1    1    2  503  501 -0.67083297511E+01 -0.48157830310E+02  0.12169759588E+03  0.13105145231E+03  0.00000000000E+00 0.  1.
         21    1    1    2  504  505 -0.45665548961E+02 -0.12922771194E+02 -0.18878694679E+03  0.19466086318E+03  0.00000000000E+00 0. -1.
         21    1    1    2  505  502 -0.67545234468E+01  0.96416424806E+02  0.11920461928E+04  0.11959581416E+04  0.00000000000E+00 0.  1.
          1    1    1    2  501    0  0.59128402159E+02 -0.35335823302E+02 -0.34808256119E+03  0.35483271799E+03  0.00000000000E+00 0.  1.
<scales pt_clust_3="48.87556" pt_clust_4="47.45883" pt_clust_5="14000.00000" pt_clust_6="50.33544"></scales>
<clustering>
<clus scale="   47.459">  2  4  1 -1</clus>
<clus scale="   48.876">  1  3  2 -1</clus>
<clus scale="   50.335">  2  6  1 -1</clus>
<clus scale="   48.876">  1  3  2 -1</clus>
</clustering>
</event>
<event>
 6    0  0.4081161E+002  0.1744391E+03  0.7546771E-02  0.1173296E+00
          1   -1    0    0  504    0 -0.00000000000E+00  0.00000000000E+00  0.29709255776E+03  0.29709255776E+03  0.00000000000E+00 0. -1.
         21   -1    0    0  505  502  0.00000000000E+00 -0.00000000000E+00 -0.18344956421E+04  0.18344956421E+04  0.00000000000E+00 0.  1.
         21    1    1    2  503  502 -0.13448569258E+03  0.12076592992E+02 -0.16545559481E+04  0.16600565144E+04  0.00000000000E+00 0.  1.
         21    1    1    2  504  503  0.58642953791E+02  0.14282205851E+02  0.21888997881E+02  0.64203626545E+02  0.00000000000E+00 0.  1.
         21    1    1    2  505  501 -0.42598273085E+02 -0.65572729800E+01 -0.13821415798E+03  0.14477832767E+03  0.00000000000E+00 0. -1.
          1    1    1    2  501    0  0.11844101188E+03 -0.19801525863E+02  0.23347802389E+03  0.26254973121E+03  0.00000000000E+00 0. -1.
<scales pt_clust_3="174.43912" pt_clust_4="59.82048" pt_clust_5="43.10001" pt_clust_6="14000.00000"></scales>
<clustering>
<clus scale="   43.100">  2  5  1 -1</clus>
<clus scale="   59.820">  1  4  2 -1</clus>
<clus scale="  174.439">  2  3  1 -1</clus>
<clus scale="   43.100">  2  3  1 -1</clus>
</clustering>
</event>
<event>
 6    0  0.4081161E+002  0.1387910E+03  0.7546771E-02  0.1214965E+00
          2   -1    0    0  503    0 -0.00000000000E+00  0.00000000000E+00  0.39261784793E+04  0.39261784793E+04  0.00000000000E+00 0. -1.
         21   -1    0    0  505  502  0.00000000000E+00 -0.00000000000E+00 -0.98729391740E+02  0.98729391740E+02  0.00000000000E+00 0.  1.
         21    1    1    2  503  504 -0.84706831579E+02  0.26504247126E+02  0.31878981065E+03  0.33091489209E+03  0.00000000000E+00 0. -1.
         21    1    1    2  504  502 -0.36038308095E+02 -0.20660732472E+01 -0.60011225499E+02  0.70031246561E+02  0.00000000000E+00 0.  1.
         21    1    1    2  505  501  0.79715450237E+01  0.81905473651E+02  0.39310653867E+02  0.91199669142E+02  0.00000000000E+00 0. -1.
          2    1    1    2  501    0  0.11277359465E+03 -0.10634364753E+03  0.35293598485E+04  0.35327620632E+04  0.00000000000E+00 0. -1.
<scales pt_clust_3="138.79101" pt_clust_4="36.09748" pt_clust_5="82.71186" pt_clust_6="14000.00000"></scales>
<clustering>
<clus scale="   36.097">  2  4  1 -1</clus>
<clus scale="   82.712">  2  5  1 -1</clus>
<clus scale="  138.791">  2  3  1 -1</clus>
<clus scale="   36.097">  2  3  1 -1</clus>
</clustering>
</event>
<event>
 6    0  0.4081161E+002  0.1006918E+03  0.7546771E-02  0.1278848E+00
          2   -1    0    0  504    0 -0.00000000000E+00  0.00000000000E+00  0.61009550215E+03  0.61009550215E+03  0.00000000000E+00 0. -1.
         21   -1    0    0  501  502  0.00000000000E+00 -0.00000000000E+00 -0.14282396361E+03  0.14282396361E+03  0.00000000000E+00 0.  1.
         21    1    1    2  503  505 -0.10292018626E+03  0.75964639386E+02  0.76872206447E+01  0.12814946172E+03  0.00000000000E+00 0.  1.
         21    1    1    2  504  503 -0.51919847051E+02 -0.69931364532E+02  0.11465323650E+03  0.14398413420E+03  0.00000000000E+00 0.  1.
         21    1    1    2  505  502  0.47822401602E+02  0.21189512791E+01 -0.51365316516E+02  0.70213017242E+02  0.00000000000E+00 0.  1.
          2    1    1    2  501    0  0.10701763171E+03 -0.81522261336E+01  0.39629639791E+03  0.41057285260E+03  0.00000000000E+00 0. -1.
<scales pt_clust_3="100.69181" pt_clust_4="81.96686" pt_clust_5="47.86932" pt_clust_6="14000.00000"></scales>
<clustering>
<clus scale="   47.869">  2  5  1 -1</clus>
<clus scale="   81.967">  1  4  2 -1</clus>
<clus scale="  100.692">  2  3  1 -1</clus>
<clus scale="   47.869">  2  3  1 -1</clus>
</clustering>
</event>
<event>
 6    0  0.4081161E+002  0.1236384E+03  0.7546771E-02  0.1237213E+00
         21   -1    0    0  503  502  0.00000000000E+00  0.00000000000E+00  0.73602696963E+03  0.73602696963E+03  0.00000000000E+00 0.  1.
          1   -1    0    0  505    0 -0.00000000000E+00 -0.00000000000E+00 -0.45713475433E+03  0.45713475433E+03  0.00000000000E+00 0. -1.
         21    1    1    2  503  501 -0.65855267278E+02 -0.59577480806E+02  0.46039897572E+01  0.88924626337E+02  0.00000000000E+00 0. -1.
         21    1    1    2  504  502 -0.48355546170E+02  0.27765552845E+02  0.63968729276E+03  0.64211293188E+03  0.00000000000E+00 0.  1.
         21    1    1    2  505  504 -0.28636802402E+02  0.91229973797E+02 -0.43649773799E+02  0.10511078595E+03  0.00000000000E+00 0. -1.
          1    1    1    2  501    0  0.14284761585E+03 -0.59418045836E+02 -0.32174929343E+03  0.35701337978E+03  0.00000000000E+00 0. -1.
<scales pt_clust_3="100.70921" pt_clust_4="55.76006" pt_clust_5="14000.00000" pt_clust_6="123.63841"></scales>
<clustering>
<clus scale="   55.760">  1  4  2 -1</clus>
<clus scale="  100.709">  1  3  2 -1</clus>
<clus scale="  123.638">  2  6  1 -1</clus>
<clus scale="   55.760">  1  3  2 -1</clus>
</clustering>
</event>
<event>
 6    0  0.4081161E+002  0.2680489E+03  0.7546771E-02  0.1102401E+00
         21   -1    0    0  504  502  0.00000000000E+00  0.00000000000E+00  0.10322033388E+04  0.10322033388E+04  0.00000000000E+00 0.  1.
          2   -1    0    0  505    0 -0.00000000000E+00 -0.00000000000E+00 -0.27242514873E+03  0.27242514873E+03  0.00000000000E+00 0. -1.
         21    1    1    2  503  502 -0.34012341557E+02 -0.21723953291E+02  0.89920039288E+02  0.98561569541E+02  0.00000000000E+00 0.  1.
         21    1    1    2  504  501 -0.85815024517E+02  0.28420244540E+03  0.75718264927E+03  0.81330241163E+03  0.00000000000E+00 0.  1.
         21    1    1    2  505  503  0.36438204336E+00 -0.21332010154E+03  0.33440032114E+02  0.21592552939E+03  0.00000000000E+00 0. -1.
          2    1    1    2  501    0  0.11946298403E+03 -0.49158390566E+02 -0.12076453061E+03  0.17683897695E+03  0.00000000000E+00 0. -1.
<scales pt_clust_3="40.35802" pt_clust_4="14000.00000" pt_clust_5="268.04894" pt_clust_6="128.49256"></scales>
<clustering>
<clus scale="   40.358">  1  3  2 -1</clus>
<clus scale="  128.493">  2  6  1 -1</clus>
<clus scale="  268.049">  2  5  1 -1</clus>
<clus scale="   40.358">  1  3  2 -1</clus>
</clustering>
</event>
<event>
 6    0  0.4081161E+002  0.1485837E+03  0.7546771E-02  0.1202224E+00
          1   -1    0    0  505    0 -0.00000000000E+00  0.00000000000E+00  0.14848114760E+04  0.14848114760E+04  0.00000000000E+00 0.  1.
         21   -1    0    0  504  502  0.00000000000E+00 -0.00000000000E+00 -0.18475026890E+03  0.18475026890E+03  0.00000000000E+00 0. -1.
         21    1    1    2  503  502  0.94976948506E+02  0.10499205007E+03 -0.12033065989E+03  0.18580478744E+03  0.00000000000E+00 0. -1.
         21    1    1    2  504  501  0.28047875046E+02 -0.16669338673E+02 -0.16091576450E+02  0.36379788056E+02  0.00000000000E+00 0. -1.
         21    1    1    2  505  503 -0.42382241538E+02 -0.45948267304E+02  0.26149890920E+03  0.26886646719E+03  0.00000000000E+00 0. -1.
          1    1    1    2  501    0 -0.80642582013E+02 -0.42374444093E+02  0.11749845342E+04  0.11785107022E+04  0.00000000000E+00 0.  1.
<scales pt_clust_3="148.58373" pt_clust_4="32.62744" pt_clust_5="62.35721" pt_clust_6="14000.00000"></scales>
<clustering>
<clus scale="   32.627">  2  4  1 -1</clus>
<clus scale="   62.357">  1  5  2 -1</clus>
<clus scale="  148.584">  2  3  1 -1</clus>
<clus scale="   32.627">  2  3  1 -1</clus>
</clustering>
</event>
<event>
 6    0  0.4081161E+002  0.8684138E+02  0.7546771E-02  0.1310686E+00
         21   -1    0    0  503  502  0.00000000000E+00  0.00000000000E+00  0.22452444071E+02  0.22452444071E+02  0.00000000000E+00 0.  1.
          3   -1    0    0  505    0 -0.00000000000E+00 -0.00000000000E+00 -0.11231912500E+04  0.11231912500E+04  0.00000000000E+00 0.  1.
         21    1    1    2  503  501  0.30756810716E+02 -0.90051608966E+02 -0.16983769543E+03  0.19467952248E+03  0.00000000000E+00 0.  1.
         21    1    1    2  504  502 -0.36973934593E+02 -0.20325995943E+02 -0.12502223908E+03  0.13194990798E+03  0.00000000000E+00 0.  1.
         21    1    1    2  505  504  0.50478210328E+02  0.65920948098E+02 -0.43139535019E+03  0.43931260997E+03  0.00000000000E+00 0.  1.
          3    1    1    2  501    0 -0.44261086451E+02  0.44456656811E+02 -0.37448352120E+03  0.37970165362E+03  0.00000000000E+00 0.  1.
<scales pt_clust_3="86.84138" pt_clust_4="42.19263" pt_clust_5="14000.00000" pt_clust_6="64.57898"></scales>
<clustering>
<clus scale="   42.193">  1  4  2 -1</clus>
<clus scale="   64.579">  2  6  1 -1</clus>
<clus scale="   86.841">  1  3  2 -1</clus>
<clus scale="   42.193">  1  3  2 -1</clus>
</clustering>
</event>
<event>
 6    0  0.4081161E+002  0.7618207E+02  0.7546771E-02  0.1340249E+00
         21   -1    0    0  505  502  0.00000000000E+00  0.00000000000E+00  0.12931101534E+04  0.12931101534E+04  0.00000000000E+00 0. -1.
          2   -1    0    0  503    0 -0.00000000000E+00 -0.00000000000E+00 -0.22981246383E+04  0.22981246383E+04  0.00000000000E+00 0. -1.
         21    1    1    2  503  504 -0.67521702029E+02 -0.65734544895E+01 -0.39867837651E+03  0.40440924624E+03  0.00000000000E+00 0. -1.
         21    1    1    2  504  502 -0.35964932594E+02  0.15427026897E+02  0.19938452309E+03  0.20318872406E+03  0.00000000000E+00 0. -1.
         21    1    1    2  505  501 -0.40254038847E+02 -0.17083861757E+02  0.10857821696E+04  0.10866623973E+04  0.00000000000E+00 0. -1.
          2    1    1    2  501    0  0.14374067347E+03  0.82302893490E+01 -0.18915028011E+04  0.18969744240E+04  0.00000000000E+00 0. -1.
<scales pt_clust_3="67.93096" pt_clust_4="39.13399" pt_clust_5="76.18207" pt_clust_6="14000.00000"></scales>
<clustering>
<clus scale="   39.134">  1  4  2 -1</clus>
<clus scale="   67.931">  2  3  1 -1</clus>
<clus scale="   76.182">  1  5  2 -1</clus>
<clus scale="   39.134">  1  3  2 -1</clus>
</clustering>
</event>
<event>
 6    0  0.4081161E+002  0.1144116E+03  0.7546771E-02  0.1252612E+00
         21   -1    0    0  503  502  0.00000000000E+00  0.00000000000E+00  0.65788724752E+02  0.65788724752E+02  0.00000000000E+00 0. -1.
          2   -1    0    0  504    0 -0.00000000000E+00 -0.00000000000E+00 -0.27704437918E+04  0.27704437918E+04  0.00000000000E+00 0. -1.
         21    1    1    2  503  501  0.32686839985E+02 -0.25821240783E+02 -0.35318563665E+02  0.54612882392E+02  0.00000000000E+00 0. -1.
         21    1    1    2  504  505  0.31179534559E+02  0.30397665082E+02 -0.14778512595E+03  0.15406694931E+03  0.00000000000E+00 0. -1.
         21    1    1    2  505  502 -0.10908285102E+03 -0.61639790368E+02 -0.22326380582E+02  0.12726743265E+03  0.00000000000E+00 0. -1.
          2    1    1    2  501    0  0.45216476474E+02  0.57063366068E+02 -0.24992249969E+04  0.25002852522E+04  0.00000000000E+00 0. -1.
<scales pt_clust_3="41.65532" pt_clust_4="43.90699" pt_clust_5="14000.00000" pt_clust_6="114.41163"></scales>
<clustering>
<clus scale="   41.655">  1  3  2 -1</clus>
<clus scale="   43.907">  2  4  1 -1</clus>
<clus scale="  114.412">  2  6  1 -1</clus>
<clus scale="   41.655">  1  3  2 -1</clus>
</clustering>
</event>
<event>
 6    0  0.4081161E+002  0.1710168E+03  0.7546771E-02  0.1176792E+00
         21   -1    0    0  503  502  0.00000000000E+00  0.00000000000E+00  0.43221909902E+02  0.43221909902E+02  0.00000000000E+00 0.  1.
          2   -1    0    0  505    0 -0.00000000000E+00 -0.00000000000E+00 -0.83511451122E+03  0.83511451122E+03  0.00000000000E+00 0. -1.
         21    1    1    2  503  504 -0.29071612298E+02 -0.15585090300E+02 -0.28137867799E+02  0.43356582955E+02  0.00000000000E+00 0. -1.
         21    1    1    2  504  501  0.40260385290E+02 -0.77332368951E+02 -0.16188140635E+03  0.18386621123E+03  0.00000000000E+00 0.  1.
         21    1    1    2  505  502 -0.32824275625E+02  0.15946855315E+03 -0.30102272311E+03  0.34223140175E+03  0.00000000000E+00 0.  1.
          2    1    1    2  501    0  0.21635502633E+02 -0.66551093897E+02 -0.30085060405E+03  0.30888222518E+03  0.00000000000E+00 0. -1.
<scales pt_clust_3="32.98566" pt_clust_4="57.76422" pt_clust_5="158.43043" pt_clust_6="57.76422"></scales>
<clustering>
<clus scale="   32.986">  1  3  2 -1</clus>
<clus scale="   57.764">  4  6 -1 -1</clus>
<clus scale="  158.430">  1  5  2 -1</clus>
<clus scale="   32.986">  1  3  2 -1</clus>
</clustering>
</event>
<event>
 6    0  0.4081161E+002  0.1082709E+03  0.7546771E-02  0.1263806E+00
          2   -1    0    0  503    0 -0.00000000000E+00  0.00000000000E+00  0.10222322507E+04  0.10222322507E+04  0.00000000000E+00 0.  1.
         21   -1    0    0  504  502  0.00000000000E+00 -0.00000000000E+00 -0.32885450011E+03  0.32885450011E+03  0.00000000000E+00 0.  1.
         21    1    1    2  503  505 -0.10672297385E+03 -0.55054206288E+02  0.38873975954E+03  0.40686528413E+03  0.00000000000E+00 0.  1.
         21    1    1    2  504  501  0.33543827010E+02 -0.12178798823E+02  0.47980826298E+01  0.36007402963E+02  0.00000000000E+00 0. -1.
         21    1    1    2  505  502  0.58728915923E+02 -0.55266726707E+02 -0.29237330487E+03  0.30329135505E+03  0.00000000000E+00 0.  1.
          2    1    1    2  501    0  0.14450230919E+02  0.12249973182E+03  0.59221321326E+03  0.60492270864E+03  0.00000000000E+00 0.  1.
<scales pt_clust_3="14000.00000" pt_clust_4="35.68629" pt_clust_5="112.60866" pt_clust_6="108.27092"></scales>
<clustering>
<clus scale="   35.686">  2  4  1 -1</clus>
<clus scale="  112.609">  2  5  1 -1</clus>
<clus scale="  108.271">  1  6  2 -1</clus>
<clus scale="   35.686">  2  3  1 -1</clus>
</clustering>
</event>
<event>
 6    0  0.4081161E+002  0.1057218E+03  0.7546771E-02  0.1268704E+00
         21   -1    0    0  505  502  0.00000000000E+00  0.00000000000E+00  0.56884942020E+03  0.56884942020E+03  0.00000000000E+00 0. -1.
         -1   -1    0    0    0  501 -0.00000000000E+00 -0.00000000000E+00 -0.48156154840E+02  0.48156154840E+02  0.00000000000E+00 0. -1.
         21    1    1    2  503  502  0.10645684531E+02 -0.60905906541E+02  0.14787258210E+03  0.16027838466E+03  0.00000000000E+00 0. -1.
         21    1    1    2  504  501  0.55551901116E+02  0.78129569076E+02  0.31639065094E+02  0.10095183862E+03  0.00000000000E+00 0. -1.
         21    1    1    2  505  504 -0.38619973000E+02  0.28076422723E+02  0.16832351227E+03  0.17496454673E+03  0.00000000000E+00 0. -1.
         -1    1    1    2    0  503 -0.27577612647E+02 -0.45300085259E+02  0.17285810589E+03  0.18081080503E+03  0.00000000000E+00 0. -1.
<scales pt_clust_3="40.44692" pt_clust_4="96.27999" pt_clust_5="47.74712" pt_clust_6="40.44692"></scales>
<clustering>
<clus scale="   40.447">  3  6 -1 -1</clus>
<clus scale="   47.747">  1  5  2 -1</clus>
<clus scale="   96.280">  2  4  1 -1</clus>
<clus scale="   47.747">  1  3  2 -1</clus>
</clustering>
</event>
<event>
 6    0  0.4081161E+002  0.1321109E+03  0.7546771E-02  0.1224357E+00
          1   -1    0    0  505    0 -0.00000000000E+00  0.00000000000E+00  0.10023419093E+04  0.10023419093E+04  0.00000000000E+00 0. -1.
         21   -1    0    0  501  502  0.00000000000E+00 -0.00000000000E+00 -0.10399844773E+03  0.10399844773E+03  0.00000000000E+00 0.  1.
         21    1    1    2  503  502  0.12463317134E+03 -0.45537106328E+02  0.14827382505E+02  0.13351743977E+03  0.00000000000E+00 0.  1.
         21    1    1    2  504  503 -0.96023113589E+02  0.10225833955E+03  0.74176335105E+02  0.15867997681E+03  0.00000000000E+00 0.  1.
         21    1    1    2  505  504  0.91570999290E+01 -0.35007034013E+02  0.19993565978E+03  0.20318369266E+03  0.00000000000E+00 0. -1.
          1    1    1    2  501    0 -0.37767157681E+02 -0.21714199205E+02  0.60940408421E+03  0.61095924783E+03  0.00000000000E+00 0. -1.
<scales pt_clust_3="132.11090" pt_clust_4="14000.00000" pt_clust_5="36.18487" pt_clust_6="57.35406"></scales>
<clustering>
<clus scale="   36.185">  1  5  2 -1</clus>
<clus scale="   57.354">  1  6  2 -1</clus>
<clus scale="  132.111">  2  3  1 -1</clus>
<clus scale="  132.111">  2  3  1 -1</clus>
</clustering>
</event>
<event>
 6    0  0.4081161E+002  0.1061710E+03  0.7546771E-02  0.1267829E+00
         21   -1    0    0  504  502  0.00000000000E+00  0.00000000000E+00  0.19138482455E+03  0.19138482455E+03  0.00000000000E+00 0.  1.
          2   -1    0    0  505    0 -0.00000000000E+00 -0.00000000000E+00 -0.38061506447E+04  0.38061506447E+04  0.00000000000E+00 0. -1.
         21    1    1    2  503  502  0.46084547898E+01 -0.12166058625E+03  0.53062345422E+02  0.13280869174E+03  0.00000000000E+00 0.  1.
         21    1    1    2  504  501 -0.45248024531E+02  0.23072140651E+02  0.90571111118E+02  0.10384042357E+03  0.00000000000E+00 0.  1.
         21    1    1    2  505  503  0.14600644367E+02  0.37208071301E+02 -0.43857858684E+03  0.44039618098E+03  0.00000000000E+00 0.  1.
          2    1    1    2  501    0  0.26038925374E+02  0.61380374294E+02 -0.33198206899E+04  0.33204901730E+04  0.00000000000E+00 0. -1.
<scales pt_clust_3="14000.00000" pt_clust_4="50.79856" pt_clust_5="39.97023" pt_clust_6="106.17100"></scales>
<clustering>
<clus scale="   39.970">  2  5  1 -1</clus>
<clus scale="   50.799">  1  4  2 -1</clus>
<clus scale="  106.171">  2  6  1 -1</clus>
<clus scale="   50.799">  1  3  2 -1</clus>
</clustering>
</event>
<event>
 6    0  0.4081161E+002  0.7929551E+02  0.7546771E-02  0.1331063E+00
         -1   -1    0    0    0  501 -0.00000000000E+00  0.00000000000E+00  0.85735447406E+03  0.85735447406E+03  0.00000000000E+00 0. -1.
         21   -1    0    0  503  502  0.00000000000E+00 -0.00000000000E+00 -0.54228800627E+03  0.54228800627E+03  0.00000000000E+00 0. -1.
         21    1    1    2  503  504  0.60356884757E+02  0.48530645760E+02 -0.39271648328E+03  0.40028041840E+03  0.00000000000E+00 0. -1.
         21    1    1    2  504  501 -0.55947357680E+02 -0.72593273315E+02 -0.79219387586E+02  0.12114289716E+03  0.00000000000E+00 0. -1.
         21    1    1    2  505  502 -0.16754311252E+02  0.76939324028E+02 -0.99950845244E+01  0.79374229080E+02  0.00000000000E+00 0. -1.
         -1    1    1    2    0  505  0.12344784175E+02 -0.52876696473E+02  0.79699742318E+03  0.79884493569E+03  0.00000000000E+00 0. -1.
<scales pt_clust_3="79.29551" pt_clust_4="14000.00000" pt_clust_5="47.05573" pt_clust_6="54.29861"></scales>
<clustering>
<clus scale="   54.299">  1  6  2 -1</clus>
<clus scale="   47.056">  1  5  2 -1</clus>
<clus scale="   79.296">  2  3  1 -1</clus>
<clus scale="   79.296">  2  3  1 -1</clus>
</clustering>
</event>
<event>
 6    0  0.4081161E+002  0.7712666E+02  0.7546771E-02  0.1337409E+00
         21   -1    0    0  505  502  0.00000000000E+00  0.00000000000E+00  0.14618987580E+03  0.14618987580E+03  0.00000000000E+00 0.  1.
          1   -1    0    0  503    0 -0.00000000000E+00 -0.00000000000E+00 -0.18847607370E+04  0.18847607370E+04  0.00000000000E+00 0. -1.
         21    1    1    2  503  504 -0.57303991483E+02 -0.58609821473E+02 -0.71225295222E+03  0.71695406168E+03  0.00000000000E+00 0. -1.
         21    1    1    2  504  502 -0.56123578268E+02  0.38499589346E+02  0.10649011658E+03  0.12638124603E+03  0.00000000000E+00 0.  1.
         21    1    1    2  505  501  0.28451318437E+02  0.22374242749E+02  0.13149192269E+02  0.38509550981E+02  0.00000000000E+00 0. -1.
          1    1    1    2  501    0  0.84976251313E+02 -0.22640106222E+01 -0.11459572179E+04  0.11491057541E+04  0.00000000000E+00 0. -1.
<scales pt_clust_3="14000.00000" pt_clust_4="66.59797" pt_clust_5="36.19509" pt_clust_6="77.12666"></scales>
<clustering>
<clus scale="   36.195">  1  5  2 -1</clus>
<clus scale="   66.598">  1  4  2 -1</clus>
<clus scale="   77.127">  2  6  1 -1</clus>
<clus scale="   36.195">  1  3  2 -1</clus>
</clustering>
</event>
<event>
 6    0  0.4081161E+002  0.1849017E+03  0.7546771E-02  0.1163142E+00
          2   -1    0    0  502    0 -0.00000000000E+00  0.00000000000E+00  0.74917616954E+03  0.74917616954E+03  0.00000000000E+00 0.  1.
         21   -1    0    0  504  502  0.00000000000E+00 -0.00000000000E+00 -0.15503730110E+03  0.15503730110E+03  0.00000000000E+00 0. -1.
         21    1    1    2  503  505  0.16545494158E+02 -0.20016672161E+03  0.53364444515E+02  0.20781778979E+03  0.00000000000E+00 0. -1.
         21    1    1    2  504  503  0.56851557110E+02  0.47080409097E+02 -0.42636430663E+02  0.85243942226E+02  0.00000000000E+00 0. -1.
         21    1    1    2  505  501 -0.53157038651E+02  0.75703248656E+02  0.21326243404E+03  0.23245971347E+03  0.00000000000E+00 0. -1.
          2    1    1    2  501    0 -0.20240012618E+02  0.77383063853E+02  0.37014842054E+03  0.37869202515E+03  0.00000000000E+00 0.  1.
<scales pt_clust_3="172.83798" pt_clust_4="73.81507" pt_clust_5="61.08802" pt_clust_6="61.08802"></scales>
<clustering>
<clus scale="   61.088">  5  6 -1 -1</clus>
<clus scale="   73.815">  2  4  1 -1</clus>
<clus scale="  172.838">  2  3  1 -1</clus>
<clus scale="   73.815">  2  3  1 -1</clus>
</clustering>
</event>
<event>
 6    0  0.4081161E+002  0.1255259E+03  0.7546771E-02  0.1234250E+00
         21   -1    0    0  504  502  0.00000000000E+00  0.00000000000E+00  0.37638757331E+02  0.37638757331E+02  0.00000000000E+00 0. -1.
          3   -1    0    0  505    0 -0.00000000000E+00 -0.00000000000E+00 -0.30785325425E+04  0.30785325425E+04  0.00000000000E+00 0.  1.
         21    1    1    2  503  502 -0.32634323734E+01  0.11379448035E+03 -0.86120280421E+02  0.14274640608E+03  0.00000000000E+00 0. -1.
         21    1    1    2  504  501  0.39161270098E+02 -0.11342160562E+03 -0.17575545450E+04  0.17616458340E+04  0.00000000000E+00 0.  1.
         21    1    1    2  505  503 -0.51600116704E+02  0.79004365764E+02 -0.42594111345E+03  0.43626837380E+03  0.00000000000E+00 0. -1.
          3    1    1    2  501    0  0.15702278980E+02 -0.79377240497E+02 -0.77127784624E+03  0.77551068592E+03  0.00000000000E+00 0.  1.
<scales pt_clust_3="117.33807" pt_clust_4="36.61902" pt_clust_5="94.36240" pt_clust_6="36.61902"></scales>
<clustering>
<clus scale="   36.619">  4  6 -1 -1</clus>
<clus scale="   94.362">  2  5  1 -1</clus>
<clus scale="  117.338">  1  3  2 -1</clus>
<clus scale="  117.338">  1  3  2 -1</clus>
</clustering>
</event>
<event>
 6    0  0.4081161E+002  0.1441605E+03  0.7546771E-02  0.1207838E+00
         21   -1    0    0  504  502  0.00000000000E+00  0.00000000000E+00  0.13692842523E+03  0.13692842523E+03  0.00000000000E+00 0. -1.
         -1   -1    0    0    0  501 -0.00000000000E+00 -0.00000000000E+00 -0.94897309435E+03  0.94897309435E+03  0.00000000000E+00 0. -1.
         21    1    1    2  503  501 -0.27467048930E+02 -0.21776435014E+02 -0.61888815021E+02  0.71125785223E+02  0.00000000000E+00 0. -1.
         21    1    1    2  504  503  0.98514019023E+02  0.13058437028E+03 -0.10024109012E+02  0.16388341120E+03  0.00000000000E+00 0. -1.
         21    1    1    2  505  502 -0.47846061525E+02  0.63686425192E+01  0.39553698420E+02  0.62404328934E+02  0.00000000000E+00 0. -1.
         -1    1    1    2    0  505 -0.23200908568E+02 -0.11517657778E+03 -0.77968544351E+03  0.78848799423E+03  0.00000000000E+00 0. -1.
<scales pt_clust_3="35.05213" pt_clust_4="14000.00000" pt_clust_5="48.58446" pt_clust_6="144.16052"></scales>
<clustering>
<clus scale="   35.052">  2  3  1 -1</clus>
<clus scale="   48.584">  1  5  2 -1</clus>
<clus scale="  144.161">  2  6  1 -1</clus>
<clus scale="   48.584">  1  3  2 -1</clus>
</clustering>
</event>
<event>
 6    0  0.4081161E+002  0.1129167E+03  0.7546771E-02  0.1255262E+00
         21   -1    0    0  504  502  0.00000000000E+00  0.00000000000E+00  0.75627094660E+03  0.75627094660E+03  0.00000000000E+00 0.  1.
          2   -1    0    0  505    0 -0.00000000000E+00 -0.00000000000E+00 -0.21820790729E+04  0.21820790729E+04  0.00000000000E+00 0.  1.
         21    1    1    2  503  501 -0.64051283267E+02  0.12168443906E+02 -0.61328055366E+02  0.89508481666E+02  0.00000000000E+00 0.  1.
         21    1    1    2  504  503 -0.50437152135E+02  0.34812214772E+02  0.73621260331E+03  0.73875895520E+03  0.00000000000E+00 0.  1.
         21    1    1    2  505  502 -0.34368337127E+02 -0.19515853213E+02 -0.23895241359E+03  0.24219889984E+03  0.00000000000E+00 0. -1.
          2    1    1    2  501    0  0.14885677253E+03 -0.27464805466E+02 -0.18617402607E+04  0.18678836828E+04  0.00000000000E+00 0.  1.
<scales pt_clust_3="112.91666" pt_clust_4="61.29584" pt_clust_5="39.52279" pt_clust_6="14000.00000"></scales>
<clustering>
<clus scale="   39.523">  2  5  1 -1</clus>
<clus scale="   61.296">  1  4  2 -1</clus>
<clus scale="  112.917">  1  3  2 -1</clus>
<clus scale="   61.296">  1  3  2 -1</clus>
</clustering>
</event>
<event>
 6    0  0.4081161E+002  0.1664320E+03  0.7546771E-02  0.1181621E+00
         21   -1    0    0  505  502  0.00000000000E+00  0.00000000000E+00  0.24410385435E+04  0.24410385435E+04  0.00000000000E+00 0. -1.
         -1   -1    0    0    0  501 -0.00000000000E+00 -0.00000000000E+00 -0.99510569816E+02  0.99510569816E+02  0.00000000000E+00 0. -1.
         21    1    1    2  503  502 -0.15412404944E+03  0.92612356477E+02  0.12545533847E+04  0.12673734518E+04  0.00000000000E+00 0. -1.
         21    1    1    2  504  501  0.34069456614E+02  0.11004296149E+02  0.40232332714E+01  0.36027889387E+02  0.00000000000E+00 0. -1.
         21    1    1    2  505  504  0.95299534583E+02 -0.12970686070E+03  0.11499216026E+04  0.11611311567E+04  0.00000000000E+00 0. -1.
         -1    1    1    2    0  503  0.24755058245E+02  0.26090208072E+02 -0.66970246843E+02  0.76016615474E+02  0.00000000000E+00 0. -1.
<scales pt_clust_3="14000.00000" pt_clust_4="35.80255" pt_clust_5="166.43197" pt_clust_6="64.56556"></scales>
<clustering>
<clus scale="   35.803">  2  4  1 -1</clus>
<clus scale="   64.566">  2  6  1 -1</clus>
<clus scale="  166.432">  1  5  2 -1</clus>
<clus scale="  166.432">  1  3  2 -1</clus>
</clustering>
</event>
<event>
 6    0  0.4081161E+002  0.9220793E+02  0.7546771E-02  0.1297591E+00
          2   -1    0    0  503    0 -0.00000000000E+00  0.00000000000E+00  0.16174782945E+04  0.16174782945E+04  0.00000000000E+00 0. -1.
         21   -1    0    0  504  502  0.00000000000E+00 -0.00000000000E+00 -0.20614881118E+02  0.20614881118E+02  0.00000000000E+00 0. -1.
         21    1    1    2  503  505 -0.34677884086E+02 -0.15299748976E+02  0.27452258642E+03  0.27712684536E+03  0.00000000000E+00 0. -1.
         21    1    1    2  504  501  0.43046083153E+02 -0.80739763598E+02  0.30030997084E+03  0.31393941022E+03  0.00000000000E+00 0. -1.
         21    1    1    2  505  502 -0.64612073075E+02 -0.99692957371E+01  0.11659569720E+03  0.13367372012E+03  0.00000000000E+00 0. -1.
          2    1    1    2  501    0  0.56243874008E+02  0.10600880831E+03  0.90543515891E+03  0.91335319991E+03  0.00000000000E+00 0. -1.
<scales pt_clust_3="37.90301" pt_clust_4="92.20793" pt_clust_5="68.79691" pt_clust_6="14000.00000"></scales>
<clustering>
<clus scale="   37.903">  1  3  2 -1</clus>
<clus scale="   68.797">  2  5  1 -1</clus>
<clus scale="   92.208">  2  4  1 -1</clus>
<clus scale="   68.797">  2  3  1 -1</clus>
</clustering>
</event>
<event>
 6    0  0.4081161E+002  0.8971376E+02  0.7546771E-02  0.1303546E+00
          1   -1    0    0  504    0 -0.00000000000E+00  0.00000000000E+00  0.98443654127E+03  0.98443654127E+03  0.00000000000E+00 0. -1.
         21   -1    0    0  505  502  0.00000000000E+00 -0.00000000000E+00 -0.22876125737E+03  0.22876125737E+03  0.00000000000E+00 0.  1.
         21    1    1    2  503  501  0.55083509809E+02  0.73660552913E+02  0.76139657498E+02  0.11940400978E+03  0.00000000000E+00 0. -1.
         21    1    1    2  504  502  0.53557050016E+02 -0.12510422533E+02 -0.16931986344E+03  0.17802832481E+03  0.00000000000E+00 0.  1.
         21    1    1    2  505  503 -0.35275948635E+02 -0.91884685273E+01 -0.20467637779E+02  0.41806036672E+02  0.00000000000E+00 0. -1.
          1    1    1    2  501    0 -0.73364611190E+02 -0.51961661853E+02  0.86932312762E+03  0.87395942737E+03  0.00000000000E+00 0. -1.
<scales pt_clust_3="14000.00000" pt_clust_4="30.53751" pt_clust_5="36.45299" pt_clust_6="89.71376"></scales>
<clustering>
<clus scale="   36.453">  2  5  1 -1</clus>
<clus scale="   30.538">  2  4  1 -1</clus>
<clus scale="   89.714">  1  6  2 -1</clus>
<clus scale="   36.453">  2  3  1 -1</clus>
</clustering>
</event>
<event>
 6    0  0.4081161E+002  0.7074912E+02  0.7546771E-02  0.1357564E+00
         -2   -1    0    0    0  501 -0.00000000000E+00  0.00000000000E+00  0.49565534186E+03  0.49565534186E+03  0.00000000000E+00 0.  1.
         21   -1    0    0  504  502  0.00000000000E+00 -0.00000000000E+00 -0.47065473595E+03  0.47065473595E+03  0.00000000000E+00 0. -1.
         21    1    1    2  503  505 -0.15164003449E+02  0.29739559578E+02  0.38725569195E+02  0.51127860448E+02  0.00000000000E+00 0.  1.
         21    1    1    2  504  501 -0.21581050386E+02 -0.12129096480E+03  0.94166277856E+02  0.15506297999E+03  0.00000000000E+00 0.  1.
         21    1    1    2  505  502  0.16847392420E+02  0.67509156830E+02 -0.43045856456E+03  0.43604575068E+03  0.00000000000E+00 0. -1.
         -2    1    1    2    0  503  0.19897661415E+02  0.24042248390E+02  0.32256732342E+03  0.32407348669E+03  0.00000000000E+00 0.  1.
<scales pt_clust_3="37.36385" pt_clust_4="14000.00000" pt_clust_5="70.74912" pt_clust_6="31.20812"></scales>
<clustering>
<clus scale="   31.208">  1  6  2 -1</clus>
<clus scale="   37.364">  1  3  2 -1</clus>
<clus scale="   70.749">  2  5  1 -1</clus>
<clus scale="   70.749">  2  3  1 -1</clus>
</clustering>
</event>
<event>
 6    0  0.4081161E+002  0.1047222E+03  0.7546771E-02  0.1270668E+00
          1   -1    0    0  505    0 -0.00000000000E+00  0.00000000000E+00  0.32079223220E+03  0.32079223220E+03  0.00000000000E+00 0. -1.
         21   -1    0    0  504  502  0.00000000000E+00 -0.00000000000E+00 -0.20155636807E+03  0.20155636807E+03  0.00000000000E+00 0.  1.
         21    1    1    2  503  502  0.39108625925E+02  0.13237520394E+03 -0.11302596957E+03  0.17840277194E+03  0.00000000000E+00 0.  1.
         21    1    1    2  504  501 -0.42310808155E+02 -0.36387638614E+02  0.61183192366E+01  0.56139990746E+02  0.00000000000E+00 0.  1.
         21    1    1    2  505  503  0.48336781889E+02  0.13059611739E+02  0.28515499854E+02  0.57620583771E+02  0.00000000000E+00 0. -1.
          1    1    1    2  501    0 -0.45134599659E+02 -0.10904717706E+03  0.19762801461E+03  0.23018525381E+03  0.00000000000E+00 0. -1.
<scales pt_clust_3="104.72221" pt_clust_4="50.80118" pt_clust_5="50.06993" pt_clust_6="14000.00000"></scales>
<clustering>
<clus scale="   50.070">  1  5  2 -1</clus>
<clus scale="   50.801">  2  4  1 -1</clus>
<clus scale="  104.722">  2  3  1 -1</clus>
<clus scale="   50.801">  2  3  1 -1</clus>
</clustering>
</event>
<event>
 6    0  0.4081161E+002  0.1072667E+03  0.7546771E-02  0.1265717E+00
         21   -1    0    0  505  502  0.00000000000E+00  0.00000000000E+00  0.26982671874E+03  0.26982671874E+03  0.00000000000E+00 0.  1.
          2   -1    0    0  504    0 -0.00000000000E+00 -0.00000000000E+00 -0.58768008791E+03  0.58768008791E+03  0.00000000000E+00 0.  1.
         21    1    1    2  503  501 -0.34190126105E+02 -0.14096349790E+03  0.90484427041E+02  0.17095936360E+03  0.00000000000E+00 0.  1.
         21    1    1    2  504  502  0.40078619240E+02  0.21333047079E+02 -0.15155491019E+03  0.15820962493E+03  0.00000000000E+00 0.  1.
         21    1    1    2  505  503  0.13892733731E+02  0.91467089171E+02  0.11913995266E+03  0.15084284793E+03  0.00000000000E+00 0.  1.
          2    1    1    2  501    0 -0.19781226866E+02  0.28163361654E+02 -0.37592283868E+03  0.37749497019E+03  0.00000000000E+00 0.  1.
<scales pt_clust_3="14000.00000" pt_clust_4="49.17192" pt_clust_5="107.26669" pt_clust_6="34.41616"></scales>
<clustering>
<clus scale="   34.416">  2  6  1 -1</clus>
<clus scale="   49.172">  2  4  1 -1</clus>
<clus scale="  107.267">  1  5  2 -1</clus>
<clus scale="  107.267">  1  3  2 -1</clus>
</clustering>
</event>
<event>
 6    0  0.4081161E+002  0.1018415E+03  0.7546771E-02  0.1276471E+00
         21   -1    0    0  505  502  0.00000000000E+00  0.00000000000E+00  0.33841761532E+03  0.33841761532E+03  0.00000000000E+00 0.  1.
          2   -1    0    0  503    0 -0.00000000000E+00 -0.00000000000E+00 -0.12800318612E+04  0.12800318612E+04  0.00000000000E+00 0.  1.
         21    1    1    2  503  504  0.37906957439E+02  0.64345470597E+01 -0.12210875706E+03  0.12801909767E+03  0.00000000000E+00 0.  1.
         21    1    1    2  504  502  0.31491659801E+02  0.65080093841E+01  0.45432697294E+02  0.55661555912E+02  0.00000000000E+00 0.  1.
         21    1    1    2  505  501 -0.12915697783E+03  0.22569569267E+02  0.26870989013E+03  0.29899149726E+03  0.00000000000E+00 0.  1.
          2    1    1    2  501    0  0.59758360588E+02 -0.35512125711E+02 -0.11336480762E+04  0.11357773256E+04  0.00000000000E+00 0.  1.
<scales pt_clust_3="38.77910" pt_clust_4="32.15710" pt_clust_5="14000.00000" pt_clust_6="101.84148"></scales>
<clustering>
<clus scale="   32.157">  1  4  2 -1</clus>
<clus scale="   38.779">  2  3  1 -1</clus>
<clus scale="  101.841">  2  6  1 -1</clus>
<clus scale="   32.157">  1  3  2 -1</clus>
</clustering>
</event>
<event>
 6    0  0.4081161E+002  0.1832616E+03  0.7546771E-02  0.1164683E+00
          2   -1    0    0  505    0 -0.00000000000E+00  0.00000000000E+00  0.11629706549E+04  0.11629706549E+04  0.00000000000E+00 0.  1.
         21   -1    0    0  503  502  0.00000000000E+00 -0.00000000000E+00 -0.52030057686E+03  0.52030057686E+03  0.00000000000E+00 0. -1.
         21    1    1    2  503  504  0.13017979264E+02 -0.27573207251E+02 -0.81248140410E+02  0.86781391221E+02  0.00000000000E+00 0. -1.
         21    1    1    2  504  501 -0.17572294940E+03  0.15547670345E+03  0.29185694561E+03  0.37447568274E+03  0.00000000000E+00 0. -1.
         21    1    1    2  505  502  0.28982035660E+02 -0.19492089508E+02 -0.38521967260E+03  0.38679981399E+03  0.00000000000E+00 0. -1.
          2    1    1    2  501    0  0.13372293448E+03 -0.10841140669E+03  0.81728094540E+03  0.83521434376E+03  0.00000000000E+00 0.  1.
<scales pt_clust_3="30.49179" pt_clust_4="14000.00000" pt_clust_5="59.71920" pt_clust_6="183.26156"></scales>
<clustering>
<clus scale="   30.492">  2  3  1 -1</clus>
<clus scale="   59.719">  2  5  1 -1</clus>
<clus scale="  183.262">  1  6  2 -1</clus>
<clus scale="   30.492">  2  3  1 -1</clus>
</clustering>
</event>
<event>
 6    0  0.4081161E+002  0.1064483E+03  0.7546771E-02  0.1267292E+00
          1   -1    0    0  505    0 -0.00000000000E+00  0.00000000000E+00  0.18199644993E+04  0.18199644993E+04  0.00000000000E+00 0.  1.
         21   -1    0    0  503  502  0.00000000000E+00 -0.00000000000E+00 -0.17039870242E+04  0.17039870242E+04  0.00000000000E+00 0.  1.
         21    1    1    2  503  504  0.17095947596E+03 -0.59648982660E+02 -0.66269961462E+02  0.19281299579E+03  0.00000000000E+00 0. -1.
         21    1    1    2  504  501 -0.39077302596E+02  0.50155026536E+02  0.14095237736E+03  0.15462902363E+03  0.00000000000E+00 0.  1.
         21    1    1    2  505  502 -0.82416326795E+02 -0.10881964732E+02 -0.15660597475E+04  0.15682646463E+04  0.00000000000E+00 0.  1.
          1    1    1    2  501    0 -0.49465846567E+02  0.20375920857E+02  0.16073548067E+04  0.16082448578E+04  0.00000000000E+00 0.  1.
<scales pt_clust_3="106.44830" pt_clust_4="14000.00000" pt_clust_5="83.37271" pt_clust_6="53.49811"></scales>
<clustering>
<clus scale="   53.498">  1  6  2 -1</clus>
<clus scale="   83.373">  2  5  1 -1</clus>
<clus scale="  106.448">  2  3  1 -1</clus>
<clus scale="   83.373">  2  3  1 -1</clus>
</clustering>
</event>
<event>
 6    0  0.4081161E+002  0.2056587E+03  0.7546771E-02  0.1145051E+00
          2   -1    0    0  504    0 -0.00000000000E+00  0.00000000000E+00  0.12321055639E+04  0.12321055639E+04  0.00000000000E+00 0.  1.
         21   -1    0    0  503  502  0.00000000000E+00 -0.00000000000E+00 -0.31620676943E+03  0.31620676943E+03  0.00000000000E+00 0. -1.
         21    1    1    2  503  505 -0.10903109480E+02 -0.20563085194E+03 -0.10924014218E+03  0.23310155240E+03  0.00000000000E+00 0. -1.
         21    1    1    2  504  502 -0.11283406318E+02 -0.81983807174E+02  0.75115304204E+02  0.11176300292E+03  0.00000000000E+00 0. -1.
         21    1    1    2  505  501 -0.23548888379E+02  0.20562545806E+03 -0.38462751848E+02  0.21051309325E+03  0.00000000000E+00 0. -1.
          2    1    1    2  501    0  0.45735404177E+02  0.81989201052E+02  0.98848638425E+03  0.99293468472E+03  0.00000000000E+00 0.  1.
<scales pt_clust_3="14000.00000" pt_clust_4="82.75663" pt_clust_5="205.65868" pt_clust_6="37.46612"></scales>
<clustering>
<clus scale="   82.757">  1  4  2 -1</clus>
<clus scale="   37.466">  1  6  2 -1</clus>
<clus scale="  205.659">  1  5  2 -1</clus>
<clus scale="  205.659">  2  3  1 -1</clus>
</clustering>
</event>
<event>
 6    0  0.4081161E+002  0.8776729E+02  0.7546771E-02  0.1308350E+00
         21   -1    0    0  504  502  0.00000000000E+00  0.00000000000E+00  0.23900879885E+03  0.23900879885E+03  0.00000000000E+00 0.  1.
          2   -1    0    0  505    0 -0.00000000000E+00 -0.00000000000E+00 -0.36770037976E+04  0.36770037976E+04  0.00000000000E+00 0. -1.
         21    1    1    2  503  502 -0.26399464742E+02  0.68171539899E+02  0.56416630183E+02  0.92342442853E+02  0.00000000000E+00 0.  1.
         21    1    1    2  504  501  0.76589182557E+02 -0.72946755146E+02  0.14652267119E+03  0.18070978154E+03  0.00000000000E+00 0.  1.
         21    1    1    2  505  503 -0.14129220295E+02 -0.28930167485E+02 -0.31135460084E+03  0.31301481901E+03  0.00000000000E+00 0.  1.
          2    1    1    2  501    0 -0.36060497520E+02  0.33705382733E+02 -0.33295796993E+04  0.33299455531E+04  0.00000000000E+00 0. -1.
<scales pt_clust_3="87.76729" pt_clust_4="14000.00000" pt_clust_5="32.19611" pt_clust_6="50.29936"></scales>
<clustering>
<clus scale="   32.196">  2  5  1 -1</clus>
<clus scale="   50.299">  2  6  1 -1</clus>
<clus scale="   87.767">  2  3  1 -1</clus>
<clus scale="   87.767">  1  3  2 -1</clus>
</clustering>
</event>
<event>
 6    0  0.4081161E+002  0.5112773E+02  0.7546771E-02  0.1439352E+00
          2   -1    0    0  505    0 -0.00000000000E+00  0.00000000000E+00  0.26906241670E+03  0.26906241670E+03  0.00000000000E+00 0.  1.
         21   -1    0    0  504  502  0.00000000000E+00 -0.00000000000E+00 -0.42778909216E+03  0.42778909216E+03  0.00000000000E+00 0.  1.
         21    1    1    2  503  502  0.84462396396E+02 -0.79064967412E+01 -0.35114719234E+03  0.36124888898E+03  0.00000000000E+00 0.  1.
         21    1    1    2  504  501 -0.43674441434E+02 -0.15375991572E+02 -0.33190654280E+02  0.56969267881E+02  0.00000000000E+00 0.  1.
         21    1    1    2  505  503  0.18297717840E+02 -0.41132960722E+02  0.10195999871E+02  0.46159347366E+02  0.00000000000E+00 0. -1.
          2    1    1    2  501    0 -0.59085672801E+02  0.64415449035E+02  0.21541517129E+03  0.23247400463E+03  0.00000000000E+00 0.  1.
<scales pt_clust_3="14000.00000" pt_clust_4="46.17750" pt_clust_5="45.01918" pt_clust_6="51.12773"></scales>
<clustering>
<clus scale="   45.019">  1  5  2 -1</clus>
<clus scale="   46.177">  2  4  1 -1</clus>
<clus scale="   51.128">  1  6  2 -1</clus>
<clus scale="   46.177">  2  3  1 -1</clus>
</clustering>
</event>
<event>
 6    0  0.4081161E+002  0.1282726E+03  0.7546771E-02  0.1230042E+00
          2   -1    0    0  503    0 -0.00000000000E+00  0.00000000000E+00  0.32109273119E+04  0.32109273119E+04  0.00000000000E+00 0. -1.
         21   -1    0    0  505  502  0.00000000000E+00 -0.00000000000E+00 -0.15944333328E+02  0.15944333328E+02  0.00000000000E+00 0. -1.
         21    1    1    2  503  504  0.79456854181E+02 -0.10771481590E+03  0.12877462026E+04  0.12946838053E+04  0.00000000000E+00 0. -1.
         21    1    1    2  504  502  0.28055042920E+02  0.13725258807E+02  0.10568786060E+03  0.11020613432E+03  0.00000000000E+00 0. -1.
         21    1    1    2  505  501 -0.14537964384E+03  0.27911618902E+02  0.59891770668E+03  0.61694142241E+03  0.00000000000E+00 0. -1.
          2    1    1    2  501    0  0.37867746741E+02  0.66077938190E+02  0.12026312087E+04  0.12050402832E+04  0.00000000000E+00 0. -1.
<scales pt_clust_3="128.27258" pt_clust_4="31.23249" pt_clust_5="14000.00000" pt_clust_6="78.45053"></scales>
<clustering>
<clus scale="   31.232">  2  4  1 -1</clus>
<clus scale="   78.451">  1  6  2 -1</clus>
<clus scale="  128.273">  1  3  2 -1</clus>
<clus scale="   31.232">  2  3  1 -1</clus>
</clustering>
</event>
<event>
 6    0  0.4081161E+002  0.1831578E+03  0.7546771E-02  0.1164781E+00
         21   -1    0    0  501  502  0.00000000000E+00  0.00000000000E+00  0.40799926363E+03  0.40799926363E+03  0.00000000000E+00 0.  1.
          2   -1    0    0  503    0 -0.00000000000E+00 -0.00000000000E+00 -0.17946978322E+03  0.17946978322E+03  0.00000000000E+00 0. -1.
         21    1    1    2  503  504 -0.36802383133E+02  0.76359646942E+01  0.12132928152E+01  0.37605789987E+02  0.00000000000E+00 0.  1.
         21    1    1    2  504  505 -0.81678853853E+02  0.70624539676E+02  0.14851241199E+03  0.18361698528E+03  0.00000000000E+00 0.  1.
         21    1    1    2  505  502  0.66203814857E+01  0.67680295852E+02  0.15341120462E+03  0.16780777575E+03  0.00000000000E+00 0.  1.
          2    1    1    2  501    0  0.11186085550E+03 -0.14594080022E+03 -0.74607429018E+02  0.19843849583E+03  0.00000000000E+00 0. -1.
<scales pt_clust_3="37.58621" pt_clust_4="68.06903" pt_clust_5="68.06903" pt_clust_6="161.14372"></scales>
<clustering>
<clus scale="   37.586">  2  3  1 -1</clus>
<clus scale="   68.069">  4  5 -1 -1</clus>
<clus scale="  161.144">  2  6  1 -1</clus>
<clus scale="  183.158">  1  3  2 -1</clus>
</clustering>
</event>
<event>
 6    0  0.4081161E+002  0.6737831E+02  0.7546771E-02  0.1369242E+00
         -4   -1    0    0    0  501 -0.00000000000E+00  0.00000000000E+00  0.39430751064E+03  0.39430751064E+03  0.00000000000E+00 0.  1.
         21   -1    0    0  505  502  0.00000000000E+00 -0.00000000000E+00 -0.30434796677E+03  0.30434796677E+03  0.00000000000E+00 0.  1.
         21    1    1    2  503  502 -0.12235781906E+02  0.71688715115E+02 -0.22441636595E+03  0.23590610746E+03  0.00000000000E+00 0.  1.
         21    1    1    2  504  501 -0.14149725707E+02 -0.41249904165E+02  0.27904401612E+03  0.28243111065E+03  0.00000000000E+00 0.  1.
         21    1    1    2  505  504 -0.48826354459E+02 -0.36181925465E+02 -0.40759925178E+02  0.73174559245E+02  0.00000000000E+00 0. -1.
         -4    1    1    2    0  503  0.75211862073E+02  0.57431145150E+01  0.76091818878E+02  0.10714370005E+03  0.00000000000E+00 0.  1.
<scales pt_clust_3="14000.00000" pt_clust_4="43.60928" pt_clust_5="65.99277" pt_clust_6="67.37831"></scales>
<clustering>
<clus scale="   43.609">  1  4  2 -1</clus>
<clus scale="   65.993">  2  5  1 -1</clus>
<clus scale="   67.378">  1  6  2 -1</clus>
<clus scale="   65.993">  2  3  1 -1</clus>
</clustering>
</event>
<event>
 6    0  0.4081161E+002  0.1849480E+03  0.7546771E-02  0.1163098E+00
         21   -1    0    0  505  502  0.00000000000E+00  0.00000000000E+00  0.14289839467E+03  0.14289839467E+03  0.00000000000E+00 0.  1.
          2   -1    0    0  504    0 -0.00000000000E+00 -0.00000000000E+00 -0.20170156546E+04  0.20170156546E+04  0.00000000000E+00 0.  1.
         21    1    1    2  503  501  0.19466903043E+03 -0.90646959280E+02 -0.24485913321E+03  0.32568220362E+03  0.00000000000E+00 0.  1.
         21    1    1    2  504  502  0.67649856911E+02  0.71629488853E+02 -0.20555958122E+03  0.22795181123E+03  0.00000000000E+00 0.  1.
         21    1    1    2  505  503 -0.80205339999E+02  0.56665448693E+02  0.57269260725E+02  0.11368217918E+03  0.00000000000E+00 0.  1.
          2    1    1    2  501    0 -0.18211354735E+03 -0.37647978267E+02 -0.14809678062E+04  0.14925978552E+04  0.00000000000E+00 0.  1.
<scales pt_clust_3="184.94796" pt_clust_4="97.67731" pt_clust_5="98.20321" pt_clust_6="14000.00000"></scales>
<clustering>
<clus scale="   98.203">  1  5  2 -1</clus>
<clus scale="   97.677">  1  4  2 -1</clus>
<clus scale="  184.948">  1  3  2 -1</clus>
<clus scale="   98.203">  1  3  2 -1</clus>
</clustering>
</event>
<event>
 6    0  0.4081161E+002  0.1331541E+03  0.7546771E-02  0.1222849E+00
         21   -1    0    0  503  502  0.00000000000E+00  0.00000000000E+00  0.25872144308E+03  0.25872144308E+03  0.00000000000E+00 0.  1.
          2   -1    0    0  504    0 -0.00000000000E+00 -0.00000000000E+00 -0.20917540713E+04  0.20917540713E+04  0.00000000000E+00 0.  1.
         21    1    1    2  503  501 -0.31287444758E+02 -0.25841991046E+02  0.52564062217E+02  0.66405521889E+02  0.00000000000E+00 0. -1.
         21    1    1    2  504  505 -0.33024533568E+02  0.10975864315E+02 -0.99110485310E+02  0.10504274232E+03  0.00000000000E+00 0. -1.
         21    1    1    2  505  502  0.54899046000E+02  0.15593893764E+03  0.15843044160E+03  0.22897830105E+03  0.00000000000E+00 0.  1.
          2    1    1    2  501    0  0.94129323258E+01 -0.14107281091E+03 -0.19449166467E+04  0.19500489491E+04  0.00000000000E+00 0.  1.
<scales pt_clust_3="40.64409" pt_clust_4="34.80071" pt_clust_5="133.15413" pt_clust_6="14000.00000"></scales>
<clustering>
<clus scale="   34.801">  2  4  1 -1</clus>
<clus scale="   40.644">  1  3  2 -1</clus>
<clus scale="  133.154">  1  5  2 -1</clus>
<clus scale="   40.644">  1  3  2 -1</clus>
</clustering>
</event>
<event>
 6    0  0.4081161E+002  0.9825807E+02  0.7546771E-02  0.1284002E+00
         21   -1    0    0  501  502  0.00000000000E+00  0.00000000000E+00  0.48531358231E+03  0.48531358231E+03  0.00000000000E+00 0.  1.
         -1   -1    0    0    0  501 -0.00000000000E+00 -0.00000000000E+00 -0.32356749191E+03  0.32356749191E+03  0.00000000000E+00 0.  1.
         21    1    1    2  503  502 -0.46674603616E+02 -0.22871039855E+02  0.33621657483E+03  0.34021050583E+03  0.00000000000E+00 0.  1.
         21    1    1    2  504  503 -0.27899572766E+02  0.99640231138E+02  0.10002203401E+03  0.14391306094E+03  0.00000000000E+00 0.  1.
         21    1    1    2  505  504  0.53615123301E+01 -0.87606618683E+02 -0.82792301653E+02  0.12065749320E+03  0.00000000000E+00 0. -1.
         -1    1    1    2    0  505  0.69212664052E+02  0.10837427399E+02 -0.19170021679E+03  0.20410001424E+03  0.00000000000E+00 0.  1.
<scales pt_clust_3="51.97695" pt_clust_4="14000.00000" pt_clust_5="98.25807" pt_clust_6="67.96643"></scales>
<clustering>
<clus scale="   51.977">  1  3  2 -1</clus>
<clus scale="   67.966">  2  6  1 -1</clus>
<clus scale="   98.258">  2  5  1 -1</clus>
<clus scale="   51.977">  1  3  2 -1</clus>
</clustering>
</event>
<event>
 6    0  0.4081161E+002  0.1256155E+03  0.7546771E-02  0.1234111E+00
          2   -1    0    0  505    0 -0.00000000000E+00  0.00000000000E+00  0.15016214857E+04  0.15016214857E+04  0.00000000000E+00 0. -1.
         21   -1    0    0  504  502  0.00000000000E+00 -0.00000000000E+00 -0.43652282192E+03  0.43652282192E+03  0.00000000000E+00 0. -1.
         21    1    1    2  503  502 -0.23223747425E+02  0.12708366048E+03 -0.32146613410E+03  0.34645356771E+03  0.00000000000E+00 0. -1.
         21    1    1    2  504  501  0.85964062501E+02 -0.95799727679E+02 -0.60597954963E+02  0.14226566701E+03  0.00000000000E+00 0. -1.
         21    1    1    2  505  503 -0.37240713205E+02  0.13331929536E+01  0.85836858379E+03  0.85917709104E+03  0.00000000000E+00 0. -1.
          2    1    1    2  501    0 -0.25499601871E+02 -0.32617125758E+02  0.58879416905E+03  0.59024798187E+03  0.00000000000E+00 0. -1.
<scales pt_clust_3="14000.00000" pt_clust_4="125.61546" pt_clust_5="37.26457" pt_clust_6="67.40815"></scales>
<clustering>
<clus scale="   37.265">  1  5  2 -1</clus>
<clus scale="   67.408">  1  6  2 -1</clus>
<clus scale="  125.615">  1  4  2 -1</clus>
<clus scale="  125.615">  2  3  1 -1</clus>
</clustering>
</event>
<event>
 6    0  0.4081161E+002  0.1016014E+03  0.7546771E-02  0.1276964E+00
         21   -1    0    0  503  502  0.00000000000E+00  0.00000000000E+00  0.70529244895E+03  0.70529244895E+03  0.00000000000E+00 0. -1.
          2   -1    0    0  504    0 -0.00000000000E+00 -0.00000000000E+00 -0.29980519709E+03  0.29980519709E+03  0.00000000000E+00 0. -1.
         21    1    1    2  503  501  0.45487476216E+02  0.37478451063E+02  0.14777917663E+03  0.15909880525E+03  0.00000000000E+00 0. -1.
         21    1    1    2  504  505  0.23824029028E+01  0.51865731761E+02 -0.50871121571E+02  0.72688382735E+02  0.00000000000E+00 0.  1.
         21    1    1    2  505  502 -0.38942511518E+02  0.63941022479E+02  0.51255982175E+03  0.51799859501E+03  0.00000000000E+00 0. -1.
          2    1    1    2  501    0 -0.89273676004E+01 -0.15328520530E+03 -0.20398062495E+03  0.25531186305E+03  0.00000000000E+00 0. -1.
<scales pt_clust_3="59.77345" pt_clust_4="51.92042" pt_clust_5="101.60142" pt_clust_6="14000.00000"></scales>
<clustering>
<clus scale="   51.920">  2  4  1 -1</clus>
<clus scale="   59.773">  1  3  2 -1</clus>
<clus scale="  101.601">  1  5  2 -1</clus>
<clus scale="   59.773">  1  3  2 -1</clus>
</clustering>
</event>
<event>
 6    0  0.4081161E+002  0.7110037E+02  0.7546771E-02  0.1356391E+00
         21   -1    0    0  503  502  0.00000000000E+00  0.00000000000E+00  0.53236393889E+02  0.53236393889E+02  0.00000000000E+00 0.  1.
          2   -1    0    0  504    0 -0.00000000000E+00 -0.00000000000E+00 -0.51504752371E+03  0.51504752371E+03  0.00000000000E+00 0.  1.
         21    1    1    2  503  501  0.45018060463E+02  0.32829604173E+02 -0.12979755875E+02  0.57209114139E+02  0.00000000000E+00 0.  1.
         21    1    1    2  504  505  0.83774024396E+01 -0.32085051775E+02 -0.63079925889E+02  0.71265057842E+02  0.00000000000E+00 0.  1.
         21    1    1    2  505  502 -0.10828838699E+03 -0.26608275880E+02 -0.10704381684E+03  0.15457281076E+03  0.00000000000E+00 0.  1.
          2    1    1    2  501    0  0.54892924092E+02  0.25863723482E+02 -0.27870763121E+03  0.28523693485E+03  0.00000000000E+00 0.  1.
<scales pt_clust_3="54.81960" pt_clust_4="33.16069" pt_clust_5="14000.00000" pt_clust_6="71.10037"></scales>
<clustering>
<clus scale="   33.161">  2  4  1 -1</clus>
<clus scale="   54.820">  1  3  2 -1</clus>
<clus scale="   71.100">  2  6  1 -1</clus>
<clus scale="   54.820">  1  3  2 -1</clus>
</clustering>
</event>
<event>
 6    0  0.4081161E+002  0.1760613E+03  0.7546771E-02  0.1171670E+00
          2   -1    0    0  505    0 -0.00000000000E+00  0.00000000000E+00  0.12261666384E+04  0.12261666384E+04  0.00000000000E+00 0.  1.
         21   -1    0    0  504  502  0.00000000000E+00 -0.00000000000E+00 -0.24127104317E+03  0.24127104317E+03  0.00000000000E+00 0. -1.
         21    1    1    2  503  502  0.35529699731E+02 -0.19954344622E+02 -0.91060530506E+02  0.99762496201E+02  0.00000000000E+00 0.  1.
         21    1    1    2  504  501 -0.10027135603E+03  0.28864998536E+02  0.66511087265E+03  0.67324587329E+03  0.00000000000E+00 0.  1.
         21    1    1    2  505  503  0.13713719997E+03  0.16731392396E+01 -0.10543457365E+03  0.17299092557E+03  0.00000000000E+00 0. -1.
          2    1    1    2  501    0 -0.72395543670E+02 -0.10583793154E+02  0.51627982676E+03  0.52143838652E+03  0.00000000000E+00 0.  1.
<scales pt_clust_3="40.74967" pt_clust_4="31.75885" pt_clust_5="171.92772" pt_clust_6="31.75885"></scales>
<clustering>
<clus scale="   31.759">  4  6 -1 -1</clus>
<clus scale="   40.750">  2  3  1 -1</clus>
<clus scale="  171.928">  2  5  1 -1</clus>
<clus scale="   40.750">  2  3  1 -1</clus>
</clustering>
</event>
<event>
 6    0  0.4081161E+002  0.9659873E+02  0.7546771E-02  0.1287615E+00
          2   -1    0    0  504    0 -0.00000000000E+00  0.00000000000E+00  0.29043610341E+04  0.29043610341E+04  0.00000000000E+00 0.  1.
         21   -1    0    0  505  502  0.00000000000E+00 -0.00000000000E+00 -0.38389899473E+03  0.38389899473E+03  0.00000000000E+00 0.  1.
         21    1    1    2  503  502 -0.45331847792E+02 -0.15418871966E+01 -0.30032090651E+03  0.30372685217E+03  0.00000000000E+00 0.  1.
         21    1    1    2  504  503 -0.45224758484E+02  0.10826703144E+02  0.27315560280E+03  0.27708569003E+03  0.00000000000E+00 0.  1.
         21    1    1    2  505  501 -0.51727335739E+02  0.15666239836E+02 -0.68544958556E+02  0.87290089223E+02  0.00000000000E+00 0. -1.
          2    1    1    2  501    0  0.14228394202E+03 -0.24951055783E+02  0.26161723016E+04  0.26201573974E+04  0.00000000000E+00 0.  1.
<scales pt_clust_3="45.35806" pt_clust_4="47.55300" pt_clust_5="14000.00000" pt_clust_6="96.59873"></scales>
<clustering>
<clus scale="   45.358">  2  3  1 -1</clus>
<clus scale="   47.553">  1  4  2 -1</clus>
<clus scale="   96.599">  1  6  2 -1</clus>
<clus scale="   45.358">  2  3  1 -1</clus>
</clustering>
</event>
<event>
 6    0  0.4081161E+002  0.1964918E+03  0.7546771E-02  0.1152733E+00
         21   -1    0    0  504  502  0.00000000000E+00  0.00000000000E+00  0.12545001644E+04  0.12545001644E+04  0.00000000000E+00 0.  1.
          1   -1    0    0  505    0 -0.00000000000E+00 -0.00000000000E+00 -0.13499464082E+04  0.13499464082E+04  0.00000000000E+00 0.  1.
         21    1    1    2  503  502  0.10872414773E+03 -0.15207545582E+02  0.78438718570E+03  0.79203249102E+03  0.00000000000E+00 0.  1.
         21    1    1    2  504  501 -0.26327831532E+03 -0.10404960213E+03  0.41043022989E+03  0.49859278437E+03  0.00000000000E+00 0.  1.
         21    1    1    2  505  503  0.52906611773E+02 -0.34626057740E+02 -0.33794717943E+03  0.34381153199E+03  0.00000000000E+00 0. -1.
          1    1    1    2  501    0  0.10164755581E+03  0.15388320545E+03 -0.95231648003E+03  0.97000976524E+03  0.00000000000E+00 0.  1.
<scales pt_clust_3="109.99927" pt_clust_4="14000.00000" pt_clust_5="63.23032" pt_clust_6="196.49177"></scales>
<clustering>
<clus scale="   63.230">  2  5  1 -1</clus>
<clus scale="  109.999">  1  3  2 -1</clus>
<clus scale="  196.492">  2  6  1 -1</clus>
<clus scale="  109.999">  1  3  2 -1</clus>
</clustering>
</event>
<event>
 6    0  0.4081161E+002  0.1819583E+03  0.7546771E-02  0.1165921E+00
         21   -1    0    0  505  502  0.00000000000E+00  0.00000000000E+00  0.59919889879E+03  0.59919889879E+03  0.00000000000E+00 0.  1.
          2   -1    0    0  503    0 -0.00000000000E+00 -0.00000000000E+00 -0.66263136445E+03  0.66263136445E+03  0.00000000000E+00 0.  1.
         21    1    1    2  503  504  0.16335951039E+03  0.42955820618E+02 -0.58525560444E+02  0.17876457531E+03  0.00000000000E+00 0.  1.
         21    1    1    2  504  502  0.40917990110E+02  0.17435790289E+03  0.20054172727E+03  0.26887161359E+03  0.00000000000E+00 0.  1.
         21    1    1    2  505  501  0.31955682661E+01 -0.18721057788E+03  0.25027412411E+03  0.31256223272E+03  0.00000000000E+00 0. -1.
          2    1    1    2  501    0 -0.20747306877E+03 -0.30103145628E+02 -0.45572275660E+03  0.50163184162E+03  0.00000000000E+00 0.  1.
<scales pt_clust_3="168.91279" pt_clust_4="181.95826" pt_clust_5="14000.00000" pt_clust_6="64.18888"></scales>
<clustering>
<clus scale="  168.913">  2  3  1 -1</clus>
<clus scale="   64.189">  2  6  1 -1</clus>
<clus scale="  181.958">  2  4  1 -1</clus>
<clus scale="  181.958">  1  3  2 -1</clus>
</clustering>
</event>
<event>
 6    0  0.4081161E+002  0.5850359E+02  0.7546771E-02  0.1404221E+00
          1   -1    0    0  504    0 -0.00000000000E+00  0.00000000000E+00  0.45419757107E+03  0.45419757107E+03  0.00000000000E+00 0. -1.
         21   -1    0    0  503  502  0.00000000000E+00 -0.00000000000E+00 -0.17427321769E+03  0.17427321769E+03  0.00000000000E+00 0.  1.
         21    1    1    2  503  501 -0.87433431958E+02 -0.76736844878E+01 -0.13302273406E+03  0.15936918848E+03  0.00000000000E+00 0.  1.
         21    1    1    2  504  505  0.17084429490E+02  0.51684908089E+02  0.97602836453E+02  0.11175652616E+03  0.00000000000E+00 0.  1.
         21    1    1    2  505  502  0.40633420986E+02  0.15352066286E+02  0.96108664649E+01  0.44487409393E+02  0.00000000000E+00 0.  1.
          1    1    1    2  501    0  0.29715581482E+02 -0.59363289887E+02  0.30573338452E+03  0.31285766473E+03  0.00000000000E+00 0. -1.
<scales pt_clust_3="49.99886" pt_clust_4="58.50359" pt_clust_5="43.43686" pt_clust_6="14000.00000"></scales>
<clustering>
<clus scale="   43.437">  2  5  1 -1</clus>
<clus scale="   49.999">  2  3  1 -1</clus>
<clus scale="   58.504">  2  4  1 -1</clus>
<clus scale="   43.437">  2  3  1 -1</clus>
</clustering>
</event>
<event>
 6    0  0.4081161E+002  0.9229481E+02  0.7546771E-02  0.1297388E+00
         21   -1    0    0  501  502  0.00000000000E+00  0.00000000000E+00  0.96773468128E+03  0.96773468128E+03  0.00000000000E+00 0.  1.
          2   -1    0    0  504    0 -0.00000000000E+00 -0.00000000000E+00 -0.33638384235E+04  0.33638384235E+04  0.00000000000E+00 0. -1.
         21    1    1    2  503  502 -0.88814177824E+02 -0.25822366530E+02  0.96029584214E+03  0.96473978731E+03  0.00000000000E+00 0.  1.
         21    1    1    2  504  505  0.20572921529E+01 -0.50399785100E+02 -0.57513316639E+03  0.57734091304E+03  0.00000000000E+00 0.  1.
         21    1    1    2  505  503  0.66980939645E+02 -0.61936673003E+01 -0.33127470181E+03  0.33803511038E+03  0.00000000000E+00 0. -1.
          2    1    1    2  501    0  0.19775946026E+02  0.82415818931E+02 -0.24499917161E+04  0.24514572940E+04  0.00000000000E+00 0. -1.
<scales pt_clust_3="14000.00000" pt_clust_4="50.44176" pt_clust_5="92.29481" pt_clust_6="43.79522"></scales>
<clustering>
<clus scale="   50.442">  2  4  1 -1</clus>
<clus scale="   43.795">  2  6  1 -1</clus>
<clus scale="   92.295">  2  5  1 -1</clus>
<clus scale="   92.295">  1  3  2 -1</clus>
</clustering>
</event>
<event>
 6    0  0.4081161E+002  0.1366723E+03  0.7546771E-02  0.1217878E+00
         -2   -1    0    0    0  501 -0.00000000000E+00  0.00000000000E+00  0.47086313390E+02  0.47086313390E+02  0.00000000000E+00 0.  1.
         21   -1    0    0  504  502  0.00000000000E+00 -0.00000000000E+00 -0.22976820475E+04  0.22976820475E+04  0.00000000000E+00 0.  1.
         21    1    1    2  503  505 -0.11697035541E+03  0.72070519259E+02 -0.10227181149E+04  0.10319053088E+04  0.00000000000E+00 0.  1.
         21    1    1    2  504  503  0.10093880943E+03 -0.20868137299E+02 -0.93688490690E+03  0.94253777175E+03  0.00000000000E+00 0.  1.
         21    1    1    2  505  501 -0.51688558683E+02  0.39295899337E+02 -0.23572917707E+03  0.24450791342E+03  0.00000000000E+00 0.  1.
         -2    1    1    2    0  502  0.67720104662E+02 -0.90498281297E+02 -0.55263535267E+02  0.12581736694E+03  0.00000000000E+00 0.  1.
<scales pt_clust_3="47.09340" pt_clust_4="103.07338" pt_clust_5="47.09340" pt_clust_6="118.26458"></scales>
<clustering>
<clus scale="   47.093">  3  5 -1 -1</clus>
<clus scale="  103.073">  2  4  1 -1</clus>
<clus scale="  118.265">  1  6  2 -1</clus>
<clus scale="  103.073">  2  3  1 -1</clus>
</clustering>
</event>
<event>
 6    0  0.4081161E+002  0.1532637E+03  0.7546771E-02  0.1196519E+00
          1   -1    0    0  503    0 -0.00000000000E+00  0.00000000000E+00  0.53608643127E+03  0.53608643127E+03  0.00000000000E+00 0. -1.
         21   -1    0    0  501  502  0.00000000000E+00 -0.00000000000E+00 -0.13163093848E+03  0.13163093848E+03  0.00000000000E+00 0. -1.
         21    1    1    2  503  505 -0.16988188229E+02 -0.30982564942E+02  0.35084179154E+02  0.49793749574E+02  0.00000000000E+00 0.  1.
         21    1    1    2  504  502  0.62324504864E+00  0.15703154667E+03 -0.48251876176E+02  0.16427884416E+03  0.00000000000E+00 0. -1.
         21    1    1    2  505  504  0.37154482462E+02  0.17813577168E+01  0.40916501826E+02  0.55297277727E+02  0.00000000000E+00 0. -1.
          1    1    1    2  501    0 -0.20789539281E+02 -0.12783033944E+03  0.37670668799E+03  0.39834749830E+03  0.00000000000E+00 0. -1.
<scales pt_clust_3="35.33437" pt_clust_4="153.26372" pt_clust_5="35.52053" pt_clust_6="14000.00000"></scales>
<clustering>
<clus scale="   35.334">  1  3  2 -1</clus>
<clus scale="   35.521">  1  5  2 -1</clus>
<clus scale="  153.264">  2  4  1 -1</clus>
<clus scale="  153.264">  2  3  1 -1</clus>
</clustering>
</event>
<event>
 6    0  0.4081161E+002  0.9488648E+02  0.7546771E-02  0.1291432E+00
          1   -1    0    0  505    0 -0.00000000000E+00  0.00000000000E+00  0.39898367400E+04  0.39898367400E+04  0.00000000000E+00 0. -1.
         21   -1    0    0  504  502  0.00000000000E+00 -0.00000000000E+00 -0.69637926830E+02  0.69637926830E+02  0.00000000000E+00 0. -1.
         21    1    1    2  503  501 -0.13691895717E+03 -0.25957194094E+02  0.48878889820E+02  0.14768115190E+03  0.00000000000E+00 0. -1.
         21    1    1    2  504  503  0.54509298415E+02 -0.13560187623E+02  0.27683358653E+02  0.62621966181E+02  0.00000000000E+00 0.  1.
         21    1    1    2  505  502 -0.55307656572E+02  0.35374037331E+02  0.95748750006E+03  0.95973567828E+03  0.00000000000E+00 0. -1.
          1    1    1    2  501    0  0.13771731532E+03  0.41433443855E+01  0.28861490646E+04  0.28894358704E+04  0.00000000000E+00 0. -1.
<scales pt_clust_3="14000.00000" pt_clust_4="56.17065" pt_clust_5="64.50684" pt_clust_6="94.88648"></scales>
<clustering>
<clus scale="   56.171">  2  4  1 -1</clus>
<clus scale="   64.507">  1  5  2 -1</clus>
<clus scale="   94.886">  1  6  2 -1</clus>
<clus scale="   56.171">  2  3  1 -1</clus>
</clustering>
</event>
<event>
 6    0  0.4081161E+002  0.1342685E+03  0.7546771E-02  0.1221256E+00
          2   -1    0    0  504    0 -0.00000000000E+00  0.00000000000E+00  0.16553083903E+04  0.16553083903E+04  0.00000000000E+00 0.  1.
         21   -1    0    0  503  502  0.00000000000E+00 -0.00000000000E+00 -0.77211887971E+02  0.77211887971E+02  0.00000000000E+00 0.  1.
         21    1    1    2  503  501  0.30834071876E+02 -0.27112461747E+02  0.46638759148E+01  0.41322842460E+02  0.00000000000E+00 0.  1.
         21    1    1    2  504  505 -0.36471263906E+02 -0.29156539414E+02  0.82685785069E+03  0.82817520015E+03  0.00000000000E+00 0. -1.
         21    1    1    2  505  502 -0.27927987886E+02  0.16295979512E+03  0.73877773786E+02  0.18109056517E+03  0.00000000000E+00 0.  1.
          2    1    1    2  501    0  0.33565179916E+02 -0.10669079396E+03  0.67269700195E+03  0.68193167052E+03  0.00000000000E+00 0.  1.
<scales pt_clust_3="41.05881" pt_clust_4="46.61539" pt_clust_5="14000.00000" pt_clust_6="134.26853"></scales>
<clustering>
<clus scale="   41.059">  2  3  1 -1</clus>
<clus scale="   46.615">  1  4  2 -1</clus>
<clus scale="  134.269">  1  6  2 -1</clus>
<clus scale="   41.059">  2  3  1 -1</clus>
</clustering>
</event>
<event>
 6    0  0.4081161E+002  0.1111737E+03  0.7546771E-02  0.1258412E+00
         21   -1    0    0  503  502  0.00000000000E+00  0.00000000000E+00  0.69243929568E+02  0.69243929568E+02  0.00000000000E+00 0. -1.
          2   -1    0    0  504    0 -0.00000000000E+00 -0.00000000000E+00 -0.20198519825E+04  0.20198519825E+04  0.00000000000E+00 0. -1.
         21    1    1    2  503  505 -0.86539358021E+01  0.66831081117E+02  0.39981236106E+02  0.78356769004E+02  0.00000000000E+00 0. -1.
         21    1    1    2  504  502 -0.10692245057E+02 -0.45169118262E+02 -0.16424435895E+03  0.17067742321E+03  0.00000000000E+00 0. -1.
         21    1    1    2  505  501 -0.96541319314E+02  0.23251182029E+02 -0.74116235353E+03  0.74778504806E+03  0.00000000000E+00 0.  1.
          2    1    1    2  501    0  0.11588750017E+03 -0.44913144885E+02 -0.10851825766E+04  0.10922766718E+04  0.00000000000E+00 0. -1.
<scales pt_clust_3="66.93948" pt_clust_4="46.41738" pt_clust_5="111.17370" pt_clust_6="14000.00000"></scales>
<clustering>
<clus scale="   46.417">  2  4  1 -1</clus>
<clus scale="   66.939">  1  3  2 -1</clus>
<clus scale="  111.174">  1  5  2 -1</clus>
<clus scale="   66.939">  1  3  2 -1</clus>
</clustering>
</event>
<event>
 6    0  0.4081161E+002  0.1083812E+03  0.7546771E-02  0.1263597E+00
          2   -1    0    0  503    0 -0.00000000000E+00  0.00000000000E+00  0.15840123442E+04  0.15840123442E+04  0.00000000000E+00 0.  1.
         21   -1    0    0  501  502  0.00000000000E+00 -0.00000000000E+00 -0.56499360790E+02  0.56499360790E+02  0.00000000000E+00 0.  1.
         21    1    1    2  503  504 -0.48919175160E+02  0.75640385348E+02  0.57196534508E+03  0.57901546574E+03  0.00000000000E+00 0.  1.
         21    1    1    2  504  505  0.60350870774E+02 -0.11291382906E+03  0.51704013287E+03  0.53265585456E+03  0.00000000000E+00 0.  1.
         21    1    1    2  505  502  0.17529030914E+02  0.27074217828E+02 -0.38851608386E+02  0.50494828151E+02  0.00000000000E+00 0.  1.
          2    1    1    2  501    0 -0.28960726527E+02  0.10199225887E+02  0.47735911387E+03  0.47834555657E+03  0.00000000000E+00 0.  1.
<scales pt_clust_3="108.38124" pt_clust_4="14000.00000" pt_clust_5="32.21598" pt_clust_6="30.70420"></scales>
<clustering>
<clus scale="   30.704">  1  6  2 -1</clus>
<clus scale="   32.216">  2  5  1 -1</clus>
<clus scale="  108.381">  1  3  2 -1</clus>
<clus scale="   32.216">  2  3  1 -1</clus>
</clustering>
</event>
<event>
 6    0  0.4081161E+002  0.9837366E+02  0.7546771E-02  0.1283754E+00
          1   -1    0    0  504    0 -0.00000000000E+00  0.00000000000E+00  0.23962178540E+03  0.23962178540E+03  0.00000000000E+00 0. -1.
         21   -1    0    0  501  502  0.00000000000E+00 -0.00000000000E+00 -0.19872488303E+03  0.19872488303E+03  0.00000000000E+00 0. -1.
         21    1    1    2  503  502 -0.15532426081E+02 -0.32129096686E+02 -0.73836797015E+02  0.82008583132E+02  0.00000000000E+00 0. -1.
         21    1    1    2  504  505 -0.24825533584E-01 -0.43642648582E+02  0.12655982228E+03  0.13387333568E+03  0.00000000000E+00 0. -1.
         21    1    1    2  505  503  0.99869497011E+01  0.14069819939E+03 -0.46665558530E+02  0.14857118438E+03  0.00000000000E+00 0. -1.
          1    1    1    2  501    0  0.55703019138E+01 -0.64926454122E+02  0.34839435636E+02  0.73893565238E+02  0.00000000000E+00 0. -1.
<scales pt_clust_3="35.68662" pt_clust_4="44.61796" pt_clust_5="98.37366" pt_clust_6="14000.00000"></scales>
<clustering>
<clus scale="   35.687">  2  3  1 -1</clus>
<clus scale="   44.618">  1  4  2 -1</clus>
<clus scale="   98.374">  2  5  1 -1</clus>
<clus scale="   35.687">  2  3  1 -1</clus>
</clustering>
</event>
<event>
 6    0  0.4081161E+002  0.7988347E+02  0.7546771E-02  0.1329382E+00
         21   -1    0    0  504  502  0.00000000000E+00  0.00000000000E+00  0.88138276552E+03  0.88138276552E+03  0.00000000000E+00 0. -1.
         -4   -1    0    0    0  501 -0.00000000000E+00 -0.00000000000E+00 -0.28630053298E+03  0.28630053298E+03  0.00000000000E+00 0.  1.
         21    1    1    2  503  502 -0.50306087275E+02 -0.63241154860E+02  0.81521202444E+03  0.81920741627E+03  0.00000000000E+00 0. -1.
         21    1    1    2  504  501  0.17266876779E+02 -0.31826888605E+02 -0.61815260608E+01  0.36732916252E+02  0.00000000000E+00 0. -1.
         21    1    1    2  505  503  0.83785873973E+02  0.56652788847E+01 -0.11594883282E+02  0.84773872040E+02  0.00000000000E+00 0.  1.
         -4    1    1    2    0  505 -0.50746663478E+02  0.89402764580E+02 -0.20235338256E+03  0.22696909394E+03  0.00000000000E+00 0.  1.
<scales pt_clust_3="79.88347" pt_clust_4="36.20906" pt_clust_5="14000.00000" pt_clust_6="73.46049"></scales>
<clustering>
<clus scale="   36.209">  2  4  1 -1</clus>
<clus scale="   73.460">  2  6  1 -1</clus>
<clus scale="   79.883">  1  3  2 -1</clus>
<clus scale="   79.883">  1  3  2 -1</clus>
</clustering>
</event>
<event>
 6    0  0.4081161E+002  0.1581096E+03  0.7546771E-02  0.1190848E+00
          1   -1    0    0  503    0 -0.00000000000E+00  0.00000000000E+00  0.51604792382E+04  0.51604792382E+04  0.00000000000E+00 0.  1.
         21   -1    0    0  504  502  0.00000000000E+00 -0.00000000000E+00 -0.37648678716E+03  0.37648678716E+03  0.00000000000E+00 0. -1.
         21    1    1    2  503  505 -0.46696412758E+02 -0.18355438201E+02  0.50047430810E+03  0.50298311119E+03  0.00000000000E+00 0. -1.
         21    1    1    2  504  501  0.17525203733E+03 -0.11577146203E+00 -0.30292430847E+03  0.34996632217E+03  0.00000000000E+00 0. -1.
         21    1    1    2  505  502 -0.21070963570E+02  0.36230768997E+02 -0.39024137098E+02  0.57267245473E+02  0.00000000000E+00 0. -1.
          1    1    1    2  501    0 -0.10748466100E+03 -0.17759559333E+02  0.46254665885E+04  0.46267493465E+04  0.00000000000E+00 0.  1.
<scales pt_clust_3="50.19900" pt_clust_4="158.10960" pt_clust_5="41.91246" pt_clust_6="14000.00000"></scales>
<clustering>
<clus scale="   41.912">  2  5  1 -1</clus>
<clus scale="   50.199">  1  3  2 -1</clus>
<clus scale="  158.110">  2  4  1 -1</clus>
<clus scale="   41.912">  2  3  1 -1</clus>
</clustering>
</event>
<event>
 6    0  0.4081161E+002  0.1749275E+03  0.7546771E-02  0.1172805E+00
         -2   -1    0    0    0  501 -0.00000000000E+00  0.00000000000E+00  0.94718319045E+03  0.94718319045E+03  0.00000000000E+00 0. -1.
         21   -1    0    0  503  502  0.00000000000E+00 -0.00000000000E+00 -0.97813983587E+03  0.97813983587E+03  0.00000000000E+00 0.  1.
         21    1    1    2  503  505 -0.11562065709E+02  0.56033693823E+02 -0.40128628126E+03  0.40534446553E+03  0.00000000000E+00 0.  1.
         21    1    1    2  504  502  0.15764181911E+03  0.44145781072E+02 -0.55166870375E+03  0.57544604596E+03  0.00000000000E+00 0.  1.
         21    1    1    2  505  501 -0.20150444433E+02 -0.70651667311E+02  0.40426168112E+03  0.41088344494E+03  0.00000000000E+00 0. -1.
         -2    1    1    2    0  504 -0.12592930897E+03 -0.29527807584E+02  0.51773665846E+03  0.53364906989E+03  0.00000000000E+00 0. -1.
<scales pt_clust_3="57.21413" pt_clust_4="174.92747" pt_clust_5="73.17709" pt_clust_6="14000.00000"></scales>
<clustering>
<clus scale="   57.214">  2  3  1 -1</clus>
<clus scale="   73.177">  1  5  2 -1</clus>
<clus scale="  174.927">  2  4  1 -1</clus>
<clus scale="   57.214">  2  3  1 -1</clus>
</clustering>
</event>
<event>
 6    0  0.4081161E+002  0.8208915E+02  0.7546771E-02  0.1323225E+00
         21   -1    0    0  504  502  0.00000000000E+00  0.00000000000E+00  0.44132238824E+03  0.44132238824E+03  0.00000000000E+00 0. -1.
          2   -1    0    0  503    0 -0.00000000000E+00 -0.00000000000E+00 -0.73990130235E+02  0.73990130235E+02  0.00000000000E+00 0.  1.
         21    1    1    2  503  505 -0.47634484770E+02 -0.13489266261E+02  0.42664018825E+02  0.65354593915E+02  0.00000000000E+00 0. -1.
         21    1    1    2  504  501  0.11267228522E+03  0.82666512709E+02  0.16402002446E+03  0.21547938325E+03  0.00000000000E+00 0. -1.
         21    1    1    2  505  502 -0.33716927375E+02 -0.29634532825E+02  0.17609170671E+03  0.18172321233E+03  0.00000000000E+00 0. -1.
          2    1    1    2  501    0 -0.31320873076E+02 -0.39542713623E+02 -0.15443491993E+02  0.52755328981E+02  0.00000000000E+00 0.  1.
<scales pt_clust_3="14000.00000" pt_clust_4="82.08915" pt_clust_5="44.88916" pt_clust_6="53.58714"></scales>
<clustering>
<clus scale="   44.889">  1  5  2 -1</clus>
<clus scale="   53.587">  2  6  1 -1</clus>
<clus scale="   82.089">  1  4  2 -1</clus>
<clus scale="   44.889">  1  3  2 -1</clus>
</clustering>
</event>
<event>
 6    0  0.4081161E+002  0.1186572E+03  0.7546771E-02  0.1245329E+00
         21   -1    0    0  505  502  0.00000000000E+00  0.00000000000E+00  0.80162120888E+03  0.80162120888E+03  0.00000000000E+00 0.  1.
         -1   -1    0    0    0  501 -0.00000000000E+00 -0.00000000000E+00 -0.78182433756E+02  0.78182433756E+02  0.00000000000E+00 0.  1.
         21    1    1    2  503  502  0.50561101279E+02 -0.48567748655E+02  0.35498097482E+02  0.78583497611E+02  0.00000000000E+00 0.  1.
         21    1    1    2  504  501 -0.32405825742E+02  0.89271928767E+02  0.89743313242E+02  0.13066551603E+03  0.00000000000E+00 0.  1.
         21    1    1    2  505  504 -0.59533424516E+02 -0.53130419653E+01  0.61157309564E+03  0.61448686590E+03  0.00000000000E+00 0.  1.
         -1    1    1    2    0  503  0.41378148979E+02 -0.35391138147E+02 -0.13375731242E+02  0.56067763095E+02  0.00000000000E+00 0.  1.
<scales pt_clust_3="40.76419" pt_clust_4="109.26983" pt_clust_5="59.77003" pt_clust_6="40.76419"></scales>
<clustering>
<clus scale="   40.764">  3  6 -1 -1</clus>
<clus scale="   59.770">  1  5  2 -1</clus>
<clus scale="  109.270">  1  4  2 -1</clus>
<clus scale="   59.770">  1  3  2 -1</clus>
</clustering>
</event>
<event>
 6    0  0.4081161E+002  0.1235575E+03  0.7546771E-02  0.1237341E+00
          1   -1    0    0  503    0 -0.00000000000E+00  0.00000000000E+00  0.29199319225E+04  0.29199319225E+04  0.00000000000E+00 0.  1.
         21   -1    0    0  505  502  0.00000000000E+00 -0.00000000000E+00 -0.18091266084E+04  0.18091266084E+04  0.00000000000E+00 0. -1.
         21    1    1    2  503  504  0.48335475021E+02  0.25132831334E+02  0.65900103175E+02  0.85503221897E+02  0.00000000000E+00 0. -1.
         21    1    1    2  504  502 -0.30118848292E+02  0.49466365774E+01 -0.15686215702E+04  0.15689184953E+04  0.00000000000E+00 0. -1.
         21    1    1    2  505  501  0.29370347594E+02  0.84167257581E+02 -0.22053677861E+03  0.23787226674E+03  0.00000000000E+00 0.  1.
          1    1    1    2  501    0 -0.47586974323E+02 -0.11424672549E+03  0.28340635597E+04  0.28367645470E+04  0.00000000000E+00 0.  1.
<scales pt_clust_3="53.48769" pt_clust_4="30.52236" pt_clust_5="123.55753" pt_clust_6="14000.00000"></scales>
<clustering>
<clus scale="   30.522">  2  4  1 -1</clus>
<clus scale="   53.488">  2  3  1 -1</clus>
<clus scale="  123.558">  2  5  1 -1</clus>
<clus scale="   30.522">  2  3  1 -1</clus>
</clustering>
</event>
<event>
 6    0  0.4081161E+002  0.1460554E+03  0.7546771E-02  0.1205406E+00
          1   -1    0    0  505    0 -0.00000000000E+00  0.00000000000E+00  0.58594298009E+03  0.58594298009E+03  0.00000000000E+00 0.  1.
         21   -1    0    0  504  502  0.00000000000E+00 -0.00000000000E+00 -0.56362886268E+02  0.56362886268E+02  0.00000000000E+00 0. -1.
         21    1    1    2  503  502 -0.45162035098E+02 -0.47783762219E+01  0.49686746285E+02  0.67314300486E+02  0.00000000000E+00 0.  1.
         21    1    1    2  504  501  0.35077891300E+02 -0.69052759344E+02  0.15654006931E+03  0.17465261329E+03  0.00000000000E+00 0. -1.
         21    1    1    2  505  503 -0.40967921233E+02  0.12377947201E+03  0.95673005369E+02  0.16171905335E+03  0.00000000000E+00 0. -1.
          1    1    1    2  501    0  0.51052065031E+02 -0.49948336442E+02  0.22768027286E+03  0.23861989923E+03  0.00000000000E+00 0.  1.
<scales pt_clust_3="45.41412" pt_clust_4="38.28252" pt_clust_5="140.50943" pt_clust_6="38.28252"></scales>
<clustering>
<clus scale="   38.283">  4  6 -1 -1</clus>
<clus scale="   45.414">  2  3  1 -1</clus>
<clus scale="  140.509">  2  5  1 -1</clus>
<clus scale="   45.414">  2  3  1 -1</clus>
</clustering>
</event>
<event>
 6    0  0.4081161E+002  0.1640804E+03  0.7546771E-02  0.1184166E+00
          2   -1    0    0  504    0 -0.00000000000E+00  0.00000000000E+00  0.38673936474E+04  0.38673936474E+04  0.00000000000E+00 0.  1.
         21   -1    0    0  503  502  0.00000000000E+00 -0.00000000000E+00 -0.29381379191E+02  0.29381379191E+02  0.00000000000E+00 0.  1.
         21    1    1    2  503  501 -0.49689824017E+02  0.63763191596E+02  0.15632169911E+04  0.15653057799E+04  0.00000000000E+00 0.  1.
         21    1    1    2  504  505  0.15176590032E+03 -0.14152850495E+03  0.51567978475E+03  0.55586765207E+03  0.00000000000E+00 0.  1.
         21    1    1    2  505  502 -0.28181250455E+02  0.51185611582E+02  0.10947002038E+03  0.12408801341E+03  0.00000000000E+00 0.  1.
          2    1    1    2  501    0 -0.73894825844E+02  0.26579701774E+02  0.16496454719E+04  0.16515135812E+04  0.00000000000E+00 0.  1.
<scales pt_clust_3="44.15076" pt_clust_4="157.84731" pt_clust_5="58.43073" pt_clust_6="44.15076"></scales>
<clustering>
<clus scale="   44.151">  3  6 -1 -1</clus>
<clus scale="   58.431">  2  5  1 -1</clus>
<clus scale="  157.847">  2  4  1 -1</clus>
<clus scale="   58.431">  2  3  1 -1</clus>
</clustering>
</event>
<event>
 6    0  0.4081161E+002  0.1663172E+03  0.7546771E-02  0.1181744E+00
         21   -1    0    0  505  502  0.00000000000E+00  0.00000000000E+00  0.85087071832E+02  0.85087071832E+02  0.00000000000E+00 0. -1.
          1   -1    0    0  504    0 -0.00000000000E+00 -0.00000000000E+00 -0.10695811499E+04  0.10695811499E+04  0.00000000000E+00 0. -1.
         21    1    1    2  503  502 -0.78059294131E+02 -0.89613108378E+02 -0.16936955661E+03  0.20690531481E+03  0.00000000000E+00 0. -1.
         21    1    1    2  504  503  0.24018750014E+03 -0.80810754138E+01 -0.35062257279E+03  0.42507826050E+03  0.00000000000E+00 0. -1.
         21    1    1    2  505  501 -0.28173592318E+02  0.37482503348E+02 -0.14132185779E+02  0.48973544248E+02  0.00000000000E+00 0. -1.
          1    1    1    2  501    0 -0.13395461369E+03  0.60211680444E+02 -0.45036976292E+03  0.47371110219E+03  0.00000000000E+00 0. -1.
<scales pt_clust_3="116.83146" pt_clust_4="14000.00000" pt_clust_5="46.89018" pt_clust_6="166.31718"></scales>
<clustering>
<clus scale="   46.890">  1  5  2 -1</clus>
<clus scale="  116.831">  1  3  2 -1</clus>
<clus scale="  166.317">  2  6  1 -1</clus>
<clus scale="   46.890">  1  3  2 -1</clus>
</clustering>
</event>
<event>
 6    0  0.4081161E+002  0.8862946E+02  0.7546771E-02  0.1306205E+00
         21   -1    0    0  505  502  0.00000000000E+00  0.00000000000E+00  0.36018860249E+03  0.36018860249E+03  0.00000000000E+00 0. -1.
          2   -1    0    0  504    0 -0.00000000000E+00 -0.00000000000E+00 -0.12697252198E+04  0.12697252198E+04  0.00000000000E+00 0. -1.
         21    1    1    2  503  502 -0.33332230133E+02  0.33545643352E+02  0.54416861871E+02  0.72093984558E+02  0.00000000000E+00 0. -1.
         21    1    1    2  504  503 -0.13447513396E+02 -0.10818326967E+03  0.28259185252E+03  0.30289042667E+03  0.00000000000E+00 0. -1.
         21    1    1    2  505  501  0.78324417317E+02  0.79165298058E+02 -0.88421149114E+03  0.89119684684E+03  0.00000000000E+00 0. -1.
          2    1    1    2  501    0 -0.31544673788E+02 -0.45276717364E+01 -0.36233384060E+03  0.36373256425E+03  0.00000000000E+00 0. -1.
<scales pt_clust_3="47.47613" pt_clust_4="88.62946" pt_clust_5="14000.00000" pt_clust_6="31.86795"></scales>
<clustering>
<clus scale="   31.868">  2  6  1 -1</clus>
<clus scale="   47.476">  1  3  2 -1</clus>
<clus scale="   88.629">  1  4  2 -1</clus>
<clus scale="   47.476">  1  3  2 -1</clus>
</clustering>
</event>
<event>
 6    0  0.4081161E+002  0.1952307E+03  0.7546771E-02  0.1153826E+00
         21   -1    0    0  503  502  0.00000000000E+00  0.00000000000E+00  0.34775876864E+02  0.34775876864E+02  0.00000000000E+00 0. -1.
          2   -1    0    0  504    0 -0.00000000000E+00 -0.00000000000E+00 -0.39824574347E+04  0.39824574347E+04  0.00000000000E+00 0. -1.
         21    1    1    2  503  501  0.39638046808E+02  0.56504255455E+02 -0.59242328235E+02  0.90959106713E+02  0.00000000000E+00 0. -1.
         21    1    1    2  504  505  0.22142679541E+02 -0.22380797586E+03 -0.10939364033E+04  0.11168156351E+04  0.00000000000E+00 0. -1.
         21    1    1    2  505  502  0.61579559644E+02  0.16748796270E+02 -0.26898988716E+03  0.27645636859E+03  0.00000000000E+00 0. -1.
          2    1    1    2  501    0 -0.12336028599E+03  0.15055492414E+03 -0.25255129391E+04  0.25330022011E+04  0.00000000000E+00 0. -1.
<scales pt_clust_3="96.37209" pt_clust_4="14000.00000" pt_clust_5="63.81665" pt_clust_6="195.23073"></scales>
<clustering>
<clus scale="   63.817">  1  5  2 -1</clus>
<clus scale="   96.372">  1  3  2 -1</clus>
<clus scale="  195.231">  2  6  1 -1</clus>
<clus scale="   63.817">  1  3  2 -1</clus>
</clustering>
</event>
<event>
 6    0  0.4081161E+002  0.1346484E+03  0.7546771E-02  0.1220717E+00
         21   -1    0    0  503  502  0.00000000000E+00  0.00000000000E+00  0.35880294297E+03  0.35880294297E+03  0.00000000000E+00 0.  1.
         -1   -1    0    0    0  501 -0.00000000000E+00 -0.00000000000E+00 -0.20421896645E+03  0.20421896645E+03  0.00000000000E+00 0.  1.
         21    1    1    2  503  501 -0.15090371713E+03 -0.56002065415E+02  0.27113001860E+03  0.31530881713E+03  0.00000000000E+00 0.  1.
         21    1    1    2  504  505  0.48759206055E+02  0.18331220781E+02 -0.91640987113E+02  0.10541140522E+03  0.00000000000E+00 0.  1.
         21    1    1    2  505  502  0.90434829932E+02  0.37810439564E+01  0.11455417065E+02  0.91235855552E+02  0.00000000000E+00 0. -1.
         -1    1    1    2    0  504  0.11709681142E+02  0.33889800677E+02 -0.36360472028E+02  0.51065831517E+02  0.00000000000E+00 0.  1.
<scales pt_clust_3="14000.00000" pt_clust_4="34.38045" pt_clust_5="134.64839" pt_clust_6="90.00418"></scales>
<clustering>
<clus scale="   34.380">  4  6 -1 -1</clus>
<clus scale="   90.004">  2  4  1 -1</clus>
<clus scale="  134.648">  2  5  1 -1</clus>
<clus scale="  134.648">  1  3  2 -1</clus>
</clustering>
</event>
<event>
 6    0  0.4081161E+002  0.1004591E+03  0.7546771E-02  0.1279334E+00
         -2   -1    0    0    0  501 -0.00000000000E+00  0.00000000000E+00  0.76524983153E+03  0.76524983153E+03  0.00000000000E+00 0. -1.
         21   -1    0    0  504  502  0.00000000000E+00 -0.00000000000E+00 -0.26322818129E+03  0.26322818129E+03  0.00000000000E+00 0. -1.
         21    1    1    2  503  502 -0.13283155060E+03  0.40770592566E+02 -0.20471556762E+03  0.24741650244E+03  0.00000000000E+00 0. -1.
         21    1    1    2  504  505  0.54817366307E+02  0.20067671184E+02  0.48383669216E+01  0.58575292317E+02  0.00000000000E+00 0. -1.
         21    1    1    2  505  501  0.58454565723E+02 -0.87974337014E+02  0.27994162220E+03  0.29920516718E+03  0.00000000000E+00 0. -1.
         -2    1    1    2    0  503  0.19559618569E+02  0.27136073264E+02  0.42195722874E+03  0.42328105088E+03  0.00000000000E+00 0. -1.
<scales pt_clust_3="14000.00000" pt_clust_4="60.96282" pt_clust_5="100.45906" pt_clust_6="33.45064"></scales>
<clustering>
<clus scale="   33.451">  1  6  2 -1</clus>
<clus scale="   60.963">  2  4  1 -1</clus>
<clus scale="  100.459">  1  5  2 -1</clus>
<clus scale="   60.963">  2  3  1 -1</clus>
</clustering>
</event>
<event>
 6    0  0.4081161E+002  0.2328203E+03  0.7546771E-02  0.1124670E+00
         21   -1    0    0  503  502  0.00000000000E+00  0.00000000000E+00  0.16551250623E+04  0.16551250623E+04  0.00000000000E+00 0. -1.
         -1   -1    0    0    0  501 -0.00000000000E+00 -0.00000000000E+00 -0.46043312952E+02  0.46043312952E+02  0.00000000000E+00 0. -1.
         21    1    1    2  503  505  0.22791746729E+02  0.28331757707E+02  0.48651487674E+03  0.48787178387E+03  0.00000000000E+00 0. -1.
         21    1    1    2  504  502  0.41308979988E+02 -0.22308502085E+02  0.16822843859E+03  0.17465654480E+03  0.00000000000E+00 0. -1.
         21    1    1    2  505  501 -0.15357312102E+03  0.15944871288E+03  0.49298089676E+03  0.54040610665E+03  0.00000000000E+00 0. -1.
         -1    1    1    2    0  504  0.89472394303E+02 -0.16547196850E+03  0.46135753727E+03  0.49823393993E+03  0.00000000000E+00 0. -1.
<scales pt_clust_3="36.36141" pt_clust_4="31.74484" pt_clust_5="223.98089" pt_clust_6="31.74484"></scales>
<clustering>
<clus scale="   31.745">  4  6 -1 -1</clus>
<clus scale="   36.361">  1  3  2 -1</clus>
<clus scale="  223.981">  2  5  1 -1</clus>
<clus scale="   36.361">  1  3  2 -1</clus>
</clustering>
</event>
<event>
 6    0  0.4081161E+002  0.1001909E+03  0.7546771E-02  0.1279895E+00
          2   -1    0    0  503    0 -0.00000000000E+00  0.00000000000E+00  0.24553001436E+04  0.24553001436E+04  0.00000000000E+00 0. -1.
         21   -1    0    0  505  502  0.00000000000E+00 -0.00000000000E+00 -0.38873704703E+02  0.38873704703E+02  0.00000000000E+00 0.  1.
         21    1    1    2  503  502 -0.31782811957E+02 -0.19182799595E+02  0.37563031300E+03  0.37746027471E+03  0.00000000000E+00 0. -1.
         21    1    1    2  504  501  0.38101775967E+02 -0.58540558287E+02  0.33359994058E+03  0.34083377569E+03  0.00000000000E+00 0.  1.
         21    1    1    2  505  504 -0.72708799695E+02  0.80142227117E+02  0.53254206508E+02  0.12060413190E+03  0.00000000000E+00 0.  1.
          2    1    1    2  501    0  0.66389835684E+02 -0.24188692346E+01  0.16539419788E+04  0.16552756660E+04  0.00000000000E+00 0. -1.
<scales pt_clust_3="37.12313" pt_clust_4="100.19091" pt_clust_5="14000.00000" pt_clust_6="44.73701"></scales>
<clustering>
<clus scale="   37.123">  1  3  2 -1</clus>
<clus scale="   44.737">  1  6  2 -1</clus>
<clus scale="  100.191">  1  4  2 -1</clus>
<clus scale="  100.191">  2  3  1 -1</clus>
</clustering>
</event>
<event>
 6    0  0.4081161E+002  0.1336157E+03  0.7546771E-02  0.1222187E+00
         -1   -1    0    0    0  501 -0.00000000000E+00  0.00000000000E+00  0.12060105193E+04  0.12060105193E+04  0.00000000000E+00 0. -1.
         21   -1    0    0  501  502  0.00000000000E+00 -0.00000000000E+00 -0.10818124415E+03  0.10818124415E+03  0.00000000000E+00 0.  1.
         21    1    1    2  503  502  0.38598857956E+02 -0.44708721517E+02 -0.78629615292E+02  0.98343062877E+02  0.00000000000E+00 0.  1.
         21    1    1    2  504  505 -0.57844819648E+02  0.21920023033E+02  0.35459593334E+03  0.35995108905E+03  0.00000000000E+00 0. -1.
         21    1    1    2  505  503  0.87282717049E+02  0.56717399277E+02  0.16803041444E+03  0.19765969810E+03  0.00000000000E+00 0.  1.
         -1    1    1    2    0  504 -0.68036755357E+02 -0.33928700793E+02  0.65383254266E+03  0.65823791342E+03  0.00000000000E+00 0. -1.
<scales pt_clust_3="59.06557" pt_clust_4="55.53447" pt_clust_5="118.58614" pt_clust_6="55.53447"></scales>
<clustering>
<clus scale="   55.534">  4  6 -1 -1</clus>
<clus scale="   59.066">  2  3  1 -1</clus>
<clus scale="  118.586">  2  5  1 -1</clus>
<clus scale="   59.066">  2  3  1 -1</clus>
</clustering>
</event>
<event>
 6    0  0.4081161E+002  0.8332983E+02  0.7546771E-02  0.1319859E+00
          2   -1    0    0  505    0 -0.00000000000E+00  0.00000000000E+00  0.13080366954E+04  0.13080366954E+04  0.00000000000E+00 0. -1.
         21   -1    0    0  503  502  0.00000000000E+00 -0.00000000000E+00 -0.97023972790E+02  0.97023972790E+02  0.00000000000E+00 0.  1.
         21    1    1    2  503  504 -0.38350435564E+02  0.88868744876E+02  0.65817740025E+02  0.11704864214E+03  0.00000000000E+00 0.  1.
         21    1    1    2  504  501 -0.54106944112E+02 -0.47138610240E+02  0.51997455107E+03  0.52490298508E+03  0.00000000000E+00 0. -1.
         21    1    1    2  505  502  0.91960264938E+02 -0.77743769934E+01 -0.37429394495E+02  0.99589612096E+02  0.00000000000E+00 0.  1.
          2    1    1    2  501    0  0.49711473849E+00 -0.33955757642E+02  0.66264982604E+03  0.66351942891E+03  0.00000000000E+00 0. -1.
<scales pt_clust_3="14000.00000" pt_clust_4="91.95601" pt_clust_5="83.32983" pt_clust_6="33.95940"></scales>
<clustering>
<clus scale="   33.959">  1  6  2 -1</clus>
<clus scale="   91.956">  1  4  2 -1</clus>
<clus scale="   83.330">  2  5  1 -1</clus>
<clus scale="   83.330">  2  3  1 -1</clus>
</clustering>
</event>
<event>
 6    0  0.4081161E+002  0.1357006E+03  0.7546771E-02  0.1219234E+00
         -1   -1    0    0    0  501 -0.00000000000E+00  0.00000000000E+00  0.21806389883E+03  0.21806389883E+03  0.00000000000E+00 0. -1.
         21   -1    0    0  505  502  0.00000000000E+00 -0.00000000000E+00 -0.87940259932E+03  0.87940259932E+03  0.00000000000E+00 0. -1.
         21    1    1    2  503  501  0.28409387726E+02 -0.25736163150E+02  0.12932131093E+02  0.40455944177E+02  0.00000000000E+00 0. -1.
         21    1    1    2  504  502 -0.15546533464E+03  0.22110004026E+02  0.71518533711E+02  0.17254919072E+03  0.00000000000E+00 0. -1.
         21    1    1    2  505  503  0.12861690966E+03  0.42416705133E+02 -0.80354103037E+03  0.81487402328E+03  0.00000000000E+00 0. -1.
         -1    1    1    2    0  504 -0.15609627462E+01 -0.38790546009E+02  0.57751665078E+02  0.69587339967E+02  0.00000000000E+00 0. -1.
<scales pt_clust_3="38.33332" pt_clust_4="135.70063" pt_clust_5="14000.00000" pt_clust_6="48.00604"></scales>
<clustering>
<clus scale="   38.333">  1  3  2 -1</clus>
<clus scale="   48.006">  1  6  2 -1</clus>
<clus scale="  135.701">  1  4  2 -1</clus>
<clus scale="  135.701">  2  3  1 -1</clus>
</clustering>
</event>
<event>
 6    0  0.4081161E+002  0.7665889E+02  0.7546771E-02  0.1338810E+00
         21   -1    0    0  504  502  0.00000000000E+00  0.00000000000E+00  0.22215714622E+03  0.22215714622E+03  0.00000000000E+00 0. -1.
         -1   -1    0    0    0  501 -0.00000000000E+00 -0.00000000000E+00 -0.43219083514E+03  0.43219083514E+03  0.00000000000E+00 0.  1.
         21    1    1    2  503  501 -0.29375072844E+02 -0.30500126055E+02 -0.10347820563E+03  0.11180738632E+03  0.00000000000E+00 0.  1.
         21    1    1    2  504  503  0.31297482973E+01  0.12284541043E+03  0.12034729649E+03  0.17200076152E+03  0.00000000000E+00 0. -1.
         21    1    1    2  505  502  0.19252981088E+02 -0.48205843307E+02  0.60480941811E+02  0.79702101178E+02  0.00000000000E+00 0. -1.
         -1    1    1    2    0  505  0.69923434589E+01 -0.44139441070E+02 -0.28738372159E+03  0.29083773235E+03  0.00000000000E+00 0.  1.
<scales pt_clust_3="42.34563" pt_clust_4="76.65889" pt_clust_5="52.43696" pt_clust_6="14000.00000"></scales>
<clustering>
<clus scale="   42.346">  2  3  1 -1</clus>
<clus scale="   52.437">  1  5  2 -1</clus>
<clus scale="   76.659">  1  4  2 -1</clus>
<clus scale="   52.437">  1  3  2 -1</clus>
</clustering>
</event>
<event>
 6    0  0.4081161E+002  0.1299382E+03  0.7546771E-02  0.1227547E+00
         21   -1    0    0  503  502  0.00000000000E+00  0.00000000000E+00  0.58081109368E+03  0.58081109368E+03  0.00000000000E+00 0. -1.
          1   -1    0    0  504    0 -0.00000000000E+00 -0.00000000000E+00 -0.17288080050E+03  0.17288080050E+03  0.00000000000E+00 0. -1.
         21    1    1    2  503  505 -0.17986889602E+02  0.24920533511E+02  0.77895224455E+02  0.83739042154E+02  0.00000000000E+00 0.  1.
         21    1    1    2  504  502  0.86482939894E+02  0.10530242753E+03  0.42537965338E+03  0.44667185902E+03  0.00000000000E+00 0. -1.
         21    1    1    2  505  501  0.24332576120E+01 -0.95845592959E+02  0.46100472300E+01  0.95987243776E+02  0.00000000000E+00 0. -1.
          1    1    1    2  501    0 -0.70929307904E+02 -0.34377368080E+02 -0.99954631889E+02  0.12729374923E+03  0.00000000000E+00 0. -1.
<scales pt_clust_3="30.73371" pt_clust_4="14000.00000" pt_clust_5="129.93825" pt_clust_6="78.97083"></scales>
<clustering>
<clus scale="   30.734">  1  3  2 -1</clus>
<clus scale="   78.971">  2  6  1 -1</clus>
<clus scale="  129.938">  2  5  1 -1</clus>
<clus scale="   30.734">  1  3  2 -1</clus>
</clustering>
</event>
<event>
 6    0  0.4081161E+002  0.1573023E+03  0.7546771E-02  0.1191777E+00
         21   -1    0    0  505  502  0.00000000000E+00  0.00000000000E+00  0.16699024044E+03  0.16699024044E+03  0.00000000000E+00 0. -1.
          2   -1    0    0  503    0 -0.00000000000E+00 -0.00000000000E+00 -0.27057732499E+04  0.27057732499E+04  0.00000000000E+00 0. -1.
         21    1    1    2  503  504  0.15776901478E+03 -0.28264431842E+02 -0.22943571337E+04  0.22999488248E+04  0.00000000000E+00 0. -1.
         21    1    1    2  504  502 -0.50681133496E+02 -0.80008258976E+01  0.13677759945E+03  0.14608457215E+03  0.00000000000E+00 0. -1.
         21    1    1    2  505  501  0.24761912408E+02 -0.26653497365E+02 -0.32988239969E+02  0.49109929792E+02  0.00000000000E+00 0.  1.
          2    1    1    2  501    0 -0.13184979370E+03  0.62918755105E+02 -0.34821523524E+03  0.37762016351E+03  0.00000000000E+00 0. -1.
<scales pt_clust_3="157.30227" pt_clust_4="42.74001" pt_clust_5="36.38078" pt_clust_6="14000.00000"></scales>
<clustering>
<clus scale="   36.381">  1  5  2 -1</clus>
<clus scale="   42.740">  1  4  2 -1</clus>
<clus scale="  157.302">  2  3  1 -1</clus>
<clus scale="   36.381">  1  3  2 -1</clus>
</clustering>
</event>
<event>
 6    0  0.4081161E+002  0.7959204E+02  0.7546771E-02  0.1330213E+00
         21   -1    0    0  505  502  0.00000000000E+00  0.00000000000E+00  0.63288049342E+03  0.63288049342E+03  0.00000000000E+00 0. -1.
         -4   -1    0    0    0  501 -0.00000000000E+00 -0.00000000000E+00 -0.49314777697E+03  0.49314777697E+03  0.00000000000E+00 0. -1.
         21    1    1    2  503  501 -0.27220280417E+01 -0.56012519796E+02  0.14718607149E+01  0.56097933870E+02  0.00000000000E+00 0.  1.
         21    1    1    2  504  502 -0.50950324569E+02 -0.11477502584E+03  0.44135000894E+03  0.45886716217E+03  0.00000000000E+00 0. -1.
         21    1    1    2  505  503  0.49064266327E+02  0.39864535678E+02  0.13753946923E+03  0.15137235227E+03  0.00000000000E+00 0. -1.
         -4    1    1    2    0  504  0.46080862844E+01  0.13092300996E+03 -0.44062862244E+03  0.45969082208E+03  0.00000000000E+00 0. -1.
<scales pt_clust_3="56.07862" pt_clust_4="79.59204" pt_clust_5="62.66502" pt_clust_6="14000.00000"></scales>
<clustering>
<clus scale="   56.079">  2  3  1 -1</clus>
<clus scale="   62.665">  1  5  2 -1</clus>
<clus scale="   79.592">  1  4  2 -1</clus>
<clus scale="   62.665">  1  3  2 -1</clus>
</clustering>
</event>
<event>
 6    0  0.4081161E+002  0.1370203E+03  0.7546771E-02  0.1217396E+00
         21   -1    0    0  505  502  0.00000000000E+00  0.00000000000E+00  0.79462861720E+03  0.79462861720E+03  0.00000000000E+00 0.  1.
          1   -1    0    0  504    0 -0.00000000000E+00 -0.00000000000E+00 -0.19762102156E+03  0.19762102156E+03  0.00000000000E+00 0.  1.
         21    1    1    2  503  501  0.29510392268E+02  0.68383824527E+02 -0.67363318447E+02  0.10042423702E+03  0.00000000000E+00 0. -1.
         21    1    1    2  504  502  0.33307064956E+02 -0.69693024819E+02  0.71750286813E+02  0.10542571765E+03  0.00000000000E+00 0.  1.
         21    1    1    2  505  503 -0.57611561155E+02 -0.62022772975E+02  0.67616002385E+03  0.68143840088E+03  0.00000000000E+00 0.  1.
          1    1    1    2  501    0 -0.52058960696E+01  0.63331973267E+02 -0.83539396576E+02  0.10496128321E+03  0.00000000000E+00 0.  1.
<scales pt_clust_3="35.43657" pt_clust_4="77.24298" pt_clust_5="131.53990" pt_clust_6="35.43657"></scales>
<clustering>
<clus scale="   35.437">  3  6 -1 -1</clus>
<clus scale="   77.243">  1  4  2 -1</clus>
<clus scale="  131.540">  1  5  2 -1</clus>
<clus scale="   77.243">  1  3  2 -1</clus>
</clustering>
</event>
<event>
 6    0  0.4081161E+002  0.8514467E+02  0.7546771E-02  0.1315055E+00
          1   -1    0    0  505    0 -0.00000000000E+00  0.00000000000E+00  0.80092732486E+03  0.80092732486E+03  0.00000000000E+00 0.  1.
         21   -1    0    0  503  502  0.00000000000E+00 -0.00000000000E+00 -0.18645373615E+03  0.18645373615E+03  0.00000000000E+00 0.  1.
         21    1    1    2  503  501  0.46904294811E+02  0.12248944568E+02  0.14307646856E+01  0.48498418555E+02  0.00000000000E+00 0. -1.
         21    1    1    2  504  502 -0.42936024691E+02 -0.96562435072E+02 -0.13751736958E+03  0.17343250278E+03  0.00000000000E+00 0.  1.
         21    1    1    2  505  504  0.48662378357E+02 -0.12262985235E+01  0.29100128515E+03  0.29504453704E+03  0.00000000000E+00 0.  1.
          1    1    1    2  501    0 -0.52630648478E+02  0.85539789028E+02  0.45955890845E+03  0.47040560264E+03  0.00000000000E+00 0.  1.
<scales pt_clust_3="48.47731" pt_clust_4="14000.00000" pt_clust_5="49.25612" pt_clust_6="85.14467"></scales>
<clustering>
<clus scale="   48.477">  2  3  1 -1</clus>
<clus scale="   49.256">  1  5  2 -1</clus>
<clus scale="   85.145">  1  6  2 -1</clus>
<clus scale="   48.477">  2  3  1 -1</clus>
</clustering>
</event>
<event>
 6    0  0.4081161E+002  0.1394032E+03  0.7546771E-02  0.1214134E+00
         21   -1    0    0  503  502  0.00000000000E+00  0.00000000000E+00  0.24335530216E+03  0.24335530216E+03  0.00000000000E+00 0. -1.
          1   -1    0    0  505    0 -0.00000000000E+00 -0.00000000000E+00 -0.99616217371E+03  0.99616217371E+03  0.00000000000E+00 0. -1.
         21    1    1    2  503  504 -0.12521503728E+03 -0.29056607214E+02  0.68364705168E+02  0.14559129403E+03  0.00000000000E+00 0. -1.
         21    1    1    2  504  501  0.24067222643E+02 -0.48115907792E+02 -0.30082521987E+03  0.30559807705E+03  0.00000000000E+00 0.  1.
         21    1    1    2  505  502  0.12031657180E+03  0.11379943993E+03  0.81838016084E+02  0.18472642165E+03  0.00000000000E+00 0. -1.
          1    1    1    2  501    0 -0.19168757165E+02 -0.36626924926E+02 -0.60218437294E+03  0.60360168314E+03  0.00000000000E+00 0. -1.
<scales pt_clust_3="14000.00000" pt_clust_4="76.91821" pt_clust_5="139.40319" pt_clust_6="41.33973"></scales>
<clustering>
<clus scale="   41.340">  2  6  1 -1</clus>
<clus scale="   76.918">  2  4  1 -1</clus>
<clus scale="  139.403">  2  5  1 -1</clus>
<clus scale="  139.403">  1  3  2 -1</clus>
</clustering>
</event>
<event>
 6    0  0.4081161E+002  0.9542379E+02  0.7546771E-02  0.1290224E+00
         21   -1    0    0  505  502  0.00000000000E+00  0.00000000000E+00  0.27184651046E+03  0.27184651046E+03  0.00000000000E+00 0.  1.
          2   -1    0    0  504    0 -0.00000000000E+00 -0.00000000000E+00 -0.14815010760E+04  0.14815010760E+04  0.00000000000E+00 0.  1.
         21    1    1    2  503  501  0.58227032329E+02  0.24744262384E+02 -0.19393132530E+03  0.20399025650E+03  0.00000000000E+00 0.  1.
         21    1    1    2  504  502  0.83260046021E+02  0.15683804900E+02  0.14892056949E+03  0.17133462294E+03  0.00000000000E+00 0.  1.
         21    1    1    2  505  503 -0.13977860694E+03 -0.86535395307E+02  0.42656457774E+02  0.16984112279E+03  0.00000000000E+00 0.  1.
          2    1    1    2  501    0 -0.17084714086E+01  0.46107328023E+02 -0.12073002675E+04  0.12081815842E+04  0.00000000000E+00 0.  1.
<scales pt_clust_3="81.49126" pt_clust_4="95.42379" pt_clust_5="14000.00000" pt_clust_6="46.13897"></scales>
<clustering>
<clus scale="   46.139">  2  6  1 -1</clus>
<clus scale="   81.491">  2  3  1 -1</clus>
<clus scale="   95.424">  1  4  2 -1</clus>
<clus scale="   95.424">  1  3  2 -1</clus>
</clustering>
</event>
<event>
 6    0  0.4081161E+002  0.5038818E+02  0.7546771E-02  0.1443259E+00
         21   -1    0    0  501  502  0.00000000000E+00  0.00000000000E+00  0.11220857308E+03  0.11220857308E+03  0.00000000000E+00 0. -1.
          1   -1    0    0  503    0 -0.00000000000E+00 -0.00000000000E+00 -0.68931107007E+03  0.68931107007E+03  0.00000000000E+00 0.  1.
         21    1    1    2  503  505 -0.43953939306E+02 -0.17954260855E+02 -0.73688664376E+02  0.87660273333E+02  0.00000000000E+00 0.  1.
         21    1    1    2  504  502  0.22751074328E+02 -0.48185893126E+02  0.45567432806E+02  0.70113355447E+02  0.00000000000E+00 0. -1.
         21    1    1    2  505  504 -0.56120218913E+02  0.15650006665E+02  0.24262390882E+02  0.63111530569E+02  0.00000000000E+00 0. -1.
          1    1    1    2  501    0  0.77323083891E+02  0.50490147316E+02 -0.57324365631E+03  0.58063448380E+03  0.00000000000E+00 0.  1.
<scales pt_clust_3="47.47951" pt_clust_4="14000.00000" pt_clust_5="50.38818" pt_clust_6="48.90618"></scales>
<clustering>
<clus scale="   47.480">  2  3  1 -1</clus>
<clus scale="   48.906">  2  6  1 -1</clus>
<clus scale="   50.388">  2  5  1 -1</clus>
<clus scale="   50.388">  1  3  2 -1</clus>
</clustering>
</event>
<event>
 6    0  0.4081161E+002  0.1308219E+03  0.7546771E-02  0.1226241E+00
         -4   -1    0    0    0  501 -0.00000000000E+00  0.00000000000E+00  0.33318594845E+03  0.33318594845E+03  0.00000000000E+00 0. -1.
         21   -1    0    0  505  502  0.00000000000E+00 -0.00000000000E+00 -0.63157778827E+03  0.63157778827E+03  0.00000000000E+00 0.  1.
         21    1    1    2  503  504  0.15812698028E+03  0.50790459081E+02 -0.31828536444E+03  0.35901167926E+03  0.00000000000E+00 0.  1.
         21    1    1    2  504  501 -0.12344498222E+03 -0.38814489431E+02  0.29363567511E+03  0.32088492941E+03  0.00000000000E+00 0. -1.
         21    1    1    2  505  503 -0.28335241207E+01 -0.33845577640E+02 -0.18481950725E+03  0.18791434816E+03  0.00000000000E+00 0.  1.
         -4    1    1    2    0  502 -0.31848473934E+02  0.21869607990E+02 -0.88922643238E+02  0.96952779877E+02  0.00000000000E+00 0. -1.
<scales pt_clust_3="14000.00000" pt_clust_4="130.82190" pt_clust_5="33.96398" pt_clust_6="35.65839"></scales>
<clustering>
<clus scale="   33.964">  2  5  1 -1</clus>
<clus scale="   35.658">  2  6  1 -1</clus>
<clus scale="  130.822">  1  4  2 -1</clus>
<clus scale="   33.964">  2  3  1 -1</clus>
</clustering>
</event>
<event>
 6    0  0.4081161E+002  0.8392129E+02  0.7546771E-02  0.1318278E+00
         21   -1    0    0  504  502  0.00000000000E+00  0.00000000000E+00  0.10851463807E+03  0.10851463807E+03  0.00000000000E+00 0.  1.
          2   -1    0    0  505    0 -0.00000000000E+00 -0.00000000000E+00 -0.13815813724E+04  0.13815813724E+04  0.00000000000E+00 0.  1.
         21    1    1    2  503  502 -0.35752422206E+02 -0.29571275933E+01  0.83970489404E+02  0.91312777791E+02  0.00000000000E+00 0.  1.
         21    1    1    2  504  501  0.96660108333E+02 -0.40777876849E+02 -0.14794007190E+03  0.18136228014E+03  0.00000000000E+00 0.  1.
         21    1    1    2  505  503  0.20832400168E+02  0.34402555353E+02 -0.15550981730E+03  0.16062636143E+03  0.00000000000E+00 0.  1.
          2    1    1    2  501    0 -0.81740086295E+02  0.93324490893E+01 -0.10535873345E+04  0.10567945911E+04  0.00000000000E+00 0.  1.
<scales pt_clust_3="35.87451" pt_clust_4="83.92129" pt_clust_5="37.80671" pt_clust_6="14000.00000"></scales>
<clustering>
<clus scale="   35.875">  1  3  2 -1</clus>
<clus scale="   37.807">  1  5  2 -1</clus>
<clus scale="   83.921">  1  4  2 -1</clus>
<clus scale="   35.875">  1  3  2 -1</clus>
</clustering>
</event>
<event>
 6    0  0.4081161E+002  0.5896455E+02  0.7546771E-02  0.1402229E+00
         21   -1    0    0  504  502  0.00000000000E+00  0.00000000000E+00  0.11941328400E+03  0.11941328400E+03  0.00000000000E+00 0. -1.
          1   -1    0    0  505    0 -0.00000000000E+00 -0.00000000000E+00 -0.10368045852E+04  0.10368045852E+04  0.00000000000E+00 0.  1.
         21    1    1    2  503  502 -0.32256781667E+02  0.42380059288E+02 -0.55288123353E+02  0.76768131230E+02  0.00000000000E+00 0. -1.
         21    1    1    2  504  501  0.51615945677E+02 -0.99232447204E+02  0.75464029708E+02  0.13492999743E+03  0.00000000000E+00 0. -1.
         21    1    1    2  505  503 -0.42703250070E+02  0.15338978943E+02 -0.18636228154E+03  0.19180654792E+03  0.00000000000E+00 0.  1.
          1    1    1    2  501    0  0.23344086059E+02  0.41513408973E+02 -0.75120492598E+03  0.75271319259E+03  0.00000000000E+00 0.  1.
<scales pt_clust_3="56.25749" pt_clust_4="14000.00000" pt_clust_5="45.37457" pt_clust_6="58.96455"></scales>
<clustering>
<clus scale="   45.375">  2  5  1 -1</clus>
<clus scale="   56.257">  1  3  2 -1</clus>
<clus scale="   58.965">  2  6  1 -1</clus>
<clus scale="   56.257">  1  3  2 -1</clus>
</clustering>
</event>
<event>
 6    0  0.4081161E+002  0.6959493E+02  0.7546771E-02  0.1361476E+00
          2   -1    0    0  505    0 -0.00000000000E+00  0.00000000000E+00  0.81065398592E+03  0.81065398592E+03  0.00000000000E+00 0. -1.
         21   -1    0    0  504  502  0.00000000000E+00 -0.00000000000E+00 -0.67282055314E+02  0.67282055314E+02  0.00000000000E+00 0.  1.
         21    1    1    2  503  502  0.59690922345E+02  0.70995275237E+02  0.47659672608E+02  0.10428221186E+03  0.00000000000E+00 0.  1.
         21    1    1    2  504  501 -0.14274745381E+02 -0.43496742695E+02 -0.57543654508E+01  0.46139437605E+02  0.00000000000E+00 0.  1.
         21    1    1    2  505  503 -0.10803885576E+03 -0.44245296226E+02  0.55800371582E+03  0.57008612284E+03  0.00000000000E+00 0.  1.
          2    1    1    2  501    0  0.62622678792E+02  0.16746763684E+02  0.14346290764E+03  0.15742826894E+03  0.00000000000E+00 0. -1.
<scales pt_clust_3="69.59493" pt_clust_4="45.77920" pt_clust_5="14000.00000" pt_clust_6="60.94044"></scales>
<clustering>
<clus scale="   45.779">  2  4  1 -1</clus>
<clus scale="   60.940">  1  6  2 -1</clus>
<clus scale="   69.595">  2  3  1 -1</clus>
<clus scale="   45.779">  2  3  1 -1</clus>
</clustering>
</event>
<event>
 6    0  0.4081161E+002  0.9188021E+02  0.7546771E-02  0.1298361E+00
         -1   -1    0    0    0  501 -0.00000000000E+00  0.00000000000E+00  0.19120341636E+04  0.19120341636E+04  0.00000000000E+00 0.  1.
         21   -1    0    0  504  502  0.00000000000E+00 -0.00000000000E+00 -0.17358631163E+02  0.17358631163E+02  0.00000000000E+00 0.  1.
         21    1    1    2  503  502  0.46115231225E+02  0.14314037244E+02  0.60035880818E+02  0.77044228848E+02  0.00000000000E+00 0.  1.
         21    1    1    2  504  501 -0.31398915186E+02  0.66789136167E+01  0.62382140229E+02  0.70157189094E+02  0.00000000000E+00 0.  1.
         21    1    1    2  505  503  0.44708003107E+02  0.62708741996E+02  0.51194745006E+03  0.51770781671E+03  0.00000000000E+00 0.  1.
         -1    1    1    2    0  505 -0.59424319147E+02 -0.83701692857E+02  0.12603100613E+04  0.12644835601E+04  0.00000000000E+00 0.  1.
<scales pt_clust_3="32.16703" pt_clust_4="32.10140" pt_clust_5="91.88021" pt_clust_6="14000.00000"></scales>
<clustering>
<clus scale="   32.101">  2  4  1 -1</clus>
<clus scale="   32.167">  2  3  1 -1</clus>
<clus scale="   91.880">  2  5  1 -1</clus>
<clus scale="   32.101">  2  3  1 -1</clus>
</clustering>
</event>
<event>
 6    0  0.4081161E+002  0.1225035E+03  0.7546771E-02  0.1239023E+00
         21   -1    0    0  504  502  0.00000000000E+00  0.00000000000E+00  0.15979978527E+03  0.15979978527E+03  0.00000000000E+00 0.  1.
          2   -1    0    0  503    0 -0.00000000000E+00 -0.00000000000E+00 -0.52682516681E+03  0.52682516681E+03  0.00000000000E+00 0.  1.
         21    1    1    2  503  502  0.56096308956E+02 -0.63367970541E+02 -0.82761106024E+02  0.11837101098E+03  0.00000000000E+00 0.  1.
         21    1    1    2  504  505  0.38142456720E+02 -0.50007773530E+02  0.47385028644E+02  0.78746208529E+02  0.00000000000E+00 0.  1.
         21    1    1    2  505  501 -0.85432654440E+02  0.16793612035E+03 -0.39933817345E+02  0.19260318982E+03  0.00000000000E+00 0.  1.
          2    1    1    2  501    0 -0.88061112364E+01 -0.54560376275E+02 -0.29171548682E+03  0.29690454275E+03  0.00000000000E+00 0.  1.
<scales pt_clust_3="14000.00000" pt_clust_4="65.51503" pt_clust_5="122.50352" pt_clust_6="55.26647"></scales>
<clustering>
<clus scale="   55.266">  2  6  1 -1</clus>
<clus scale="   65.515">  1  4  2 -1</clus>
<clus scale="  122.504">  1  5  2 -1</clus>
<clus scale="   65.515">  1  3  2 -1</clus>
</clustering>
</event>
<event>
 6    0  0.4081161E+002  0.1362988E+03  0.7546771E-02  0.1218398E+00
          2   -1    0    0  504    0 -0.00000000000E+00  0.00000000000E+00  0.76246180518E+03  0.76246180518E+03  0.00000000000E+00 0.  1.
         21   -1    0    0  503  502  0.00000000000E+00 -0.00000000000E+00 -0.36329748908E+03  0.36329748908E+03  0.00000000000E+00 0. -1.
         21    1    1    2  503  505 -0.25300238576E+02  0.55214276578E+02 -0.30016738686E+03  0.30625018946E+03  0.00000000000E+00 0. -1.
         21    1    1    2  504  502  0.14708458969E+03 -0.25275254388E+02  0.51645715823E+02  0.15792401644E+03  0.00000000000E+00 0. -1.
         21    1    1    2  505  501 -0.46981980720E+02 -0.38920184155E+01  0.36430593747E+03  0.36734353186E+03  0.00000000000E+00 0.  1.
          2    1    1    2  501    0 -0.74802370389E+02 -0.26047003775E+02  0.28338004966E+03  0.29424155649E+03  0.00000000000E+00 0.  1.
<scales pt_clust_3="60.73482" pt_clust_4="126.91513" pt_clust_5="38.34124" pt_clust_6="38.34124"></scales>
<clustering>
<clus scale="   38.341">  5  6 -1 -1</clus>
<clus scale="   60.735">  2  3  1 -1</clus>
<clus scale="  126.915">  2  4  1 -1</clus>
<clus scale="   60.735">  2  3  1 -1</clus>
</clustering>
</event>
<event>
 6    0  0.4081161E+002  0.1014694E+03  0.7546771E-02  0.1277236E+00
          2   -1    0    0  504    0 -0.00000000000E+00  0.00000000000E+00  0.10200104706E+04  0.10200104706E+04  0.00000000000E+00 0. -1.
         21   -1    0    0  503  502  0.00000000000E+00 -0.00000000000E+00 -0.34634081637E+03  0.34634081637E+03  0.00000000000E+00 0. -1.
         21    1    1    2  503  505  0.51799132856E+02 -0.86922845052E+02 -0.32231377597E+03  0.33782377260E+03  0.00000000000E+00 0. -1.
         21    1    1    2  504  502 -0.23930186190E+02  0.11309422803E+03  0.20894537135E+03  0.23879096808E+03  0.00000000000E+00 0. -1.
         21    1    1    2  505  501  0.26448901033E+01 -0.33679370729E+02  0.39735093150E+03  0.39878447590E+03  0.00000000000E+00 0. -1.
          2    1    1    2  501    0 -0.30513836769E+02  0.75079877475E+01  0.38968712732E+03  0.39095207036E+03  0.00000000000E+00 0. -1.
<scales pt_clust_3="14000.00000" pt_clust_4="101.46938" pt_clust_5="33.37926" pt_clust_6="31.42394"></scales>
<clustering>
<clus scale="   31.424">  1  6  2 -1</clus>
<clus scale="   33.379">  1  5  2 -1</clus>
<clus scale="  101.469">  1  4  2 -1</clus>
<clus scale="  101.469">  2  3  1 -1</clus>
</clustering>
</event>
<event>
 6    0  0.4081161E+002  0.8313448E+02  0.7546771E-02  0.1320384E+00
         21   -1    0    0  505  502  0.00000000000E+00  0.00000000000E+00  0.82731415252E+03  0.82731415252E+03  0.00000000000E+00 0.  1.
         -2   -1    0    0    0  501 -0.00000000000E+00 -0.00000000000E+00 -0.10497518401E+03  0.10497518401E+03  0.00000000000E+00 0.  1.
         21    1    1    2  503  502 -0.87422219588E+02 -0.29957407922E+02  0.51371656270E+03  0.52196244842E+03  0.00000000000E+00 0.  1.
         21    1    1    2  504  501  0.64676694505E+02  0.31812495081E+02 -0.58113926308E+02  0.92586921788E+02  0.00000000000E+00 0.  1.
         21    1    1    2  505  504  0.56455261350E+02 -0.72650059608E+02  0.16915887237E+03  0.19256155326E+03  0.00000000000E+00 0.  1.
         -2    1    1    2    0  503 -0.33709736267E+02  0.70794972450E+02  0.97577459761E+02  0.12517841306E+03  0.00000000000E+00 0.  1.
<scales pt_clust_3="82.47204" pt_clust_4="72.07711" pt_clust_5="83.13448" pt_clust_6="14000.00000"></scales>
<clustering>
<clus scale="   72.077">  2  4  1 -1</clus>
<clus scale="   82.472">  1  3  2 -1</clus>
<clus scale="   83.134">  1  5  2 -1</clus>
<clus scale="   82.472">  1  3  2 -1</clus>
</clustering>
</event>
<event>
 6    0  0.4081161E+002  0.2631865E+03  0.7546771E-02  0.1105244E+00
          1   -1    0    0  504    0 -0.00000000000E+00  0.00000000000E+00  0.11502465297E+04  0.11502465297E+04  0.00000000000E+00 0.  1.
         21   -1    0    0  503  502  0.00000000000E+00 -0.00000000000E+00 -0.30852483143E+03  0.30852483143E+03  0.00000000000E+00 0.  1.
         21    1    1    2  503  505 -0.72214504251E+02 -0.61155117955E+01 -0.55145158460E+02  0.91067681481E+02  0.00000000000E+00 0.  1.
         21    1    1    2  504  502  0.15730812700E+03  0.17420050976E+03  0.91777801484E+03  0.94731628770E+03  0.00000000000E+00 0.  1.
         21    1    1    2  505  501 -0.11469237752E+03 -0.15270804043E+03 -0.17723177972E+03  0.26054786665E+03  0.00000000000E+00 0.  1.
          1    1    1    2  501    0  0.29598754766E+02 -0.15376957534E+02  0.15632062166E+03  0.15983952534E+03  0.00000000000E+00 0.  1.
<scales pt_clust_3="59.78787" pt_clust_4="244.52355" pt_clust_5="59.78787" pt_clust_6="33.35472"></scales>
<clustering>
<clus scale="   33.355">  1  6  2 -1</clus>
<clus scale="   59.788">  3  5 -1 -1</clus>
<clus scale="  244.524">  1  4  2 -1</clus>
<clus scale="  263.186">  2  3  1 -1</clus>
</clustering>
</event>
<event>
 6    0  0.4081161E+002  0.1478594E+03  0.7546771E-02  0.1203128E+00
          2   -1    0    0  503    0 -0.00000000000E+00  0.00000000000E+00  0.47272506272E+04  0.47272506272E+04  0.00000000000E+00 0.  1.
         21   -1    0    0  505  502  0.00000000000E+00 -0.00000000000E+00 -0.56006907331E+02  0.56006907331E+02  0.00000000000E+00 0.  1.
         21    1    1    2  503  504 -0.57728753699E+02  0.13270548524E+03  0.29202084023E+03  0.32591337184E+03  0.00000000000E+00 0.  1.
         21    1    1    2  504  502  0.30248187374E+02  0.46257027984E+02  0.26534594910E+03  0.27104084227E+03  0.00000000000E+00 0.  1.
         21    1    1    2  505  501 -0.15030202534E+02 -0.37011128308E+02 -0.23451788385E+02  0.46321884518E+02  0.00000000000E+00 0.  1.
          2    1    1    2  501    0  0.42510768858E+02 -0.14195138491E+03  0.41373287189E+04  0.41399814359E+04  0.00000000000E+00 0.  1.
<scales pt_clust_3="147.85943" pt_clust_4="49.99444" pt_clust_5="39.94660" pt_clust_6="14000.00000"></scales>
<clustering>
<clus scale="   39.947">  2  5  1 -1</clus>
<clus scale="   49.994">  2  4  1 -1</clus>
<clus scale="  147.859">  2  3  1 -1</clus>
<clus scale="   39.947">  2  3  1 -1</clus>
</clustering>
</event>
<event>
 6    0  0.4081161E+002  0.1196549E+03  0.7546771E-02  0.1243668E+00
         -1   -1    0    0    0  501 -0.00000000000E+00  0.00000000000E+00  0.98476571299E+03  0.98476571299E+03  0.00000000000E+00 0. -1.
         21   -1    0    0  503  502  0.00000000000E+00 -0.00000000000E+00 -0.79193545140E+03  0.79193545140E+03  0.00000000000E+00 0. -1.
         21    1    1    2  503  505  0.92013653910E+01  0.11442316385E+03  0.12800945574E+01  0.11479966983E+03  0.00000000000E+00 0. -1.
         21    1    1    2  504  502 -0.11336983045E+03 -0.57713245435E+02 -0.71886582210E+03  0.73003534664E+03  0.00000000000E+00 0. -1.
         21    1    1    2  505  501 -0.11156345511E+02  0.29456913222E+02  0.47309775618E+02  0.56836508081E+02  0.00000000000E+00 0. -1.
         -1    1    1    2    0  504  0.11532481057E+03 -0.86166831636E+02  0.86310621351E+03  0.87502963985E+03  0.00000000000E+00 0. -1.
<scales pt_clust_3="116.56706" pt_clust_4="119.65485" pt_clust_5="31.49879" pt_clust_6="14000.00000"></scales>
<clustering>
<clus scale="   31.499">  1  5  2 -1</clus>
<clus scale="  116.567">  2  3  1 -1</clus>
<clus scale="  119.655">  2  4  1 -1</clus>
<clus scale="  116.567">  2  3  1 -1</clus>
</clustering>
</event>
<event>
 6    0  0.4081161E+002  0.1083773E+03  0.7546771E-02  0.1263605E+00
         21   -1    0    0  505  502  0.00000000000E+00  0.00000000000E+00  0.30980216983E+02  0.30980216983E+02  0.00000000000E+00 0.  1.
          2   -1    0    0  504    0 -0.00000000000E+00 -0.00000000000E+00 -0.10702225511E+04  0.10702225511E+04  0.00000000000E+00 0.  1.
         21    1    1    2  503  502 -0.32336933621E+02 -0.78215480067E+02 -0.78543801030E+02  0.11546630365E+03  0.00000000000E+00 0.  1.
         21    1    1    2  504  503 -0.54072771470E+02 -0.36508132704E+02 -0.32496885395E+03  0.33145356297E+03  0.00000000000E+00 0.  1.
         21    1    1    2  505  501  0.68964635405E+02  0.67323414061E+02 -0.30926813805E+03  0.32393725354E+03  0.00000000000E+00 0.  1.
          2    1    1    2  501    0  0.17445069686E+02  0.47400198710E+02 -0.32646154111E+03  0.33034564794E+03  0.00000000000E+00 0.  1.
<scales pt_clust_3="91.86886" pt_clust_4="65.24345" pt_clust_5="41.62266" pt_clust_6="41.62266"></scales>
<clustering>
<clus scale="   41.623">  5  6 -1 -1</clus>
<clus scale="   65.243">  2  4  1 -1</clus>
<clus scale="   91.869">  1  3  2 -1</clus>
<clus scale="   91.869">  1  3  2 -1</clus>
</clustering>
</event>
<event>
 6    0  0.4081161E+002  0.8991556E+02  0.7546771E-02  0.1303056E+00
         21   -1    0    0  504  502  0.00000000000E+00  0.00000000000E+00  0.32022791208E+03  0.32022791208E+03  0.00000000000E+00 0.  1.
          2   -1    0    0  505    0 -0.00000000000E+00 -0.00000000000E+00 -0.15324127818E+04  0.15324127818E+04  0.00000000000E+00 0.  1.
         21    1    1    2  503  502 -0.64786114969E+02 -0.59928514740E+02  0.25015787073E+03  0.26526897267E+03  0.00000000000E+00 0.  1.
         21    1    1    2  504  501  0.26540838670E+02  0.11996636580E+03 -0.38259814204E+01  0.12292673906E+03  0.00000000000E+00 0.  1.
         21    1    1    2  505  503  0.32294668143E+02 -0.13449163753E+02 -0.11728585096E+03  0.12239197863E+03  0.00000000000E+00 0.  1.
          2    1    1    2  501    0  0.59506081552E+01 -0.46588687311E+02 -0.13412309080E+04  0.13420530035E+04  0.00000000000E+00 0.  1.
<scales pt_clust_3="14000.00000" pt_clust_4="89.91556" pt_clust_5="34.98322" pt_clust_6="69.75096"></scales>
<clustering>
<clus scale="   34.983">  2  5  1 -1</clus>
<clus scale="   69.751">  2  6  1 -1</clus>
<clus scale="   89.916">  2  4  1 -1</clus>
<clus scale="   89.916">  1  3  2 -1</clus>
</clustering>
</event>
<event>
 6    0  0.4081161E+002  0.5089701E+02  0.7546771E-02  0.1440563E+00
         21   -1    0    0  504  502  0.00000000000E+00  0.00000000000E+00  0.86005286541E+03  0.86005286541E+03  0.00000000000E+00 0.  1.
          2   -1    0    0  505    0 -0.00000000000E+00 -0.00000000000E+00 -0.33367928975E+03  0.33367928975E+03  0.00000000000E+00 0. -1.
         21    1    1    2  503  502 -0.70471884069E+02  0.59121197321E+02  0.97269961661E+02  0.13387698779E+03  0.00000000000E+00 0. -1.
         21    1    1    2  504  501  0.27208177049E+02 -0.40991034501E+02  0.73170297463E+03  0.73335516150E+03  0.00000000000E+00 0.  1.
         21    1    1    2  505  503 -0.25954465738E+02  0.19794234878E+02 -0.36612715004E+02  0.49050350927E+02  0.00000000000E+00 0. -1.
          2    1    1    2  501    0  0.69218172758E+02 -0.37924397697E+02 -0.26598664563E+03  0.27744965495E+03  0.00000000000E+00 0. -1.
<scales pt_clust_3="50.89701" pt_clust_4="14000.00000" pt_clust_5="32.64117" pt_clust_6="48.98955"></scales>
<clustering>
<clus scale="   32.641">  2  5  1 -1</clus>
<clus scale="   48.990">  2  6  1 -1</clus>
<clus scale="   50.897">  2  3  1 -1</clus>
<clus scale="   50.897">  1  3  2 -1</clus>
</clustering>
</event>
<event>
 6    0  0.4081161E+002  0.9869874E+02  0.7546771E-02  0.1283056E+00
         21   -1    0    0  501  502  0.00000000000E+00  0.00000000000E+00  0.15520455910E+04  0.15520455910E+04  0.00000000000E+00 0. -1.
          1   -1    0    0  504    0 -0.00000000000E+00 -0.00000000000E+00 -0.21695909900E+03  0.21695909900E+03  0.00000000000E+00 0.  1.
         21    1    1    2  503  502  0.17569152293E+02 -0.26913698101E+02  0.65420463232E+03  0.65499368181E+03  0.00000000000E+00 0. -1.
         21    1    1    2  504  505  0.17508326533E+02  0.29840024771E+02  0.19567299338E+02  0.39747299024E+02  0.00000000000E+00 0. -1.
         21    1    1    2  505  503 -0.11378914983E+03  0.44980554520E+02  0.85292074869E+03  0.86165249634E+03  0.00000000000E+00 0. -1.
          1    1    1    2  501    0  0.78711671008E+02 -0.47906881190E+02 -0.19160618834E+03  0.21261121285E+03  0.00000000000E+00 0.  1.
<scales pt_clust_3="32.14066" pt_clust_4="34.13719" pt_clust_5="98.69874" pt_clust_6="14000.00000"></scales>
<clustering>
<clus scale="   32.141">  1  3  2 -1</clus>
<clus scale="   34.137">  2  4  1 -1</clus>
<clus scale="   98.699">  1  5  2 -1</clus>
<clus scale="   32.141">  1  3  2 -1</clus>
</clustering>
</event>
<event>
 6    0  0.4081161E+002  0.7355678E+02  0.7546771E-02  0.1348399E+00
         21   -1    0    0  503  502  0.00000000000E+00  0.00000000000E+00  0.91579404318E+02  0.91579404318E+02  0.00000000000E+00 0.  1.
          2   -1    0    0  505    0 -0.00000000000E+00 -0.00000000000E+00 -0.30157574852E+03  0.30157574852E+03  0.00000000000E+00 0.  1.
         21    1    1    2  503  501 -0.37592899655E+02 -0.14586090839E+02  0.66653615385E+01  0.40870615298E+02  0.00000000000E+00 0.  1.
         21    1    1    2  504  502  0.44658970813E+01 -0.48119618259E+02  0.25147460832E+02  0.54477854991E+02  0.00000000000E+00 0.  1.
         21    1    1    2  505  504 -0.59410358837E+02 -0.37379023899E+01 -0.92530457553E+02  0.11002476188E+03  0.00000000000E+00 0. -1.
          2    1    1    2  501    0  0.92537361411E+02  0.66443611488E+02 -0.14927870902E+03  0.18778192068E+03  0.00000000000E+00 0.  1.
<scales pt_clust_3="40.32344" pt_clust_4="59.35430" pt_clust_5="73.55678" pt_clust_6="14000.00000"></scales>
<clustering>
<clus scale="   40.323">  1  3  2 -1</clus>
<clus scale="   59.354">  1  4  2 -1</clus>
<clus scale="   73.557">  2  5  1 -1</clus>
<clus scale="   40.323">  1  3  2 -1</clus>
</clustering>
</event>
<event>
 6    0  0.4081161E+002  0.7147085E+02  0.7546771E-02  0.1355162E+00
         21   -1    0    0  504  502  0.00000000000E+00  0.00000000000E+00  0.34051776085E+03  0.34051776085E+03  0.00000000000E+00 0. -1.
          2   -1    0    0  503    0 -0.00000000000E+00 -0.00000000000E+00 -0.21886927034E+03  0.21886927034E+03  0.00000000000E+00 0.  1.
         21    1    1    2  503  502  0.78342105269E+01  0.37727029013E+02 -0.11757904318E+03  0.12373170558E+03  0.00000000000E+00 0.  1.
         21    1    1    2  504  505  0.54395512432E+02  0.39943608686E+02  0.25495643390E+03  0.26373688941E+03  0.00000000000E+00 0. -1.
         21    1    1    2  505  501 -0.87579989788E+02 -0.99973478500E+02  0.37034847575E+01  0.13296114776E+03  0.00000000000E+00 0. -1.
          2    1    1    2  501    0  0.25350266829E+02  0.22302840801E+02 -0.19432384971E+02  0.38957288429E+02  0.00000000000E+00 0.  1.
<scales pt_clust_3="57.17668" pt_clust_4="71.47085" pt_clust_5="14000.00000" pt_clust_6="33.76467"></scales>
<clustering>
<clus scale="   33.765">  2  6  1 -1</clus>
<clus scale="   57.177">  2  3  1 -1</clus>
<clus scale="   71.471">  1  4  2 -1</clus>
<clus scale="   71.471">  1  3  2 -1</clus>
</clustering>
</event>
<event>
 6    0  0.4081161E+002  0.6400544E+02  0.7546771E-02  0.1381752E+00
          1   -1    0    0  504    0 -0.00000000000E+00  0.00000000000E+00  0.68942331796E+03  0.68942331796E+03  0.00000000000E+00 0.  1.
         21   -1    0    0  505  502  0.00000000000E+00 -0.00000000000E+00 -0.66682160244E+03  0.66682160244E+03  0.00000000000E+00 0. -1.
         21    1    1    2  503  501  0.52555566615E+02 -0.84067330942E+02 -0.74211124002E+02  0.12384140923E+03  0.00000000000E+00 0. -1.
         21    1    1    2  504  502 -0.21544607945E+02 -0.33623652858E+02  0.19207673594E+03  0.19618407849E+03  0.00000000000E+00 0. -1.
         21    1    1    2  505  503 -0.28533801975E+02  0.54635118664E+02 -0.56193285669E+03  0.56530320137E+03  0.00000000000E+00 0. -1.
          1    1    1    2  501    0 -0.24771566959E+01  0.63055865137E+02  0.46666896027E+03  0.47091623131E+03  0.00000000000E+00 0.  1.
<scales pt_clust_3="14000.00000" pt_clust_4="39.93395" pt_clust_5="64.00544" pt_clust_6="38.70894"></scales>
<clustering>
<clus scale="   39.934">  1  4  2 -1</clus>
<clus scale="   38.709">  1  6  2 -1</clus>
<clus scale="   64.005">  2  5  1 -1</clus>
<clus scale="   64.005">  2  3  1 -1</clus>
</clustering>
</event>
<event>
 6    0  0.4081161E+002  0.2063029E+03  0.7546771E-02  0.1144528E+00
         21   -1    0    0  503  502  0.00000000000E+00  0.00000000000E+00  0.14815523030E+04  0.14815523030E+04  0.00000000000E+00 0.  1.
          2   -1    0    0  504    0 -0.00000000000E+00 -0.00000000000E+00 -0.66951552546E+03  0.66951552546E+03  0.00000000000E+00 0. -1.
         21    1    1    2  503  501  0.25012144461E+02  0.63725622527E+02 -0.15737089705E+03  0.17161632083E+03  0.00000000000E+00 0. -1.
         21    1    1    2  504  505 -0.76433065411E+02 -0.69978573572E+02  0.87079916066E+03  0.87694366550E+03  0.00000000000E+00 0.  1.
         21    1    1    2  505  502 -0.69128815636E+01 -0.99356912648E+02  0.58906722099E+03  0.59742763149E+03  0.00000000000E+00 0.  1.
          2    1    1    2  501    0  0.58333802514E+02  0.10560986369E+03 -0.49045870708E+03  0.50508021063E+03  0.00000000000E+00 0. -1.
<scales pt_clust_3="38.51229" pt_clust_4="81.66881" pt_clust_5="81.66881" pt_clust_6="195.53772"></scales>
<clustering>
<clus scale="   38.512">  3  6 -1 -1</clus>
<clus scale="   81.669">  4  5 -1 -1</clus>
<clus scale="  195.538">  2  3  1 -1</clus>
<clus scale="  206.303">  1  3  2 -1</clus>
</clustering>
</event>
<event>
 6    0  0.4081161E+002  0.8869200E+02  0.7546771E-02  0.1306050E+00
         21   -1    0    0  504  502  0.00000000000E+00  0.00000000000E+00  0.23408692766E+03  0.23408692766E+03  0.00000000000E+00 0.  1.
          2   -1    0    0  503    0 -0.00000000000E+00 -0.00000000000E+00 -0.39273396201E+03  0.39273396201E+03  0.00000000000E+00 0.  1.
         21    1    1    2  503  505  0.19491078004E+02  0.27334208119E+02 -0.34891589131E+02  0.48419872443E+02  0.00000000000E+00 0.  1.
         21    1    1    2  504  501 -0.77132466043E+02  0.10250823439E+02  0.15334923125E+03  0.17196070314E+03  0.00000000000E+00 0.  1.
         21    1    1    2  505  502  0.86472251930E+01  0.48799387331E+02  0.46488312057E+02  0.67950848894E+02  0.00000000000E+00 0. -1.
          2    1    1    2  501    0  0.48994162846E+02 -0.86384418889E+02 -0.32359298853E+03  0.33848946519E+03  0.00000000000E+00 0.  1.
<scales pt_clust_3="33.57173" pt_clust_4="14000.00000" pt_clust_5="50.48818" pt_clust_6="88.69200"></scales>
<clustering>
<clus scale="   33.572">  2  3  1 -1</clus>
<clus scale="   50.488">  1  5  2 -1</clus>
<clus scale="   88.692">  2  6  1 -1</clus>
<clus scale="   50.488">  1  3  2 -1</clus>
</clustering>
</event>
<event>
 6    0  0.4081161E+002  0.8914787E+02  0.7546771E-02  0.1304928E+00
         -2   -1    0    0    0  501 -0.00000000000E+00  0.00000000000E+00  0.27025003087E+04  0.27025003087E+04  0.00000000000E+00 0.  1.
         21   -1    0    0  503  502  0.00000000000E+00 -0.00000000000E+00 -0.13432374803E+03  0.13432374803E+03  0.00000000000E+00 0. -1.
         21    1    1    2  503  504 -0.69045580315E+02 -0.55872030001E+02 -0.11444145180E+03  0.14486483973E+03  0.00000000000E+00 0. -1.
         21    1    1    2  504  501  0.12835839025E+03  0.22983711708E+02  0.11733225579E+04  0.11805464634E+04  0.00000000000E+00 0. -1.
         21    1    1    2  505  502 -0.29696239274E+02  0.22926102758E+02  0.42085056129E+03  0.42251942885E+03  0.00000000000E+00 0. -1.
         -2    1    1    2    0  505 -0.29616570662E+02  0.99622155347E+01  0.10884448933E+04  0.10888933248E+04  0.00000000000E+00 0.  1.
<scales pt_clust_3="14000.00000" pt_clust_4="89.14787" pt_clust_5="45.31125" pt_clust_6="31.24719"></scales>
<clustering>
<clus scale="   31.247">  1  6  2 -1</clus>
<clus scale="   45.311">  1  5  2 -1</clus>
<clus scale="   89.148">  1  4  2 -1</clus>
<clus scale="   89.148">  2  3  1 -1</clus>
</clustering>
</event>
<event>
 6    0  0.4081161E+002  0.8663221E+02  0.7546771E-02  0.1311218E+00
          2   -1    0    0  505    0 -0.00000000000E+00  0.00000000000E+00  0.27153753218E+03  0.27153753218E+03  0.00000000000E+00 0.  1.
         21   -1    0    0  503  502  0.00000000000E+00 -0.00000000000E+00 -0.33682154247E+03  0.33682154247E+03  0.00000000000E+00 0. -1.
         21    1    1    2  503  504  0.50740363768E+02  0.75659659565E+01 -0.16348622730E+03  0.17134635938E+03  0.00000000000E+00 0. -1.
         21    1    1    2  504  501 -0.47347885224E+02  0.30128189097E+02 -0.14641663775E+02  0.57999209749E+02  0.00000000000E+00 0. -1.
         21    1    1    2  505  502 -0.40559780983E+02  0.42788898697E+02 -0.11790351810E+03  0.13182270391E+03  0.00000000000E+00 0. -1.
          2    1    1    2  501    0  0.37167302438E+02 -0.80483053751E+02  0.23074739888E+03  0.24719080161E+03  0.00000000000E+00 0.  1.
<scales pt_clust_3="51.30135" pt_clust_4="48.35373" pt_clust_5="14000.00000" pt_clust_6="86.63221"></scales>
<clustering>
<clus scale="   51.301">  2  3  1 -1</clus>
<clus scale="   48.354">  2  4  1 -1</clus>
<clus scale="   86.632">  1  6  2 -1</clus>
<clus scale="   51.301">  2  3  1 -1</clus>
</clustering>
</event>
<event>
 6    0  0.4081161E+002  0.8482976E+02  0.7546771E-02  0.1315878E+00
         -2   -1    0    0    0  501 -0.00000000000E+00  0.00000000000E+00  0.55726688198E+03  0.55726688198E+03  0.00000000000E+00 0. -1.
         21   -1    0    0  505  502  0.00000000000E+00 -0.00000000000E+00 -0.11604112847E+03  0.11604112847E+03  0.00000000000E+00 0. -1.
         21    1    1    2  503  502 -0.35025634168E+02 -0.59952799350E+02 -0.42203382828E+02  0.81254284324E+02  0.00000000000E+00 0. -1.
         21    1    1    2  504  501 -0.51749792362E+02 -0.30547824684E+02  0.12808272221E+03  0.14147930708E+03  0.00000000000E+00 0. -1.
         21    1    1    2  505  504 -0.32129411222E+02  0.89896892431E+01 -0.26380564815E+02  0.42532902301E+02  0.00000000000E+00 0. -1.
         -2    1    1    2    0  503  0.11890483775E+03  0.81510934791E+02  0.38172697895E+03  0.40804151675E+03  0.00000000000E+00 0. -1.
<scales pt_clust_3="14000.00000" pt_clust_4="62.02131" pt_clust_5="33.36336" pt_clust_6="84.82976"></scales>
<clustering>
<clus scale="   33.363">  2  5  1 -1</clus>
<clus scale="   62.021">  1  4  2 -1</clus>
<clus scale="   84.830">  1  6  2 -1</clus>
<clus scale="   33.363">  2  3  1 -1</clus>
</clustering>
</event>
<event>
 6    0  0.4081161E+002  0.9743714E+02  0.7546771E-02  0.1285779E+00
         -1   -1    0    0    0  501 -0.00000000000E+00  0.00000000000E+00  0.30652041490E+03  0.30652041490E+03  0.00000000000E+00 0.  1.
         21   -1    0    0  501  502  0.00000000000E+00 -0.00000000000E+00 -0.13617990776E+04  0.13617990776E+04  0.00000000000E+00 0.  1.
         21    1    1    2  503  505 -0.50770111204E+02 -0.95959544363E+02 -0.11739459384E+04  0.11789550053E+04  0.00000000000E+00 0.  1.
         21    1    1    2  504  503  0.83029197712E+02  0.24932517110E+02  0.17840340510E+03  0.19835133736E+03  0.00000000000E+00 0.  1.
         21    1    1    2  505  502 -0.29814140644E+02  0.40292458806E+02 -0.16962775116E+03  0.17687831745E+03  0.00000000000E+00 0.  1.
         -1    1    1    2    0  504 -0.24449458635E+01  0.30734568446E+02  0.10989162168E+03  0.11413483243E+03  0.00000000000E+00 0.  1.
<scales pt_clust_3="97.43714" pt_clust_4="14000.00000" pt_clust_5="50.61200" pt_clust_6="30.83166"></scales>
<clustering>
<clus scale="   30.832">  1  6  2 -1</clus>
<clus scale="   50.612">  2  5  1 -1</clus>
<clus scale="   97.437">  2  3  1 -1</clus>
<clus scale="   50.612">  2  3  1 -1</clus>
</clustering>
</event>
<event>
 6    0  0.4081161E+002  0.1004653E+03  0.7546771E-02  0.1279321E+00
         -2   -1    0    0    0  501 -0.00000000000E+00  0.00000000000E+00  0.30435852867E+03  0.30435852867E+03  0.00000000000E+00 0.  1.
         21   -1    0    0  505  502  0.00000000000E+00 -0.00000000000E+00 -0.45483678865E+03  0.45483678865E+03  0.00000000000E+00 0. -1.
         21    1    1    2  503  501  0.24642493955E+02  0.20770288934E+02  0.38950700210E+02  0.50555063620E+02  0.00000000000E+00 0.  1.
         21    1    1    2  504  502 -0.32193137410E+02  0.46792546319E+02 -0.13501213590E+03  0.14647258217E+03  0.00000000000E+00 0. -1.
         21    1    1    2  505  503  0.53702422410E+02  0.52415092665E+02 -0.28687827698E+03  0.29653066944E+03  0.00000000000E+00 0. -1.
         -2    1    1    2    0  504 -0.46151778956E+02 -0.11997792792E+03  0.23246145270E+03  0.26563700209E+03  0.00000000000E+00 0.  1.
<scales pt_clust_3="32.22821" pt_clust_4="56.87117" pt_clust_5="14000.00000" pt_clust_6="100.46525"></scales>
<clustering>
<clus scale="   32.228">  1  3  2 -1</clus>
<clus scale="   56.871">  2  4  1 -1</clus>
<clus scale="  100.465">  1  6  2 -1</clus>
<clus scale="   56.871">  2  3  1 -1</clus>
</clustering>
</event>
<event>
 6    0  0.4081161E+002  0.1748664E+03  0.7546771E-02  0.1172866E+00
         21   -1    0    0  505  502  0.00000000000E+00  0.00000000000E+00  0.54865157164E+02  0.54865157164E+02  0.00000000000E+00 0. -1.
          1   -1    0    0  504    0 -0.00000000000E+00 -0.00000000000E+00 -0.14457881521E+04  0.14457881521E+04  0.00000000000E+00 0. -1.
         21    1    1    2  503  501 -0.61161009907E+02 -0.49146282127E+02 -0.26849636542E+03  0.27972544472E+03  0.00000000000E+00 0. -1.
         21    1    1    2  504  502  0.20984557592E+03  0.11603137868E+03 -0.62402446426E+03  0.66850952018E+03  0.00000000000E+00 0. -1.
         21    1    1    2  505  503 -0.83998891497E+02 -0.68094193254E+02 -0.95229698785E+02  0.14408791920E+03  0.00000000000E+00 0. -1.
          1    1    1    2  501    0 -0.64685674513E+02  0.12090967006E+01 -0.40317246650E+03  0.40833042520E+03  0.00000000000E+00 0. -1.
<scales pt_clust_3="58.47330" pt_clust_4="162.57843" pt_clust_5="108.13248" pt_clust_6="58.47330"></scales>
<clustering>
<clus scale="   58.473">  3  6 -1 -1</clus>
<clus scale="  108.132">  1  5  2 -1</clus>
<clus scale="  162.578">  1  4  2 -1</clus>
<clus scale="  108.132">  1  3  2 -1</clus>
</clustering>
</event>
<event>
 6    0  0.4081161E+002  0.1008999E+03  0.7546771E-02  0.1278415E+00
         -1   -1    0    0    0  501 -0.00000000000E+00  0.00000000000E+00  0.23892663823E+03  0.23892663823E+03  0.00000000000E+00 0. -1.
         21   -1    0    0  505  502  0.00000000000E+00 -0.00000000000E+00 -0.57515824645E+03  0.57515824645E+03  0.00000000000E+00 0. -1.
         21    1    1    2  503  501  0.38079751489E+02 -0.29322762978E+02  0.75108925474E+02  0.89169740315E+02  0.00000000000E+00 0. -1.
         21    1    1    2  504  502  0.19732522536E+02  0.33105965134E+02 -0.12167624035E+03  0.12763418367E+03  0.00000000000E+00 0. -1.
         21    1    1    2  505  503 -0.37565017412E+02 -0.12825040319E+03 -0.40494408824E+03  0.42642585646E+03  0.00000000000E+00 0. -1.
         -1    1    1    2    0  504 -0.20247256613E+02  0.12446720103E+03  0.11527979490E+03  0.17085510424E+03  0.00000000000E+00 0. -1.
<scales pt_clust_3="47.99383" pt_clust_4="38.54059" pt_clust_5="100.89986" pt_clust_6="14000.00000"></scales>
<clustering>
<clus scale="   38.541">  2  4  1 -1</clus>
<clus scale="   47.994">  1  3  2 -1</clus>
<clus scale="  100.900">  2  5  1 -1</clus>
<clus scale="   38.541">  2  3  1 -1</clus>
</clustering>
</event>
<event>
 6    0  0.4081161E+002  0.1209725E+03  0.7546771E-02  0.1241501E+00
         -1   -1    0    0    0  501 -0.00000000000E+00  0.00000000000E+00  0.44054654561E+03  0.44054654561E+03  0.00000000000E+00 0. -1.
         21   -1    0    0  503  502  0.00000000000E+00 -0.00000000000E+00 -0.23606582880E+03  0.23606582880E+03  0.00000000000E+00 0.  1.
         21    1    1    2  503  505 -0.36557077038E+02  0.43618948248E+02 -0.13589093431E+03  0.14732745350E+03  0.00000000000E+00 0.  1.
         21    1    1    2  504  502  0.39558739768E+02 -0.12142987698E+02 -0.47859654188E+02  0.63268416617E+02  0.00000000000E+00 0.  1.
         21    1    1    2  505  501  0.28897422520E+01  0.10002217163E+03  0.71388486716E+02  0.12291908502E+03  0.00000000000E+00 0. -1.
         -1    1    1    2    0  504 -0.58914049816E+01 -0.13149813218E+03  0.31684281859E+03  0.34309741927E+03  0.00000000000E+00 0. -1.
<scales pt_clust_3="34.53672" pt_clust_4="41.38050" pt_clust_5="120.97255" pt_clust_6="14000.00000"></scales>
<clustering>
<clus scale="   41.381">  2  4  1 -1</clus>
<clus scale="   34.537">  2  3  1 -1</clus>
<clus scale="  120.973">  2  5  1 -1</clus>
<clus scale="   41.381">  2  3  1 -1</clus>
</clustering>
</event>
<event>
 6    0  0.4081161E+002  0.9478893E+02  0.7546771E-02  0.1291652E+00
          1   -1    0    0  504    0 -0.00000000000E+00  0.00000000000E+00  0.18899836707E+03  0.18899836707E+03  0.00000000000E+00 0.  1.
         21   -1    0    0  505  502  0.00000000000E+00 -0.00000000000E+00 -0.64095934031E+03  0.64095934031E+03  0.00000000000E+00 0.  1.
         21    1    1    2  503  502 -0.23920851592E+02  0.22987603869E+02 -0.25284900353E+03  0.25501618705E+03  0.00000000000E+00 0.  1.
         21    1    1    2  504  503 -0.77617607232E+02 -0.29893026851E+02 -0.33230119433E+03  0.34255243359E+03  0.00000000000E+00 0.  1.
         21    1    1    2  505  501  0.19428543188E+02 -0.41462408364E+02 -0.21591451738E+02  0.50624009975E+02  0.00000000000E+00 0.  1.
          1    1    1    2  501    0  0.82109915636E+02  0.48367831346E+02  0.15478067636E+03  0.18176507676E+03  0.00000000000E+00 0.  1.
<scales pt_clust_3="33.17585" pt_clust_4="94.78893" pt_clust_5="42.91409" pt_clust_6="14000.00000"></scales>
<clustering>
<clus scale="   33.176">  2  3  1 -1</clus>
<clus scale="   42.914">  2  5  1 -1</clus>
<clus scale="   94.789">  2  4  1 -1</clus>
<clus scale="   33.176">  2  3  1 -1</clus>
</clustering>
</event>
<event>
 6    0  0.4081161E+002  0.3142499E+03  0.7546771E-02  0.1078326E+00
          2   -1    0    0  504    0 -0.00000000000E+00  0.00000000000E+00  0.75334329655E+03  0.75334329655E+03  0.00000000000E+00 0.  1.
         21   -1    0    0  503  502  0.00000000000E+00 -0.00000000000E+00 -0.39064119607E+03  0.39064119607E+03  0.00000000000E+00 0. -1.
         21    1    1    2  503  501  0.82550632748E+02  0.14549946969E+03  0.44822447521E+03  0.47842437524E+03  0.00000000000E+00 0.  1.
         21    1    1    2  504  505 -0.15530460235E+02 -0.10113506503E+03 -0.42499097896E+02  0.11079562218E+03  0.00000000000E+00 0. -1.
         21    1    1    2  505  502 -0.15516906006E+03 -0.12228206633E+03 -0.24881948296E+03  0.31771288304E+03  0.00000000000E+00 0. -1.
          2    1    1    2  501    0  0.88148887551E+02  0.77917661660E+02  0.20579620612E+03  0.23705161216E+03  0.00000000000E+00 0.  1.
<scales pt_clust_3="59.94394" pt_clust_4="101.00858" pt_clust_5="101.00858" pt_clust_6="290.10832"></scales>
<clustering>
<clus scale="   59.944">  3  6 -1 -1</clus>
<clus scale="  101.009">  4  5 -1 -1</clus>
<clus scale="  290.108">  1  3  2 -1</clus>
<clus scale="  314.250">  2  3  1 -1</clus>
</clustering>
</event>
<event>
 6    0  0.4081161E+002  0.1685398E+03  0.7546771E-02  0.1179379E+00
         21   -1    0    0  503  502  0.00000000000E+00  0.00000000000E+00  0.10167598009E+04  0.10167598009E+04  0.00000000000E+00 0.  1.
          3   -1    0    0  505    0 -0.00000000000E+00 -0.00000000000E+00 -0.20925911909E+03  0.20925911909E+03  0.00000000000E+00 0. -1.
         21    1    1    2  503  504  0.17686829062E+03  0.33120387490E+02  0.68975606083E+03  0.71284133981E+03  0.00000000000E+00 0.  1.
         21    1    1    2  504  501 -0.15292081174E+03  0.44004502556E+02  0.27691415308E+03  0.31937848877E+03  0.00000000000E+00 0.  1.
         21    1    1    2  505  502  0.25914050148E+02 -0.30426150361E+02 -0.40686739049E+02  0.57032441253E+02  0.00000000000E+00 0.  1.
          3    1    1    2  501    0 -0.49861529021E+02 -0.46698739685E+02 -0.11848279302E+03  0.13676665020E+03  0.00000000000E+00 0. -1.
<scales pt_clust_3="168.53982" pt_clust_4="14000.00000" pt_clust_5="39.96609" pt_clust_6="76.70104"></scales>
<clustering>
<clus scale="   39.966">  2  5  1 -1</clus>
<clus scale="   76.701">  2  6  1 -1</clus>
<clus scale="  168.540">  1  3  2 -1</clus>
<clus scale="  168.540">  1  3  2 -1</clus>
</clustering>
</event>
<event>
 6    0  0.4081161E+002  0.1022842E+03  0.7546771E-02  0.1275565E+00
          2   -1    0    0  504    0 -0.00000000000E+00  0.00000000000E+00  0.29808028694E+04  0.29808028694E+04  0.00000000000E+00 0.  1.
         21   -1    0    0  505  502  0.00000000000E+00 -0.00000000000E+00 -0.14348075471E+02  0.14348075471E+02  0.00000000000E+00 0.  1.
         21    1    1    2  503  501 -0.54182544940E+02  0.21336751841E+02  0.14101220446E+04  0.14113239125E+04  0.00000000000E+00 0.  1.
         21    1    1    2  504  502  0.10102028263E+02 -0.97243515682E+02  0.62059030192E+03  0.62824412067E+03  0.00000000000E+00 0.  1.
         21    1    1    2  505  503  0.85461858072E+02  0.45937015319E+02  0.25355834650E+03  0.27148807274E+03  0.00000000000E+00 0.  1.
          2    1    1    2  501    0 -0.41381341396E+02  0.29969748523E+02  0.68218410091E+03  0.68409483902E+03  0.00000000000E+00 0.  1.
<scales pt_clust_3="33.38043" pt_clust_4="95.87566" pt_clust_5="97.02545" pt_clust_6="33.38043"></scales>
<clustering>
<clus scale="   33.380">  3  6 -1 -1</clus>
<clus scale="   97.025">  2  5  1 -1</clus>
<clus scale="   95.876">  2  4  1 -1</clus>
<clus scale="   97.025">  2  3  1 -1</clus>
</clustering>
</event>
<event>
 6    0  0.4081161E+002  0.1094468E+03  0.7546771E-02  0.1261598E+00
         21   -1    0    0  504  502  0.00000000000E+00  0.00000000000E+00  0.34509714399E+02  0.34509714399E+02  0.00000000000E+00 0.  1.
          2   -1    0    0  505    0 -0.00000000000E+00 -0.00000000000E+00 -0.32523370133E+04  0.32523370133E+04  0.00000000000E+00 0.  1.
         21    1    1    2  503  502 -0.14914336353E+01 -0.45605919916E+02 -0.57507714408E+02  0.73411589835E+02  0.00000000000E+00 0.  1.
         21    1    1    2  504  501 -0.49748066493E+02  0.14217431213E+03 -0.20029815693E+03  0.25061475778E+03  0.00000000000E+00 0.  1.
         21    1    1    2  505  503  0.35522379337E+02 -0.60744553186E+01 -0.99754954669E+03  0.99820029880E+03  0.00000000000E+00 0.  1.
          2    1    1    2  501    0  0.15717120791E+02 -0.90493936899E+02 -0.19624718809E+04  0.19646200813E+04  0.00000000000E+00 0.  1.
<scales pt_clust_3="45.78461" pt_clust_4="109.44677" pt_clust_5="36.03801" pt_clust_6="14000.00000"></scales>
<clustering>
<clus scale="   36.038">  2  5  1 -1</clus>
<clus scale="   45.785">  1  3  2 -1</clus>
<clus scale="  109.447">  1  4  2 -1</clus>
<clus scale="   45.785">  1  3  2 -1</clus>
</clustering>
</event>
<event>
 6    0  0.4081161E+002  0.8918726E+02  0.7546771E-02  0.1304832E+00
         -1   -1    0    0    0  501 -0.00000000000E+00  0.00000000000E+00  0.26902844668E+03  0.26902844668E+03  0.00000000000E+00 0. -1.
         21   -1    0    0  504  502  0.00000000000E+00 -0.00000000000E+00 -0.11733585552E+04  0.11733585552E+04  0.00000000000E+00 0.  1.
         21    1    1    2  503  502 -0.13675193433E+02 -0.94131183994E+02 -0.46648709021E+02  0.10594240307E+03  0.00000000000E+00 0. -1.
         21    1    1    2  504  505 -0.48124301706E+02  0.15587692494E+02 -0.10800874168E+04  0.10812713593E+04  0.00000000000E+00 0.  1.
         21    1    1    2  505  501  0.59617248911E+02  0.45965576225E+02  0.83254654887E+02  0.11224254152E+03  0.00000000000E+00 0. -1.
         -1    1    1    2    0  503  0.21822462278E+01  0.32577915275E+02  0.13915136241E+03  0.14293069797E+03  0.00000000000E+00 0. -1.
<scales pt_clust_3="89.18726" pt_clust_4="50.62285" pt_clust_5="14000.00000" pt_clust_6="32.65092"></scales>
<clustering>
<clus scale="   32.651">  1  6  2 -1</clus>
<clus scale="   50.623">  2  4  1 -1</clus>
<clus scale="   89.187">  2  3  1 -1</clus>
<clus scale="   50.623">  2  3  1 -1</clus>
</clustering>
</event>
<event>
 6    0  0.4081161E+002  0.7562662E+02  0.7546771E-02  0.1341942E+00
         21   -1    0    0  504  502  0.00000000000E+00  0.00000000000E+00  0.10139564588E+02  0.10139564588E+02  0.00000000000E+00 0.  1.
          1   -1    0    0  505    0 -0.00000000000E+00 -0.00000000000E+00 -0.27163218874E+04  0.27163218874E+04  0.00000000000E+00 0.  1.
         21    1    1    2  503  502  0.31816921866E+02 -0.20805735527E+01 -0.69887666391E+02  0.76817518945E+02  0.00000000000E+00 0.  1.
         21    1    1    2  504  501 -0.27588673716E+02 -0.37941330514E+02 -0.23143604659E+03  0.23614259070E+03  0.00000000000E+00 0.  1.
         21    1    1    2  505  503  0.50834427172E+02  0.85714625957E+02 -0.69092749654E+03  0.69807731775E+03  0.00000000000E+00 0.  1.
          1    1    1    2  501    0 -0.55062675322E+02 -0.45692721890E+02 -0.17139311133E+04  0.17154240246E+04  0.00000000000E+00 0.  1.
<scales pt_clust_3="31.88488" pt_clust_4="41.99709" pt_clust_5="14000.00000" pt_clust_6="75.62662"></scales>
<clustering>
<clus scale="   31.885">  1  3  2 -1</clus>
<clus scale="   41.997">  1  4  2 -1</clus>
<clus scale="   75.627">  2  6  1 -1</clus>
<clus scale="   31.885">  1  3  2 -1</clus>
</clustering>
</event>
<event>
 6    0  0.4081161E+002  0.7914773E+02  0.7546771E-02  0.1331488E+00
          2   -1    0    0  505    0 -0.00000000000E+00  0.00000000000E+00  0.13851588845E+04  0.13851588845E+04  0.00000000000E+00 0.  1.
         21   -1    0    0  504  502  0.00000000000E+00 -0.00000000000E+00 -0.24889151430E+02  0.24889151430E+02  0.00000000000E+00 0. -1.
         21    1    1    2  503  502  0.19434488082E+02 -0.24065920453E+02  0.19400269448E+02  0.36513535968E+02  0.00000000000E+00 0. -1.
         21    1    1    2  504  501 -0.48347043680E+02 -0.29067347725E+02  0.18272716419E+03  0.19123693124E+03  0.00000000000E+00 0. -1.
         21    1    1    2  505  503 -0.48723114894E+02  0.74781655191E+02  0.18072917757E+03  0.20156704469E+03  0.00000000000E+00 0. -1.
          2    1    1    2  501    0  0.77635670492E+02 -0.21648387014E+02  0.97741312182E+03  0.98073052399E+03  0.00000000000E+00 0.  1.
<scales pt_clust_3="30.93328" pt_clust_4="55.87670" pt_clust_5="14000.00000" pt_clust_6="79.14773"></scales>
<clustering>
<clus scale="   30.933">  2  3  1 -1</clus>
<clus scale="   55.877">  2  4  1 -1</clus>
<clus scale="   79.148">  1  6  2 -1</clus>
<clus scale="   30.933">  2  3  1 -1</clus>
</clustering>
</event>
<event>
 6    0  0.4081161E+002  0.1355039E+03  0.7546771E-02  0.1219510E+00
         -2   -1    0    0    0  501 -0.00000000000E+00  0.00000000000E+00  0.14321428075E+04  0.14321428075E+04  0.00000000000E+00 0. -1.
         21   -1    0    0  505  502  0.00000000000E+00 -0.00000000000E+00 -0.26449774087E+02  0.26449774087E+02  0.00000000000E+00 0. -1.
         21    1    1    2  503  502 -0.25131552702E+02 -0.28488764942E+02  0.35380133833E+03  0.35583506245E+03  0.00000000000E+00 0. -1.
         21    1    1    2  504  501  0.79210310741E+02  0.12655144946E+03  0.74473228549E+03  0.75954968220E+03  0.00000000000E+00 0. -1.
         21    1    1    2  505  504 -0.67019164437E+01 -0.42204318019E+02  0.20606154450E+02  0.47441898620E+02  0.00000000000E+00 0. -1.
         -2    1    1    2    0  503 -0.47376841595E+02 -0.55858366504E+02  0.28655325513E+03  0.29576593829E+03  0.00000000000E+00 0. -1.
<scales pt_clust_3="33.45539" pt_clust_4="127.29241" pt_clust_5="42.73313" pt_clust_6="33.45539"></scales>
<clustering>
<clus scale="   33.455">  3  6 -1 -1</clus>
<clus scale="   42.733">  2  5  1 -1</clus>
<clus scale="  127.292">  2  4  1 -1</clus>
<clus scale="   42.733">  2  3  1 -1</clus>
</clustering>
</event>
<event>
 6    0  0.4081161E+002  0.1389747E+03  0.7546771E-02  0.1214715E+00
          2   -1    0    0  504    0 -0.00000000000E+00  0.00000000000E+00  0.53390718935E+03  0.53390718935E+03  0.00000000000E+00 0. -1.
         21   -1    0    0  505  502  0.00000000000E+00 -0.00000000000E+00 -0.40087701208E+03  0.40087701208E+03  0.00000000000E+00 0. -1.
         21    1    1    2  503  501 -0.85370839763E+02  0.67164721941E+02 -0.24099629655E+03  0.26434540871E+03  0.00000000000E+00 0. -1.
         21    1    1    2  504  502 -0.81818137712E+01 -0.28972765188E+02  0.30925883184E+02  0.43159859244E+02  0.00000000000E+00 0. -1.
         21    1    1    2  505  503  0.20209352959E+02  0.59525694198E+02 -0.12692160364E+03  0.14163622307E+03  0.00000000000E+00 0. -1.
          2    1    1    2  501    0  0.73343300575E+02 -0.97717650951E+02  0.47002219428E+03  0.48564271040E+03  0.00000000000E+00 0. -1.
<scales pt_clust_3="138.97467" pt_clust_4="30.10587" pt_clust_5="62.41757" pt_clust_6="14000.00000"></scales>
<clustering>
<clus scale="   30.106">  1  4  2 -1</clus>
<clus scale="   62.418">  2  5  1 -1</clus>
<clus scale="  138.975">  2  3  1 -1</clus>
<clus scale="   62.418">  2  3  1 -1</clus>
</clustering>
</event>
<event>
 6    0  0.4081161E+002  0.9673691E+02  0.7546771E-02  0.1287311E+00
         21   -1    0    0  501  502  0.00000000000E+00  0.00000000000E+00  0.49285853193E+02  0.49285853193E+02  0.00000000000E+00 0.  1.
          2   -1    0    0  504    0 -0.00000000000E+00 -0.00000000000E+00 -0.71697880456E+03  0.71697880456E+03  0.00000000000E+00 0.  1.
         21    1    1    2  503  502 -0.37869281087E+02  0.14301219404E+02 -0.23757148421E+02  0.46936227241E+02  0.00000000000E+00 0.  1.
         21    1    1    2  504  505  0.29399834776E+02  0.23294358769E+02 -0.13973014589E+03  0.14467719622E+03  0.00000000000E+00 0.  1.
         21    1    1    2  505  503  0.11483907291E+02 -0.11262399519E+03 -0.68065795820E+02  0.13209465159E+03  0.00000000000E+00 0.  1.
          2    1    1    2  501    0 -0.30144609801E+01  0.75028417014E+02 -0.43613986123E+03  0.44255658270E+03  0.00000000000E+00 0.  1.
<scales pt_clust_3="39.34422" pt_clust_4="37.50970" pt_clust_5="14000.00000" pt_clust_6="96.73691"></scales>
<clustering>
<clus scale="   37.510">  2  4  1 -1</clus>
<clus scale="   39.344">  1  3  2 -1</clus>
<clus scale="   96.737">  2  6  1 -1</clus>
<clus scale="   39.344">  1  3  2 -1</clus>
</clustering>
</event>
<event>
 6    0  0.4081161E+002  0.8947616E+02  0.7546771E-02  0.1304125E+00
          1   -1    0    0  503    0 -0.00000000000E+00  0.00000000000E+00  0.24535663715E+03  0.24535663715E+03  0.00000000000E+00 0.  1.
         21   -1    0    0  501  502  0.00000000000E+00 -0.00000000000E+00 -0.16337877654E+03  0.16337877654E+03  0.00000000000E+00 0. -1.
         21    1    1    2  503  504  0.12649722599E+02  0.28160925149E+02  0.15146429631E+02  0.34387025426E+02  0.00000000000E+00 0. -1.
         21    1    1    2  504  505  0.85073014250E+02  0.28924297614E+02 -0.92856292555E+02  0.12921425546E+03  0.00000000000E+00 0. -1.
         21    1    1    2  505  502  0.18674896479E+01 -0.51985296925E+02 -0.53660820536E+01  0.52294870213E+02  0.00000000000E+00 0.  1.
          1    1    1    2  501    0 -0.99590226497E+02 -0.50999258375E+01  0.16505380559E+03  0.19283926260E+03  0.00000000000E+00 0.  1.
<scales pt_clust_3="30.87156" pt_clust_4="89.47616" pt_clust_5="49.09504" pt_clust_6="14000.00000"></scales>
<clustering>
<clus scale="   30.872">  1  3  2 -1</clus>
<clus scale="   49.095">  2  5  1 -1</clus>
<clus scale="   89.476">  2  4  1 -1</clus>
<clus scale="   49.095">  2  3  1 -1</clus>
</clustering>
</event>
<event>
 6    0  0.4081161E+002  0.8530620E+02  0.7546771E-02  0.1314634E+00
         21   -1    0    0  504  502  0.00000000000E+00  0.00000000000E+00  0.76276457041E+02  0.76276457041E+02  0.00000000000E+00 0.  1.
          2   -1    0    0  505    0 -0.00000000000E+00 -0.00000000000E+00 -0.58633434322E+03  0.58633434322E+03  0.00000000000E+00 0. -1.
         21    1    1    2  503  502 -0.87435358109E+02  0.19036875193E+02 -0.42290328553E+02  0.98973816507E+02  0.00000000000E+00 0.  1.
         21    1    1    2  504  501  0.61982959889E+02 -0.63368985936E+02 -0.28869743780E+02  0.93225413923E+02  0.00000000000E+00 0.  1.
         21    1    1    2  505  503 -0.37263693197E+02 -0.37456983713E+02 -0.71962419134E+02  0.89275966683E+02  0.00000000000E+00 0.  1.
          2    1    1    2  501    0  0.62716091417E+02  0.81789094456E+02 -0.36693539471E+03  0.38113560315E+03  0.00000000000E+00 0. -1.
<scales pt_clust_3="85.30620" pt_clust_4="14000.00000" pt_clust_5="52.83567" pt_clust_6="64.50664"></scales>
<clustering>
<clus scale="   52.836">  2  5  1 -1</clus>
<clus scale="   64.507">  2  6  1 -1</clus>
<clus scale="   85.306">  2  3  1 -1</clus>
<clus scale="   85.306">  1  3  2 -1</clus>
</clustering>
</event>
<event>
 6    0  0.4081161E+002  0.6933587E+02  0.7546771E-02  0.1362366E+00
         21   -1    0    0  505  502  0.00000000000E+00  0.00000000000E+00  0.98538385079E+02  0.98538385079E+02  0.00000000000E+00 0. -1.
          1   -1    0    0  503    0 -0.00000000000E+00 -0.00000000000E+00 -0.53531876442E+03  0.53531876442E+03  0.00000000000E+00 0. -1.
         21    1    1    2  503  504 -0.70630005181E+02  0.42019475800E+01 -0.11379670352E+03  0.13399979003E+03  0.00000000000E+00 0. -1.
         21    1    1    2  504  502  0.80133866664E+02  0.92032750943E+01 -0.45602988619E+02  0.92659427097E+02  0.00000000000E+00 0. -1.
         21    1    1    2  505  501 -0.26706345518E+02 -0.57603569203E+02  0.47234718440E+02  0.79136077120E+02  0.00000000000E+00 0. -1.
          1    1    1    2  501    0  0.17202484035E+02  0.44198346528E+02 -0.32461540564E+03  0.32806185525E+03  0.00000000000E+00 0. -1.
<scales pt_clust_3="69.33587" pt_clust_4="14000.00000" pt_clust_5="59.88090" pt_clust_6="47.42804"></scales>
<clustering>
<clus scale="   47.428">  2  6  1 -1</clus>
<clus scale="   59.881">  1  5  2 -1</clus>
<clus scale="   69.336">  2  3  1 -1</clus>
<clus scale="   59.881">  1  3  2 -1</clus>
</clustering>
</event>
<event>
 6    0  0.4081161E+002  0.7869950E+02  0.7546771E-02  0.1332783E+00
         21   -1    0    0  503  502  0.00000000000E+00  0.00000000000E+00  0.19249970683E+03  0.19249970683E+03  0.00000000000E+00 0.  1.
          2   -1    0    0  505    0 -0.00000000000E+00 -0.00000000000E+00 -0.10872405100E+03  0.10872405100E+03  0.00000000000E+00 0.  1.
         21    1    1    2  503  501 -0.86668585380E+02 -0.57112930258E+02  0.76241224667E+02  0.12878685815E+03  0.00000000000E+00 0.  1.
         21    1    1    2  504  502  0.60396478000E+02  0.17956909026E+02  0.37430626966E+02  0.73288723360E+02  0.00000000000E+00 0.  1.
         21    1    1    2  505  504 -0.26213081206E+02  0.29268201673E+02 -0.31493854069E+01  0.39416644757E+02  0.00000000000E+00 0. -1.
          2    1    1    2  501    0  0.52485188585E+02  0.98878195584E+01 -0.26746810390E+02  0.59731531559E+02  0.00000000000E+00 0.  1.
<scales pt_clust_3="14000.00000" pt_clust_4="78.69950" pt_clust_5="39.29063" pt_clust_6="46.42749"></scales>
<clustering>
<clus scale="   39.291">  2  5  1 -1</clus>
<clus scale="   46.427">  2  6  1 -1</clus>
<clus scale="   78.700">  1  4  2 -1</clus>
<clus scale="   78.700">  1  3  2 -1</clus>
</clustering>
</event>
<event>
 6    0  0.4081161E+002  0.8961969E+02  0.7546771E-02  0.1303775E+00
          2   -1    0    0  503    0 -0.00000000000E+00  0.00000000000E+00  0.32214265764E+04  0.32214265764E+04  0.00000000000E+00 0. -1.
         21   -1    0    0  505  502  0.00000000000E+00 -0.00000000000E+00 -0.63615506848E+03  0.63615506848E+03  0.00000000000E+00 0. -1.
         21    1    1    2  503  504  0.25097225827E+02 -0.32391738350E+02  0.13846457835E+03  0.14440060566E+03  0.00000000000E+00 0.  1.
         21    1    1    2  504  502  0.10524020455E+02  0.28667045062E+02 -0.45718580136E+03  0.45820455196E+03  0.00000000000E+00 0. -1.
         21    1    1    2  505  501 -0.43764855274E+02 -0.11105401623E+03 -0.15398613315E+03  0.19483348347E+03  0.00000000000E+00 0.  1.
          2    1    1    2  501    0  0.81436089918E+01  0.11477870952E+03  0.30579788641E+04  0.30601430038E+04  0.00000000000E+00 0. -1.
<scales pt_clust_3="40.70936" pt_clust_4="30.53775" pt_clust_5="14000.00000" pt_clust_6="89.61969"></scales>
<clustering>
<clus scale="   30.538">  2  4  1 -1</clus>
<clus scale="   40.709">  1  3  2 -1</clus>
<clus scale="   89.620">  1  6  2 -1</clus>
<clus scale="   30.538">  2  3  1 -1</clus>
</clustering>
</event>
<event>
 6    0  0.4081161E+002  0.1195397E+03  0.7546771E-02  0.1243858E+00
          2   -1    0    0  504    0 -0.00000000000E+00  0.00000000000E+00  0.13092689310E+04  0.13092689310E+04  0.00000000000E+00 0.  1.
         21   -1    0    0  503  502  0.00000000000E+00 -0.00000000000E+00 -0.10705458034E+03  0.10705458034E+03  0.00000000000E+00 0.  1.
         21    1    1    2  503  505 -0.60380990627E+02 -0.97458422617E+02  0.40840942191E+03  0.42419602082E+03  0.00000000000E+00 0.  1.
         21    1    1    2  504  502 -0.35556690484E+02  0.39576966863E+02 -0.87555155465E+02  0.10245252458E+03  0.00000000000E+00 0.  1.
         21    1    1    2  505  501  0.52469442679E+02  0.42682346612E+02  0.36102625145E+03  0.36730747251E+03  0.00000000000E+00 0.  1.
          2    1    1    2  501    0  0.43468238432E+02  0.15199109142E+02  0.52033383280E+03  0.52236749347E+03  0.00000000000E+00 0.  1.
<scales pt_clust_3="110.08226" pt_clust_4="53.20352" pt_clust_5="38.45125" pt_clust_6="38.45125"></scales>
<clustering>
<clus scale="   38.451">  5  6 -1 -1</clus>
<clus scale="   53.204">  2  4  1 -1</clus>
<clus scale="  110.082">  2  3  1 -1</clus>
<clus scale="   53.204">  2  3  1 -1</clus>
</clustering>
</event>
<event>
 6    0  0.4081161E+002  0.1362144E+03  0.7546771E-02  0.1218515E+00
         21   -1    0    0  504  502  0.00000000000E+00  0.00000000000E+00  0.57061830241E+02  0.57061830241E+02  0.00000000000E+00 0. -1.
          1   -1    0    0  503    0 -0.00000000000E+00 -0.00000000000E+00 -0.13358679572E+04  0.13358679572E+04  0.00000000000E+00 0.  1.
         21    1    1    2  503  502  0.46995752207E+02  0.23445638243E+02 -0.26355340386E+03  0.26873536307E+03  0.00000000000E+00 0.  1.
         21    1    1    2  504  505 -0.23095189619E+02 -0.22175904735E+02 -0.77054610882E+01  0.32932243545E+02  0.00000000000E+00 0. -1.
         21    1    1    2  505  501 -0.12108502331E+03  0.34333735734E+02 -0.62424634711E+02  0.14048922840E+03  0.00000000000E+00 0. -1.
          1    1    1    2  501    0  0.97184460718E+02 -0.35603469242E+02 -0.94512262734E+03  0.95077295246E+03  0.00000000000E+00 0.  1.
<scales pt_clust_3="50.74081" pt_clust_4="32.01810" pt_clust_5="136.21438" pt_clust_6="14000.00000"></scales>
<clustering>
<clus scale="   32.018">  1  4  2 -1</clus>
<clus scale="   50.741">  2  3  1 -1</clus>
<clus scale="  136.214">  1  5  2 -1</clus>
<clus scale="   32.018">  1  3  2 -1</clus>
</clustering>
</event>
<event>
 6    0  0.4081161E+002  0.9839059E+02  0.7546771E-02  0.1283717E+00
         21   -1    0    0  501  502  0.00000000000E+00  0.00000000000E+00  0.51672284410E+02  0.51672284410E+02  0.00000000000E+00 0. -1.
          1   -1    0    0  505    0 -0.00000000000E+00 -0.00000000000E+00 -0.95612392510E+03  0.95612392510E+03  0.00000000000E+00 0.  1.
         21    1    1    2  503  502 -0.80155275158E+02 -0.63281380705E+02 -0.18899264657E+02  0.10385847815E+03  0.00000000000E+00 0. -1.
         21    1    1    2  504  503 -0.22613729298E+02  0.45198909301E+02 -0.19090087634E+03  0.19747776265E+03  0.00000000000E+00 0.  1.
         21    1    1    2  505  504  0.40780000686E+02 -0.30181287202E+01 -0.97484322607E+02  0.10571334216E+03  0.00000000000E+00 0.  1.
          1    1    1    2  501    0  0.61989003769E+02  0.21100600124E+02 -0.59716717709E+03  0.60074662654E+03  0.00000000000E+00 0.  1.
<scales pt_clust_3="14000.00000" pt_clust_4="46.47087" pt_clust_5="40.89153" pt_clust_6="98.39059"></scales>
<clustering>
<clus scale="   40.892">  2  5  1 -1</clus>
<clus scale="   46.471">  2  4  1 -1</clus>
<clus scale="   98.391">  2  6  1 -1</clus>
<clus scale="   98.391">  1  3  2 -1</clus>
</clustering>
</event>
<event>
 6    0  0.4081161E+002  0.1406846E+03  0.7546771E-02  0.1212411E+00
         21   -1    0    0  504  502  0.00000000000E+00  0.00000000000E+00  0.13201571470E+03  0.13201571470E+03  0.00000000000E+00 0.  1.
          1   -1    0    0  505    0 -0.00000000000E+00 -0.00000000000E+00 -0.27769734773E+04  0.27769734773E+04  0.00000000000E+00 0.  1.
         21    1    1    2  503  501  0.74870906878E+02 -0.12152079803E+03 -0.93764790799E+03  0.94844955396E+03  0.00000000000E+00 0.  1.
         21    1    1    2  504  503 -0.35772595190E+02 -0.18325677425E+02 -0.50250036588E+02  0.64347301395E+02  0.00000000000E+00 0.  1.
         21    1    1    2  505  502  0.93060240222E+02  0.74047860247E+02  0.86081475991E+02  0.14681047111E+03  0.00000000000E+00 0.  1.
          1    1    1    2  501    0 -0.13215855191E+03  0.65798615203E+02 -0.17431412940E+04  0.17493818656E+04  0.00000000000E+00 0.  1.
<scales pt_clust_3="140.68457" pt_clust_4="40.19340" pt_clust_5="82.54138" pt_clust_6="14000.00000"></scales>
<clustering>
<clus scale="   40.193">  1  4  2 -1</clus>
<clus scale="   82.541">  1  5  2 -1</clus>
<clus scale="  140.685">  1  3  2 -1</clus>
<clus scale="   40.193">  1  3  2 -1</clus>
</clustering>
</event>
<event>
 6    0  0.6114047E+002  0.9671529E+02  0.7546771E-02  0.1287359E+00
          2   -1    0    0  505    0 -0.00000000000E+00  0.00000000000E+00  0.28147319189E+04  0.28147319189E+04  0.00000000000E+00 0.  1.
         21   -1    0    0  503  502  0.00000000000E+00 -0.00000000000E+00 -0.58757366906E+03  0.58757366906E+03  0.00000000000E+00 0.  1.
         21    1    1    2  503  504  0.44171840840E+02 -0.12096585940E+03 -0.56265065576E+03  0.57719983636E+03  0.00000000000E+00 0.  1.
         21    1    1    2  504  501 -0.61670928245E+02  0.45954861697E+02  0.98200739607E+03  0.98501455757E+03  0.00000000000E+00 0.  1.
         21    1    1    2  505  502 -0.58962424339E+01  0.31567403457E+02  0.50100858438E+00  0.32117248411E+02  0.00000000000E+00 0.  1.
          2    1    1    2  501    0  0.23395329839E+02  0.43443594246E+02  0.18073005009E+04  0.18079739456E+04  0.00000000000E+00 0.  1.
<scales pt_clust_3="96.71529" pt_clust_4="14000.00000" pt_clust_5="32.11334" pt_clust_6="49.35727"></scales>
<clustering>
<clus scale="   32.113">  2  5  1 -1</clus>
<clus scale="   49.357">  1  6  2 -1</clus>
<clus scale="   96.715">  2  3  1 -1</clus>
<clus scale="   32.113">  2  3  1 -1</clus>
</clustering>
</event>
<event>
 6    0  0.4081161E+002  0.9165973E+02  0.7546771E-02  0.1298881E+00
          1   -1    0    0  503    0 -0.00000000000E+00  0.00000000000E+00  0.14992928063E+04  0.14992928063E+04  0.00000000000E+00 0.  1.
         21   -1    0    0  505  502  0.00000000000E+00 -0.00000000000E+00 -0.14478531233E+03  0.14478531233E+03  0.00000000000E+00 0.  1.
         21    1    1    2  503  502 -0.42521221826E+02 -0.29278265954E+01 -0.67628611725E+01  0.43155101267E+02  0.00000000000E+00 0.  1.
         21    1    1    2  504  501  0.58048848289E+02 -0.10482372646E+03  0.24816345183E+03  0.27557717837E+03  0.00000000000E+00 0.  1.
         21    1    1    2  505  504 -0.34573272550E+02  0.55406877414E+02 -0.95368644577E+02  0.11558724674E+03  0.00000000000E+00 0.  1.
          1    1    1    2  501    0  0.19045646087E+02  0.52344675639E+02  0.12084755479E+04  0.12097585923E+04  0.00000000000E+00 0.  1.
<scales pt_clust_3="42.62190" pt_clust_4="14000.00000" pt_clust_5="91.65973" pt_clust_6="55.60972"></scales>
<clustering>
<clus scale="   42.622">  2  3  1 -1</clus>
<clus scale="   55.610">  1  6  2 -1</clus>
<clus scale="   91.660">  2  5  1 -1</clus>
<clus scale="   42.622">  2  3  1 -1</clus>
</clustering>
</event>
<event>
 6    0  0.4081161E+002  0.3305572E+03  0.7546771E-02  0.1070891E+00
         21   -1    0    0  504  502  0.00000000000E+00  0.00000000000E+00  0.26910480705E+03  0.26910480705E+03  0.00000000000E+00 0.  1.
          2   -1    0    0  503    0 -0.00000000000E+00 -0.00000000000E+00 -0.29774506107E+04  0.29774506107E+04  0.00000000000E+00 0.  1.
         21    1    1    2  503  505  0.81069300778E+02 -0.40207013081E+02 -0.74724740140E+03  0.75270679173E+03  0.00000000000E+00 0.  1.
         21    1    1    2  504  501  0.60180572924E+02  0.43940682617E+02  0.16776811258E+02  0.76380274563E+02  0.00000000000E+00 0.  1.
         21    1    1    2  505  502 -0.11863591823E+03  0.28741244813E+03  0.94220089892E+02  0.32489663245E+03  0.00000000000E+00 0.  1.
          2    1    1    2  501    0 -0.22613955473E+02 -0.29114611767E+03 -0.20720953034E+04  0.20925717190E+04  0.00000000000E+00 0.  1.
<scales pt_clust_3="90.91766" pt_clust_4="74.51500" pt_clust_5="14000.00000" pt_clust_6="330.55717"></scales>
<clustering>
<clus scale="   74.515">  1  4  2 -1</clus>
<clus scale="   90.918">  2  3  1 -1</clus>
<clus scale="  330.557">  2  6  1 -1</clus>
<clus scale="   74.515">  1  3  2 -1</clus>
</clustering>
</event>
<event>
 6    0  0.4081161E+002  0.1485017E+03  0.7546771E-02  0.1202326E+00
          2   -1    0    0  504    0 -0.00000000000E+00  0.00000000000E+00  0.56585711327E+03  0.56585711327E+03  0.00000000000E+00 0. -1.
         21   -1    0    0  503  502  0.00000000000E+00 -0.00000000000E+00 -0.10910771597E+04  0.10910771597E+04  0.00000000000E+00 0.  1.
         21    1    1    2  503  501  0.38674911507E+02 -0.42548081649E+01  0.79969787745E+02  0.88932666240E+02  0.00000000000E+00 0.  1.
         21    1    1    2  504  505 -0.14795156450E+03 -0.52434479264E+02 -0.25072991972E+03  0.29581165071E+03  0.00000000000E+00 0.  1.
         21    1    1    2  505  502  0.11702207365E+03  0.90193927139E+02 -0.80595584996E+03  0.81938632055E+03  0.00000000000E+00 0.  1.
          2    1    1    2  501    0 -0.77454206531E+01 -0.33504639710E+02  0.45149593555E+03  0.45280363542E+03  0.00000000000E+00 0. -1.
<scales pt_clust_3="43.96542" pt_clust_4="14000.00000" pt_clust_5="148.50171" pt_clust_6="34.38826"></scales>
<clustering>
<clus scale="   34.388">  1  6  2 -1</clus>
<clus scale="   43.965">  1  3  2 -1</clus>
<clus scale="  148.502">  2  5  1 -1</clus>
<clus scale="  148.502">  2  3  1 -1</clus>
</clustering>
</event>
<event>
 6    0  0.4081161E+002  0.8240268E+02  0.7546771E-02  0.1322368E+00
          2   -1    0    0  505    0 -0.00000000000E+00  0.00000000000E+00  0.33447070851E+04  0.33447070851E+04  0.00000000000E+00 0.  1.
         21   -1    0    0  501  502  0.00000000000E+00 -0.00000000000E+00 -0.22162663621E+03  0.22162663621E+03  0.00000000000E+00 0. -1.
         21    1    1    2  503  502 -0.32331368867E+02 -0.56179125793E+02 -0.17121677020E+03  0.18307537788E+03  0.00000000000E+00 0. -1.
         21    1    1    2  504  503  0.95678979836E+02  0.10837561624E+03  0.76395906910E+02  0.16351169980E+03  0.00000000000E+00 0.  1.
         21    1    1    2  505  504 -0.45170870295E+02  0.55525101948E+01  0.10251666091E+04  0.10261763076E+04  0.00000000000E+00 0.  1.
          2    1    1    2  501    0 -0.18176740675E+02 -0.57749000641E+02  0.21927347030E+04  0.21935703360E+04  0.00000000000E+00 0.  1.
<scales pt_clust_3="64.86369" pt_clust_4="14000.00000" pt_clust_5="45.51085" pt_clust_6="82.40268"></scales>
<clustering>
<clus scale="   45.511">  1  5  2 -1</clus>
<clus scale="   64.864">  2  3  1 -1</clus>
<clus scale="   82.403">  1  6  2 -1</clus>
<clus scale="   64.864">  2  3  1 -1</clus>
</clustering>
</event>
<event>
 6    0  0.4081161E+002  0.3314016E+03  0.7546771E-02  0.1070518E+00
         21   -1    0    0  505  502  0.00000000000E+00  0.00000000000E+00  0.16609648315E+04  0.16609648315E+04  0.00000000000E+00 0.  1.
         -4   -1    0    0    0  501 -0.00000000000E+00 -0.00000000000E+00 -0.35481974291E+03  0.35481974291E+03  0.00000000000E+00 0.  1.
         21    1    1    2  503  504 -0.67768298379E+02  0.34655510191E+03  0.10203303666E+04  0.10797069222E+04  0.00000000000E+00 0.  1.
         21    1    1    2  504  502 -0.49756010213E+02 -0.38484065121E+02  0.50324894403E+03  0.50716484844E+03  0.00000000000E+00 0.  1.
         21    1    1    2  505  501 -0.34941298996E+02 -0.13115169576E+02 -0.16416708554E+02  0.40772666927E+02  0.00000000000E+00 0.  1.
         -4    1    1    2    0  503  0.15246560759E+03 -0.29495586722E+03 -0.20101751346E+03  0.38814013683E+03  0.00000000000E+00 0.  1.
<scales pt_clust_3="14000.00000" pt_clust_4="63.11625" pt_clust_5="37.32160" pt_clust_6="331.40162"></scales>
<clustering>
<clus scale="   37.322">  2  5  1 -1</clus>
<clus scale="   63.116">  1  4  2 -1</clus>
<clus scale="  331.402">  2  6  1 -1</clus>
<clus scale="   63.116">  1  3  2 -1</clus>
</clustering>
</event>
<event>
 6    0  0.4081161E+002  0.1208278E+03  0.7546771E-02  0.1241738E+00
          3   -1    0    0  504    0 -0.00000000000E+00  0.00000000000E+00  0.56555280631E+03  0.56555280631E+03  0.00000000000E+00 0. -1.
         21   -1    0    0  505  502  0.00000000000E+00 -0.00000000000E+00 -0.80940106188E+03  0.80940106188E+03  0.00000000000E+00 0.  1.
         21    1    1    2  503  502 -0.49486266693E+02 -0.10338396621E+02 -0.16354773067E+03  0.17118304017E+03  0.00000000000E+00 0.  1.
         21    1    1    2  504  503  0.57066136446E+02  0.34741244001E+02  0.24097950983E+03  0.25006923466E+03  0.00000000000E+00 0. -1.
         21    1    1    2  505  501  0.18999571338E+02 -0.10856328315E+03 -0.62642646654E+03  0.63604802345E+03  0.00000000000E+00 0.  1.
          3    1    1    2  501    0 -0.26579441091E+02  0.84160435765E+02  0.30514643180E+03  0.31765356991E+03  0.00000000000E+00 0. -1.
<scales pt_clust_3="50.55465" pt_clust_4="66.47225" pt_clust_5="120.82784" pt_clust_6="14000.00000"></scales>
<clustering>
<clus scale="   50.555">  2  3  1 -1</clus>
<clus scale="   66.472">  1  4  2 -1</clus>
<clus scale="  120.828">  2  5  1 -1</clus>
<clus scale="   50.555">  2  3  1 -1</clus>
</clustering>
</event>
<event>
 6    0  0.4081161E+002  0.7806438E+02  0.7546771E-02  0.1334636E+00
          2   -1    0    0  503    0 -0.00000000000E+00  0.00000000000E+00  0.21772164637E+04  0.21772164637E+04  0.00000000000E+00 0.  1.
         21   -1    0    0  505  502  0.00000000000E+00 -0.00000000000E+00 -0.14420258331E+03  0.14420258331E+03  0.00000000000E+00 0.  1.
         21    1    1    2  503  504 -0.55723037150E+02  0.83990237490E+02  0.89147492294E+03  0.89715492258E+03  0.00000000000E+00 0.  1.
         21    1    1    2  504  502  0.51157939818E+02 -0.37860631417E+02  0.19614951675E+02  0.66598112188E+02  0.00000000000E+00 0.  1.
         21    1    1    2  505  501 -0.71816048435E+02 -0.33335652565E+02 -0.10321304932E+03  0.13008360425E+03  0.00000000000E+00 0.  1.
          2    1    1    2  501    0  0.76381145767E+02 -0.12793953508E+02  0.12251370551E+04  0.12275824080E+04  0.00000000000E+00 0.  1.
<scales pt_clust_3="14000.00000" pt_clust_4="63.64403" pt_clust_5="73.41629" pt_clust_6="78.06438"></scales>
<clustering>
<clus scale="   63.644">  2  4  1 -1</clus>
<clus scale="   73.416">  2  5  1 -1</clus>
<clus scale="   78.064">  1  6  2 -1</clus>
<clus scale="   63.644">  2  3  1 -1</clus>
</clustering>
</event>
<event>
 6    0  0.4081161E+002  0.1031529E+03  0.7546771E-02  0.1273802E+00
          2   -1    0    0  505    0 -0.00000000000E+00  0.00000000000E+00  0.40843678654E+04  0.40843678654E+04  0.00000000000E+00 0.  1.
         21   -1    0    0  503  502  0.00000000000E+00 -0.00000000000E+00 -0.44520851361E+03  0.44520851361E+03  0.00000000000E+00 0.  1.
         21    1    1    2  503  501  0.39530732770E+02 -0.75795578989E+02 -0.39820789260E+03  0.40728021601E+03  0.00000000000E+00 0.  1.
         21    1    1    2  504  502 -0.12650060861E+03  0.18893218666E+02  0.58311562545E+02  0.14056883017E+03  0.00000000000E+00 0. -1.
         21    1    1    2  505  504 -0.22212426240E+01  0.38082535885E+02  0.49058846178E+03  0.49206935720E+03  0.00000000000E+00 0. -1.
          2    1    1    2  501    0  0.89191118462E+02  0.18819824438E+02  0.34884672201E+04  0.34896579757E+04  0.00000000000E+00 0.  1.
<scales pt_clust_3="85.44086" pt_clust_4="103.15294" pt_clust_5="38.14726" pt_clust_6="14000.00000"></scales>
<clustering>
<clus scale="   38.147">  1  5  2 -1</clus>
<clus scale="   85.441">  2  3  1 -1</clus>
<clus scale="  103.153">  2  4  1 -1</clus>
<clus scale="   85.441">  2  3  1 -1</clus>
</clustering>
</event>
<event>
 6    0  0.4081161E+002  0.3602839E+03  0.7546771E-02  0.1058471E+00
         21   -1    0    0  504  502  0.00000000000E+00  0.00000000000E+00  0.23871335372E+03  0.23871335372E+03  0.00000000000E+00 0. -1.
          1   -1    0    0  503    0 -0.00000000000E+00 -0.00000000000E+00 -0.75614557298E+03  0.75614557298E+03  0.00000000000E+00 0. -1.
         21    1    1    2  503  502  0.32798406131E+03  0.67575975544E+02 -0.12882567964E+03  0.35879815032E+03  0.00000000000E+00 0. -1.
         21    1    1    2  504  505  0.34651218065E+02 -0.54503341871E+02  0.34196986350E+02  0.73080469785E+02  0.00000000000E+00 0.  1.
         21    1    1    2  505  501 -0.48908988740E+02  0.19956555069E+02 -0.90492912564E+02  0.10478225276E+03  0.00000000000E+00 0. -1.
          1    1    1    2  501    0 -0.31372629063E+03 -0.33029188741E+02 -0.33231061341E+03  0.45819805382E+03  0.00000000000E+00 0. -1.
<scales pt_clust_3="351.13493" pt_clust_4="64.58577" pt_clust_5="33.01352" pt_clust_6="33.01352"></scales>
<clustering>
<clus scale="   33.014">  5  6 -1 -1</clus>
<clus scale="   64.586">  1  4  2 -1</clus>
<clus scale="  351.135">  1  3  2 -1</clus>
<clus scale="   64.586">  1  3  2 -1</clus>
</clustering>
</event>
<event>
 6    0  0.4081161E+002  0.1271610E+03  0.7546771E-02  0.1231730E+00
          2   -1    0    0  504    0 -0.00000000000E+00  0.00000000000E+00  0.11413921271E+04  0.11413921271E+04  0.00000000000E+00 0.  1.
         21   -1    0    0  503  502  0.00000000000E+00 -0.00000000000E+00 -0.12478057188E+03  0.12478057188E+03  0.00000000000E+00 0.  1.
         21    1    1    2  503  501  0.39155612207E+02  0.93665714832E+02 -0.37717695386E+02  0.10830075091E+03  0.00000000000E+00 0.  1.
         21    1    1    2  504  505 -0.79555493239E+02  0.52002674659E+01  0.19226457202E+03  0.20813885976E+03  0.00000000000E+00 0. -1.
         21    1    1    2  505  502  0.70889426032E+02 -0.93396367179E+01 -0.10314667458E+02  0.72242175368E+02  0.00000000000E+00 0.  1.
          2    1    1    2  501    0 -0.30489545001E+02 -0.89526345580E+02  0.87237934603E+03  0.87749091293E+03  0.00000000000E+00 0.  1.
<scales pt_clust_3="127.16104" pt_clust_4="72.94482" pt_clust_5="71.50202" pt_clust_6="14000.00000"></scales>
<clustering>
<clus scale="   71.502">  2  5  1 -1</clus>
<clus scale="   72.945">  1  4  2 -1</clus>
<clus scale="  127.161">  2  3  1 -1</clus>
<clus scale="   71.502">  2  3  1 -1</clus>
</clustering>
</event>
<event>
 6    0  0.4081161E+002  0.6005372E+02  0.7546771E-02  0.1397606E+00
          1   -1    0    0  503    0 -0.00000000000E+00  0.00000000000E+00  0.14764714225E+04  0.14764714225E+04  0.00000000000E+00 0. -1.
         21   -1    0    0  505  502  0.00000000000E+00 -0.00000000000E+00 -0.63213386468E+02  0.63213386468E+02  0.00000000000E+00 0. -1.
         21    1    1    2  503  504 -0.58296282750E+02 -0.19634802985E+02  0.92145935958E+03  0.92351033207E+03  0.00000000000E+00 0. -1.
         21    1    1    2  504  502 -0.38699246562E+02  0.86158792516E+02 -0.49696062007E+01  0.94581532014E+02  0.00000000000E+00 0. -1.
         21    1    1    2  505  501  0.32641904731E+02 -0.29065116137E+02  0.41482943447E+02  0.60258688316E+02  0.00000000000E+00 0. -1.
          1    1    1    2  501    0  0.64353624581E+02 -0.37458873394E+02  0.45528533916E+03  0.46133425653E+03  0.00000000000E+00 0. -1.
<scales pt_clust_3="60.05372" pt_clust_4="59.88879" pt_clust_5="43.70669" pt_clust_6="14000.00000"></scales>
<clustering>
<clus scale="   43.707">  2  5  1 -1</clus>
<clus scale="   59.889">  2  4  1 -1</clus>
<clus scale="   60.054">  1  3  2 -1</clus>
<clus scale="   43.707">  2  3  1 -1</clus>
</clustering>
</event>
<event>
 6    0  0.4081161E+002  0.8278039E+02  0.7546771E-02  0.1321341E+00
          2   -1    0    0  503    0 -0.00000000000E+00  0.00000000000E+00  0.24025144581E+04  0.24025144581E+04  0.00000000000E+00 0.  1.
         21   -1    0    0  505  502  0.00000000000E+00 -0.00000000000E+00 -0.12011434805E+02  0.12011434805E+02  0.00000000000E+00 0.  1.
         21    1    1    2  503  504 -0.18996313447E+02 -0.51694188199E+02  0.40263840994E+03  0.40638754678E+03  0.00000000000E+00 0.  1.
         21    1    1    2  504  502 -0.73035607737E+02 -0.22576684622E+02  0.11172084996E+04  0.11198208509E+04  0.00000000000E+00 0.  1.
         21    1    1    2  505  501  0.84422006461E+02  0.59206545615E+01  0.25157445972E+03  0.26542765136E+03  0.00000000000E+00 0.  1.
          2    1    1    2  501    0  0.76099147232E+01  0.68350218260E+02  0.61908165412E+03  0.62288984388E+03  0.00000000000E+00 0.  1.
<scales pt_clust_3="55.07403" pt_clust_4="82.78039" pt_clust_5="14000.00000" pt_clust_6="52.31131"></scales>
<clustering>
<clus scale="   55.074">  1  3  2 -1</clus>
<clus scale="   52.311">  1  6  2 -1</clus>
<clus scale="   82.780">  1  4  2 -1</clus>
<clus scale="   82.780">  2  3  1 -1</clus>
</clustering>
</event>
<event>
 6    0  0.4081161E+002  0.1688791E+03  0.7546771E-02  0.1179022E+00
         21   -1    0    0  505  502  0.00000000000E+00  0.00000000000E+00  0.74620272073E+03  0.74620272073E+03  0.00000000000E+00 0. -1.
          1   -1    0    0  503    0 -0.00000000000E+00 -0.00000000000E+00 -0.11450766730E+04  0.11450766730E+04  0.00000000000E+00 0. -1.
         21    1    1    2  503  504 -0.88375169969E+01 -0.68615628082E+02 -0.24203335180E+03  0.25172673578E+03  0.00000000000E+00 0. -1.
         21    1    1    2  504  502 -0.60859574939E+02 -0.14655373356E+03  0.25120776870E+03  0.29713166734E+03  0.00000000000E+00 0. -1.
         21    1    1    2  505  501  0.22805885708E+03  0.13478241319E+03  0.41943858087E+03  0.49609058076E+03  0.00000000000E+00 0. -1.
          1    1    1    2  501    0 -0.15836176515E+03  0.80386948448E+02 -0.82748695005E+03  0.84633040986E+03  0.00000000000E+00 0. -1.
<scales pt_clust_3="69.18241" pt_clust_4="160.39532" pt_clust_5="168.87915" pt_clust_6="14000.00000"></scales>
<clustering>
<clus scale="   69.182">  2  3  1 -1</clus>
<clus scale="  160.395">  1  4  2 -1</clus>
<clus scale="  168.879">  1  5  2 -1</clus>
<clus scale="  160.395">  1  3  2 -1</clus>
</clustering>
</event>
<event>
 6    0  0.4081161E+002  0.1880081E+03  0.7546771E-02  0.1160270E+00
          2   -1    0    0  504    0 -0.00000000000E+00  0.00000000000E+00  0.12210812608E+04  0.12210812608E+04  0.00000000000E+00 0. -1.
         21   -1    0    0  505  502  0.00000000000E+00 -0.00000000000E+00 -0.12299547669E+03  0.12299547669E+03  0.00000000000E+00 0. -1.
         21    1    1    2  503  501  0.21258570086E+02 -0.44351755553E+02  0.25633380974E+03  0.26100963017E+03  0.00000000000E+00 0. -1.
         21    1    1    2  504  502 -0.18552965530E+03  0.29518250080E+02 -0.56507169370E+01  0.18794815957E+03  0.00000000000E+00 0. -1.
         21    1    1    2  505  503  0.35424347168E+02  0.67341299311E+02  0.63912885091E+02  0.99370980904E+02  0.00000000000E+00 0. -1.
          2    1    1    2  501    0  0.12884673804E+03 -0.52507793839E+02  0.78348980624E+03  0.79574796689E+03  0.00000000000E+00 0. -1.
<scales pt_clust_3="35.62408" pt_clust_4="178.20478" pt_clust_5="76.09031" pt_clust_6="35.62408"></scales>
<clustering>
<clus scale="   35.624">  3  6 -1 -1</clus>
<clus scale="   76.090">  2  5  1 -1</clus>
<clus scale="  178.205">  2  4  1 -1</clus>
<clus scale="   76.090">  2  3  1 -1</clus>
</clustering>
</event>
<event>
 6    0  0.4081161E+002  0.7574812E+02  0.7546771E-02  0.1341570E+00
         21   -1    0    0  505  502  0.00000000000E+00  0.00000000000E+00  0.24404939033E+02  0.24404939033E+02  0.00000000000E+00 0.  1.
          1   -1    0    0  504    0 -0.00000000000E+00 -0.00000000000E+00 -0.40859877017E+04  0.40859877017E+04  0.00000000000E+00 0. -1.
         21    1    1    2  503  502  0.57092745581E+02  0.52310321015E+01 -0.94368954378E+02  0.11041940430E+03  0.00000000000E+00 0.  1.
         21    1    1    2  504  503 -0.28772856458E+02  0.14296389393E+02 -0.15473721150E+04  0.15477056330E+04  0.00000000000E+00 0. -1.
         21    1    1    2  505  501 -0.57927217199E+02 -0.81858808154E+02 -0.14454772073E+03  0.17592745816E+03  0.00000000000E+00 0.  1.
          1    1    1    2  501    0  0.29607328077E+02  0.62331386659E+02 -0.22752939725E+04  0.22763401453E+04  0.00000000000E+00 0. -1.
<scales pt_clust_3="56.23284" pt_clust_4="32.12887" pt_clust_5="14000.00000" pt_clust_6="75.74812"></scales>
<clustering>
<clus scale="   32.129">  2  4  1 -1</clus>
<clus scale="   56.233">  1  3  2 -1</clus>
<clus scale="   75.748">  2  6  1 -1</clus>
<clus scale="   56.233">  1  3  2 -1</clus>
</clustering>
</event>
<event>
 6    0  0.4081161E+002  0.1360669E+03  0.7546771E-02  0.1218721E+00
         21   -1    0    0  504  502  0.00000000000E+00  0.00000000000E+00  0.55285493014E+02  0.55285493014E+02  0.00000000000E+00 0. -1.
          2   -1    0    0  505    0 -0.00000000000E+00 -0.00000000000E+00 -0.53682140477E+03  0.53682140477E+03  0.00000000000E+00 0. -1.
         21    1    1    2  503  502  0.18665104578E+02  0.28616065844E+02 -0.91612437826E+01  0.35372217077E+02  0.00000000000E+00 0. -1.
         21    1    1    2  504  501  0.41194630183E+02 -0.54822319806E+02 -0.19944038282E+03  0.21090033334E+03  0.00000000000E+00 0. -1.
         21    1    1    2  505  503 -0.44130925461E+02  0.98124774955E+02 -0.66064721170E+02  0.12625592036E+03  0.00000000000E+00 0. -1.
          2    1    1    2  501    0 -0.15728809300E+02 -0.71918520993E+02 -0.20686956399E+03  0.21957842701E+03  0.00000000000E+00 0. -1.
<scales pt_clust_3="34.16527" pt_clust_4="58.53008" pt_clust_5="122.48172" pt_clust_6="58.53008"></scales>
<clustering>
<clus scale="   34.165">  1  3  2 -1</clus>
<clus scale="   58.530">  4  6 -1 -1</clus>
<clus scale="  122.482">  1  5  2 -1</clus>
<clus scale="   34.165">  1  3  2 -1</clus>
</clustering>
</event>
<event>
 6    0  0.4081161E+002  0.1098341E+03  0.7546771E-02  0.1260877E+00
          2   -1    0    0  503    0 -0.00000000000E+00  0.00000000000E+00  0.23776701442E+04  0.23776701442E+04  0.00000000000E+00 0.  1.
         21   -1    0    0  505  502  0.00000000000E+00 -0.00000000000E+00 -0.18117158686E+03  0.18117158686E+03  0.00000000000E+00 0. -1.
         21    1    1    2  503  504  0.10626649371E+03 -0.46466128765E+02  0.13490032568E+04  0.13539798579E+04  0.00000000000E+00 0.  1.
         21    1    1    2  504  502 -0.60664160707E+02 -0.50299444721E+02 -0.16677337677E+03  0.18445469290E+03  0.00000000000E+00 0. -1.
         21    1    1    2  505  501 -0.26728078658E+02  0.44916454495E+02  0.35411319602E+03  0.35794976417E+03  0.00000000000E+00 0.  1.
          2    1    1    2  501    0 -0.18874254349E+02  0.51849118992E+02  0.66015548131E+03  0.66245741608E+03  0.00000000000E+00 0.  1.
<scales pt_clust_3="104.96099" pt_clust_4="78.80466" pt_clust_5="31.48822" pt_clust_6="31.48822"></scales>
<clustering>
<clus scale="   31.488">  5  6 -1 -1</clus>
<clus scale="   78.805">  2  4  1 -1</clus>
<clus scale="  104.961">  1  3  2 -1</clus>
<clus scale="   78.805">  2  3  1 -1</clus>
</clustering>
</event>
<event>
 6    0  0.4081161E+002  0.1297862E+03  0.7546771E-02  0.1227773E+00
         21   -1    0    0  504  502  0.00000000000E+00  0.00000000000E+00  0.30845799837E+03  0.30845799837E+03  0.00000000000E+00 0. -1.
          2   -1    0    0  503    0 -0.00000000000E+00 -0.00000000000E+00 -0.27080358853E+04  0.27080358853E+04  0.00000000000E+00 0. -1.
         21    1    1    2  503  505  0.20267969531E+02 -0.44455415161E+02 -0.12726317626E+03  0.13631944307E+03  0.00000000000E+00 0.  1.
         21    1    1    2  504  501  0.45398587131E+02 -0.20961047703E+02 -0.81912875965E+00  0.50010680922E+02  0.00000000000E+00 0.  1.
         21    1    1    2  505  502  0.82817863559E+02  0.45538633414E+02  0.26906939291E+03  0.28518573572E+03  0.00000000000E+00 0. -1.
          2    1    1    2  501    0 -0.14848442022E+03  0.19877829450E+02 -0.25405649748E+04  0.25449780240E+04  0.00000000000E+00 0. -1.
<scales pt_clust_3="48.85770" pt_clust_4="50.37032" pt_clust_5="129.78625" pt_clust_6="14000.00000"></scales>
<clustering>
<clus scale="   48.858">  2  3  1 -1</clus>
<clus scale="   50.370">  1  4  2 -1</clus>
<clus scale="  129.786">  1  5  2 -1</clus>
<clus scale="   50.370">  1  3  2 -1</clus>
</clustering>
</event>
<event>
 6    0  0.4081161E+002  0.1121687E+03  0.7546771E-02  0.1256606E+00
         21   -1    0    0  504  502  0.00000000000E+00  0.00000000000E+00  0.58674616667E+02  0.58674616667E+02  0.00000000000E+00 0. -1.
          2   -1    0    0  505    0 -0.00000000000E+00 -0.00000000000E+00 -0.21377345922E+04  0.21377345922E+04  0.00000000000E+00 0.  1.
         21    1    1    2  503  501 -0.45330027540E+02  0.61837219591E+02 -0.13152970158E+04  0.13175298451E+04  0.00000000000E+00 0.  1.
         21    1    1    2  504  503 -0.86101997886E+01 -0.96284203250E+02 -0.13699733206E+02  0.97634348596E+02  0.00000000000E+00 0. -1.
         21    1    1    2  505  502  0.45735322745E+02 -0.24044402467E+00 -0.19346597811E+02  0.49659524834E+02  0.00000000000E+00 0. -1.
          2    1    1    2  501    0  0.82049045837E+01  0.34687427683E+02 -0.73071662875E+03  0.73158549031E+03  0.00000000000E+00 0.  1.
<scales pt_clust_3="30.54229" pt_clust_4="102.83612" pt_clust_5="45.73595" pt_clust_6="30.54229"></scales>
<clustering>
<clus scale="   30.542">  3  6 -1 -1</clus>
<clus scale="   45.736">  1  5  2 -1</clus>
<clus scale="  102.836">  1  4  2 -1</clus>
<clus scale="   45.736">  1  3  2 -1</clus>
</clustering>
</event>
<event>
 6    0  0.4081161E+002  0.1410658E+03  0.7546771E-02  0.1211902E+00
         21   -1    0    0  505  502  0.00000000000E+00  0.00000000000E+00  0.98158379748E+03  0.98158379748E+03  0.00000000000E+00 0. -1.
         -1   -1    0    0    0  501 -0.00000000000E+00 -0.00000000000E+00 -0.35712819921E+03  0.35712819921E+03  0.00000000000E+00 0.  1.
         21    1    1    2  503  502 -0.27480706022E+02  0.17601561853E+02  0.16164433292E+03  0.16490571412E+03  0.00000000000E+00 0. -1.
         21    1    1    2  504  501 -0.65363841920E+02 -0.33377741873E+01 -0.62301509136E+02  0.90360669584E+02  0.00000000000E+00 0. -1.
         21    1    1    2  505  504  0.14604434524E+03  0.61238984255E+02  0.78854540945E+03  0.80429038707E+03  0.00000000000E+00 0. -1.
         -1    1    1    2    0  503 -0.53199797295E+02 -0.75502771921E+02 -0.26343263495E+03  0.27915522592E+03  0.00000000000E+00 0.  1.
<scales pt_clust_3="32.63440" pt_clust_4="65.90495" pt_clust_5="141.06578" pt_clust_6="14000.00000"></scales>
<clustering>
<clus scale="   32.634">  1  3  2 -1</clus>
<clus scale="   65.905">  2  4  1 -1</clus>
<clus scale="  141.066">  1  5  2 -1</clus>
<clus scale="   32.634">  1  3  2 -1</clus>
</clustering>
</event>
<event>
 6    0  0.4081161E+002  0.1059743E+03  0.7546771E-02  0.1268212E+00
          2   -1    0    0  503    0 -0.00000000000E+00  0.00000000000E+00  0.32962625051E+04  0.32962625051E+04  0.00000000000E+00 0. -1.
         21   -1    0    0  505  502  0.00000000000E+00 -0.00000000000E+00 -0.34387481927E+03  0.34387481927E+03  0.00000000000E+00 0.  1.
         21    1    1    2  503  504 -0.34914614258E+02 -0.41610184791E+01  0.97151042379E+03  0.97214651566E+03  0.00000000000E+00 0. -1.
         21    1    1    2  504  502  0.81701629347E+02  0.92639570392E+02 -0.41879248261E+02  0.13042667547E+03  0.00000000000E+00 0. -1.
         21    1    1    2  505  501 -0.44785861733E+02  0.68499390918E+01 -0.25440471809E+03  0.25840753794E+03  0.00000000000E+00 0.  1.
          2    1    1    2  501    0 -0.20011533574E+01 -0.95328491005E+02  0.22771612284E+04  0.22791565953E+04  0.00000000000E+00 0. -1.
<scales pt_clust_3="35.16169" pt_clust_4="14000.00000" pt_clust_5="45.33585" pt_clust_6="105.97427"></scales>
<clustering>
<clus scale="   35.162">  1  3  2 -1</clus>
<clus scale="   45.336">  2  5  1 -1</clus>
<clus scale="  105.974">  1  6  2 -1</clus>
<clus scale="   45.336">  2  3  1 -1</clus>
</clustering>
</event>
<event>
 6    0  0.4081161E+002  0.1022411E+03  0.7546771E-02  0.1275653E+00
         21   -1    0    0  501  502  0.00000000000E+00  0.00000000000E+00  0.53447112198E+02  0.53447112198E+02  0.00000000000E+00 0. -1.
         -4   -1    0    0    0  501 -0.00000000000E+00 -0.00000000000E+00 -0.12466112722E+04  0.12466112722E+04  0.00000000000E+00 0. -1.
         21    1    1    2  503  502  0.35587468267E+02  0.58718468185E+01  0.10206811691E+02  0.37485003503E+02  0.00000000000E+00 0. -1.
         21    1    1    2  504  505  0.47542413637E+02 -0.49123122947E+01 -0.46453320719E+03  0.46698555918E+03  0.00000000000E+00 0.  1.
         21    1    1    2  505  503 -0.12268937397E+03 -0.33690636008E+02 -0.12087288266E+03  0.17549357596E+03  0.00000000000E+00 0. -1.
         -4    1    1    2    0  504  0.39559492069E+02  0.32731101484E+02 -0.61796488189E+03  0.62009424579E+03  0.00000000000E+00 0. -1.
<scales pt_clust_3="36.06864" pt_clust_4="38.50296" pt_clust_5="94.19917" pt_clust_6="38.50296"></scales>
<clustering>
<clus scale="   36.069">  1  3  2 -1</clus>
<clus scale="   38.503">  4  6 -1 -1</clus>
<clus scale="   94.199">  1  5  2 -1</clus>
<clus scale="   36.069">  1  3  2 -1</clus>
</clustering>
</event>
<event>
 6    0  0.4081161E+002  0.1376495E+03  0.7546771E-02  0.1216527E+00
          1   -1    0    0  503    0 -0.00000000000E+00  0.00000000000E+00  0.15335521503E+04  0.15335521503E+04  0.00000000000E+00 0.  1.
         21   -1    0    0  505  502  0.00000000000E+00 -0.00000000000E+00 -0.49829617698E+03  0.49829617698E+03  0.00000000000E+00 0.  1.
         21    1    1    2  503  502  0.52056532503E+02 -0.17539288308E+02 -0.23363828254E+03  0.24000907541E+03  0.00000000000E+00 0.  1.
         21    1    1    2  504  501  0.15346667056E+00  0.80244599916E+02 -0.22411363883E+03  0.23804651327E+03  0.00000000000E+00 0.  1.
         21    1    1    2  505  504  0.19476358940E+02  0.55926145684E+02  0.50967327136E+01  0.59439372583E+02  0.00000000000E+00 0.  1.
          1    1    1    2  501    0 -0.71686358113E+02 -0.11863145729E+03  0.14879111620E+04  0.14943533661E+04  0.00000000000E+00 0.  1.
<scales pt_clust_3="54.93186" pt_clust_4="137.64954" pt_clust_5="59.55249" pt_clust_6="14000.00000"></scales>
<clustering>
<clus scale="   54.932">  2  3  1 -1</clus>
<clus scale="   59.552">  2  5  1 -1</clus>
<clus scale="  137.650">  2  4  1 -1</clus>
<clus scale="   54.932">  2  3  1 -1</clus>
</clustering>
</event>
<event>
 6    0  0.4081161E+002  0.1098717E+03  0.7546771E-02  0.1260808E+00
         21   -1    0    0  505  502  0.00000000000E+00  0.00000000000E+00  0.16829571503E+02  0.16829571503E+02  0.00000000000E+00 0.  1.
          2   -1    0    0  504    0 -0.00000000000E+00 -0.00000000000E+00 -0.27133314331E+04  0.27133314331E+04  0.00000000000E+00 0.  1.
         21    1    1    2  503  502 -0.44344147227E+02 -0.20481720194E+01 -0.11104643141E+03  0.11959058630E+03  0.00000000000E+00 0. -1.
         21    1    1    2  504  503 -0.87032001924E+02  0.84471048188E+02 -0.15193036666E+04  0.15241369882E+04  0.00000000000E+00 0.  1.
         21    1    1    2  505  501  0.37374818070E+02 -0.44140426526E+02 -0.10448401079E+03  0.11942429732E+03  0.00000000000E+00 0.  1.
          2    1    1    2  501    0  0.94001331082E+02 -0.38282449642E+02 -0.96166775280E+03  0.96700913283E+03  0.00000000000E+00 0.  1.
<scales pt_clust_3="44.39142" pt_clust_4="14000.00000" pt_clust_5="46.67255" pt_clust_6="109.87169"></scales>
<clustering>
<clus scale="   44.391">  1  3  2 -1</clus>
<clus scale="   46.673">  1  5  2 -1</clus>
<clus scale="  109.872">  1  6  2 -1</clus>
<clus scale="   44.391">  1  3  2 -1</clus>
</clustering>
</event>
<event>
 6    0  0.4081161E+002  0.1082142E+03  0.7546771E-02  0.1263913E+00
         21   -1    0    0  505  502  0.00000000000E+00  0.00000000000E+00  0.50171919673E+02  0.50171919673E+02  0.00000000000E+00 0. -1.
          2   -1    0    0  504    0 -0.00000000000E+00 -0.00000000000E+00 -0.20167395449E+04  0.20167395449E+04  0.00000000000E+00 0. -1.
         21    1    1    2  503  502 -0.33277728428E+02  0.11961980282E+02 -0.32368301754E+02  0.47939578013E+02  0.00000000000E+00 0. -1.
         21    1    1    2  504  503 -0.36835717671E+01 -0.39607468498E+02 -0.32198199561E+03  0.32442984720E+03  0.00000000000E+00 0. -1.
         21    1    1    2  505  501  0.13927813883E+03 -0.11260537857E+02 -0.85310457325E+02  0.16371644327E+03  0.00000000000E+00 0. -1.
          2    1    1    2  501    0 -0.10231683863E+03  0.38906026074E+02 -0.15269068706E+04  0.15308255961E+04  0.00000000000E+00 0. -1.
<scales pt_clust_3="35.36236" pt_clust_4="39.53581" pt_clust_5="108.21423" pt_clust_6="14000.00000"></scales>
<clustering>
<clus scale="   35.362">  1  3  2 -1</clus>
<clus scale="   39.536">  2  4  1 -1</clus>
<clus scale="  108.214">  1  5  2 -1</clus>
<clus scale="   35.362">  1  3  2 -1</clus>
</clustering>
</event>
<event>
 6    0  0.4081161E+002  0.8367988E+02  0.7546771E-02  0.1318921E+00
          2   -1    0    0  505    0 -0.00000000000E+00  0.00000000000E+00  0.17210665765E+04  0.17210665765E+04  0.00000000000E+00 0. -1.
         21   -1    0    0  503  502  0.00000000000E+00 -0.00000000000E+00 -0.25520914372E+03  0.25520914372E+03  0.00000000000E+00 0. -1.
         21    1    1    2  503  501  0.17442272561E+02 -0.39263302268E+02 -0.30174830918E+02  0.52501049494E+02  0.00000000000E+00 0.  1.
         21    1    1    2  504  502 -0.10074042572E+03  0.34065255133E+02 -0.19584808480E+03  0.22285768396E+03  0.00000000000E+00 0. -1.
         21    1    1    2  505  504  0.59880951257E+01  0.30940604741E+02  0.67502943469E+02  0.74497152174E+02  0.00000000000E+00 0.  1.
          2    1    1    2  501    0  0.77310058031E+02 -0.25742557607E+02  0.16243774051E+04  0.16264198346E+04  0.00000000000E+00 0. -1.
<scales pt_clust_3="42.78856" pt_clust_4="83.67988" pt_clust_5="31.51473" pt_clust_6="14000.00000"></scales>
<clustering>
<clus scale="   31.515">  1  5  2 -1</clus>
<clus scale="   42.789">  2  3  1 -1</clus>
<clus scale="   83.680">  2  4  1 -1</clus>
<clus scale="   42.789">  2  3  1 -1</clus>
</clustering>
</event>
<event>
 6    0  0.4081161E+002  0.1152070E+03  0.7546771E-02  0.1251220E+00
          2   -1    0    0  504    0 -0.00000000000E+00  0.00000000000E+00  0.71675879047E+03  0.71675879047E+03  0.00000000000E+00 0. -1.
         21   -1    0    0  501  502  0.00000000000E+00 -0.00000000000E+00 -0.21518996215E+03  0.21518996215E+03  0.00000000000E+00 0. -1.
         21    1    1    2  503  505  0.42092972663E+01 -0.67535604460E+02 -0.68389008533E+02  0.96207237469E+02  0.00000000000E+00 0. -1.
         21    1    1    2  504  503  0.67625186141E+02 -0.54464904531E+02  0.72076426520E+02  0.11284769774E+03  0.00000000000E+00 0. -1.
         21    1    1    2  505  502 -0.26956073843E+01 -0.39062697498E+02 -0.96004866823E+02  0.10368266532E+03  0.00000000000E+00 0. -1.
          2    1    1    2  501    0 -0.69138876023E+02  0.16106320649E+03  0.59388627716E+03  0.61921115208E+03  0.00000000000E+00 0. -1.
<scales pt_clust_3="30.09441" pt_clust_4="86.83082" pt_clust_5="30.09441" pt_clust_6="108.20125"></scales>
<clustering>
<clus scale="   30.094">  3  5 -1 -1</clus>
<clus scale="   86.831">  1  4  2 -1</clus>
<clus scale="  108.201">  1  6  2 -1</clus>
<clus scale="  115.207">  2  3  1 -1</clus>
</clustering>
</event>
<event>
 6    0  0.4081161E+002  0.1603560E+03  0.7546771E-02  0.1188295E+00
         21   -1    0    0  503  502  0.00000000000E+00  0.00000000000E+00  0.13160162773E+03  0.13160162773E+03  0.00000000000E+00 0. -1.
          2   -1    0    0  504    0 -0.00000000000E+00 -0.00000000000E+00 -0.61845655580E+03  0.61845655580E+03  0.00000000000E+00 0. -1.
         21    1    1    2  503  505 -0.73867053384E+01  0.43776849711E+02 -0.13962603745E+02  0.46539556183E+02  0.00000000000E+00 0. -1.
         21    1    1    2  504  502 -0.17019223552E+03 -0.77045790263E+02 -0.29459862685E+01  0.18684252638E+03  0.00000000000E+00 0. -1.
         21    1    1    2  505  501  0.97380670162E+02  0.71399968484E+02 -0.21339228861E+03  0.24518813033E+03  0.00000000000E+00 0. -1.
          2    1    1    2  501    0  0.80198270694E+02 -0.38131027932E+02 -0.25655404944E+03  0.27148797063E+03  0.00000000000E+00 0. -1.
<scales pt_clust_3="44.39568" pt_clust_4="160.35602" pt_clust_5="14000.00000" pt_clust_6="87.18429"></scales>
<clustering>
<clus scale="   44.396">  1  3  2 -1</clus>
<clus scale="   87.184">  2  6  1 -1</clus>
<clus scale="  160.356">  1  4  2 -1</clus>
<clus scale="   44.396">  1  3  2 -1</clus>
</clustering>
</event>
<event>
 6    0  0.4081161E+002  0.1273667E+03  0.7546771E-02  0.1231416E+00
         21   -1    0    0  503  502  0.00000000000E+00  0.00000000000E+00  0.26762769351E+03  0.26762769351E+03  0.00000000000E+00 0. -1.
          2   -1    0    0  504    0 -0.00000000000E+00 -0.00000000000E+00 -0.41335022958E+03  0.41335022958E+03  0.00000000000E+00 0.  1.
         21    1    1    2  503  501  0.75994745299E+02  0.31817253582E+02  0.96770502622E+01  0.82952903749E+02  0.00000000000E+00 0. -1.
         21    1    1    2  504  505  0.53888216837E+02  0.19561110785E+02 -0.10406859015E+03  0.11881434436E+03  0.00000000000E+00 0. -1.
         21    1    1    2  505  502 -0.17222999008E+03 -0.19261869812E+02  0.17525663618E+03  0.24647327976E+03  0.00000000000E+00 0. -1.
          2    1    1    2  501    0  0.42347027941E+02 -0.32116494555E+02 -0.22658763236E+03  0.23273739523E+03  0.00000000000E+00 0.  1.
<scales pt_clust_3="127.36670" pt_clust_4="79.57976" pt_clust_5="14000.00000" pt_clust_6="53.14828"></scales>
<clustering>
<clus scale="   53.148">  2  6  1 -1</clus>
<clus scale="   79.580">  2  4  1 -1</clus>
<clus scale="  127.367">  2  3  1 -1</clus>
<clus scale="  127.367">  1  3  2 -1</clus>
</clustering>
</event>
<event>
 6    0  0.4081161E+002  0.9431357E+02  0.7546771E-02  0.1292730E+00
         -2   -1    0    0    0  501 -0.00000000000E+00  0.00000000000E+00  0.77001461376E+03  0.77001461376E+03  0.00000000000E+00 0.  1.
         21   -1    0    0  505  502  0.00000000000E+00 -0.00000000000E+00 -0.37179063058E+03  0.37179063058E+03  0.00000000000E+00 0.  1.
         21    1    1    2  503  502  0.10216116085E+03  0.84840676848E+02 -0.30189729863E+03  0.32981331410E+03  0.00000000000E+00 0.  1.
         21    1    1    2  504  501  0.51996761492E+02 -0.42574458559E+02  0.29109548003E+03  0.29875211500E+03  0.00000000000E+00 0.  1.
         21    1    1    2  505  504 -0.56098031931E+02 -0.30223783042E+01 -0.28605770207E+02  0.63042953978E+02  0.00000000000E+00 0.  1.
         -2    1    1    2    0  503 -0.98059890416E+02 -0.39243839984E+02  0.43763157200E+03  0.45019686126E+03  0.00000000000E+00 0.  1.
<scales pt_clust_3="14000.00000" pt_clust_4="66.71724" pt_clust_5="56.17939" pt_clust_6="94.31357"></scales>
<clustering>
<clus scale="   56.179">  2  5  1 -1</clus>
<clus scale="   66.717">  1  4  2 -1</clus>
<clus scale="   94.314">  1  6  2 -1</clus>
<clus scale="   56.179">  2  3  1 -1</clus>
</clustering>
</event>
<event>
 6    0  0.4081161E+002  0.7118707E+02  0.7546771E-02  0.1356102E+00
          2   -1    0    0  505    0 -0.00000000000E+00  0.00000000000E+00  0.35424072918E+04  0.35424072918E+04  0.00000000000E+00 0. -1.
         21   -1    0    0  504  502  0.00000000000E+00 -0.00000000000E+00 -0.31663852507E+02  0.31663852507E+02  0.00000000000E+00 0.  1.
         21    1    1    2  503  502 -0.44390468635E+01 -0.58228400980E+02  0.95183495952E+02  0.11166982457E+03  0.00000000000E+00 0.  1.
         21    1    1    2  504  501 -0.10470885940E+02  0.12505824049E+03  0.16150231431E+03  0.20452921672E+03  0.00000000000E+00 0.  1.
         21    1    1    2  505  503 -0.25311936902E+02 -0.33727318583E+02  0.26286455703E+03  0.26622547120E+03  0.00000000000E+00 0.  1.
          2    1    1    2  501    0  0.40221869705E+02 -0.33102520928E+02  0.29911930720E+04  0.29916466318E+04  0.00000000000E+00 0. -1.
<scales pt_clust_3="59.52349" pt_clust_4="71.18707" pt_clust_5="42.16902" pt_clust_6="14000.00000"></scales>
<clustering>
<clus scale="   42.169">  1  5  2 -1</clus>
<clus scale="   59.523">  2  3  1 -1</clus>
<clus scale="   71.187">  2  4  1 -1</clus>
<clus scale="   59.523">  2  3  1 -1</clus>
</clustering>
</event>
<event>
 6    0  0.4081161E+002  0.1979005E+03  0.7546771E-02  0.1151523E+00
         21   -1    0    0  504  502  0.00000000000E+00  0.00000000000E+00  0.44040513144E+03  0.44040513144E+03  0.00000000000E+00 0. -1.
         -4   -1    0    0    0  501 -0.00000000000E+00 -0.00000000000E+00 -0.96362544521E+03  0.96362544521E+03  0.00000000000E+00 0. -1.
         21    1    1    2  503  502 -0.16933856305E+03  0.13054837129E+03  0.32029572841E+03  0.38510749125E+03  0.00000000000E+00 0. -1.
         21    1    1    2  504  501  0.70442881947E+02  0.58084077014E+00 -0.14114533828E+03  0.15774835502E+03  0.00000000000E+00 0. -1.
         21    1    1    2  505  503  0.10007290093E+02 -0.19272419384E+03 -0.49260485581E+02  0.19917167516E+03  0.00000000000E+00 0. -1.
         -4    1    1    2    0  505  0.88888391013E+02  0.61594981781E+02 -0.65311021832E+03  0.66200305522E+03  0.00000000000E+00 0. -1.
<scales pt_clust_3="14000.00000" pt_clust_4="70.44528" pt_clust_5="197.90049" pt_clust_6="158.44195"></scales>
<clustering>
<clus scale="   70.445">  2  4  1 -1</clus>
<clus scale="  158.442">  2  6  1 -1</clus>
<clus scale="  197.900">  2  5  1 -1</clus>
<clus scale="  197.900">  1  3  2 -1</clus>
</clustering>
</event>
<event>
 6    0  0.4081161E+002  0.1003293E+03  0.7546771E-02  0.1279605E+00
          2   -1    0    0  505    0 -0.00000000000E+00  0.00000000000E+00  0.11696046680E+03  0.11696046680E+03  0.00000000000E+00 0.  1.
         21   -1    0    0  503  502  0.00000000000E+00 -0.00000000000E+00 -0.33981327945E+04  0.33981327945E+04  0.00000000000E+00 0. -1.
         21    1    1    2  503  504  0.54241959266E+02  0.45331419559E+02 -0.18498023268E+04  0.18511525534E+04  0.00000000000E+00 0. -1.
         21    1    1    2  504  501  0.39952954269E+02  0.49814323069E+02 -0.60172133438E+02  0.87740475153E+02  0.00000000000E+00 0.  1.
         21    1    1    2  505  502 -0.11245017559E+03 -0.13146033840E+03 -0.14643677392E+04  0.14745506903E+04  0.00000000000E+00 0.  1.
          2    1    1    2  501    0  0.18255262060E+02  0.36314595775E+02  0.93169871805E+02  0.10164954241E+03  0.00000000000E+00 0.  1.
<scales pt_clust_3="71.98037" pt_clust_4="14000.00000" pt_clust_5="100.32933" pt_clust_6="40.64486"></scales>
<clustering>
<clus scale="   40.645">  1  6  2 -1</clus>
<clus scale="   71.980">  2  3  1 -1</clus>
<clus scale="  100.329">  2  5  1 -1</clus>
<clus scale="   71.980">  2  3  1 -1</clus>
</clustering>
</event>
<event>
 6    0  0.4081161E+002  0.9852692E+02  0.7546771E-02  0.1283424E+00
          2   -1    0    0  505    0 -0.00000000000E+00  0.00000000000E+00  0.53393909762E+03  0.53393909762E+03  0.00000000000E+00 0. -1.
         21   -1    0    0  503  502  0.00000000000E+00 -0.00000000000E+00 -0.22529225931E+03  0.22529225931E+03  0.00000000000E+00 0. -1.
         21    1    1    2  503  501  0.75782555489E+02  0.10488179238E+03 -0.91649880349E+02  0.15856508650E+03  0.00000000000E+00 0. -1.
         21    1    1    2  504  502 -0.25280710188E+02 -0.20541659553E+02 -0.90395321779E+02  0.96085317735E+02  0.00000000000E+00 0.  1.
         21    1    1    2  505  504 -0.35260261056E+02 -0.55237059885E+01  0.11512866814E+03  0.12053384406E+03  0.00000000000E+00 0.  1.
          2    1    1    2  501    0 -0.15241584244E+02 -0.78816426839E+02  0.37556337231E+03  0.38404710863E+03  0.00000000000E+00 0. -1.
<scales pt_clust_3="14000.00000" pt_clust_4="32.57413" pt_clust_5="36.26808" pt_clust_6="98.52692"></scales>
<clustering>
<clus scale="   32.574">  2  4  1 -1</clus>
<clus scale="   36.268">  1  5  2 -1</clus>
<clus scale="   98.527">  1  6  2 -1</clus>
<clus scale="   32.574">  2  3  1 -1</clus>
</clustering>
</event>
<event>
 6    0  0.4081161E+002  0.1165676E+03  0.7546771E-02  0.1248869E+00
          2   -1    0    0  505    0 -0.00000000000E+00  0.00000000000E+00  0.12863468140E+04  0.12863468140E+04  0.00000000000E+00 0.  1.
         21   -1    0    0  504  502  0.00000000000E+00 -0.00000000000E+00 -0.31457936824E+03  0.31457936824E+03  0.00000000000E+00 0.  1.
         21    1    1    2  503  502 -0.45249037119E+01 -0.11886118868E+03 -0.20671609383E+03  0.23849528376E+03  0.00000000000E+00 0.  1.
         21    1    1    2  504  501  0.63479503006E+02  0.16608483351E+02 -0.75871508029E+02  0.10030939513E+03  0.00000000000E+00 0.  1.
         21    1    1    2  505  503  0.12522427606E+02  0.46069287905E+02  0.35843379366E+03  0.36159919098E+03  0.00000000000E+00 0.  1.
          2    1    1    2  501    0 -0.71477026900E+02  0.56183417423E+02  0.89592125392E+03  0.90052231232E+03  0.00000000000E+00 0.  1.
<scales pt_clust_3="14000.00000" pt_clust_4="65.93210" pt_clust_5="47.74087" pt_clust_6="116.56762"></scales>
<clustering>
<clus scale="   47.741">  1  5  2 -1</clus>
<clus scale="   65.932">  2  4  1 -1</clus>
<clus scale="  116.568">  1  6  2 -1</clus>
<clus scale="   65.932">  2  3  1 -1</clus>
</clustering>
</event>
<event>
 6    0  0.4081161E+002  0.1136348E+03  0.7546771E-02  0.1253983E+00
         21   -1    0    0  501  502  0.00000000000E+00  0.00000000000E+00  0.10639392605E+03  0.10639392605E+03  0.00000000000E+00 0. -1.
          2   -1    0    0  505    0 -0.00000000000E+00 -0.00000000000E+00 -0.47484491523E+03  0.47484491523E+03  0.00000000000E+00 0. -1.
         21    1    1    2  503  504  0.79108287720E+02 -0.12217418237E+03 -0.35013428757E+03  0.37918158098E+03  0.00000000000E+00 0. -1.
         21    1    1    2  504  502 -0.54036915001E+02  0.29598993439E+02  0.15224513429E+02  0.63465537141E+02  0.00000000000E+00 0. -1.
         21    1    1    2  505  503 -0.34655068228E+02  0.74579118031E+01 -0.39074542603E+02  0.52758071250E+02  0.00000000000E+00 0. -1.
          2    1    1    2  501    0  0.95836955091E+01  0.85117277127E+02  0.55333275630E+01  0.85833651903E+02  0.00000000000E+00 0. -1.
<scales pt_clust_3="113.63478" pt_clust_4="63.52562" pt_clust_5="35.44847" pt_clust_6="14000.00000"></scales>
<clustering>
<clus scale="   35.448">  2  5  1 -1</clus>
<clus scale="   63.526">  1  4  2 -1</clus>
<clus scale="  113.635">  2  3  1 -1</clus>
<clus scale="   63.526">  1  3  2 -1</clus>
</clustering>
</event>
<event>
 6    0  0.4081161E+002  0.1075200E+03  0.7546771E-02  0.1265233E+00
          2   -1    0    0  504    0 -0.00000000000E+00  0.00000000000E+00  0.10239425721E+04  0.10239425721E+04  0.00000000000E+00 0.  1.
         21   -1    0    0  503  502  0.00000000000E+00 -0.00000000000E+00 -0.44745617830E+02  0.44745617830E+02  0.00000000000E+00 0.  1.
         21    1    1    2  503  505  0.10761498677E+02 -0.35405974667E+02  0.18447493994E+01  0.37051261737E+02  0.00000000000E+00 0.  1.
         21    1    1    2  504  502 -0.39020214413E+02  0.70618959232E+02  0.40619519371E+03  0.41413059526E+03  0.00000000000E+00 0. -1.
         21    1    1    2  505  501  0.11282528451E+03  0.10242592058E+02  0.16494961784E+03  0.20010705121E+03  0.00000000000E+00 0.  1.
          2    1    1    2  501    0 -0.84566568773E+02 -0.45455576623E+02  0.40620739331E+03  0.41739928172E+03  0.00000000000E+00 0.  1.
<scales pt_clust_3="37.00531" pt_clust_4="75.39964" pt_clust_5="14000.00000" pt_clust_6="107.51998"></scales>
<clustering>
<clus scale="   37.005">  2  3  1 -1</clus>
<clus scale="   75.400">  1  4  2 -1</clus>
<clus scale="  107.520">  1  6  2 -1</clus>
<clus scale="   37.005">  2  3  1 -1</clus>
</clustering>
</event>
<event>
 6    0  0.4081161E+002  0.6730816E+02  0.7546771E-02  0.1369494E+00
         -2   -1    0    0    0  501 -0.00000000000E+00  0.00000000000E+00  0.13543250938E+03  0.13543250938E+03  0.00000000000E+00 0. -1.
         21   -1    0    0  504  502  0.00000000000E+00 -0.00000000000E+00 -0.14907252055E+03  0.14907252055E+03  0.00000000000E+00 0. -1.
         21    1    1    2  503  501 -0.14245140027E+02 -0.63110813979E+02  0.51078651369E+02  0.82431350112E+02  0.00000000000E+00 0. -1.
         21    1    1    2  504  505  0.42485460704E+02 -0.40841227092E+02 -0.17632590897E+02  0.61513644530E+02  0.00000000000E+00 0. -1.
         21    1    1    2  505  503  0.16409416735E+02  0.76150504750E+02 -0.39746759700E+02  0.87452691428E+02  0.00000000000E+00 0. -1.
         -2    1    1    2    0  502 -0.44649737412E+02  0.27801536322E+02 -0.73393119393E+01  0.53107343866E+02  0.00000000000E+00 0. -1.
<scales pt_clust_3="67.30816" pt_clust_4="41.95641" pt_clust_5="14000.00000" pt_clust_6="52.59776"></scales>
<clustering>
<clus scale="   52.598">  2  6  1 -1</clus>
<clus scale="   41.956">  2  4  1 -1</clus>
<clus scale="   67.308">  1  3  2 -1</clus>
<clus scale="   52.598">  2  3  1 -1</clus>
</clustering>
</event>
<event>
 6    0  0.4081161E+002  0.2570705E+03  0.7546771E-02  0.1108916E+00
         21   -1    0    0  501  502  0.00000000000E+00  0.00000000000E+00  0.15960220954E+03  0.15960220954E+03  0.00000000000E+00 0. -1.
          2   -1    0    0  505    0 -0.00000000000E+00 -0.00000000000E+00 -0.16354867882E+04  0.16354867882E+04  0.00000000000E+00 0.  1.
         21    1    1    2  503  504 -0.12100994284E+03  0.21891489639E+03 -0.33702537233E+02  0.25239453073E+03  0.00000000000E+00 0. -1.
         21    1    1    2  504  502 -0.38504589386E+02 -0.20582910190E+02  0.76259445764E+01  0.44321717322E+02  0.00000000000E+00 0. -1.
         21    1    1    2  505  503 -0.74781027801E+02 -0.16664404230E+02 -0.20792539134E+03  0.22159168046E+03  0.00000000000E+00 0. -1.
          2    1    1    2  501    0  0.23429556002E+03 -0.18166758197E+03 -0.12418825946E+04  0.12767810692E+04  0.00000000000E+00 0.  1.
<scales pt_clust_3="14000.00000" pt_clust_4="43.66073" pt_clust_5="78.76832" pt_clust_6="257.07054"></scales>
<clustering>
<clus scale="   43.661">  1  4  2 -1</clus>
<clus scale="   78.768">  2  5  1 -1</clus>
<clus scale="  257.071">  2  6  1 -1</clus>
<clus scale="   43.661">  1  3  2 -1</clus>
</clustering>
</event>
<event>
 6    0  0.4081161E+002  0.6878096E+02  0.7546771E-02  0.1364288E+00
          2   -1    0    0  505    0 -0.00000000000E+00  0.00000000000E+00  0.23553882611E+04  0.23553882611E+04  0.00000000000E+00 0.  1.
         21   -1    0    0  503  502  0.00000000000E+00 -0.00000000000E+00 -0.19056694706E+03  0.19056694706E+03  0.00000000000E+00 0. -1.
         21    1    1    2  503  501  0.13573049189E+02 -0.31566672113E+02 -0.79848079905E+02  0.86927546366E+02  0.00000000000E+00 0. -1.
         21    1    1    2  504  502 -0.64760927068E+02 -0.14375778126E+02 -0.92312449131E+02  0.11367598223E+03  0.00000000000E+00 0.  1.
         21    1    1    2  505  504 -0.60841114531E+02 -0.47911385650E+00  0.40249328490E+03  0.40706598378E+03  0.00000000000E+00 0.  1.
          2    1    1    2  501    0  0.11202899241E+03  0.46421564095E+02  0.19344885581E+04  0.19382856957E+04  0.00000000000E+00 0.  1.
<scales pt_clust_3="34.36106" pt_clust_4="68.78096" pt_clust_5="60.56254" pt_clust_6="14000.00000"></scales>
<clustering>
<clus scale="   34.361">  2  3  1 -1</clus>
<clus scale="   60.563">  1  5  2 -1</clus>
<clus scale="   68.781">  2  4  1 -1</clus>
<clus scale="   34.361">  2  3  1 -1</clus>
</clustering>
</event>
<event>
 6    0  0.4081161E+002  0.1123321E+03  0.7546771E-02  0.1256311E+00
          3   -1    0    0  505    0 -0.00000000000E+00  0.00000000000E+00  0.28587640419E+03  0.28587640419E+03  0.00000000000E+00 0. -1.
         21   -1    0    0  501  502  0.00000000000E+00 -0.00000000000E+00 -0.30550556320E+03  0.30550556320E+03  0.00000000000E+00 0.  1.
         21    1    1    2  503  504  0.65162418309E+02 -0.12323220172E+03  0.30820299001E+02  0.14276626748E+03  0.00000000000E+00 0.  1.
         21    1    1    2  504  502  0.15742106682E+02  0.45341735091E+02 -0.22460249091E+03  0.22967360708E+03  0.00000000000E+00 0.  1.
         21    1    1    2  505  503  0.74154722329E+01  0.32214346126E+02  0.48787673955E+02  0.58932083407E+02  0.00000000000E+00 0.  1.
          3    1    1    2  501    0 -0.88319997223E+02  0.45676120501E+02  0.12536535894E+03  0.16001000943E+03  0.00000000000E+00 0. -1.
<scales pt_clust_3="14000.00000" pt_clust_4="48.35591" pt_clust_5="33.05682" pt_clust_6="112.33212"></scales>
<clustering>
<clus scale="   33.057">  1  5  2 -1</clus>
<clus scale="   48.356">  2  4  1 -1</clus>
<clus scale="  112.332">  1  6  2 -1</clus>
<clus scale="   48.356">  2  3  1 -1</clus>
</clustering>
</event>
<event>
 6    0  0.4081161E+002  0.1749146E+03  0.7546771E-02  0.1172817E+00
          2   -1    0    0  505    0 -0.00000000000E+00  0.00000000000E+00  0.53085344730E+03  0.53085344730E+03  0.00000000000E+00 0.  1.
         21   -1    0    0  504  502  0.00000000000E+00 -0.00000000000E+00 -0.29702114593E+03  0.29702114593E+03  0.00000000000E+00 0. -1.
         21    1    1    2  503  501 -0.19620009392E+02  0.56289210083E+02  0.12427007263E+03  0.13782768551E+03  0.00000000000E+00 0. -1.
         21    1    1    2  504  503  0.91269615056E+02 -0.14787078175E+03 -0.24482466345E+03  0.30022495992E+03  0.00000000000E+00 0. -1.
         21    1    1    2  505  502 -0.64788626369E+02  0.10855932211E+02  0.78891661269E+02  0.10266114936E+03  0.00000000000E+00 0.  1.
          2    1    1    2  501    0 -0.68609792957E+01  0.80725639455E+02  0.27549523092E+03  0.28716079844E+03  0.00000000000E+00 0.  1.
<scales pt_clust_3="31.26597" pt_clust_4="171.07460" pt_clust_5="65.69184" pt_clust_6="31.26597"></scales>
<clustering>
<clus scale="   31.266">  3  6 -1 -1</clus>
<clus scale="   65.692">  1  5  2 -1</clus>
<clus scale="  171.075">  2  4  1 -1</clus>
<clus scale="  171.075">  2  3  1 -1</clus>
</clustering>
</event>
<event>
 6    0  0.4081161E+002  0.8473812E+02  0.7546771E-02  0.1316119E+00
         21   -1    0    0  503  502  0.00000000000E+00  0.00000000000E+00  0.69969843582E+02  0.69969843582E+02  0.00000000000E+00 0. -1.
          2   -1    0    0  504    0 -0.00000000000E+00 -0.00000000000E+00 -0.12481027377E+04  0.12481027377E+04  0.00000000000E+00 0. -1.
         21    1    1    2  503  505  0.24203946083E+02  0.79416951892E+02  0.27325455163E+02  0.87404598012E+02  0.00000000000E+00 0. -1.
         21    1    1    2  504  502 -0.24535900669E+02  0.29665517879E+02 -0.40306948890E+03  0.40490377407E+03  0.00000000000E+00 0. -1.
         21    1    1    2  505  501 -0.73625965882E+02 -0.92445951688E+02 -0.44515026941E+03  0.46057116627E+03  0.00000000000E+00 0. -1.
          2    1    1    2  501    0  0.73957920467E+02 -0.16636518083E+02 -0.35723859097E+03  0.36519304294E+03  0.00000000000E+00 0. -1.
<scales pt_clust_3="14000.00000" pt_clust_4="38.49745" pt_clust_5="84.73812" pt_clust_6="63.58079"></scales>
<clustering>
<clus scale="   38.497">  2  4  1 -1</clus>
<clus scale="   63.581">  2  6  1 -1</clus>
<clus scale="   84.738">  2  5  1 -1</clus>
<clus scale="   84.738">  1  3  2 -1</clus>
</clustering>
</event>
<event>
 6    0  0.4081161E+002  0.1293909E+03  0.7546771E-02  0.1228362E+00
         21   -1    0    0  505  502  0.00000000000E+00  0.00000000000E+00  0.18795351629E+04  0.18795351629E+04  0.00000000000E+00 0. -1.
          2   -1    0    0  504    0 -0.00000000000E+00 -0.00000000000E+00 -0.30868249528E+04  0.30868249528E+04  0.00000000000E+00 0.  1.
         21    1    1    2  503  502 -0.41274060087E+02 -0.11799068666E+03 -0.81488720951E+03  0.82441889498E+03  0.00000000000E+00 0. -1.
         21    1    1    2  504  503 -0.27907762483E+02  0.13787894755E+02 -0.35383608846E+03  0.35520265588E+03  0.00000000000E+00 0. -1.
         21    1    1    2  505  501 -0.28534347511E+02  0.12627067992E+03  0.18705356595E+04  0.18750099058E+04  0.00000000000E+00 0. -1.
          2    1    1    2  501    0  0.97716170081E+02 -0.22067888019E+02 -0.19091021513E+04  0.19117286590E+04  0.00000000000E+00 0.  1.
<scales pt_clust_3="129.39086" pt_clust_4="31.12795" pt_clust_5="14000.00000" pt_clust_6="79.18447"></scales>
<clustering>
<clus scale="   31.128">  2  4  1 -1</clus>
<clus scale="   79.184">  2  6  1 -1</clus>
<clus scale="  129.391">  2  3  1 -1</clus>
<clus scale="  129.391">  1  3  2 -1</clus>
</clustering>
</event>
<event>
 6    0  0.4081161E+002  0.9840042E+02  0.7546771E-02  0.1283696E+00
         21   -1    0    0  505  502  0.00000000000E+00  0.00000000000E+00  0.69294614863E+02  0.69294614863E+02  0.00000000000E+00 0.  1.
          2   -1    0    0  504    0 -0.00000000000E+00 -0.00000000000E+00 -0.23404006680E+04  0.23404006680E+04  0.00000000000E+00 0.  1.
         21    1    1    2  503  502 -0.25160662765E+02  0.81429287443E+02 -0.20819201712E+02  0.87733841613E+02  0.00000000000E+00 0.  1.
         21    1    1    2  504  503 -0.55588597732E+02  0.54801482367E+02 -0.84683427712E+03  0.85042435735E+03  0.00000000000E+00 0.  1.
         21    1    1    2  505  501  0.11042352456E+02 -0.13196608405E+03 -0.99314686994E+02  0.16553062538E+03  0.00000000000E+00 0.  1.
          2    1    1    2  501    0  0.69706908042E+02 -0.42646857627E+01 -0.13041378873E+04  0.13060064585E+04  0.00000000000E+00 0.  1.
<scales pt_clust_3="98.40042" pt_clust_4="51.32919" pt_clust_5="14000.00000" pt_clust_6="69.83724"></scales>
<clustering>
<clus scale="   69.837">  2  6  1 -1</clus>
<clus scale="   51.329">  2  4  1 -1</clus>
<clus scale="   98.400">  1  3  2 -1</clus>
<clus scale="   98.400">  1  3  2 -1</clus>
</clustering>
</event>
<event>
 6    0  0.4081161E+002  0.1623881E+03  0.7546771E-02  0.1186027E+00
         21   -1    0    0  504  502  0.00000000000E+00  0.00000000000E+00  0.21843422015E+03  0.21843422015E+03  0.00000000000E+00 0.  1.
          2   -1    0    0  502    0 -0.00000000000E+00 -0.00000000000E+00 -0.13738951982E+04  0.13738951982E+04  0.00000000000E+00 0. -1.
         21    1    1    2  503  501  0.80438025819E+02 -0.20254370923E+02 -0.45279561327E+03  0.46033073212E+03  0.00000000000E+00 0.  1.
         21    1    1    2  504  505 -0.90353027950E+02 -0.11382846271E+02  0.17211417580E+03  0.19472166895E+03  0.00000000000E+00 0.  1.
         21    1    1    2  505  503 -0.47861486149E+02  0.91994145099E+02 -0.63269557362E+02  0.12147708211E+03  0.00000000000E+00 0.  1.
          2    1    1    2  501    0  0.57776488279E+02 -0.60356927906E+02 -0.81150998319E+03  0.81579993513E+03  0.00000000000E+00 0. -1.
<scales pt_clust_3="66.38760" pt_clust_4="91.06722" pt_clust_5="148.08948" pt_clust_6="66.38760"></scales>
<clustering>
<clus scale="   66.388">  3  6 -1 -1</clus>
<clus scale="   91.067">  1  4  2 -1</clus>
<clus scale="  148.089">  1  5  2 -1</clus>
<clus scale="   91.067">  1  3  2 -1</clus>
</clustering>
</event>
<event>
 6    0  0.4081161E+002  0.1343940E+03  0.7546771E-02  0.1221078E+00
         -1   -1    0    0    0  501 -0.00000000000E+00  0.00000000000E+00  0.88716742402E+03  0.88716742402E+03  0.00000000000E+00 0. -1.
         21   -1    0    0  505  502  0.00000000000E+00 -0.00000000000E+00 -0.12580796145E+03  0.12580796145E+03  0.00000000000E+00 0. -1.
         21    1    1    2  503  501 -0.55542398061E+02  0.33654343814E+02  0.28450641131E+03  0.29182438369E+03  0.00000000000E+00 0. -1.
         21    1    1    2  504  503 -0.40533841342E+02 -0.11957504898E+03  0.18727800138E+03  0.22586330918E+03  0.00000000000E+00 0. -1.
         21    1    1    2  505  504 -0.49952660244E+02  0.10312038952E+02 -0.77662361668E+02  0.92914201459E+02  0.00000000000E+00 0. -1.
         -1    1    1    2    0  502  0.14602889965E+03  0.75608666212E+02  0.36723741154E+03  0.40237349114E+03  0.00000000000E+00 0. -1.
<scales pt_clust_3="69.30040" pt_clust_4="14000.00000" pt_clust_5="51.00594" pt_clust_6="134.39396"></scales>
<clustering>
<clus scale="   51.006">  2  5  1 -1</clus>
<clus scale="   69.300">  1  3  2 -1</clus>
<clus scale="  134.394">  1  6  2 -1</clus>
<clus scale="   51.006">  2  3  1 -1</clus>
</clustering>
</event>
<event>
 6    0  0.4081161E+002  0.1358654E+03  0.7546771E-02  0.1219003E+00
         21   -1    0    0  505  502  0.00000000000E+00  0.00000000000E+00  0.10251803505E+03  0.10251803505E+03  0.00000000000E+00 0.  1.
          1   -1    0    0  504    0 -0.00000000000E+00 -0.00000000000E+00 -0.12280626466E+04  0.12280626466E+04  0.00000000000E+00 0.  1.
         21    1    1    2  503  502 -0.74503439148E+02 -0.58879415736E+02 -0.11153039488E+03  0.14648063703E+03  0.00000000000E+00 0.  1.
         21    1    1    2  504  503  0.13209362252E+03  0.18901142918E+03 -0.64251918758E+03  0.68264555362E+03  0.00000000000E+00 0.  1.
         21    1    1    2  505  501 -0.18481857981E+02 -0.40653881856E+02  0.51018771538E+02  0.67802892517E+02  0.00000000000E+00 0.  1.
          1    1    1    2  501    0 -0.39108325396E+02 -0.89478131588E+02 -0.42251380063E+03  0.43365159849E+03  0.00000000000E+00 0.  1.
<scales pt_clust_3="14000.00000" pt_clust_4="135.86540" pt_clust_5="44.65778" pt_clust_6="103.42004"></scales>
<clustering>
<clus scale="   44.658">  1  5  2 -1</clus>
<clus scale="  103.420">  2  6  1 -1</clus>
<clus scale="  135.865">  2  4  1 -1</clus>
<clus scale="   44.658">  1  3  2 -1</clus>
</clustering>
</event>
<event>
 6    0  0.4081161E+002  0.1131673E+03  0.7546771E-02  0.1254815E+00
          2   -1    0    0  504    0 -0.00000000000E+00  0.00000000000E+00  0.10145474037E+04  0.10145474037E+04  0.00000000000E+00 0.  1.
         21   -1    0    0  505  502  0.00000000000E+00 -0.00000000000E+00 -0.61647513231E+02  0.61647513231E+02  0.00000000000E+00 0.  1.
         21    1    1    2  503  502  0.40384866537E+02 -0.12873652450E+03  0.53807837110E+02  0.14525602749E+03  0.00000000000E+00 0.  1.
         21    1    1    2  504  503 -0.63077661438E+02  0.16934992086E+02  0.46880781486E+03  0.47333534899E+03  0.00000000000E+00 0.  1.
         21    1    1    2  505  501  0.50468052255E+02  0.33476232831E+02  0.98999017895E+02  0.11605381513E+03  0.00000000000E+00 0.  1.
          2    1    1    2  501    0 -0.27775257354E+02  0.78325299587E+02  0.33128522064E+03  0.34154972536E+03  0.00000000000E+00 0.  1.
<scales pt_clust_3="113.16727" pt_clust_4="63.63362" pt_clust_5="60.56139" pt_clust_6="14000.00000"></scales>
<clustering>
<clus scale="   60.561">  2  5  1 -1</clus>
<clus scale="   63.634">  1  4  2 -1</clus>
<clus scale="  113.167">  2  3  1 -1</clus>
<clus scale="   60.561">  2  3  1 -1</clus>
</clustering>
</event>
<event>
 6    0  0.4081161E+002  0.2310193E+03  0.7546771E-02  0.1125924E+00
          2   -1    0    0  504    0 -0.00000000000E+00  0.00000000000E+00  0.11275609380E+04  0.11275609380E+04  0.00000000000E+00 0. -1.
         21   -1    0    0  505  502  0.00000000000E+00 -0.00000000000E+00 -0.11060764386E+03  0.11060764386E+03  0.00000000000E+00 0.  1.
         21    1    1    2  503  501  0.70863981080E+02  0.86129265219E+02  0.30504267336E+03  0.32479376027E+03  0.00000000000E+00 0. -1.
         21    1    1    2  504  502 -0.15159489821E+03 -0.21400774512E+03  0.13942592520E+03  0.29701837780E+03  0.00000000000E+00 0.  1.
         21    1    1    2  505  503  0.55272296655E+01  0.59700703853E+02  0.35112403875E+02  0.69480970159E+02  0.00000000000E+00 0.  1.
          2    1    1    2  501    0  0.75203687460E+02  0.68177776053E+02  0.53737229170E+03  0.54687547362E+03  0.00000000000E+00 0. -1.
<scales pt_clust_3="66.62796" pt_clust_4="219.93646" pt_clust_5="59.95602" pt_clust_6="66.62796"></scales>
<clustering>
<clus scale="   59.956">  2  5  1 -1</clus>
<clus scale="   66.628">  3  6 -1 -1</clus>
<clus scale="  219.936">  2  4  1 -1</clus>
<clus scale="   59.956">  2  3  1 -1</clus>
</clustering>
</event>
<event>
 6    0  0.4081161E+002  0.1401916E+03  0.7546771E-02  0.1213071E+00
          2   -1    0    0  504    0 -0.00000000000E+00  0.00000000000E+00  0.15396235166E+04  0.15396235166E+04  0.00000000000E+00 0.  1.
         21   -1    0    0  501  502  0.00000000000E+00 -0.00000000000E+00 -0.17284730275E+04  0.17284730275E+04  0.00000000000E+00 0.  1.
         21    1    1    2  503  505  0.57393075023E+02 -0.71469474391E+02 -0.58207698262E+03  0.58924991687E+03  0.00000000000E+00 0.  1.
         21    1    1    2  504  503 -0.79635988538E+02  0.25566365163E+03  0.10197865445E+04  0.10543578092E+04  0.00000000000E+00 0. -1.
         21    1    1    2  505  502  0.20049207194E+02 -0.46679400938E+02 -0.11154576199E+04  0.11166139167E+04  0.00000000000E+00 0.  1.
          2    1    1    2  501    0  0.21937063213E+01 -0.13751477630E+03  0.48889854717E+03  0.50787490140E+03  0.00000000000E+00 0.  1.
<scales pt_clust_3="14000.00000" pt_clust_4="140.19158" pt_clust_5="50.80292" pt_clust_6="138.26064"></scales>
<clustering>
<clus scale="   50.803">  2  5  1 -1</clus>
<clus scale="  138.261">  1  6  2 -1</clus>
<clus scale="  140.192">  1  4  2 -1</clus>
<clus scale="   50.803">  2  3  1 -1</clus>
</clustering>
</event>
<event>
 6    0  0.4081161E+002  0.1231609E+03  0.7546771E-02  0.1237972E+00
         21   -1    0    0  504  502  0.00000000000E+00  0.00000000000E+00  0.95259060881E+03  0.95259060881E+03  0.00000000000E+00 0. -1.
         -1   -1    0    0    0  501 -0.00000000000E+00 -0.00000000000E+00 -0.56703772719E+03  0.56703772719E+03  0.00000000000E+00 0. -1.
         21    1    1    2  503  501 -0.68313707363E+02  0.47650145002E+02 -0.38279040646E+02  0.91665609065E+02  0.00000000000E+00 0.  1.
         21    1    1    2  504  503 -0.54193364033E+02 -0.28159182139E+02  0.69758328513E+02  0.92715072350E+02  0.00000000000E+00 0. -1.
         21    1    1    2  505  502 -0.35943195930E+01  0.36908747228E+02  0.83451637761E+03  0.83533990642E+03  0.00000000000E+00 0. -1.
         -1    1    1    2    0  505  0.12610139099E+03 -0.56399710090E+02 -0.48044278386E+03  0.49990774816E+03  0.00000000000E+00 0. -1.
<scales pt_clust_3="123.16093" pt_clust_4="56.73813" pt_clust_5="37.08335" pt_clust_6="14000.00000"></scales>
<clustering>
<clus scale="   37.083">  1  5  2 -1</clus>
<clus scale="   56.738">  1  4  2 -1</clus>
<clus scale="  123.161">  1  3  2 -1</clus>
<clus scale="   37.083">  1  3  2 -1</clus>
</clustering>
</event>
<event>
 6    0  0.4081161E+002  0.2005686E+03  0.7546771E-02  0.1149260E+00
          2   -1    0    0  503    0 -0.00000000000E+00  0.00000000000E+00  0.17664730894E+04  0.17664730894E+04  0.00000000000E+00 0.  1.
         21   -1    0    0  505  502  0.00000000000E+00 -0.00000000000E+00 -0.93435770889E+02  0.93435770889E+02  0.00000000000E+00 0.  1.
         21    1    1    2  503  502 -0.28334361065E+02 -0.15879898115E+03  0.30445826236E+03  0.34455012110E+03  0.00000000000E+00 0.  1.
         21    1    1    2  504  501 -0.45927988314E+01  0.84764685653E+02  0.45045577803E+03  0.45838472236E+03  0.00000000000E+00 0. -1.
         21    1    1    2  505  504  0.67661080460E+02 -0.52220965211E+02 -0.36842642066E+02  0.93072183229E+02  0.00000000000E+00 0.  1.
          2    1    1    2  501    0 -0.34733920564E+02  0.12625526071E+03  0.95496592020E+03  0.96390183361E+03  0.00000000000E+00 0.  1.
<scales pt_clust_3="196.50666" pt_clust_4="32.33568" pt_clust_5="85.46959" pt_clust_6="32.33568"></scales>
<clustering>
<clus scale="   32.336">  4  6 -1 -1</clus>
<clus scale="   85.470">  2  5  1 -1</clus>
<clus scale="  196.507">  2  3  1 -1</clus>
<clus scale="   85.470">  2  3  1 -1</clus>
</clustering>
</event>
<event>
 6    0  0.4081161E+002  0.1427448E+03  0.7546771E-02  0.1209683E+00
          2   -1    0    0  503    0 -0.00000000000E+00  0.00000000000E+00  0.92884123530E+03  0.92884123530E+03  0.00000000000E+00 0. -1.
         21   -1    0    0  501  502  0.00000000000E+00 -0.00000000000E+00 -0.18195360069E+03  0.18195360069E+03  0.00000000000E+00 0.  1.
         21    1    1    2  503  504  0.84791624064E+02  0.60566809788E+02  0.67575795347E+03  0.68374466699E+03  0.00000000000E+00 0. -1.
         21    1    1    2  504  505  0.91795106701E+02  0.27283646862E+02  0.86983317795E+02  0.12937092631E+03  0.00000000000E+00 0. -1.
         21    1    1    2  505  502 -0.14969371458E+03 -0.60227842188E+02 -0.11044434654E+03  0.19553402477E+03  0.00000000000E+00 0.  1.
          2    1    1    2  501    0 -0.26893016183E+02 -0.27622614463E+02  0.94590709877E+02  0.10214521792E+03  0.00000000000E+00 0. -1.
<scales pt_clust_3="73.36224" pt_clust_4="142.74475" pt_clust_5="14000.00000" pt_clust_6="38.55182"></scales>
<clustering>
<clus scale="   38.552">  1  6  2 -1</clus>
<clus scale="   73.362">  1  3  2 -1</clus>
<clus scale="  142.745">  1  4  2 -1</clus>
<clus scale="  142.745">  2  3  1 -1</clus>
</clustering>
</event>
<event>
 6    0  0.4081161E+002  0.7481825E+02  0.7546771E-02  0.1344435E+00
          2   -1    0    0  505    0 -0.00000000000E+00  0.00000000000E+00  0.82675422788E+03  0.82675422788E+03  0.00000000000E+00 0. -1.
         21   -1    0    0  501  502  0.00000000000E+00 -0.00000000000E+00 -0.15243037249E+03  0.15243037249E+03  0.00000000000E+00 0. -1.
         21    1    1    2  503  502  0.69969032272E+02  0.23318137156E+02 -0.12357252037E+03  0.14390819570E+03  0.00000000000E+00 0. -1.
         21    1    1    2  504  503 -0.11563554410E+03  0.22990614660E+02  0.25846566815E+03  0.28408563680E+03  0.00000000000E+00 0. -1.
         21    1    1    2  505  504 -0.59046675642E+01 -0.58463626835E+02  0.32802219434E+03  0.33324378575E+03  0.00000000000E+00 0. -1.
          2    1    1    2  501    0  0.51571179395E+02  0.12154875019E+02  0.21140851327E+03  0.21794698212E+03  0.00000000000E+00 0. -1.
<scales pt_clust_3="74.81825" pt_clust_4="14000.00000" pt_clust_5="56.34999" pt_clust_6="52.98422"></scales>
<clustering>
<clus scale="   52.984">  1  6  2 -1</clus>
<clus scale="   56.350">  1  5  2 -1</clus>
<clus scale="   74.818">  2  3  1 -1</clus>
<clus scale="   74.818">  2  3  1 -1</clus>
</clustering>
</event>
<event>
 6    0  0.4081161E+002  0.9631395E+02  0.7546771E-02  0.1288244E+00
          1   -1    0    0  505    0 -0.00000000000E+00  0.00000000000E+00  0.48294446428E+03  0.48294446428E+03  0.00000000000E+00 0.  1.
         21   -1    0    0  504  502  0.00000000000E+00 -0.00000000000E+00 -0.16557333811E+03  0.16557333811E+03  0.00000000000E+00 0.  1.
         21    1    1    2  503  501  0.69196067619E+02 -0.69972990714E+01  0.32270062424E+03  0.33011021016E+03  0.00000000000E+00 0.  1.
         21    1    1    2  504  503  0.38512660198E+02  0.18981813858E+02 -0.11952075134E+02  0.44568894455E+02  0.00000000000E+00 0.  1.
         21    1    1    2  505  502 -0.12874804788E+03 -0.54736850915E+02 -0.89830528825E+02  0.16625795196E+03  0.00000000000E+00 0.  1.
          1    1    1    2  501    0  0.21039320062E+02  0.42752336128E+02  0.96453105895E+02  0.10758074581E+03  0.00000000000E+00 0.  1.
<scales pt_clust_3="14000.00000" pt_clust_4="42.93640" pt_clust_5="96.31395" pt_clust_6="49.03948"></scales>
<clustering>
<clus scale="   42.936">  2  4  1 -1</clus>
<clus scale="   49.039">  1  6  2 -1</clus>
<clus scale="   96.314">  2  5  1 -1</clus>
<clus scale="   42.936">  2  3  1 -1</clus>
</clustering>
</event>
<event>
 6    0  0.4081161E+002  0.9239227E+02  0.7546771E-02  0.1297160E+00
          2   -1    0    0  503    0 -0.00000000000E+00  0.00000000000E+00  0.30760924015E+04  0.30760924015E+04  0.00000000000E+00 0.  1.
         21   -1    0    0  505  502  0.00000000000E+00 -0.00000000000E+00 -0.18922593110E+03  0.18922593110E+03  0.00000000000E+00 0.  1.
         21    1    1    2  503  502 -0.49086039264E+02  0.21827657719E+02 -0.16500707113E+03  0.17353160926E+03  0.00000000000E+00 0.  1.
         21    1    1    2  504  501 -0.29139015819E+02 -0.48812833651E+02  0.34311111578E+02  0.66400507149E+02  0.00000000000E+00 0.  1.
         21    1    1    2  505  504  0.36890426864E+02 -0.57736523334E+02  0.37919411787E+03  0.38533438563E+03  0.00000000000E+00 0.  1.
          2    1    1    2  501    0  0.41334628219E+02  0.84721699266E+02  0.26383683121E+04  0.26400518306E+04  0.00000000000E+00 0.  1.
<scales pt_clust_3="53.72044" pt_clust_4="14000.00000" pt_clust_5="61.78837" pt_clust_6="92.39227"></scales>
<clustering>
<clus scale="   53.720">  2  3  1 -1</clus>
<clus scale="   61.788">  2  5  1 -1</clus>
<clus scale="   92.392">  1  6  2 -1</clus>
<clus scale="   53.720">  2  3  1 -1</clus>
</clustering>
</event>
<event>
 6    0  0.4081161E+002  0.5361938E+02  0.7546771E-02  0.1426743E+00
          2   -1    0    0  504    0 -0.00000000000E+00  0.00000000000E+00  0.39009437426E+04  0.39009437426E+04  0.00000000000E+00 0. -1.
         21   -1    0    0  503  502  0.00000000000E+00 -0.00000000000E+00 -0.70761288285E+02  0.70761288285E+02  0.00000000000E+00 0.  1.
         21    1    1    2  503  501  0.88960428218E+02 -0.35518488532E+02 -0.25311486119E+02  0.99076698299E+02  0.00000000000E+00 0.  1.
         21    1    1    2  504  505  0.21559956011E+02 -0.23561741795E+02  0.24147403331E+03  0.24357687933E+03  0.00000000000E+00 0. -1.
         21    1    1    2  505  502 -0.41433292803E+02  0.14661994145E+02  0.61545230829E+02  0.75627424011E+02  0.00000000000E+00 0. -1.
          2    1    1    2  501    0 -0.69087091426E+02  0.44418236183E+02  0.35524746763E+04  0.35534240293E+04  0.00000000000E+00 0. -1.
<scales pt_clust_3="53.61938" pt_clust_4="31.93724" pt_clust_5="43.42353" pt_clust_6="14000.00000"></scales>
<clustering>
<clus scale="   31.937">  1  4  2 -1</clus>
<clus scale="   43.424">  2  5  1 -1</clus>
<clus scale="   53.619">  2  3  1 -1</clus>
<clus scale="   43.424">  2  3  1 -1</clus>
</clustering>
</event>
<event>
 6    0  0.4081161E+002  0.1314760E+03  0.7546771E-02  0.1225282E+00
          1   -1    0    0  504    0 -0.00000000000E+00  0.00000000000E+00  0.22158429016E+04  0.22158429016E+04  0.00000000000E+00 0. -1.
         21   -1    0    0  501  502  0.00000000000E+00 -0.00000000000E+00 -0.46169363818E+02  0.46169363818E+02  0.00000000000E+00 0.  1.
         21    1    1    2  503  505  0.11985213821E+03 -0.62677673762E+02  0.82386170062E+02  0.15836826336E+03  0.00000000000E+00 0.  1.
         21    1    1    2  504  503 -0.73386027687E+02 -0.43033359682E+02  0.11488599963E+04  0.11520054992E+04  0.00000000000E+00 0. -1.
         21    1    1    2  505  502  0.27298569454E+02  0.38373078590E+02  0.15868252295E+03  0.16552295352E+03  0.00000000000E+00 0.  1.
          1    1    1    2  501    0 -0.73764679976E+02  0.67337954855E+02  0.77974484848E+03  0.78611554934E+03  0.00000000000E+00 0. -1.
<scales pt_clust_3="14000.00000" pt_clust_4="83.49533" pt_clust_5="47.09252" pt_clust_6="131.47596"></scales>
<clustering>
<clus scale="   47.093">  2  5  1 -1</clus>
<clus scale="   83.495">  1  4  2 -1</clus>
<clus scale="  131.476">  1  6  2 -1</clus>
<clus scale="   47.093">  2  3  1 -1</clus>
</clustering>
</event>
<event>
 6    0  0.4081161E+002  0.1283672E+03  0.7546771E-02  0.1229899E+00
         -1   -1    0    0    0  501 -0.00000000000E+00  0.00000000000E+00  0.15373962661E+04  0.15373962661E+04  0.00000000000E+00 0. -1.
         21   -1    0    0  503  502  0.00000000000E+00 -0.00000000000E+00 -0.64749861315E+02  0.64749861315E+02  0.00000000000E+00 0. -1.
         21    1    1    2  503  501 -0.42730101360E+02 -0.78339031256E+00 -0.19060279125E+02  0.46794973052E+02  0.00000000000E+00 0. -1.
         21    1    1    2  504  502 -0.45869386691E+00  0.11618248544E+03  0.88184465615E+02  0.14585979672E+03  0.00000000000E+00 0. -1.
         21    1    1    2  505  504  0.15472557866E+02 -0.49509121817E+02  0.38727663445E+03  0.39073487787E+03  0.00000000000E+00 0. -1.
         -1    1    1    2    0  505  0.27716237360E+02 -0.65889973315E+02  0.10162455839E+04  0.10187564798E+04  0.00000000000E+00 0. -1.
<scales pt_clust_3="42.73728" pt_clust_4="121.93884" pt_clust_5="34.17011" pt_clust_6="34.17011"></scales>
<clustering>
<clus scale="   34.170">  5  6 -1 -1</clus>
<clus scale="   42.737">  2  3  1 -1</clus>
<clus scale="  121.939">  2  4  1 -1</clus>
<clus scale="   42.737">  2  3  1 -1</clus>
</clustering>
</event>
<event>
 6    0  0.4081161E+002  0.1255126E+03  0.7546771E-02  0.1234270E+00
          2   -1    0    0  503    0 -0.00000000000E+00  0.00000000000E+00  0.28428458820E+04  0.28428458820E+04  0.00000000000E+00 0.  1.
         21   -1    0    0  505  502  0.00000000000E+00 -0.00000000000E+00 -0.76663327250E+02  0.76663327250E+02  0.00000000000E+00 0. -1.
         21    1    1    2  503  502  0.13188428731E+03 -0.34307760413E+02  0.12338522426E+02  0.13683101549E+03  0.00000000000E+00 0. -1.
         21    1    1    2  504  501  0.19975817138E+01  0.47251543349E+02  0.16140508755E+03  0.16819126306E+03  0.00000000000E+00 0. -1.
         21    1    1    2  505  504 -0.27608926622E+02  0.55369933530E+02  0.92066479607E+02  0.11092483507E+03  0.00000000000E+00 0. -1.
          2    1    1    2  501    0 -0.10627294240E+03 -0.68313716465E+02  0.25003724652E+04  0.25035620957E+04  0.00000000000E+00 0.  1.
<scales pt_clust_3="125.51260" pt_clust_4="43.45902" pt_clust_5="116.86728" pt_clust_6="14000.00000"></scales>
<clustering>
<clus scale="   43.459">  4  5 -1 -1</clus>
<clus scale="  116.867">  2  4  1 -1</clus>
<clus scale="  125.513">  2  3  1 -1</clus>
<clus scale="  116.867">  2  3  1 -1</clus>
</clustering>
</event>
<event>
 6    0  0.4081161E+002  0.8600523E+02  0.7546771E-02  0.1312824E+00
         21   -1    0    0  503  502  0.00000000000E+00  0.00000000000E+00  0.23853490024E+03  0.23853490024E+03  0.00000000000E+00 0.  1.
          2   -1    0    0  505    0 -0.00000000000E+00 -0.00000000000E+00 -0.17672975898E+04  0.17672975898E+04  0.00000000000E+00 0. -1.
         21    1    1    2  503  504 -0.17238279583E+02  0.33365015876E+02  0.17924758735E+03  0.18313951004E+03  0.00000000000E+00 0.  1.
         21    1    1    2  504  501  0.10277981551E+03 -0.41797400603E+02 -0.32133590984E+00  0.11095411858E+03  0.00000000000E+00 0. -1.
         21    1    1    2  505  502 -0.18461122111E+02  0.35220492744E+02 -0.37711214057E+03  0.37920293077E+03  0.00000000000E+00 0.  1.
          2    1    1    2  501    0 -0.67080413812E+02 -0.26788108016E+02 -0.13305768004E+04  0.13325359307E+04  0.00000000000E+00 0. -1.
<scales pt_clust_3="37.55506" pt_clust_4="86.00523" pt_clust_5="40.45017" pt_clust_6="14000.00000"></scales>
<clustering>
<clus scale="   37.555">  1  3  2 -1</clus>
<clus scale="   40.450">  2  5  1 -1</clus>
<clus scale="   86.005">  1  4  2 -1</clus>
<clus scale="   37.555">  1  3  2 -1</clus>
</clustering>
</event>
<event>
 6    0  0.4081161E+002  0.1667625E+03  0.7546771E-02  0.1181267E+00
         21   -1    0    0  504  502  0.00000000000E+00  0.00000000000E+00  0.73089514040E+03  0.73089514040E+03  0.00000000000E+00 0. -1.
          1   -1    0    0  503    0 -0.00000000000E+00 -0.00000000000E+00 -0.90700689541E+02  0.90700689541E+02  0.00000000000E+00 0. -1.
         21    1    1    2  503  505  0.15211190193E+03 -0.70904178201E+02  0.16013470073E+03  0.23196671221E+03  0.00000000000E+00 0. -1.
         21    1    1    2  504  501  0.13126012088E+02  0.31594807796E+02  0.15594790157E+03  0.15965673201E+03  0.00000000000E+00 0. -1.
         21    1    1    2  505  502 -0.19794927399E+02 -0.41092560344E+02  0.23889513186E+03  0.24321044734E+03  0.00000000000E+00 0. -1.
          1    1    1    2  501    0 -0.14544298661E+03  0.80401930749E+02  0.85216716690E+02  0.18676193838E+03  0.00000000000E+00 0. -1.
<scales pt_clust_3="166.76245" pt_clust_4="34.21292" pt_clust_5="31.25323" pt_clust_6="14000.00000"></scales>
<clustering>
<clus scale="   34.213">  1  4  2 -1</clus>
<clus scale="   31.253">  1  5  2 -1</clus>
<clus scale="  166.762">  1  3  2 -1</clus>
<clus scale="   34.213">  1  3  2 -1</clus>
</clustering>
</event>
<event>
 6    0  0.4081161E+002  0.9094906E+02  0.7546771E-02  0.1300570E+00
         21   -1    0    0  501  502  0.00000000000E+00  0.00000000000E+00  0.46234161366E+03  0.46234161366E+03  0.00000000000E+00 0. -1.
          1   -1    0    0  504    0 -0.00000000000E+00 -0.00000000000E+00 -0.99122819854E+03  0.99122819854E+03  0.00000000000E+00 0.  1.
         21    1    1    2  503  505  0.65155399136E+02 -0.12644336717E+03  0.35092938143E+03  0.37866156643E+03  0.00000000000E+00 0. -1.
         21    1    1    2  504  503 -0.42682917005E+02  0.85453508884E+01 -0.13332384958E+03  0.14025014543E+03  0.00000000000E+00 0. -1.
         21    1    1    2  505  502 -0.16472763349E+02  0.49786326909E+02  0.85262067121E+02  0.10009820363E+03  0.00000000000E+00 0.  1.
          1    1    1    2  501    0 -0.59997187817E+01  0.68111689375E+02 -0.83175418385E+03  0.83455989672E+03  0.00000000000E+00 0.  1.
<scales pt_clust_3="14000.00000" pt_clust_4="43.52993" pt_clust_5="52.62859" pt_clust_6="90.94906"></scales>
<clustering>
<clus scale="   43.530">  2  4  1 -1</clus>
<clus scale="   52.629">  1  5  2 -1</clus>
<clus scale="   90.949">  2  6  1 -1</clus>
<clus scale="   52.629">  1  3  2 -1</clus>
</clustering>
</event>
<event>
 6    0  0.4081161E+002  0.9481911E+02  0.7546771E-02  0.1291584E+00
          1   -1    0    0  502    0 -0.00000000000E+00  0.00000000000E+00  0.18908943799E+03  0.18908943799E+03  0.00000000000E+00 0.  1.
         21   -1    0    0  505  502  0.00000000000E+00 -0.00000000000E+00 -0.47480290607E+03  0.47480290607E+03  0.00000000000E+00 0.  1.
         21    1    1    2  503  501 -0.38316523973E+02 -0.46200899008E+02  0.74160874211E+01  0.60478735363E+02  0.00000000000E+00 0.  1.
         21    1    1    2  504  503 -0.77404547900E+02  0.46122638070E+02 -0.34324524274E+02  0.96420613692E+02  0.00000000000E+00 0.  1.
         21    1    1    2  505  504  0.97665992534E+02  0.24039086239E+02 -0.37434473474E+03  0.38762159923E+03  0.00000000000E+00 0.  1.
          1    1    1    2  501    0  0.18055079339E+02 -0.23960825301E+02  0.11553970352E+03  0.11937139577E+03  0.00000000000E+00 0.  1.
<scales pt_clust_3="64.79475" pt_clust_4="94.81911" pt_clust_5="14000.00000" pt_clust_6="30.00178"></scales>
<clustering>
<clus scale="   30.002">  1  6  2 -1</clus>
<clus scale="   64.795">  1  3  2 -1</clus>
<clus scale="   94.819">  1  4  2 -1</clus>
<clus scale="   94.819">  2  3  1 -1</clus>
</clustering>
</event>
<event>
 6    0  0.4081161E+002  0.1100827E+03  0.7546771E-02  0.1260417E+00
         21   -1    0    0  504  502  0.00000000000E+00  0.00000000000E+00  0.26587830092E+02  0.26587830092E+02  0.00000000000E+00 0. -1.
          1   -1    0    0  503    0 -0.00000000000E+00 -0.00000000000E+00 -0.10285612334E+04  0.10285612334E+04  0.00000000000E+00 0.  1.
         21    1    1    2  503  502  0.40670383951E+02  0.41565849738E+02 -0.19076321162E+03  0.19943019556E+03  0.00000000000E+00 0.  1.
         21    1    1    2  504  505  0.51372240475E+01  0.88507119740E+02 -0.12211238264E+03  0.15090174058E+03  0.00000000000E+00 0. -1.
         21    1    1    2  505  501 -0.28618495460E+02 -0.51640311231E+02 -0.18024087195E+03  0.18966420840E+03  0.00000000000E+00 0.  1.
          1    1    1    2  501    0 -0.17189112538E+02 -0.78432658247E+02 -0.50885693715E+03  0.51515291900E+03  0.00000000000E+00 0.  1.
<scales pt_clust_3="58.15325" pt_clust_4="96.04232" pt_clust_5="46.13037" pt_clust_6="46.13037"></scales>
<clustering>
<clus scale="   46.130">  5  6 -1 -1</clus>
<clus scale="   58.153">  2  3  1 -1</clus>
<clus scale="   96.042">  1  4  2 -1</clus>
<clus scale="   96.042">  1  3  2 -1</clus>
</clustering>
</event>
<event>
 6    0  0.4081161E+002  0.1320419E+03  0.7546771E-02  0.1224457E+00
          2   -1    0    0  503    0 -0.00000000000E+00  0.00000000000E+00  0.23315532816E+04  0.23315532816E+04  0.00000000000E+00 0.  1.
         21   -1    0    0  504  502  0.00000000000E+00 -0.00000000000E+00 -0.46284898846E+02  0.46284898846E+02  0.00000000000E+00 0.  1.
         21    1    1    2  503  502 -0.14270907373E+02  0.66011735249E+02  0.33874655110E+01  0.67621615704E+02  0.00000000000E+00 0.  1.
         21    1    1    2  504  505  0.10550526413E+03  0.28982890541E+02  0.24068922979E+03  0.26439113835E+03  0.00000000000E+00 0.  1.
         21    1    1    2  505  501 -0.28701040877E+02 -0.56899577601E+02  0.10506690293E+04  0.10525999814E+04  0.00000000000E+00 0.  1.
          2    1    1    2  501    0 -0.62533315876E+02 -0.38095048188E+02  0.99052265820E+03  0.99322544505E+03  0.00000000000E+00 0.  1.
<scales pt_clust_3="67.53672" pt_clust_4="125.87524" pt_clust_5="37.20545" pt_clust_6="37.20545"></scales>
<clustering>
<clus scale="   37.205">  5  6 -1 -1</clus>
<clus scale="   67.537">  2  3  1 -1</clus>
<clus scale="  125.875">  2  4  1 -1</clus>
<clus scale="   67.537">  2  3  1 -1</clus>
</clustering>
</event>
<event>
 6    0  0.4081161E+002  0.2376276E+03  0.7546771E-02  0.1121383E+00
          2   -1    0    0  504    0 -0.00000000000E+00  0.00000000000E+00  0.21477239054E+04  0.21477239054E+04  0.00000000000E+00 0. -1.
         21   -1    0    0  503  502  0.00000000000E+00 -0.00000000000E+00 -0.14676996951E+03  0.14676996951E+03  0.00000000000E+00 0.  1.
         21    1    1    2  503  501 -0.15069764941E+03  0.27703739663E+03  0.11134387896E+03  0.33445023554E+03  0.00000000000E+00 0.  1.
         21    1    1    2  504  505 -0.42854009098E+02 -0.38259142814E+02  0.88391675290E+03  0.88578160636E+03  0.00000000000E+00 0.  1.
         21    1    1    2  505  502  0.96718031266E+02 -0.48035014097E+02  0.11302826002E+03  0.15632379126E+03  0.00000000000E+00 0. -1.
          2    1    1    2  501    0  0.96833627245E+02 -0.19074323972E+03  0.89266504404E+03  0.91793824177E+03  0.00000000000E+00 0. -1.
<scales pt_clust_3="237.62764" pt_clust_4="57.44761" pt_clust_5="105.86420" pt_clust_6="14000.00000"></scales>
<clustering>
<clus scale="   57.448">  1  4  2 -1</clus>
<clus scale="  105.864">  2  5  1 -1</clus>
<clus scale="  237.628">  2  3  1 -1</clus>
<clus scale="  105.864">  2  3  1 -1</clus>
</clustering>
</event>
<event>
 6    0  0.4081161E+002  0.9474236E+02  0.7546771E-02  0.1291757E+00
         21   -1    0    0  504  502  0.00000000000E+00  0.00000000000E+00  0.14500635868E+03  0.14500635868E+03  0.00000000000E+00 0.  1.
          2   -1    0    0  503    0 -0.00000000000E+00 -0.00000000000E+00 -0.56862830003E+03  0.56862830003E+03  0.00000000000E+00 0. -1.
         21    1    1    2  503  505 -0.23996343919E+02 -0.72505309107E+02 -0.33096429222E+03  0.33966190115E+03  0.00000000000E+00 0.  1.
         21    1    1    2  504  501 -0.10813428550E+02  0.12883411521E+03  0.97454044763E+02  0.16190259516E+03  0.00000000000E+00 0.  1.
         21    1    1    2  505  502  0.53054220107E+01 -0.32656274653E+02 -0.21943460569E+02  0.39700065978E+02  0.00000000000E+00 0.  1.
          2    1    1    2  501    0  0.29504350458E+02 -0.23672531450E+02 -0.16816823332E+03  0.17237009642E+03  0.00000000000E+00 0. -1.
<scales pt_clust_3="94.74236" pt_clust_4="14000.00000" pt_clust_5="33.08443" pt_clust_6="38.20798"></scales>
<clustering>
<clus scale="   33.084">  1  5  2 -1</clus>
<clus scale="   38.208">  2  6  1 -1</clus>
<clus scale="   94.742">  2  3  1 -1</clus>
<clus scale="   33.084">  1  3  2 -1</clus>
</clustering>
</event>
<event>
 6    0  0.4081161E+002  0.7991849E+02  0.7546771E-02  0.1329283E+00
          2   -1    0    0  503    0 -0.00000000000E+00  0.00000000000E+00  0.54006401355E+03  0.54006401355E+03  0.00000000000E+00 0. -1.
         21   -1    0    0  505  502  0.00000000000E+00 -0.00000000000E+00 -0.82777460032E+02  0.82777460032E+02  0.00000000000E+00 0. -1.
         21    1    1    2  503  504  0.12579967380E+02 -0.37395077689E+02  0.24148000065E+03  0.24468191214E+03  0.00000000000E+00 0. -1.
         21    1    1    2  504  502  0.69591459142E+02  0.90292062099E+02  0.34882638608E+00  0.11399890062E+03  0.00000000000E+00 0. -1.
         21    1    1    2  505  501 -0.24174932412E+02 -0.23973142286E+02 -0.49664360989E+01  0.34406458633E+02  0.00000000000E+00 0. -1.
          2    1    1    2  501    0 -0.57996494111E+02 -0.28923842125E+02  0.22042416258E+03  0.22975420219E+03  0.00000000000E+00 0. -1.
<scales pt_clust_3="39.84290" pt_clust_4="79.91849" pt_clust_5="34.04613" pt_clust_6="14000.00000"></scales>
<clustering>
<clus scale="   34.046">  2  5  1 -1</clus>
<clus scale="   39.843">  1  3  2 -1</clus>
<clus scale="   79.918">  2  4  1 -1</clus>
<clus scale="   34.046">  2  3  1 -1</clus>
</clustering>
</event>
<event>
 6    0  0.4081161E+002  0.1530275E+03  0.7546771E-02  0.1196801E+00
         21   -1    0    0  503  502  0.00000000000E+00  0.00000000000E+00  0.58414794447E+03  0.58414794447E+03  0.00000000000E+00 0.  1.
         -2   -1    0    0    0  501 -0.00000000000E+00 -0.00000000000E+00 -0.87136614097E+02  0.87136614097E+02  0.00000000000E+00 0.  1.
         21    1    1    2  503  505  0.48777348125E+02 -0.63884347164E+01  0.30871094666E+03  0.31260596664E+03  0.00000000000E+00 0.  1.
         21    1    1    2  504  502 -0.10091556366E+03  0.13053189133E+02  0.89113957496E+02  0.13526135500E+03  0.00000000000E+00 0.  1.
         21    1    1    2  505  501  0.12102659309E+03 -0.30537156547E+02  0.79176658645E+02  0.14781372548E+03  0.00000000000E+00 0.  1.
         -2    1    1    2    0  504 -0.68888377555E+02  0.23872402130E+02  0.20009767574E+02  0.75603511453E+02  0.00000000000E+00 0.  1.
<scales pt_clust_3="49.19392" pt_clust_4="41.11318" pt_clust_5="145.11478" pt_clust_6="41.11318"></scales>
<clustering>
<clus scale="   41.113">  4  6 -1 -1</clus>
<clus scale="   49.194">  1  3  2 -1</clus>
<clus scale="  145.115">  2  5  1 -1</clus>
<clus scale="   49.194">  1  3  2 -1</clus>
</clustering>
</event>
<event>
 6    0  0.4081161E+002  0.9526654E+02  0.7546771E-02  0.1290577E+00
          1   -1    0    0  505    0 -0.00000000000E+00  0.00000000000E+00  0.26472163106E+04  0.26472163106E+04  0.00000000000E+00 0.  1.
         21   -1    0    0  503  502  0.00000000000E+00 -0.00000000000E+00 -0.20170579751E+03  0.20170579751E+03  0.00000000000E+00 0.  1.
         21    1    1    2  503  504  0.19525138577E+02  0.23028854005E+02 -0.60871610597E+02  0.67947863321E+02  0.00000000000E+00 0. -1.
         21    1    1    2  504  501 -0.18755573103E+02 -0.10510127824E+03  0.41895599414E+03  0.43234497249E+03  0.00000000000E+00 0.  1.
         21    1    1    2  505  502 -0.60851316649E+02  0.81398533256E+01 -0.12230313669E+03  0.13684734997E+03  0.00000000000E+00 0.  1.
          1    1    1    2  501    0  0.60081751175E+02  0.73932570906E+02  0.22097292662E+04  0.22117819223E+04  0.00000000000E+00 0.  1.
<scales pt_clust_3="30.19204" pt_clust_4="14000.00000" pt_clust_5="51.88687" pt_clust_6="95.26654"></scales>
<clustering>
<clus scale="   30.192">  2  3  1 -1</clus>
<clus scale="   51.887">  2  5  1 -1</clus>
<clus scale="   95.267">  1  6  2 -1</clus>
<clus scale="   30.192">  2  3  1 -1</clus>
</clustering>
</event>
<event>
 6    0  0.4081161E+002  0.1110206E+03  0.7546771E-02  0.1258691E+00
          1   -1    0    0  503    0 -0.00000000000E+00  0.00000000000E+00  0.29303312466E+04  0.29303312466E+04  0.00000000000E+00 0.  1.
         21   -1    0    0  504  502  0.00000000000E+00 -0.00000000000E+00 -0.45450530228E+03  0.45450530228E+03  0.00000000000E+00 0. -1.
         21    1    1    2  503  505 -0.40406194811E+01  0.12921806599E+03  0.40713829066E+03  0.42717118689E+03  0.00000000000E+00 0.  1.
         21    1    1    2  504  501 -0.27453457634E+02 -0.21140223697E+02 -0.40989023946E+03  0.41135217247E+03  0.00000000000E+00 0. -1.
         21    1    1    2  505  502 -0.29208320982E+02 -0.15347222150E+02 -0.24303203946E+02  0.40979372425E+02  0.00000000000E+00 0.  1.
          1    1    1    2  501    0  0.60702398096E+02 -0.92730620143E+02  0.25028810971E+04  0.25053338171E+04  0.00000000000E+00 0.  1.
<scales pt_clust_3="111.02060" pt_clust_4="66.51770" pt_clust_5="32.99490" pt_clust_6="14000.00000"></scales>
<clustering>
<clus scale="   32.995">  2  5  1 -1</clus>
<clus scale="   66.518">  2  4  1 -1</clus>
<clus scale="  111.021">  2  3  1 -1</clus>
<clus scale="   32.995">  2  3  1 -1</clus>
</clustering>
</event>
<event>
 6    0  0.4081161E+002  0.1306645E+03  0.7546771E-02  0.1226473E+00
         21   -1    0    0  503  502  0.00000000000E+00  0.00000000000E+00  0.42925990851E+02  0.42925990851E+02  0.00000000000E+00 0. -1.
          2   -1    0    0  504    0 -0.00000000000E+00 -0.00000000000E+00 -0.20048340652E+04  0.20048340652E+04  0.00000000000E+00 0. -1.
         21    1    1    2  503  501  0.14371567252E+02 -0.32914156941E+02 -0.84852179521E+02  0.92139980692E+02  0.00000000000E+00 0. -1.
         21    1    1    2  504  505 -0.99894971257E+02 -0.33508207353E+02 -0.13323900441E+03  0.16986593990E+03  0.00000000000E+00 0. -1.
         21    1    1    2  505  502 -0.44687302969E+02  0.11302116104E+03 -0.18838823755E+03  0.22418935286E+03  0.00000000000E+00 0. -1.
          2    1    1    2  501    0  0.13021070697E+03 -0.46598796750E+02 -0.15554286529E+04  0.15615647826E+04  0.00000000000E+00 0. -1.
<scales pt_clust_3="35.91495" pt_clust_4="130.66448" pt_clust_5="105.18044" pt_clust_6="14000.00000"></scales>
<clustering>
<clus scale="   35.915">  1  3  2 -1</clus>
<clus scale="  105.180">  1  5  2 -1</clus>
<clus scale="  130.664">  1  4  2 -1</clus>
<clus scale="   35.915">  1  3  2 -1</clus>
</clustering>
</event>
<event>
 6    0  0.4081161E+002  0.1496838E+03  0.7546771E-02  0.1200862E+00
          2   -1    0    0  504    0 -0.00000000000E+00  0.00000000000E+00  0.20233064620E+04  0.20233064620E+04  0.00000000000E+00 0.  1.
         21   -1    0    0  505  502  0.00000000000E+00 -0.00000000000E+00 -0.12894673126E+03  0.12894673126E+03  0.00000000000E+00 0. -1.
         21    1    1    2  503  501 -0.10410977885E+03  0.15860967910E+03  0.48331866263E+03  0.51922327183E+03  0.00000000000E+00 0. -1.
         21    1    1    2  504  502  0.20327038789E+02 -0.32419222681E+02  0.77025315642E+02  0.86006358805E+02  0.00000000000E+00 0. -1.
         21    1    1    2  505  503  0.57450075798E+02 -0.17371568371E+02 -0.95682211462E+02  0.11294852007E+03  0.00000000000E+00 0. -1.
          2    1    1    2  501    0  0.26332664263E+02 -0.10881888805E+03  0.14296979639E+04  0.14340750425E+04  0.00000000000E+00 0.  1.
<scales pt_clust_3="149.68381" pt_clust_4="38.26479" pt_clust_5="60.14735" pt_clust_6="14000.00000"></scales>
<clustering>
<clus scale="   38.265">  1  4  2 -1</clus>
<clus scale="   60.147">  2  5  1 -1</clus>
<clus scale="  149.684">  2  3  1 -1</clus>
<clus scale="   60.147">  2  3  1 -1</clus>
</clustering>
</event>
<event>
 6    0  0.4081161E+002  0.1043708E+03  0.7546771E-02  0.1271364E+00
          2   -1    0    0  504    0 -0.00000000000E+00  0.00000000000E+00  0.80109158559E+03  0.80109158559E+03  0.00000000000E+00 0. -1.
         21   -1    0    0  501  502  0.00000000000E+00 -0.00000000000E+00 -0.72288022771E+02  0.72288022771E+02  0.00000000000E+00 0. -1.
         21    1    1    2  503  505  0.63397732701E+02 -0.13354530180E+02  0.26829768817E+03  0.27600953872E+03  0.00000000000E+00 0. -1.
         21    1    1    2  504  503  0.15439752944E+01  0.31393552464E+02  0.76134825258E+02  0.82367776546E+02  0.00000000000E+00 0. -1.
         21    1    1    2  505  502 -0.86932006225E+02 -0.69091213532E+02 -0.14758570177E+02  0.11202046638E+03  0.00000000000E+00 0. -1.
          2    1    1    2  501    0  0.21990298229E+02  0.51052191248E+02  0.39912961957E+03  0.40298182672E+03  0.00000000000E+00 0. -1.
<scales pt_clust_3="63.99787" pt_clust_4="31.43150" pt_clust_5="14000.00000" pt_clust_6="104.37084"></scales>
<clustering>
<clus scale="   31.431">  1  4  2 -1</clus>
<clus scale="   63.998">  1  3  2 -1</clus>
<clus scale="  104.371">  1  6  2 -1</clus>
<clus scale="  104.371">  2  3  1 -1</clus>
</clustering>
</event>
<event>
 6    0  0.4081161E+002  0.8237056E+02  0.7546771E-02  0.1322456E+00
         -2   -1    0    0    0  501 -0.00000000000E+00  0.00000000000E+00  0.87390027854E+02  0.87390027854E+02  0.00000000000E+00 0. -1.
         21   -1    0    0  505  502  0.00000000000E+00 -0.00000000000E+00 -0.11998869278E+04  0.11998869278E+04  0.00000000000E+00 0. -1.
         21    1    1    2  503  501  0.81583400071E+02  0.53266524149E+01 -0.16651732332E+03  0.18550537286E+03  0.00000000000E+00 0. -1.
         21    1    1    2  504  502  0.40388742617E+01 -0.30565120616E+02 -0.33352014606E+03  0.33494212475E+03  0.00000000000E+00 0. -1.
         21    1    1    2  505  503 -0.19020697619E+02  0.76623030080E+02 -0.66366893322E+03  0.66834820910E+03  0.00000000000E+00 0. -1.
         -2    1    1    2    0  504 -0.66601576714E+02 -0.51384561879E+02  0.51209502698E+02  0.98481248910E+02  0.00000000000E+00 0. -1.
<scales pt_clust_3="14000.00000" pt_clust_4="30.83081" pt_clust_5="55.44011" pt_clust_6="82.37056"></scales>
<clustering>
<clus scale="   30.831">  2  4  1 -1</clus>
<clus scale="   55.440">  2  5  1 -1</clus>
<clus scale="   82.371">  1  6  2 -1</clus>
<clus scale="   30.831">  2  3  1 -1</clus>
</clustering>
</event>
<event>
 6    0  0.4081161E+002  0.1103831E+03  0.7546771E-02  0.1259862E+00
         21   -1    0    0  504  502  0.00000000000E+00  0.00000000000E+00  0.62033722508E+02  0.62033722508E+02  0.00000000000E+00 0.  1.
          2   -1    0    0  505    0 -0.00000000000E+00 -0.00000000000E+00 -0.25903935109E+04  0.25903935109E+04  0.00000000000E+00 0.  1.
         21    1    1    2  503  502 -0.35108295999E+02  0.35417120114E+02 -0.66128581719E+02  0.82824840267E+02  0.00000000000E+00 0.  1.
         21    1    1    2  504  501  0.18349338193E+02  0.75182398440E+02  0.21275224637E+02  0.80260366500E+02  0.00000000000E+00 0.  1.
         21    1    1    2  505  503 -0.31697925313E+02  0.62758752735E+01 -0.22664710680E+03  0.22893897899E+03  0.00000000000E+00 0.  1.
          2    1    1    2  501    0  0.48456883119E+02 -0.11687539383E+03 -0.22568593245E+04  0.22604030476E+04  0.00000000000E+00 0.  1.
<scales pt_clust_3="50.71664" pt_clust_4="110.38307" pt_clust_5="32.31323" pt_clust_6="14000.00000"></scales>
<clustering>
<clus scale="   32.313">  2  5  1 -1</clus>
<clus scale="   50.717">  1  3  2 -1</clus>
<clus scale="  110.383">  1  4  2 -1</clus>
<clus scale="   50.717">  1  3  2 -1</clus>
</clustering>
</event>
<event>
 6    0  0.4081161E+002  0.8287458E+02  0.7546771E-02  0.1321086E+00
         -4   -1    0    0    0  501 -0.00000000000E+00  0.00000000000E+00  0.14306225446E+04  0.14306225446E+04  0.00000000000E+00 0. -1.
         21   -1    0    0  503  502  0.00000000000E+00 -0.00000000000E+00 -0.14753813990E+03  0.14753813990E+03  0.00000000000E+00 0. -1.
         21    1    1    2  503  501  0.75407257625E+01  0.42605237736E+02  0.12379405415E+03  0.13113747241E+03  0.00000000000E+00 0. -1.
         21    1    1    2  504  505 -0.10246531762E+03  0.46318169939E+02  0.12219510405E+03  0.16606070466E+03  0.00000000000E+00 0. -1.
         21    1    1    2  505  502  0.52937654755E+02 -0.61269054526E+02 -0.10787856260E+03  0.13488542027E+03  0.00000000000E+00 0. -1.
         -4    1    1    2    0  504  0.41986937100E+02 -0.27654353149E+02  0.11449738091E+04  0.11460770872E+04  0.00000000000E+00 0. -1.
<scales pt_clust_3="43.26741" pt_clust_4="14000.00000" pt_clust_5="82.87458" pt_clust_6="49.59291"></scales>
<clustering>
<clus scale="   43.267">  1  3  2 -1</clus>
<clus scale="   49.593">  1  6  2 -1</clus>
<clus scale="   82.875">  2  5  1 -1</clus>
<clus scale="   82.875">  2  3  1 -1</clus>
</clustering>
</event>
<event>
 6    0  0.4081161E+002  0.5070479E+03  0.7546771E-02  0.1011956E+00
          1   -1    0    0  502    0 -0.00000000000E+00  0.00000000000E+00  0.65452486413E+03  0.65452486413E+03  0.00000000000E+00 0. -1.
         21   -1    0    0  503  502  0.00000000000E+00 -0.00000000000E+00 -0.98139353934E+03  0.98139353934E+03  0.00000000000E+00 0. -1.
         21    1    1    2  503  504 -0.78758814604E+01  0.29167180779E+02 -0.54896409627E+03  0.54979480985E+03  0.00000000000E+00 0. -1.
         21    1    1    2  504  505  0.40867392066E+03  0.25453694220E+03 -0.87371672777E+02  0.48932324447E+03  0.00000000000E+00 0. -1.
         21    1    1    2  505  501 -0.30384589512E+03 -0.13649229769E+03  0.18506708238E+03  0.38105419601E+03  0.00000000000E+00 0. -1.
          1    1    1    2  501    0 -0.96952144074E+02 -0.14721182529E+03  0.12440001145E+03  0.21574615314E+03  0.00000000000E+00 0. -1.
<scales pt_clust_3="30.21182" pt_clust_4="487.67193" pt_clust_5="100.54128" pt_clust_6="100.54128"></scales>
<clustering>
<clus scale="   30.212">  2  3  1 -1</clus>
<clus scale="  100.541">  5  6 -1 -1</clus>
<clus scale="  487.672">  2  4  1 -1</clus>
<clus scale="   30.212">  2  3  1 -1</clus>
</clustering>
</event>
<event>
 6    0  0.4081161E+002  0.1825286E+03  0.7546771E-02  0.1165378E+00
          2   -1    0    0  502    0 -0.00000000000E+00  0.00000000000E+00  0.57624659621E+03  0.57624659621E+03  0.00000000000E+00 0.  1.
         21   -1    0    0  503  502  0.00000000000E+00 -0.00000000000E+00 -0.59524869036E+03  0.59524869036E+03  0.00000000000E+00 0. -1.
         21    1    1    2  503  505 -0.71023737097E+02  0.13222829208E+02 -0.32087178221E+03  0.32890411226E+03  0.00000000000E+00 0. -1.
         21    1    1    2  504  501 -0.61455012857E+02  0.68208905144E+02  0.18737234067E+03  0.20865657765E+03  0.00000000000E+00 0. -1.
         21    1    1    2  505  504  0.20840973890E+03 -0.10100360788E+03 -0.20234203947E+03  0.30753641900E+03  0.00000000000E+00 0. -1.
          2    1    1    2  501    0 -0.75930988946E+02  0.19571873530E+02  0.31683938686E+03  0.32639817766E+03  0.00000000000E+00 0.  1.
<scales pt_clust_3="72.24413" pt_clust_4="68.37379" pt_clust_5="166.86204" pt_clust_6="68.37379"></scales>
<clustering>
<clus scale="   68.374">  4  6 -1 -1</clus>
<clus scale="   72.244">  2  3  1 -1</clus>
<clus scale="  166.862">  2  5  1 -1</clus>
<clus scale="   72.244">  2  3  1 -1</clus>
</clustering>
</event>
<event>
 6    0  0.4081161E+002  0.1931278E+03  0.7546771E-02  0.1155670E+00
          2   -1    0    0  503    0 -0.00000000000E+00  0.00000000000E+00  0.25946958678E+04  0.25946958678E+04  0.00000000000E+00 0. -1.
         21   -1    0    0  505  502  0.00000000000E+00 -0.00000000000E+00 -0.18912072047E+03  0.18912072047E+03  0.00000000000E+00 0.  1.
         21    1    1    2  503  504  0.11940443278E+02 -0.17638950743E+03  0.66339871824E+02  0.18883011177E+03  0.00000000000E+00 0. -1.
         21    1    1    2  504  502 -0.51912761001E+02  0.15261073735E+01 -0.11863204701E+03  0.12950222522E+03  0.00000000000E+00 0.  1.
         21    1    1    2  505  501  0.35289803878E+02  0.26834757998E+02  0.45812992564E+03  0.46027003298E+03  0.00000000000E+00 0.  1.
          2    1    1    2  501    0  0.46825138451E+01  0.14802864206E+03  0.19997373969E+04  0.20052142183E+04  0.00000000000E+00 0. -1.
<scales pt_clust_3="178.80862" pt_clust_4="51.93519" pt_clust_5="39.92811" pt_clust_6="39.92811"></scales>
<clustering>
<clus scale="   39.928">  5  6 -1 -1</clus>
<clus scale="   51.935">  2  4  1 -1</clus>
<clus scale="  178.809">  2  3  1 -1</clus>
<clus scale="   51.935">  2  3  1 -1</clus>
</clustering>
</event>
<event>
 6    0  0.4081161E+002  0.1259912E+03  0.7546771E-02  0.1233528E+00
         21   -1    0    0  503  502  0.00000000000E+00  0.00000000000E+00  0.25905209939E+02  0.25905209939E+02  0.00000000000E+00 0. -1.
          2   -1    0    0  504    0 -0.00000000000E+00 -0.00000000000E+00 -0.17005720232E+04  0.17005720232E+04  0.00000000000E+00 0.  1.
         21    1    1    2  503  501  0.19538692332E+02 -0.77541131048E+02 -0.91354409615E+03  0.91703718743E+03  0.00000000000E+00 0.  1.
         21    1    1    2  504  505 -0.39671234467E+02 -0.12788340172E+02 -0.17536334692E+03  0.18024886111E+03  0.00000000000E+00 0.  1.
         21    1    1    2  505  502 -0.33902476697E+02  0.13537183215E+03 -0.25163080892E+03  0.28773768412E+03  0.00000000000E+00 0. -1.
          2    1    1    2  501    0  0.54035018831E+02 -0.45042360929E+02 -0.33412856130E+03  0.34145350051E+03  0.00000000000E+00 0.  1.
<scales pt_clust_3="125.99119" pt_clust_4="41.68151" pt_clust_5="14000.00000" pt_clust_6="65.86810"></scales>
<clustering>
<clus scale="   41.682">  2  4  1 -1</clus>
<clus scale="   65.868">  2  6  1 -1</clus>
<clus scale="  125.991">  2  3  1 -1</clus>
<clus scale="  125.991">  1  3  2 -1</clus>
</clustering>
</event>
<event>
 6    0  0.4081161E+002  0.1518896E+03  0.7546771E-02  0.1198170E+00
          4   -1    0    0  505    0 -0.00000000000E+00  0.00000000000E+00  0.50237052209E+03  0.50237052209E+03  0.00000000000E+00 0.  1.
         21   -1    0    0  503  502  0.00000000000E+00 -0.00000000000E+00 -0.93707674487E+02  0.93707674487E+02  0.00000000000E+00 0.  1.
         21    1    1    2  503  501 -0.13261951937E+03 -0.37864677864E+02  0.21402368590E+03  0.25461305715E+03  0.00000000000E+00 0.  1.
         21    1    1    2  504  502  0.37621034894E+02  0.11157321623E+02  0.10190837138E+02  0.40542339028E+02  0.00000000000E+00 0.  1.
         21    1    1    2  505  504  0.55812908261E+02  0.10912415330E+03  0.37921166672E+02  0.12830111630E+03  0.00000000000E+00 0.  1.
          4    1    1    2  501    0  0.39185576210E+02 -0.82416797058E+02  0.14652715790E+03  0.17262168410E+03  0.00000000000E+00 0.  1.
<scales pt_clust_3="141.68504" pt_clust_4="30.96956" pt_clust_5="30.96956" pt_clust_6="91.25808"></scales>
<clustering>
<clus scale="   30.970">  4  5 -1 -1</clus>
<clus scale="   91.258">  1  6  2 -1</clus>
<clus scale="  141.685">  1  3  2 -1</clus>
<clus scale="  151.890">  2  3  1 -1</clus>
</clustering>
</event>
<event>
 6    0  0.4081161E+002  0.1112243E+03  0.7546771E-02  0.1258319E+00
         21   -1    0    0  503  502  0.00000000000E+00  0.00000000000E+00  0.39347345985E+03  0.39347345985E+03  0.00000000000E+00 0. -1.
          2   -1    0    0  505    0 -0.00000000000E+00 -0.00000000000E+00 -0.93833877370E+03  0.93833877370E+03  0.00000000000E+00 0. -1.
         21    1    1    2  503  501 -0.78279991023E+01  0.69315392786E+02 -0.55848236729E+02  0.89358417582E+02  0.00000000000E+00 0.  1.
         21    1    1    2  504  502 -0.40261332951E+02 -0.10220877519E+02  0.30546925681E+03  0.30828056722E+03  0.00000000000E+00 0. -1.
         21    1    1    2  505  504 -0.64788540070E+02 -0.40786046489E+02  0.43747418237E+02  0.88175354352E+02  0.00000000000E+00 0.  1.
          2    1    1    2  501    0  0.11287787212E+03 -0.18308468778E+02 -0.83823375218E+03  0.84599789440E+03  0.00000000000E+00 0. -1.
<scales pt_clust_3="69.12526" pt_clust_4="41.53843" pt_clust_5="111.22431" pt_clust_6="14000.00000"></scales>
<clustering>
<clus scale="   41.538">  1  4  2 -1</clus>
<clus scale="   69.125">  1  3  2 -1</clus>
<clus scale="  111.224">  1  5  2 -1</clus>
<clus scale="   41.538">  1  3  2 -1</clus>
</clustering>
</event>
<event>
 6    0  0.4081161E+002  0.2239910E+03  0.7546771E-02  0.1130942E+00
          1   -1    0    0  502    0 -0.00000000000E+00  0.00000000000E+00  0.22456148779E+04  0.22456148779E+04  0.00000000000E+00 0.  1.
         21   -1    0    0  505  502  0.00000000000E+00 -0.00000000000E+00 -0.14217612961E+04  0.14217612961E+04  0.00000000000E+00 0. -1.
         21    1    1    2  503  501 -0.10594197075E+03 -0.15337418830E+02  0.60021947677E+03  0.60969037870E+03  0.00000000000E+00 0.  1.
         21    1    1    2  504  503  0.85809739785E+02  0.43159498948E+02 -0.37747105190E+03  0.38950025522E+03  0.00000000000E+00 0. -1.
         21    1    1    2  505  504  0.11015418526E+03  0.47151118180E+01 -0.10291919253E+04  0.10350807678E+04  0.00000000000E+00 0. -1.
          1    1    1    2  501    0 -0.90021954292E+02 -0.32537191937E+02  0.16302970822E+04  0.16331047723E+04  0.00000000000E+00 0.  1.
<scales pt_clust_3="200.33832" pt_clust_4="93.50748" pt_clust_5="93.50748" pt_clust_6="95.72158"></scales>
<clustering>
<clus scale="   93.507">  4  5 -1 -1</clus>
<clus scale="   95.722">  1  6  2 -1</clus>
<clus scale="  200.338">  1  3  2 -1</clus>
<clus scale="  223.991">  2  3  1 -1</clus>
</clustering>
</event>
<event>
 6    0  0.4081161E+002  0.8598261E+02  0.7546771E-02  0.1312883E+00
         21   -1    0    0  501  502  0.00000000000E+00  0.00000000000E+00  0.24437988808E+02  0.24437988808E+02  0.00000000000E+00 0. -1.
          1   -1    0    0  504    0 -0.00000000000E+00 -0.00000000000E+00 -0.14893383564E+04  0.14893383564E+04  0.00000000000E+00 0. -1.
         21    1    1    2  503  505  0.98816778674E+01  0.82447047132E+02 -0.29955654571E+03  0.31085251682E+03  0.00000000000E+00 0. -1.
         21    1    1    2  504  503 -0.35837054259E+02 -0.64806818036E+01 -0.16302640198E+03  0.16704460913E+03  0.00000000000E+00 0.  1.
         21    1    1    2  505  502 -0.48853659210E+02 -0.75490473222E+02 -0.11776604340E+03  0.14816994480E+03  0.00000000000E+00 0. -1.
          1    1    1    2  501    0  0.74809035601E+02 -0.47589210623E+00 -0.88455137655E+03  0.88770927450E+03  0.00000000000E+00 0. -1.
<scales pt_clust_3="85.98261" pt_clust_4="36.41832" pt_clust_5="14000.00000" pt_clust_6="51.05670"></scales>
<clustering>
<clus scale="   36.418">  2  4  1 -1</clus>
<clus scale="   51.057">  2  6  1 -1</clus>
<clus scale="   85.983">  2  3  1 -1</clus>
<clus scale="   85.983">  1  3  2 -1</clus>
</clustering>
</event>
<event>
 6    0  0.4081161E+002  0.9051500E+02  0.7546771E-02  0.1301609E+00
          2   -1    0    0  503    0 -0.00000000000E+00  0.00000000000E+00  0.25346251545E+03  0.25346251545E+03  0.00000000000E+00 0. -1.
         21   -1    0    0  505  502  0.00000000000E+00 -0.00000000000E+00 -0.28441615002E+03  0.28441615002E+03  0.00000000000E+00 0.  1.
         21    1    1    2  503  504 -0.91881924328E+02  0.65969211284E+01 -0.75656336312E+02  0.11920439845E+03  0.00000000000E+00 0.  1.
         21    1    1    2  504  502 -0.85079156269E+01  0.45121740409E+02 -0.16349609697E+03  0.16982146452E+03  0.00000000000E+00 0.  1.
         21    1    1    2  505  501  0.62068810017E+02 -0.17555195908E+01  0.53987401938E+02  0.82281581135E+02  0.00000000000E+00 0. -1.
          2    1    1    2  501    0  0.38321029938E+02 -0.49963141946E+02  0.15421139678E+03  0.16657122136E+03  0.00000000000E+00 0. -1.
<scales pt_clust_3="90.51500" pt_clust_4="45.91684" pt_clust_5="14000.00000" pt_clust_6="60.82581"></scales>
<clustering>
<clus scale="   45.917">  2  4  1 -1</clus>
<clus scale="   60.826">  1  6  2 -1</clus>
<clus scale="   90.515">  2  3  1 -1</clus>
<clus scale="   45.917">  2  3  1 -1</clus>
</clustering>
</event>
<event>
 6    0  0.4081161E+002  0.1029625E+03  0.7546771E-02  0.1274187E+00
         21   -1    0    0  505  502  0.00000000000E+00  0.00000000000E+00  0.55999220150E+03  0.55999220150E+03  0.00000000000E+00 0. -1.
          3   -1    0    0  504    0 -0.00000000000E+00 -0.00000000000E+00 -0.66665032888E+03  0.66665032888E+03  0.00000000000E+00 0. -1.
         21    1    1    2  503  501  0.14835489860E+02 -0.33471666652E+02 -0.85659453889E+02  0.93155709801E+02  0.00000000000E+00 0.  1.
         21    1    1    2  504  502 -0.21520103386E+02  0.18386857817E+03 -0.22641923000E+03  0.29246612899E+03  0.00000000000E+00 0.  1.
         21    1    1    2  505  503 -0.15357005710E+02 -0.10034979300E+03  0.51588402326E+03  0.52577775156E+03  0.00000000000E+00 0. -1.
          3    1    1    2  501    0  0.22041619236E+02 -0.50047118524E+02 -0.31046346675E+03  0.31524294003E+03  0.00000000000E+00 0. -1.
<scales pt_clust_3="32.11773" pt_clust_4="14000.00000" pt_clust_5="102.96249" pt_clust_6="99.37851"></scales>
<clustering>
<clus scale="   32.118">  3  6 -1 -1</clus>
<clus scale="   99.379">  2  3  1 -1</clus>
<clus scale="  102.962">  1  5  2 -1</clus>
<clus scale="  102.962">  1  3  2 -1</clus>
</clustering>
</event>
<event>
 6    0  0.4081161E+002  0.8400919E+02  0.7546771E-02  0.1318044E+00
         -2   -1    0    0    0  501 -0.00000000000E+00  0.00000000000E+00  0.62108508578E+03  0.62108508578E+03  0.00000000000E+00 0. -1.
         21   -1    0    0  503  502  0.00000000000E+00 -0.00000000000E+00 -0.34061730838E+03  0.34061730838E+03  0.00000000000E+00 0.  1.
         21    1    1    2  503  504  0.69767069431E+02  0.27284923434E+02 -0.23517208269E+03  0.24681535507E+03  0.00000000000E+00 0.  1.
         21    1    1    2  504  501  0.22340902288E+02  0.27196392544E+02  0.46436083578E+02  0.58267225269E+02  0.00000000000E+00 0. -1.
         21    1    1    2  505  502 -0.10665867330E+02 -0.90818440262E+02 -0.66802947402E+02  0.11324479502E+03  0.00000000000E+00 0.  1.
         -2    1    1    2    0  505 -0.81442104389E+02  0.36337124284E+02  0.53600672391E+03  0.54337501879E+03  0.00000000000E+00 0. -1.
<scales pt_clust_3="75.22727" pt_clust_4="35.19602" pt_clust_5="84.00919" pt_clust_6="14000.00000"></scales>
<clustering>
<clus scale="   35.196">  1  4  2 -1</clus>
<clus scale="   75.227">  2  3  1 -1</clus>
<clus scale="   84.009">  2  5  1 -1</clus>
<clus scale="   75.227">  2  3  1 -1</clus>
</clustering>
</event>
<event>
 6    0  0.4081161E+002  0.1341302E+03  0.7546771E-02  0.1221453E+00
         21   -1    0    0  505  502  0.00000000000E+00  0.00000000000E+00  0.10901296544E+03  0.10901296544E+03  0.00000000000E+00 0.  1.
          1   -1    0    0  504    0 -0.00000000000E+00 -0.00000000000E+00 -0.13208950682E+04  0.13208950682E+04  0.00000000000E+00 0. -1.
         21    1    1    2  503  501  0.42538688984E+02  0.31664220140E+02  0.17756057826E+02  0.55923523558E+02  0.00000000000E+00 0.  1.
         21    1    1    2  504  502 -0.20760769228E+02  0.29260742569E+02 -0.12961866983E+03  0.13449237957E+03  0.00000000000E+00 0.  1.
         21    1    1    2  505  503  0.81029187936E+02  0.27276669397E+01  0.41849369350E+02  0.91238912639E+02  0.00000000000E+00 0.  1.
          1    1    1    2  501    0 -0.10280710769E+03 -0.63652629650E+02 -0.11418688601E+04  0.11482532178E+04  0.00000000000E+00 0. -1.
<scales pt_clust_3="32.87317" pt_clust_4="35.87758" pt_clust_5="32.87317" pt_clust_6="127.82311"></scales>
<clustering>
<clus scale="   32.873">  3  5 -1 -1</clus>
<clus scale="   35.878">  2  4  1 -1</clus>
<clus scale="  127.823">  2  6  1 -1</clus>
<clus scale="  134.130">  1  3  2 -1</clus>
</clustering>
</event>
<event>
 6    0  0.4081161E+002  0.1926480E+03  0.7546771E-02  0.1156094E+00
         21   -1    0    0  505  502  0.00000000000E+00  0.00000000000E+00  0.12597679599E+03  0.12597679599E+03  0.00000000000E+00 0.  1.
          2   -1    0    0  503    0 -0.00000000000E+00 -0.00000000000E+00 -0.66665035234E+03  0.66665035234E+03  0.00000000000E+00 0. -1.
         21    1    1    2  503  502 -0.19985985263E+03  0.11734773223E+02 -0.20330667000E+03  0.28533360766E+03  0.00000000000E+00 0.  1.
         21    1    1    2  504  501  0.86545152227E+02 -0.21266916604E+02 -0.14725367028E+03  0.17212201639E+03  0.00000000000E+00 0.  1.
         21    1    1    2  505  504  0.20382288715E+02  0.22095561034E+02  0.60516788357E+02  0.67571689218E+02  0.00000000000E+00 0.  1.
          2    1    1    2  501    0  0.92932411686E+02 -0.12563417653E+02 -0.25063000442E+03  0.26759983506E+03  0.00000000000E+00 0. -1.
<scales pt_clust_3="188.21814" pt_clust_4="40.20991" pt_clust_5="30.06080" pt_clust_6="40.20991"></scales>
<clustering>
<clus scale="   30.061">  1  5  2 -1</clus>
<clus scale="   40.210">  4  6 -1 -1</clus>
<clus scale="  188.218">  1  3  2 -1</clus>
<clus scale="   30.061">  1  3  2 -1</clus>
</clustering>
</event>
<event>
 6    0  0.4081161E+002  0.7862541E+02  0.7546771E-02  0.1332998E+00
         21   -1    0    0  505  502  0.00000000000E+00  0.00000000000E+00  0.48857335908E+02  0.48857335908E+02  0.00000000000E+00 0. -1.
          2   -1    0    0  503    0 -0.00000000000E+00 -0.00000000000E+00 -0.19464545300E+04  0.19464545300E+04  0.00000000000E+00 0.  1.
         21    1    1    2  503  504  0.52703760488E+02 -0.28222032065E+02 -0.51206851443E+03  0.51554663507E+03  0.00000000000E+00 0. -1.
         21    1    1    2  504  502  0.36130298663E+02 -0.31639865494E+02 -0.33507466144E+01  0.48142570277E+02  0.00000000000E+00 0. -1.
         21    1    1    2  505  501 -0.85962252099E+02  0.92831105671E+02 -0.13882120646E+03  0.18782558486E+03  0.00000000000E+00 0. -1.
          2    1    1    2  501    0 -0.28718070519E+01 -0.32969208111E+02 -0.12433567266E+04  0.12437970757E+04  0.00000000000E+00 0.  1.
<scales pt_clust_3="78.62541" pt_clust_4="48.75212" pt_clust_5="14000.00000" pt_clust_6="33.09405"></scales>
<clustering>
<clus scale="   33.094">  2  6  1 -1</clus>
<clus scale="   48.752">  1  4  2 -1</clus>
<clus scale="   78.625">  2  3  1 -1</clus>
<clus scale="   48.752">  1  3  2 -1</clus>
</clustering>
</event>
<event>
 6    0  0.4081161E+002  0.7568955E+02  0.7546771E-02  0.1341749E+00
         21   -1    0    0  503  502  0.00000000000E+00  0.00000000000E+00  0.27274922761E+03  0.27274922761E+03  0.00000000000E+00 0.  1.
         -1   -1    0    0    0  501 -0.00000000000E+00 -0.00000000000E+00 -0.24358950310E+03  0.24358950310E+03  0.00000000000E+00 0. -1.
         21    1    1    2  503  504  0.16585862673E+02  0.72869075340E+02  0.20504418944E+03  0.21823865974E+03  0.00000000000E+00 0.  1.
         21    1    1    2  504  501  0.30964282958E+02  0.47486842468E+02 -0.27391152695E+02  0.62960799492E+02  0.00000000000E+00 0. -1.
         21    1    1    2  505  502 -0.39442809725E+02 -0.74956326663E+02 -0.54841493427E+01  0.84877924337E+02  0.00000000000E+00 0.  1.
         -1    1    1    2    0  505 -0.81073359068E+01 -0.45399591146E+02 -0.14300916290E+03  0.15026134714E+03  0.00000000000E+00 0. -1.
<scales pt_clust_3="75.68955" pt_clust_4="37.84881" pt_clust_5="14000.00000" pt_clust_6="46.11780"></scales>
<clustering>
<clus scale="   46.118">  2  6  1 -1</clus>
<clus scale="   37.849">  2  4  1 -1</clus>
<clus scale="   75.690">  1  3  2 -1</clus>
<clus scale="   75.690">  1  3  2 -1</clus>
</clustering>
</event>
<event>
 6    0  0.4081161E+002  0.1312057E+03  0.7546771E-02  0.1225678E+00
         21   -1    0    0  504  502  0.00000000000E+00  0.00000000000E+00  0.98483081962E+02  0.98483081962E+02  0.00000000000E+00 0. -1.
          2   -1    0    0  503    0 -0.00000000000E+00 -0.00000000000E+00 -0.34579208113E+04  0.34579208113E+04  0.00000000000E+00 0.  1.
         21    1    1    2  503  502  0.10817204246E+03  0.35953671194E+02  0.48541949134E+02  0.12389583555E+03  0.00000000000E+00 0. -1.
         21    1    1    2  504  505  0.25117715030E+02 -0.19578259328E+02 -0.24055698593E+02  0.39910956909E+02  0.00000000000E+00 0. -1.
         21    1    1    2  505  501 -0.87268623319E+02 -0.97499939221E+02 -0.12955134615E+04  0.13021049035E+04  0.00000000000E+00 0. -1.
          2    1    1    2  501    0 -0.46021134169E+02  0.81124527355E+02 -0.20884105184E+04  0.20904921973E+04  0.00000000000E+00 0.  1.
<scales pt_clust_3="131.20573" pt_clust_4="31.84663" pt_clust_5="14000.00000" pt_clust_6="92.93107"></scales>
<clustering>
<clus scale="   31.847">  1  4  2 -1</clus>
<clus scale="   92.931">  2  6  1 -1</clus>
<clus scale="  131.206">  1  3  2 -1</clus>
<clus scale="   31.847">  1  3  2 -1</clus>
</clustering>
</event>
<event>
 6    0  0.4081161E+002  0.1850502E+03  0.7546771E-02  0.1163003E+00
         21   -1    0    0  504  502  0.00000000000E+00  0.00000000000E+00  0.62645232432E+03  0.62645232432E+03  0.00000000000E+00 0. -1.
          2   -1    0    0  502    0 -0.00000000000E+00 -0.00000000000E+00 -0.71162670899E+03  0.71162670899E+03  0.00000000000E+00 0. -1.
         21    1    1    2  503  501 -0.80562771137E+01  0.49208435399E+02 -0.28450804913E+03  0.28884460136E+03  0.00000000000E+00 0. -1.
         21    1    1    2  504  505  0.26884320147E+02 -0.25347202435E+02  0.46200678436E+03  0.46348194801E+03  0.00000000000E+00 0. -1.
         21    1    1    2  505  503  0.16151575728E+02 -0.14874871299E+03  0.11353123491E+03  0.18782011158E+03  0.00000000000E+00 0.  1.
          2    1    1    2  501    0 -0.34979618762E+02  0.12488748002E+03 -0.37620435481E+03  0.39793237236E+03  0.00000000000E+00 0. -1.
<scales pt_clust_3="33.73624" pt_clust_4="36.94925" pt_clust_5="176.87095" pt_clust_6="33.73624"></scales>
<clustering>
<clus scale="   33.736">  3  6 -1 -1</clus>
<clus scale="   36.949">  1  4  2 -1</clus>
<clus scale="  176.871">  1  5  2 -1</clus>
<clus scale="   36.949">  1  3  2 -1</clus>
</clustering>
</event>
<event>
 6    0  0.4081161E+002  0.9421095E+02  0.7546771E-02  0.1292963E+00
         21   -1    0    0  501  502  0.00000000000E+00  0.00000000000E+00  0.79874152062E+02  0.79874152062E+02  0.00000000000E+00 0. -1.
          2   -1    0    0  503    0 -0.00000000000E+00 -0.00000000000E+00 -0.23862736988E+04  0.23862736988E+04  0.00000000000E+00 0. -1.
         21    1    1    2  503  505  0.18999553909E+02  0.25819902947E+02 -0.27603338948E+03  0.27788861535E+03  0.00000000000E+00 0.  1.
         21    1    1    2  504  502 -0.52241874118E+02  0.72122182816E+02  0.40414609837E+02  0.97796540603E+02  0.00000000000E+00 0. -1.
         21    1    1    2  505  504  0.11085872345E+03 -0.31773793209E+01 -0.39683182502E+03  0.41203792259E+03  0.00000000000E+00 0. -1.
          2    1    1    2  501    0 -0.77616403237E+02 -0.94764706442E+02 -0.16739489421E+04  0.16784247723E+04  0.00000000000E+00 0. -1.
<scales pt_clust_3="32.05699" pt_clust_4="89.18896" pt_clust_5="14000.00000" pt_clust_6="94.21095"></scales>
<clustering>
<clus scale="   32.057">  2  3  1 -1</clus>
<clus scale="   89.189">  1  4  2 -1</clus>
<clus scale="   94.211">  2  6  1 -1</clus>
<clus scale="   89.189">  1  3  2 -1</clus>
</clustering>
</event>
<event>
 6    0  0.4081161E+002  0.1296245E+03  0.7546771E-02  0.1228014E+00
          2   -1    0    0  505    0 -0.00000000000E+00  0.00000000000E+00  0.20867219436E+04  0.20867219436E+04  0.00000000000E+00 0. -1.
         21   -1    0    0  504  502  0.00000000000E+00 -0.00000000000E+00 -0.70940607409E+02  0.70940607409E+02  0.00000000000E+00 0. -1.
         21    1    1    2  503  502 -0.74827494677E+02  0.13858144453E+03  0.11195851415E+03  0.19323219095E+03  0.00000000000E+00 0. -1.
         21    1    1    2  504  501  0.60625272692E+02 -0.90299713714E+02  0.90099985405E+02  0.14123551025E+03  0.00000000000E+00 0. -1.
         21    1    1    2  505  503  0.51112080119E+02  0.52952093454E+02  0.55302388625E+03  0.55789944228E+03  0.00000000000E+00 0. -1.
          2    1    1    2  501    0 -0.36909858133E+02 -0.10123382427E+03  0.12606989504E+04  0.12652954075E+04  0.00000000000E+00 0. -1.
<scales pt_clust_3="129.62449" pt_clust_4="14000.00000" pt_clust_5="73.59598" pt_clust_6="57.79720"></scales>
<clustering>
<clus scale="   73.596">  1  5  2 -1</clus>
<clus scale="   57.797">  1  6  2 -1</clus>
<clus scale="  129.624">  1  3  2 -1</clus>
<clus scale="  129.624">  2  3  1 -1</clus>
</clustering>
</event>
<event>
 6    0  0.4081161E+002  0.1434086E+03  0.7546771E-02  0.1208815E+00
          2   -1    0    0  504    0 -0.00000000000E+00  0.00000000000E+00  0.23242334400E+04  0.23242334400E+04  0.00000000000E+00 0.  1.
         21   -1    0    0  503  502  0.00000000000E+00 -0.00000000000E+00 -0.36842520015E+02  0.36842520015E+02  0.00000000000E+00 0. -1.
         21    1    1    2  503  505  0.25589316859E+02 -0.11801199821E+03  0.19632161982E+03  0.23048605873E+03  0.00000000000E+00 0. -1.
         21    1    1    2  504  502 -0.24095625710E+02  0.43820500888E+02  0.27314311261E+03  0.27768326461E+03  0.00000000000E+00 0. -1.
         21    1    1    2  505  501  0.12398410699E+03  0.33635530489E+02  0.26609438128E+03  0.29548202559E+03  0.00000000000E+00 0. -1.
          2    1    1    2  501    0 -0.12547779814E+03  0.40555966833E+02  0.15518318063E+04  0.15574246111E+04  0.00000000000E+00 0.  1.
<scales pt_clust_3="115.77150" pt_clust_4="50.00835" pt_clust_5="143.40863" pt_clust_6="14000.00000"></scales>
<clustering>
<clus scale="   50.008">  1  4  2 -1</clus>
<clus scale="  115.772">  2  3  1 -1</clus>
<clus scale="  143.409">  2  5  1 -1</clus>
<clus scale="  115.772">  2  3  1 -1</clus>
</clustering>
</event>
<event>
 6    0  0.4081161E+002  0.9057349E+02  0.7546771E-02  0.1301469E+00
         21   -1    0    0  503  502  0.00000000000E+00  0.00000000000E+00  0.41009733179E+03  0.41009733179E+03  0.00000000000E+00 0. -1.
          1   -1    0    0  504    0 -0.00000000000E+00 -0.00000000000E+00 -0.90162733306E+03  0.90162733306E+03  0.00000000000E+00 0. -1.
         21    1    1    2  503  505 -0.13375315062E+03  0.18940554320E+02  0.11006467554E+03  0.17424948408E+03  0.00000000000E+00 0. -1.
         21    1    1    2  504  502  0.63125947727E+02  0.31560651476E+02  0.25272884040E+03  0.26239822173E+03  0.00000000000E+00 0. -1.
         21    1    1    2  505  501  0.70752968129E+02 -0.82456996598E+02 -0.28737872230E+03  0.30723227177E+03  0.00000000000E+00 0.  1.
          1    1    1    2  501    0 -0.12576523082E+00  0.31955790801E+02 -0.56694479491E+03  0.56784468727E+03  0.00000000000E+00 0. -1.
<scales pt_clust_3="14000.00000" pt_clust_4="70.78221" pt_clust_5="90.57349" pt_clust_6="31.95604"></scales>
<clustering>
<clus scale="   31.956">  2  6  1 -1</clus>
<clus scale="   70.782">  1  4  2 -1</clus>
<clus scale="   90.573">  2  5  1 -1</clus>
<clus scale="   70.782">  1  3  2 -1</clus>
</clustering>
</event>
<event>
 6    0  0.4081161E+002  0.1072782E+03  0.7546771E-02  0.1265695E+00
          1   -1    0    0  503    0 -0.00000000000E+00  0.00000000000E+00  0.50465229140E+03  0.50465229140E+03  0.00000000000E+00 0. -1.
         21   -1    0    0  504  502  0.00000000000E+00 -0.00000000000E+00 -0.11614733966E+03  0.11614733966E+03  0.00000000000E+00 0.  1.
         21    1    1    2  503  505  0.76359048442E+01 -0.50596065410E+02  0.22969980818E+03  0.23533013142E+03  0.00000000000E+00 0.  1.
         21    1    1    2  504  501 -0.90856466455E+02  0.64041529307E+02 -0.64769250710E+02  0.12865174235E+03  0.00000000000E+00 0.  1.
         21    1    1    2  505  502  0.71518199539E+02 -0.50430765145E+02  0.15095239776E+03  0.17448421513E+03  0.00000000000E+00 0.  1.
          1    1    1    2  501    0  0.11702362071E+02  0.36985301248E+02  0.72621996509E+02  0.82333542153E+02  0.00000000000E+00 0. -1.
<scales pt_clust_3="33.52985" pt_clust_4="107.27819" pt_clust_5="14000.00000" pt_clust_6="38.79250"></scales>
<clustering>
<clus scale="   38.792">  1  6  2 -1</clus>
<clus scale="   33.530">  1  3  2 -1</clus>
<clus scale="  107.278">  2  4  1 -1</clus>
<clus scale="  107.278">  2  3  1 -1</clus>
</clustering>
</event>
<event>
 6    0  0.4081161E+002  0.1883689E+03  0.7546771E-02  0.1159941E+00
          2   -1    0    0  505    0 -0.00000000000E+00  0.00000000000E+00  0.66033774004E+03  0.66033774004E+03  0.00000000000E+00 0. -1.
         21   -1    0    0  504  502  0.00000000000E+00 -0.00000000000E+00 -0.10379947223E+04  0.10379947223E+04  0.00000000000E+00 0. -1.
         21    1    1    2  503  502 -0.13855804077E+03  0.90704993582E+02 -0.94430435512E+03  0.95871603806E+03  0.00000000000E+00 0. -1.
         21    1    1    2  504  501  0.18783701595E+02  0.58637059607E+02 -0.53044357793E+02  0.81270142726E+02  0.00000000000E+00 0.  1.
         21    1    1    2  505  503  0.66689657021E+02 -0.14260840438E+02  0.12023776680E+03  0.13823169856E+03  0.00000000000E+00 0.  1.
          2    1    1    2  501    0  0.53084682154E+02 -0.13508121275E+03  0.49945396382E+03  0.52011458304E+03  0.00000000000E+00 0. -1.
<scales pt_clust_3="188.36893" pt_clust_4="61.57217" pt_clust_5="68.25633" pt_clust_6="14000.00000"></scales>
<clustering>
<clus scale="   61.572">  2  4  1 -1</clus>
<clus scale="   68.256">  1  5  2 -1</clus>
<clus scale="  188.369">  2  3  1 -1</clus>
<clus scale="   61.572">  2  3  1 -1</clus>
</clustering>
</event>
<event>
 6    0  0.4081161E+002  0.9483967E+02  0.7546771E-02  0.1291538E+00
          2   -1    0    0  505    0 -0.00000000000E+00  0.00000000000E+00  0.10564608196E+04  0.10564608196E+04  0.00000000000E+00 0.  1.
         21   -1    0    0  504  502  0.00000000000E+00 -0.00000000000E+00 -0.73506149934E+02  0.73506149934E+02  0.00000000000E+00 0.  1.
         21    1    1    2  503  502 -0.21458933379E+02  0.23765847730E+02 -0.56235210046E+02  0.64712442304E+02  0.00000000000E+00 0.  1.
         21    1    1    2  504  501 -0.57369505559E+02  0.63051779025E+02  0.35339085117E+03  0.36352700133E+03  0.00000000000E+00 0.  1.
         21    1    1    2  505  503  0.29758204484E+02  0.44657849813E+01  0.57099502955E+02  0.64543374620E+02  0.00000000000E+00 0.  1.
          2    1    1    2  501    0  0.49070234454E+02 -0.91283411736E+02  0.62869952558E+03  0.63718415127E+03  0.00000000000E+00 0.  1.
<scales pt_clust_3="31.94972" pt_clust_4="94.83967" pt_clust_5="30.09143" pt_clust_6="14000.00000"></scales>
<clustering>
<clus scale="   30.091">  1  5  2 -1</clus>
<clus scale="   31.950">  2  3  1 -1</clus>
<clus scale="   94.840">  2  4  1 -1</clus>
<clus scale="   31.950">  2  3  1 -1</clus>
</clustering>
</event>
<event>
 6    0  0.4081161E+002  0.1537474E+03  0.7546771E-02  0.1195942E+00
          1   -1    0    0  505    0 -0.00000000000E+00  0.00000000000E+00  0.35778124462E+03  0.35778124462E+03  0.00000000000E+00 0.  1.
         21   -1    0    0  503  502  0.00000000000E+00 -0.00000000000E+00 -0.13881679503E+03  0.13881679503E+03  0.00000000000E+00 0. -1.
         21    1    1    2  503  504  0.32136954596E+02 -0.30118707287E+02 -0.89534642278E+01  0.44945354610E+02  0.00000000000E+00 0. -1.
         21    1    1    2  504  501 -0.74579837371E+02 -0.15213756203E+03  0.86995619883E+02  0.19046319277E+03  0.00000000000E+00 0. -1.
         21    1    1    2  505  502 -0.31992033737E+02  0.58779316351E+02  0.12434107241E+02  0.68066917634E+02  0.00000000000E+00 0.  1.
          1    1    1    2  501    0  0.74434916512E+02  0.12347695297E+03  0.12848818670E+03  0.19312257463E+03  0.00000000000E+00 0.  1.
<scales pt_clust_3="44.04453" pt_clust_4="153.74736" pt_clust_5="56.62797" pt_clust_6="14000.00000"></scales>
<clustering>
<clus scale="   44.045">  2  3  1 -1</clus>
<clus scale="   56.628">  2  5  1 -1</clus>
<clus scale="  153.747">  2  4  1 -1</clus>
<clus scale="   44.045">  2  3  1 -1</clus>
</clustering>
</event>
<event>
 6    0  0.4081161E+002  0.1475351E+03  0.7546771E-02  0.1203535E+00
          1   -1    0    0  505    0 -0.00000000000E+00  0.00000000000E+00  0.44998791880E+03  0.44998791880E+03  0.00000000000E+00 0.  1.
         21   -1    0    0  504  502  0.00000000000E+00 -0.00000000000E+00 -0.24227294529E+03  0.24227294529E+03  0.00000000000E+00 0. -1.
         21    1    1    2  503  502 -0.28224428771E+02 -0.31168329270E+02 -0.12109454217E+03  0.12818725082E+03  0.00000000000E+00 0. -1.
         21    1    1    2  504  501  0.64554073463E+02  0.17360049701E+02  0.21042223483E+03  0.22078522740E+03  0.00000000000E+00 0.  1.
         21    1    1    2  505  503 -0.65759271131E+02 -0.60559277714E+02 -0.85853907165E+02  0.12394596094E+03  0.00000000000E+00 0. -1.
          1    1    1    2  501    0  0.29429626440E+02  0.74367557284E+02  0.20424118802E+03  0.21934242493E+03  0.00000000000E+00 0.  1.
<scales pt_clust_3="40.55451" pt_clust_4="61.46248" pt_clust_5="144.02602" pt_clust_6="61.46248"></scales>
<clustering>
<clus scale="   40.555">  3  5 -1 -1</clus>
<clus scale="   61.462">  4  6 -1 -1</clus>
<clus scale="  144.026">  2  3  1 -1</clus>
<clus scale="  144.026">  2  3  1 -1</clus>
</clustering>
</event>
<event>
 6    0  0.4081161E+002  0.1377247E+03  0.7546771E-02  0.1216424E+00
         -1   -1    0    0    0  501 -0.00000000000E+00  0.00000000000E+00  0.17884074780E+03  0.17884074780E+03  0.00000000000E+00 0.  1.
         21   -1    0    0  505  502  0.00000000000E+00 -0.00000000000E+00 -0.10407447955E+04  0.10407447955E+04  0.00000000000E+00 0. -1.
         21    1    1    2  503  501 -0.18051497586E+02 -0.41771839730E+02 -0.36784021706E+02  0.58513309703E+02  0.00000000000E+00 0.  1.
         21    1    1    2  504  502  0.42840336284E+02 -0.49526811874E+02 -0.56636822662E+03  0.57014135759E+03  0.00000000000E+00 0.  1.
         21    1    1    2  505  503  0.10149846188E+03  0.65773835391E+02 -0.38921360922E+03  0.40757253194E+03  0.00000000000E+00 0. -1.
         -1    1    1    2    0  504 -0.12628730058E+03  0.25524816214E+02  0.13046180982E+03  0.18335834410E+03  0.00000000000E+00 0.  1.
<scales pt_clust_3="45.50542" pt_clust_4="65.70815" pt_clust_5="137.72467" pt_clust_6="14000.00000"></scales>
<clustering>
<clus scale="   45.505">  1  3  2 -1</clus>
<clus scale="   65.708">  2  4  1 -1</clus>
<clus scale="  137.725">  2  5  1 -1</clus>
<clus scale="   65.708">  2  3  1 -1</clus>
</clustering>
</event>
<event>
 6    0  0.4081161E+002  0.1496413E+03  0.7546771E-02  0.1200914E+00
          1   -1    0    0  505    0 -0.00000000000E+00  0.00000000000E+00  0.73672870533E+03  0.73672870533E+03  0.00000000000E+00 0. -1.
         21   -1    0    0  504  502  0.00000000000E+00 -0.00000000000E+00 -0.13638866303E+03  0.13638866303E+03  0.00000000000E+00 0. -1.
         21    1    1    2  503  501 -0.76266235598E+02  0.52473030267E+02 -0.52206927186E+02  0.10628038786E+03  0.00000000000E+00 0. -1.
         21    1    1    2  504  503 -0.59811912765E+02  0.30960917656E+01 -0.28033451211E+02  0.66128095993E+02  0.00000000000E+00 0. -1.
         21    1    1    2  505  502  0.34899058943E+02 -0.28304781653E+02  0.86677822095E+02  0.97632729260E+02  0.00000000000E+00 0. -1.
          1    1    1    2  501    0  0.10117908942E+03 -0.27264340380E+02  0.59390259861E+03  0.60307615525E+03  0.00000000000E+00 0. -1.
<scales pt_clust_3="32.97772" pt_clust_4="32.97772" pt_clust_5="44.93445" pt_clust_6="143.91505"></scales>
<clustering>
<clus scale="   32.978">  3  4 -1 -1</clus>
<clus scale="   44.934">  1  5  2 -1</clus>
<clus scale="  143.915">  1  6  2 -1</clus>
<clus scale="  149.641">  2  3  1 -1</clus>
</clustering>
</event>
<event>
 6    0  0.4081161E+002  0.1418967E+03  0.7546771E-02  0.1210799E+00
          2   -1    0    0  504    0 -0.00000000000E+00  0.00000000000E+00  0.17144160311E+04  0.17144160311E+04  0.00000000000E+00 0.  1.
         21   -1    0    0  505  502  0.00000000000E+00 -0.00000000000E+00 -0.59466533940E+02  0.59466533940E+02  0.00000000000E+00 0.  1.
         21    1    1    2  503  501 -0.77550121399E+02  0.32215225002E+02  0.82552960172E+03  0.82978971153E+03  0.00000000000E+00 0.  1.
         21    1    1    2  504  502  0.26943602714E+02 -0.16883456881E+02  0.88194415628E+02  0.93751073548E+02  0.00000000000E+00 0. -1.
         21    1    1    2  505  503  0.11676732204E+03 -0.71194935407E+02  0.38187845393E+02  0.14199168236E+03  0.00000000000E+00 0.  1.
          2    1    1    2  501    0 -0.66160803351E+02  0.55863167287E+02  0.70303763438E+03  0.70835009756E+03  0.00000000000E+00 0.  1.
<scales pt_clust_3="30.28335" pt_clust_4="31.79637" pt_clust_5="138.52445" pt_clust_6="30.28335"></scales>
<clustering>
<clus scale="   30.283">  3  6 -1 -1</clus>
<clus scale="   31.796">  1  4  2 -1</clus>
<clus scale="  138.524">  2  5  1 -1</clus>
<clus scale="  138.524">  2  3  1 -1</clus>
</clustering>
</event>
<event>
 6    0  0.4081161E+002  0.1845796E+03  0.7546771E-02  0.1163443E+00
          1   -1    0    0  505    0 -0.00000000000E+00  0.00000000000E+00  0.80725249026E+02  0.80725249026E+02  0.00000000000E+00 0. -1.
         21   -1    0    0  503  502  0.00000000000E+00 -0.00000000000E+00 -0.12076907921E+04  0.12076907921E+04  0.00000000000E+00 0. -1.
         21    1    1    2  503  504 -0.16932185588E+03  0.17348205473E+02 -0.95330583627E+03  0.96838157179E+03  0.00000000000E+00 0. -1.
         21    1    1    2  504  501  0.79015521328E+02 -0.42677113380E+02 -0.27237797566E+02  0.93843946173E+02  0.00000000000E+00 0. -1.
         21    1    1    2  505  502 -0.54472457091E+01  0.37914093901E+02 -0.12014425451E+03  0.12610231122E+03  0.00000000000E+00 0.  1.
          1    1    1    2  501    0  0.95753580261E+02 -0.12585185995E+02 -0.26277654768E+02  0.10008821199E+03  0.00000000000E+00 0. -1.
<scales pt_clust_3="181.44426" pt_clust_4="32.66704" pt_clust_5="38.30341" pt_clust_6="32.66704"></scales>
<clustering>
<clus scale="   32.667">  4  6 -1 -1</clus>
<clus scale="   38.303">  2  5  1 -1</clus>
<clus scale="  181.444">  2  3  1 -1</clus>
<clus scale="   38.303">  2  3  1 -1</clus>
</clustering>
</event>
<event>
 6    0  0.4081161E+002  0.1705766E+03  0.7546771E-02  0.1177248E+00
         21   -1    0    0  504  502  0.00000000000E+00  0.00000000000E+00  0.33932075811E+03  0.33932075811E+03  0.00000000000E+00 0. -1.
          2   -1    0    0  505    0 -0.00000000000E+00 -0.00000000000E+00 -0.11901962328E+04  0.11901962328E+04  0.00000000000E+00 0. -1.
         21    1    1    2  503  501  0.50176473608E+02 -0.30239325037E+02  0.26679912993E+02  0.64373232324E+02  0.00000000000E+00 0. -1.
         21    1    1    2  504  503 -0.28166004947E+02 -0.13193939654E+02  0.26742224664E+03  0.26922492804E+03  0.00000000000E+00 0. -1.
         21    1    1    2  505  502 -0.93027052962E+02 -0.12886022733E+03 -0.51832856035E+03  0.54214710849E+03  0.00000000000E+00 0. -1.
          2    1    1    2  501    0  0.71016584301E+02  0.17229349202E+03 -0.62664907399E+03  0.65377172207E+03  0.00000000000E+00 0. -1.
<scales pt_clust_3="50.28980" pt_clust_4="31.10312" pt_clust_5="14000.00000" pt_clust_6="170.57657"></scales>
<clustering>
<clus scale="   31.103">  1  4  2 -1</clus>
<clus scale="   50.290">  1  3  2 -1</clus>
<clus scale="  170.577">  1  6  2 -1</clus>
<clus scale="   31.103">  1  3  2 -1</clus>
</clustering>
</event>
<event>
 6    0  0.4081161E+002  0.7298375E+02  0.7546771E-02  0.1350231E+00
          2   -1    0    0  502    0 -0.00000000000E+00  0.00000000000E+00  0.11355419066E+03  0.11355419066E+03  0.00000000000E+00 0. -1.
         21   -1    0    0  504  502  0.00000000000E+00 -0.00000000000E+00 -0.51898842129E+03  0.51898842129E+03  0.00000000000E+00 0. -1.
         21    1    1    2  503  501 -0.77620938522E+02  0.12476950225E+02 -0.30394059249E+03  0.31394357478E+03  0.00000000000E+00 0. -1.
         21    1    1    2  504  505 -0.28700499985E+02 -0.10687710662E+02 -0.32628873511E+02  0.44750298828E+02  0.00000000000E+00 0. -1.
         21    1    1    2  505  503  0.49214268694E+02 -0.48708558184E+02 -0.14932279619E+03  0.16459606722E+03  0.00000000000E+00 0. -1.
          2    1    1    2  501    0  0.57107169813E+02  0.46919318621E+02  0.80458031563E+02  0.10925267112E+03  0.00000000000E+00 0. -1.
<scales pt_clust_3="14000.00000" pt_clust_4="30.62590" pt_clust_5="65.66433" pt_clust_6="72.98375"></scales>
<clustering>
<clus scale="   30.626">  2  4  1 -1</clus>
<clus scale="   65.664">  2  5  1 -1</clus>
<clus scale="   72.984">  1  6  2 -1</clus>
<clus scale="   30.626">  2  3  1 -1</clus>
</clustering>
</event>
<event>
 6    0  0.4081161E+002  0.1308280E+03  0.7546771E-02  0.1226232E+00
         21   -1    0    0  503  502  0.00000000000E+00  0.00000000000E+00  0.10174077026E+03  0.10174077026E+03  0.00000000000E+00 0.  1.
          2   -1    0    0  505    0 -0.00000000000E+00 -0.00000000000E+00 -0.86924803854E+03  0.86924803854E+03  0.00000000000E+00 0. -1.
         21    1    1    2  503  504 -0.42992442013E+01 -0.32988667095E+02  0.74767394019E+02  0.81834582333E+02  0.00000000000E+00 0.  1.
         21    1    1    2  504  501  0.29053322159E+02  0.47725862653E+02 -0.17182900318E+03  0.18068497400E+03  0.00000000000E+00 0. -1.
         21    1    1    2  505  502 -0.68102371990E+02 -0.94214835568E+02 -0.52041294934E+03  0.53323916412E+03  0.00000000000E+00 0. -1.
          2    1    1    2  501    0  0.43348294032E+02  0.79477640010E+02 -0.15003270979E+03  0.17523008835E+03  0.00000000000E+00 0. -1.
<scales pt_clust_3="33.26764" pt_clust_4="31.98730" pt_clust_5="124.33074" pt_clust_6="31.98730"></scales>
<clustering>
<clus scale="   31.987">  4  6 -1 -1</clus>
<clus scale="   33.268">  1  3  2 -1</clus>
<clus scale="  124.331">  2  5  1 -1</clus>
<clus scale="   33.268">  1  3  2 -1</clus>
</clustering>
</event>
<event>
 6    0  0.4081161E+002  0.6550205E+02  0.7546771E-02  0.1376093E+00
         21   -1    0    0  503  502  0.00000000000E+00  0.00000000000E+00  0.65488315049E+03  0.65488315049E+03  0.00000000000E+00 0. -1.
          2   -1    0    0  504    0 -0.00000000000E+00 -0.00000000000E+00 -0.35706500479E+03  0.35706500479E+03  0.00000000000E+00 0.  1.
         21    1    1    2  503  501  0.12459072174E+02 -0.31026504725E+02  0.86986413866E+02  0.93190711297E+02  0.00000000000E+00 0. -1.
         21    1    1    2  504  505  0.86781797916E+02  0.34210947573E+02 -0.14016498449E+03  0.16836772927E+03  0.00000000000E+00 0. -1.
         21    1    1    2  505  502 -0.59435605520E+02  0.40145139793E+02  0.54395346159E+03  0.54866163692E+03  0.00000000000E+00 0. -1.
          2    1    1    2  501    0 -0.39805264570E+02 -0.43329582642E+02 -0.19295674528E+03  0.20172807778E+03  0.00000000000E+00 0.  1.
<scales pt_clust_3="33.43460" pt_clust_4="65.50205" pt_clust_5="48.45594" pt_clust_6="14000.00000"></scales>
<clustering>
<clus scale="   33.435">  1  3  2 -1</clus>
<clus scale="   48.456">  1  5  2 -1</clus>
<clus scale="   65.502">  1  4  2 -1</clus>
<clus scale="   33.435">  1  3  2 -1</clus>
</clustering>
</event>
<event>
 6    0  0.4081161E+002  0.6993096E+02  0.7546771E-02  0.1360328E+00
         21   -1    0    0  504  502  0.00000000000E+00  0.00000000000E+00  0.10504046956E+04  0.10504046956E+04  0.00000000000E+00 0.  1.
          2   -1    0    0  503    0 -0.00000000000E+00 -0.00000000000E+00 -0.11764296845E+03  0.11764296845E+03  0.00000000000E+00 0. -1.
         21    1    1    2  503  505  0.10116768863E+03 -0.71673758647E+02  0.45980246513E+03  0.47622508947E+03  0.00000000000E+00 0.  1.
         21    1    1    2  504  501 -0.14028429327E+01  0.35765319345E+02  0.54830011177E+02  0.65478669518E+02  0.00000000000E+00 0.  1.
         21    1    1    2  505  502 -0.30718203445E+02  0.33678156949E+02  0.50964595651E+03  0.51168039562E+03  0.00000000000E+00 0.  1.
          2    1    1    2  501    0 -0.69046642248E+02  0.22302823534E+01 -0.91516705703E+02  0.11466350940E+03  0.00000000000E+00 0. -1.
<scales pt_clust_3="69.93096" pt_clust_4="35.79282" pt_clust_5="60.87101" pt_clust_6="14000.00000"></scales>
<clustering>
<clus scale="   35.793">  1  4  2 -1</clus>
<clus scale="   60.871">  1  5  2 -1</clus>
<clus scale="   69.931">  1  3  2 -1</clus>
<clus scale="   35.793">  1  3  2 -1</clus>
</clustering>
</event>
<event>
 6    0  0.4081161E+002  0.8903331E+02  0.7546771E-02  0.1305210E+00
          1   -1    0    0  504    0 -0.00000000000E+00  0.00000000000E+00  0.17344737659E+04  0.17344737659E+04  0.00000000000E+00 0.  1.
         21   -1    0    0  505  502  0.00000000000E+00 -0.00000000000E+00 -0.54928692378E+03  0.54928692378E+03  0.00000000000E+00 0. -1.
         21    1    1    2  503  502 -0.16026442201E+02 -0.11870036795E+03 -0.27054965475E+03  0.29587791383E+03  0.00000000000E+00 0. -1.
         21    1    1    2  504  503  0.40429498224E+02  0.37506940202E+02  0.64629976733E+03  0.64864836710E+03  0.00000000000E+00 0.  1.
         21    1    1    2  505  501 -0.14934355259E+02  0.34767370883E+02 -0.26302180742E+03  0.26572970520E+03  0.00000000000E+00 0. -1.
          1    1    1    2  501    0 -0.94687007643E+01  0.46426056868E+02  0.10724585369E+04  0.10735047035E+04  0.00000000000E+00 0.  1.
<scales pt_clust_3="89.03331" pt_clust_4="14000.00000" pt_clust_5="37.83920" pt_clust_6="47.44983"></scales>
<clustering>
<clus scale="   37.839">  2  5  1 -1</clus>
<clus scale="   47.450">  1  6  2 -1</clus>
<clus scale="   89.033">  2  3  1 -1</clus>
<clus scale="   37.839">  2  3  1 -1</clus>
</clustering>
</event>
<event>
 6    0  0.4081161E+002  0.1681785E+03  0.7546771E-02  0.1179761E+00
          1   -1    0    0  503    0 -0.00000000000E+00  0.00000000000E+00  0.29715638281E+03  0.29715638281E+03  0.00000000000E+00 0. -1.
         21   -1    0    0  505  502  0.00000000000E+00 -0.00000000000E+00 -0.19662805658E+03  0.19662805658E+03  0.00000000000E+00 0.  1.
         21    1    1    2  503  502 -0.45448947662E+02  0.12816878337E+03  0.80345470955E+02  0.15795011420E+03  0.00000000000E+00 0.  1.
         21    1    1    2  504  501  0.20166260239E+02 -0.61174662653E+02  0.70618036454E+01  0.64798815371E+02  0.00000000000E+00 0.  1.
         21    1    1    2  505  504 -0.78172215284E+00  0.42317238269E+02 -0.10183318277E+03  0.11027854215E+03  0.00000000000E+00 0.  1.
          1    1    1    2  501    0  0.26064409576E+02 -0.10931135898E+03  0.11495423440E+03  0.16075696768E+03  0.00000000000E+00 0. -1.
<scales pt_clust_3="153.29475" pt_clust_4="49.24902" pt_clust_5="42.32446" pt_clust_6="49.24902"></scales>
<clustering>
<clus scale="   42.324">  2  5  1 -1</clus>
<clus scale="   49.249">  4  6 -1 -1</clus>
<clus scale="  153.295">  1  3  2 -1</clus>
<clus scale="   42.324">  2  3  1 -1</clus>
</clustering>
</event>
<event>
 6    0  0.4081161E+002  0.1286405E+03  0.7546771E-02  0.1229487E+00
         21   -1    0    0  505  502  0.00000000000E+00  0.00000000000E+00  0.36540573722E+03  0.36540573722E+03  0.00000000000E+00 0.  1.
          2   -1    0    0  503    0 -0.00000000000E+00 -0.00000000000E+00 -0.26050448324E+04  0.26050448324E+04  0.00000000000E+00 0. -1.
         21    1    1    2  503  504 -0.13677954157E+03 -0.14758454161E+02  0.18848265168E+03  0.23334987668E+03  0.00000000000E+00 0.  1.
         21    1    1    2  504  502  0.21365219297E+02  0.36754847277E+02  0.14993275020E+03  0.15584357856E+03  0.00000000000E+00 0.  1.
         21    1    1    2  505  501  0.51573677226E+02 -0.25554686252E+02 -0.80763445534E+03  0.80968283891E+03  0.00000000000E+00 0. -1.
          2    1    1    2  501    0  0.63840645044E+02  0.35582931362E+01 -0.17704200417E+04  0.17715742755E+04  0.00000000000E+00 0. -1.
<scales pt_clust_3="117.59841" pt_clust_4="42.51343" pt_clust_5="49.45467" pt_clust_6="49.45467"></scales>
<clustering>
<clus scale="   42.513">  1  4  2 -1</clus>
<clus scale="   49.455">  5  6 -1 -1</clus>
<clus scale="  117.598">  1  3  2 -1</clus>
<clus scale="   42.513">  1  3  2 -1</clus>
</clustering>
</event>
<event>
 6    0  0.4081161E+002  0.1213230E+03  0.7546771E-02  0.1240930E+00
         21   -1    0    0  504  502  0.00000000000E+00  0.00000000000E+00  0.46082666507E+02  0.46082666507E+02  0.00000000000E+00 0.  1.
         -1   -1    0    0    0  501 -0.00000000000E+00 -0.00000000000E+00 -0.22746855286E+04  0.22746855286E+04  0.00000000000E+00 0.  1.
         21    1    1    2  503  505 -0.48069212405E+01 -0.10016791641E+03 -0.15422284065E+03  0.18396032873E+03  0.00000000000E+00 0. -1.
         21    1    1    2  504  501 -0.62692887145E+01  0.31798907999E+02 -0.22062492471E+03  0.22299289660E+03  0.00000000000E+00 0.  1.
         21    1    1    2  505  502  0.13565824120E+02 -0.29208089928E+02  0.19743767034E+02  0.37775129887E+02  0.00000000000E+00 0.  1.
         -1    1    1    2    0  503 -0.24896141645E+01  0.97577098340E+02 -0.18734988637E+04  0.18760398398E+04  0.00000000000E+00 0.  1.
<scales pt_clust_3="14000.00000" pt_clust_4="30.27763" pt_clust_5="32.20472" pt_clust_6="121.32302"></scales>
<clustering>
<clus scale="   32.205">  1  5  2 -1</clus>
<clus scale="   30.278">  2  4  1 -1</clus>
<clus scale="  121.323">  2  6  1 -1</clus>
<clus scale="   32.205">  1  3  2 -1</clus>
</clustering>
</event>
<event>
 6    0  0.4081161E+002  0.7398033E+02  0.7546771E-02  0.1347058E+00
         21   -1    0    0  505  502  0.00000000000E+00  0.00000000000E+00  0.19225829872E+03  0.19225829872E+03  0.00000000000E+00 0. -1.
          2   -1    0    0  503    0 -0.00000000000E+00 -0.00000000000E+00 -0.22489577776E+04  0.22489577776E+04  0.00000000000E+00 0.  1.
         21    1    1    2  503  504  0.78523046197E+01  0.29860580755E+02 -0.16140202196E+04  0.16143155151E+04  0.00000000000E+00 0.  1.
         21    1    1    2  504  502  0.55246430463E+02 -0.61760856774E+02  0.98904061659E+02  0.12902939557E+03  0.00000000000E+00 0. -1.
         21    1    1    2  505  501  0.60504475560E+01  0.76630828380E+02  0.55705417184E+02  0.94931476748E+02  0.00000000000E+00 0. -1.
          2    1    1    2  501    0 -0.69149182638E+02 -0.44730552361E+02 -0.59728873814E+03  0.60293968892E+03  0.00000000000E+00 0.  1.
<scales pt_clust_3="30.87577" pt_clust_4="14000.00000" pt_clust_5="73.98033" pt_clust_6="63.89337"></scales>
<clustering>
<clus scale="   30.876">  2  3  1 -1</clus>
<clus scale="   63.893">  2  6  1 -1</clus>
<clus scale="   73.980">  2  5  1 -1</clus>
<clus scale="   73.980">  1  3  2 -1</clus>
</clustering>
</event>
<event>
 6    0  0.4081161E+002  0.1176949E+03  0.7546771E-02  0.1246949E+00
         21   -1    0    0  503  502  0.00000000000E+00  0.00000000000E+00  0.11893936053E+03  0.11893936053E+03  0.00000000000E+00 0. -1.
          4   -1    0    0  504    0 -0.00000000000E+00 -0.00000000000E+00 -0.10365159180E+04  0.10365159180E+04  0.00000000000E+00 0.  1.
         21    1    1    2  503  505 -0.11600643433E+03  0.12884179724E+01  0.63705157481E+02  0.13235369249E+03  0.00000000000E+00 0. -1.
         21    1    1    2  504  502 -0.30237826614E+02 -0.35875168306E+01 -0.89838473118E+02  0.94858566759E+02  0.00000000000E+00 0.  1.
         21    1    1    2  505  501  0.12972006657E+03  0.33732200967E+02 -0.23268525491E+03  0.26852855510E+03  0.00000000000E+00 0. -1.
          4    1    1    2  501    0  0.16524194374E+02 -0.31433102109E+02 -0.65875798692E+03  0.65971446417E+03  0.00000000000E+00 0.  1.
<scales pt_clust_3="117.69493" pt_clust_4="30.44990" pt_clust_5="14000.00000" pt_clust_6="34.24675"></scales>
<clustering>
<clus scale="   30.450">  2  4  1 -1</clus>
<clus scale="   34.247">  2  6  1 -1</clus>
<clus scale="  117.695">  1  3  2 -1</clus>
<clus scale="  117.695">  1  3  2 -1</clus>
</clustering>
</event>
<event>
 6    0  0.4081161E+002  0.8028796E+02  0.7546771E-02  0.1328236E+00
          2   -1    0    0  503    0 -0.00000000000E+00  0.00000000000E+00  0.77548600766E+03  0.77548600766E+03  0.00000000000E+00 0.  1.
         21   -1    0    0  505  502  0.00000000000E+00 -0.00000000000E+00 -0.43297520467E+03  0.43297520467E+03  0.00000000000E+00 0.  1.
         21    1    1    2  503  504 -0.41560951336E+02 -0.12073763940E+02  0.14983802794E+02  0.45799593861E+02  0.00000000000E+00 0.  1.
         21    1    1    2  504  502  0.37086589384E+02  0.36087216460E+02 -0.34568149285E+03  0.34953311260E+03  0.00000000000E+00 0.  1.
         21    1    1    2  505  501 -0.78605946426E+02  0.33994013440E+02 -0.38746689712E+02  0.93998902797E+02  0.00000000000E+00 0.  1.
          2    1    1    2  501    0  0.83080308379E+02 -0.58007465959E+02  0.71195518276E+03  0.71912960307E+03  0.00000000000E+00 0.  1.
<scales pt_clust_3="43.27919" pt_clust_4="51.64780" pt_clust_5="14000.00000" pt_clust_6="80.28796"></scales>
<clustering>
<clus scale="   43.279">  1  3  2 -1</clus>
<clus scale="   51.648">  2  4  1 -1</clus>
<clus scale="   80.288">  1  6  2 -1</clus>
<clus scale="   51.648">  2  3  1 -1</clus>
</clustering>
</event>
<event>
 6    0  0.4081161E+002  0.1631586E+03  0.7546771E-02  0.1185176E+00
          2   -1    0    0  503    0 -0.00000000000E+00  0.00000000000E+00  0.17650569783E+04  0.17650569783E+04  0.00000000000E+00 0.  1.
         21   -1    0    0  504  502  0.00000000000E+00 -0.00000000000E+00 -0.62000471335E+03  0.62000471335E+03  0.00000000000E+00 0.  1.
         21    1    1    2  503  502 -0.29956848469E+02  0.45652898090E+02 -0.19057227664E+03  0.19824074379E+03  0.00000000000E+00 0.  1.
         21    1    1    2  504  505 -0.12628480770E+03 -0.46885426468E+02 -0.41102890332E+03  0.43254000420E+03  0.00000000000E+00 0.  1.
         21    1    1    2  505  501  0.65739930515E+02  0.17819177079E+02  0.57493344312E+03  0.57895399261E+03  0.00000000000E+00 0.  1.
          2    1    1    2  501    0  0.90501725650E+02 -0.16586648700E+02  0.11717200017E+04  0.11753269510E+04  0.00000000000E+00 0.  1.
<scales pt_clust_3="54.60403" pt_clust_4="155.98185" pt_clust_5="41.17677" pt_clust_6="41.17677"></scales>
<clustering>
<clus scale="   41.177">  5  6 -1 -1</clus>
<clus scale="   54.604">  2  3  1 -1</clus>
<clus scale="  155.982">  2  4  1 -1</clus>
<clus scale="   54.604">  2  3  1 -1</clus>
</clustering>
</event>
<event>
 6    0  0.4081161E+002  0.8630535E+02  0.7546771E-02  0.1312054E+00
          1   -1    0    0  505    0 -0.00000000000E+00  0.00000000000E+00  0.33557503421E+03  0.33557503421E+03  0.00000000000E+00 0. -1.
         21   -1    0    0  504  502  0.00000000000E+00 -0.00000000000E+00 -0.33803632360E+03  0.33803632360E+03  0.00000000000E+00 0. -1.
         21    1    1    2  503  501 -0.47316672819E+02 -0.54385626091E+02  0.98058004406E+02  0.12170470854E+03  0.00000000000E+00 0. -1.
         21    1    1    2  504  503  0.88589931174E+02 -0.64048703256E+01 -0.29265941535E+03  0.30584102351E+03  0.00000000000E+00 0. -1.
         21    1    1    2  505  502 -0.10519395599E+02  0.61392763103E+02  0.12144173612E+02  0.63460302536E+02  0.00000000000E+00 0. -1.
          1    1    1    2  501    0 -0.30753862756E+02 -0.60226668671E+00  0.17999594793E+03  0.18260532323E+03  0.00000000000E+00 0. -1.
<scales pt_clust_3="86.30535" pt_clust_4="14000.00000" pt_clust_5="63.85107" pt_clust_6="30.75976"></scales>
<clustering>
<clus scale="   30.760">  1  6  2 -1</clus>
<clus scale="   63.851">  1  5  2 -1</clus>
<clus scale="   86.305">  1  3  2 -1</clus>
<clus scale="   86.305">  2  3  1 -1</clus>
</clustering>
</event>
<event>
 6    0  0.4081161E+002  0.7627652E+02  0.7546771E-02  0.1339963E+00
         21   -1    0    0  505  502  0.00000000000E+00  0.00000000000E+00  0.12136958988E+04  0.12136958988E+04  0.00000000000E+00 0.  1.
          2   -1    0    0  504    0 -0.00000000000E+00 -0.00000000000E+00 -0.38803283801E+03  0.38803283801E+03  0.00000000000E+00 0.  1.
         21    1    1    2  503  502  0.75195144484E+02 -0.98851675694E+01  0.11598195295E+04  0.11622965918E+04  0.00000000000E+00 0.  1.
         21    1    1    2  504  503 -0.12560487018E+03  0.84413146245E+02 -0.13580251432E+03  0.20333343446E+03  0.00000000000E+00 0.  1.
         21    1    1    2  505  501  0.21742985340E+02 -0.50806974346E+02 -0.28428673972E+02  0.62147369675E+02  0.00000000000E+00 0.  1.
          2    1    1    2  501    0  0.28666740355E+02 -0.23721004329E+02 -0.16992528045E+03  0.17395134085E+03  0.00000000000E+00 0.  1.
<scales pt_clust_3="76.27652" pt_clust_4="14000.00000" pt_clust_5="62.30030" pt_clust_6="37.20844"></scales>
<clustering>
<clus scale="   37.208">  2  6  1 -1</clus>
<clus scale="   62.300">  2  5  1 -1</clus>
<clus scale="   76.277">  1  3  2 -1</clus>
<clus scale="   76.277">  1  3  2 -1</clus>
</clustering>
</event>
<event>
 6    0  0.4081161E+002  0.1127783E+03  0.7546771E-02  0.1255510E+00
         21   -1    0    0  503  502  0.00000000000E+00  0.00000000000E+00  0.32740371496E+03  0.32740371496E+03  0.00000000000E+00 0. -1.
          2   -1    0    0  504    0 -0.00000000000E+00 -0.00000000000E+00 -0.94448385974E+03  0.94448385974E+03  0.00000000000E+00 0. -1.
         21    1    1    2  503  505 -0.12643113143E+03  0.85244373067E+02  0.28347065612E+03  0.32188048561E+03  0.00000000000E+00 0. -1.
         21    1    1    2  504  502  0.35449823261E+02 -0.72883909799E+01 -0.12736986191E+02  0.38367192099E+02  0.00000000000E+00 0. -1.
         21    1    1    2  505  501  0.85062860422E+02 -0.40937546147E+01 -0.17126382844E+03  0.19126878465E+03  0.00000000000E+00 0. -1.
          2    1    1    2  501    0  0.59184477512E+01 -0.73862227473E+02 -0.71654998626E+03  0.72037111233E+03  0.00000000000E+00 0. -1.
<scales pt_clust_3="112.77833" pt_clust_4="36.19131" pt_clust_5="14000.00000" pt_clust_6="74.16058"></scales>
<clustering>
<clus scale="   36.191">  1  4  2 -1</clus>
<clus scale="   74.161">  2  6  1 -1</clus>
<clus scale="  112.778">  1  3  2 -1</clus>
<clus scale="   36.191">  1  3  2 -1</clus>
</clustering>
</event>
<event>
 6    0  0.4081161E+002  0.7780479E+02  0.7546771E-02  0.1335399E+00
         21   -1    0    0  504  502  0.00000000000E+00  0.00000000000E+00  0.42403631728E+03  0.42403631728E+03  0.00000000000E+00 0. -1.
          2   -1    0    0  503    0 -0.00000000000E+00 -0.00000000000E+00 -0.37240979321E+03  0.37240979321E+03  0.00000000000E+00 0.  1.
         21    1    1    2  503  502 -0.60524766860E+02  0.81347374103E+02  0.35698376416E+03  0.37110382719E+03  0.00000000000E+00 0. -1.
         21    1    1    2  504  505 -0.29913853450E+02 -0.23297476565E+02  0.29013380313E+01  0.38026685432E+02  0.00000000000E+00 0. -1.
         21    1    1    2  505  501  0.15454452519E+02 -0.37404017690E+02  0.23339612618E+02  0.46718713158E+02  0.00000000000E+00 0. -1.
          2    1    1    2  501    0  0.74984167791E+02 -0.20645879848E+02 -0.33159819074E+03  0.34059688471E+03  0.00000000000E+00 0.  1.
<scales pt_clust_3="14000.00000" pt_clust_4="37.91584" pt_clust_5="41.46990" pt_clust_6="77.80479"></scales>
<clustering>
<clus scale="   37.916">  1  4  2 -1</clus>
<clus scale="   41.470">  1  5  2 -1</clus>
<clus scale="   77.805">  2  6  1 -1</clus>
<clus scale="   37.916">  1  3  2 -1</clus>
</clustering>
</event>
<event>
 6    0  0.4081161E+002  0.1116926E+03  0.7546771E-02  0.1257467E+00
          1   -1    0    0  505    0 -0.00000000000E+00  0.00000000000E+00  0.96972980681E+03  0.96972980681E+03  0.00000000000E+00 0.  1.
         21   -1    0    0  503  502  0.00000000000E+00 -0.00000000000E+00 -0.33367353504E+03  0.33367353504E+03  0.00000000000E+00 0.  1.
         21    1    1    2  503  501  0.14561716170E+02  0.50478014819E+02  0.48734880256E+01  0.52761960194E+02  0.00000000000E+00 0. -1.
         21    1    1    2  504  502  0.83130013144E+02 -0.10851402404E+03 -0.28713701870E+03  0.31801503110E+03  0.00000000000E+00 0.  1.
         21    1    1    2  505  504 -0.97484848458E+02  0.11066478610E+02  0.38730945964E+03  0.39954271381E+03  0.00000000000E+00 0.  1.
          1    1    1    2  501    0 -0.20688085661E+00  0.46969530608E+02  0.53101034280E+03  0.53308363674E+03  0.00000000000E+00 0.  1.
<scales pt_clust_3="55.51083" pt_clust_4="14000.00000" pt_clust_5="111.69256" pt_clust_6="46.96999"></scales>
<clustering>
<clus scale="   46.970">  1  6  2 -1</clus>
<clus scale="   55.511">  2  3  1 -1</clus>
<clus scale="  111.693">  1  5  2 -1</clus>
<clus scale="   55.511">  2  3  1 -1</clus>
</clustering>
</event>
<event>
 6    0  0.4081161E+002  0.9384290E+02  0.7546771E-02  0.1293804E+00
         21   -1    0    0  501  502  0.00000000000E+00  0.00000000000E+00  0.32394950553E+02  0.32394950553E+02  0.00000000000E+00 0.  1.
          2   -1    0    0  504    0 -0.00000000000E+00 -0.00000000000E+00 -0.26708369987E+04  0.26708369987E+04  0.00000000000E+00 0. -1.
         21    1    1    2  503  505  0.73726602617E+02  0.37325549062E+01 -0.17621462947E+03  0.19105271404E+03  0.00000000000E+00 0.  1.
         21    1    1    2  504  503  0.29251951528E+02 -0.71982432378E+01 -0.22278938353E+03  0.22481681607E+03  0.00000000000E+00 0.  1.
         21    1    1    2  505  502 -0.50282716619E+01  0.71456118931E+02 -0.35042983574E+02  0.79745038381E+02  0.00000000000E+00 0.  1.
          2    1    1    2  501    0 -0.97950282483E+02 -0.67990430599E+02 -0.22043950515E+04  0.22076173807E+04  0.00000000000E+00 0. -1.
<scales pt_clust_3="93.84290" pt_clust_4="30.12460" pt_clust_5="71.41941" pt_clust_6="14000.00000"></scales>
<clustering>
<clus scale="   30.125">  2  4  1 -1</clus>
<clus scale="   71.419">  1  5  2 -1</clus>
<clus scale="   93.843">  1  3  2 -1</clus>
<clus scale="   71.419">  1  3  2 -1</clus>
</clustering>
</event>
<event>
 6    0  0.4081161E+002  0.2119067E+03  0.7546771E-02  0.1140065E+00
         21   -1    0    0  505  502  0.00000000000E+00  0.00000000000E+00  0.27339656864E+02  0.27339656864E+02  0.00000000000E+00 0.  1.
          2   -1    0    0  504    0 -0.00000000000E+00 -0.00000000000E+00 -0.20895578191E+04  0.20895578191E+04  0.00000000000E+00 0. -1.
         21    1    1    2  503  501 -0.56958629918E+02  0.18750650245E+02 -0.65483193436E+03  0.65757184753E+03  0.00000000000E+00 0. -1.
         21    1    1    2  504  502  0.16878225228E+03  0.19723556993E+02 -0.32445247043E+03  0.36625929743E+03  0.00000000000E+00 0.  1.
         21    1    1    2  505  503 -0.26168647781E+02  0.25845769725E+02 -0.17415239667E+03  0.17799398643E+03  0.00000000000E+00 0. -1.
          2    1    1    2  501    0 -0.85654974584E+02 -0.64319976963E+02 -0.90878136083E+03  0.91507234462E+03  0.00000000000E+00 0. -1.
<scales pt_clust_3="101.53815" pt_clust_4="169.93077" pt_clust_5="35.51372" pt_clust_6="101.53815"></scales>
<clustering>
<clus scale="   35.514">  3  5 -1 -1</clus>
<clus scale="  101.538">  3  6 -1 -1</clus>
<clus scale="  169.931">  1  4  2 -1</clus>
<clus scale="  169.931">  1  3  2 -1</clus>
</clustering>
</event>
<event>
 6    0  0.4081161E+002  0.1184686E+03  0.7546771E-02  0.1245645E+00
          1   -1    0    0  503    0 -0.00000000000E+00  0.00000000000E+00  0.23906094810E+03  0.23906094810E+03  0.00000000000E+00 0. -1.
         21   -1    0    0  505  502  0.00000000000E+00 -0.00000000000E+00 -0.30508873775E+03  0.30508873775E+03  0.00000000000E+00 0.  1.
         21    1    1    2  503  504  0.88218833210E+01 -0.11858397969E+03  0.18541324588E+03  0.22026814934E+03  0.00000000000E+00 0. -1.
         21    1    1    2  504  502 -0.12963173640E+02  0.11179550121E+03 -0.22311160100E+03  0.24989010477E+03  0.00000000000E+00 0.  1.
         21    1    1    2  505  501 -0.26654198457E+02 -0.14639142139E+02 -0.16806894500E+02  0.34745107291E+02  0.00000000000E+00 0.  1.
          1    1    1    2  501    0  0.30795488776E+02  0.21427620622E+02 -0.11522540029E+02  0.39246324454E+02  0.00000000000E+00 0. -1.
<scales pt_clust_3="118.46857" pt_clust_4="14000.00000" pt_clust_5="30.40972" pt_clust_6="34.76968"></scales>
<clustering>
<clus scale="   30.410">  2  5  1 -1</clus>
<clus scale="   34.770">  2  6  1 -1</clus>
<clus scale="  118.469">  1  3  2 -1</clus>
<clus scale="   30.410">  2  3  1 -1</clus>
</clustering>
</event>
<event>
 6    0  0.4081161E+002  0.8623448E+02  0.7546771E-02  0.1312235E+00
          2   -1    0    0  503    0 -0.00000000000E+00  0.00000000000E+00  0.67845287201E+03  0.67845287201E+03  0.00000000000E+00 0. -1.
         21   -1    0    0  501  502  0.00000000000E+00 -0.00000000000E+00 -0.15839506111E+03  0.15839506111E+03  0.00000000000E+00 0. -1.
         21    1    1    2  503  504 -0.80058485958E+02  0.79672811123E+02  0.46504502879E+03  0.47856451687E+03  0.00000000000E+00 0. -1.
         21    1    1    2  504  505  0.45409560069E+02 -0.11110457120E+03 -0.99834994682E+02  0.15611944161E+03  0.00000000000E+00 0. -1.
         21    1    1    2  505  502 -0.23400387502E+02  0.32335675696E+02  0.35054718314E+01  0.40068221706E+02  0.00000000000E+00 0. -1.
          2    1    1    2  501    0  0.58049313391E+02 -0.90391562425E+00  0.15134230496E+03  0.16209575293E+03  0.00000000000E+00 0. -1.
<scales pt_clust_3="14000.00000" pt_clust_4="86.23448" pt_clust_5="39.91458" pt_clust_6="57.15234"></scales>
<clustering>
<clus scale="   39.915">  2  5  1 -1</clus>
<clus scale="   57.152">  1  6  2 -1</clus>
<clus scale="   86.234">  2  4  1 -1</clus>
<clus scale="   39.915">  2  3  1 -1</clus>
</clustering>
</event>
<event>
 6    0  0.4081161E+002  0.1037025E+03  0.7546771E-02  0.1272697E+00
         21   -1    0    0  501  502  0.00000000000E+00  0.00000000000E+00  0.38803293107E+02  0.38803293107E+02  0.00000000000E+00 0.  1.
          2   -1    0    0  505    0 -0.00000000000E+00 -0.00000000000E+00 -0.75500245205E+03  0.75500245205E+03  0.00000000000E+00 0.  1.
         21    1    1    2  503  502  0.41506021525E+02 -0.87579316432E+02 -0.15837387922E+03  0.18567490974E+03  0.00000000000E+00 0.  1.
         21    1    1    2  504  503  0.56081200381E+02 -0.52307157891E+01 -0.28914953168E+03  0.29458430558E+03  0.00000000000E+00 0.  1.
         21    1    1    2  505  504 -0.48302389471E+02 -0.63893104623E+01 -0.10693548245E+03  0.11751230371E+03  0.00000000000E+00 0.  1.
          2    1    1    2  501    0 -0.49284832435E+02  0.99199342684E+02 -0.16174026560E+03  0.19603422613E+03  0.00000000000E+00 0.  1.
<scales pt_clust_3="103.70246" pt_clust_4="35.10339" pt_clust_5="48.72314" pt_clust_6="14000.00000"></scales>
<clustering>
<clus scale="   48.723">  2  5  1 -1</clus>
<clus scale="   35.103">  2  4  1 -1</clus>
<clus scale="  103.702">  1  3  2 -1</clus>
<clus scale="  103.702">  1  3  2 -1</clus>
</clustering>
</event>
<event>
 6    0  0.4081161E+002  0.9513190E+02  0.7546771E-02  0.1290879E+00
         21   -1    0    0  503  502  0.00000000000E+00  0.00000000000E+00  0.30736615010E+03  0.30736615010E+03  0.00000000000E+00 0.  1.
          2   -1    0    0  504    0 -0.00000000000E+00 -0.00000000000E+00 -0.99913125798E+03  0.99913125798E+03  0.00000000000E+00 0. -1.
         21    1    1    2  503  501 -0.57668935400E+02  0.77580924273E+01  0.18690484393E+03  0.19575319868E+03  0.00000000000E+00 0.  1.
         21    1    1    2  504  505  0.22925018473E+02 -0.19591337252E+02 -0.31531358474E+02  0.43630305231E+02  0.00000000000E+00 0. -1.
         21    1    1    2  505  502  0.42455647034E+02 -0.10111331181E+03  0.78317536706E+02  0.13475911972E+03  0.00000000000E+00 0.  1.
          2    1    1    2  501    0 -0.77117301071E+01  0.11294655664E+03 -0.92545613005E+03  0.93235478445E+03  0.00000000000E+00 0. -1.
<scales pt_clust_3="58.07193" pt_clust_4="30.15588" pt_clust_5="14000.00000" pt_clust_6="95.13190"></scales>
<clustering>
<clus scale="   30.156">  2  4  1 -1</clus>
<clus scale="   58.072">  1  3  2 -1</clus>
<clus scale="   95.132">  2  6  1 -1</clus>
<clus scale="   58.072">  1  3  2 -1</clus>
</clustering>
</event>
<event>
 6    0  0.4081161E+002  0.7329536E+02  0.7546771E-02  0.1349232E+00
         21   -1    0    0  504  502  0.00000000000E+00  0.00000000000E+00  0.13114474855E+02  0.13114474855E+02  0.00000000000E+00 0. -1.
          1   -1    0    0  503    0 -0.00000000000E+00 -0.00000000000E+00 -0.29986209060E+04  0.29986209060E+04  0.00000000000E+00 0.  1.
         21    1    1    2  503  502 -0.90825946268E+02  0.63204135983E+02 -0.33153496091E+03  0.34951329821E+03  0.00000000000E+00 0. -1.
         21    1    1    2  504  505  0.66059158475E+01 -0.43886455736E+02 -0.18038524088E+03  0.18576462055E+03  0.00000000000E+00 0. -1.
         21    1    1    2  505  501  0.35535961571E+02 -0.32239369350E+02 -0.51667552191E+03  0.51889861865E+03  0.00000000000E+00 0. -1.
          1    1    1    2  501    0  0.48684068849E+02  0.12921689103E+02 -0.19569107074E+04  0.19575588434E+04  0.00000000000E+00 0.  1.
<scales pt_clust_3="14000.00000" pt_clust_4="44.38084" pt_clust_5="73.29536" pt_clust_6="50.23693"></scales>
<clustering>
<clus scale="   44.381">  1  4  2 -1</clus>
<clus scale="   50.237">  2  6  1 -1</clus>
<clus scale="   73.295">  2  5  1 -1</clus>
<clus scale="   44.381">  1  3  2 -1</clus>
</clustering>
</event>
<event>
 6    0  0.4081161E+002  0.1161975E+03  0.7546771E-02  0.1249505E+00
          1   -1    0    0  503    0 -0.00000000000E+00  0.00000000000E+00  0.23928191520E+04  0.23928191520E+04  0.00000000000E+00 0.  1.
         21   -1    0    0  505  502  0.00000000000E+00 -0.00000000000E+00 -0.12718793997E+03  0.12718793997E+03  0.00000000000E+00 0. -1.
         21    1    1    2  503  502  0.81569892540E+02 -0.43097516990E+01  0.31676347606E+01  0.81745062472E+02  0.00000000000E+00 0. -1.
         21    1    1    2  504  501 -0.12596571620E+03 -0.99993736195E+02  0.48194715345E+03  0.50807397853E+03  0.00000000000E+00 0.  1.
         21    1    1    2  505  504  0.27389887698E+02  0.59004472965E+02 -0.60320880021E+02  0.88714949949E+02  0.00000000000E+00 0. -1.
          1    1    1    2  501    0  0.17005935963E+02  0.45299014929E+02  0.18408373038E+04  0.18414731010E+04  0.00000000000E+00 0.  1.
<scales pt_clust_3="14000.00000" pt_clust_4="116.19752" pt_clust_5="66.29351" pt_clust_6="48.38598"></scales>
<clustering>
<clus scale="   48.386">  1  6  2 -1</clus>
<clus scale="   66.294">  2  5  1 -1</clus>
<clus scale="  116.198">  1  4  2 -1</clus>
<clus scale="   66.294">  2  3  1 -1</clus>
</clustering>
</event>
<event>
 6    0  0.4081161E+002  0.9778884E+02  0.7546771E-02  0.1285016E+00
         21   -1    0    0  504  502  0.00000000000E+00  0.00000000000E+00  0.12285247183E+03  0.12285247183E+03  0.00000000000E+00 0.  1.
         -4   -1    0    0    0  501 -0.00000000000E+00 -0.00000000000E+00 -0.16494477531E+03  0.16494477531E+03  0.00000000000E+00 0. -1.
         21    1    1    2  503  501  0.83865319498E+02  0.68039833053E+01 -0.39204128062E+02  0.92825910502E+02  0.00000000000E+00 0.  1.
         21    1    1    2  504  503 -0.82131151224E+01 -0.71803468939E+02  0.29913619234E+02  0.78217760307E+02  0.00000000000E+00 0.  1.
         21    1    1    2  505  502 -0.33521437715E+02  0.49690116752E+02  0.20470685524E+01  0.59974869562E+02  0.00000000000E+00 0.  1.
         -4    1    1    2    0  505 -0.42130766660E+02  0.15309368881E+02 -0.34848863210E+02  0.56778706765E+02  0.00000000000E+00 0. -1.
<scales pt_clust_3="83.39908" pt_clust_4="72.27166" pt_clust_5="44.15692" pt_clust_6="44.15692"></scales>
<clustering>
<clus scale="   44.157">  5  6 -1 -1</clus>
<clus scale="   72.272">  1  4  2 -1</clus>
<clus scale="   83.399">  2  3  1 -1</clus>
<clus scale="   72.272">  1  3  2 -1</clus>
</clustering>
</event>
<event>
 6    0  0.4081161E+002  0.8996234E+02  0.7546771E-02  0.1302943E+00
          2   -1    0    0  504    0 -0.00000000000E+00  0.00000000000E+00  0.12347804160E+04  0.12347804160E+04  0.00000000000E+00 0. -1.
         21   -1    0    0  503  502  0.00000000000E+00 -0.00000000000E+00 -0.31475928799E+03  0.31475928799E+03  0.00000000000E+00 0. -1.
         21    1    1    2  503  505 -0.32641264829E+02 -0.15886097106E+02 -0.21671955793E+03  0.21973890653E+03  0.00000000000E+00 0. -1.
         21    1    1    2  504  502  0.64300152164E+02  0.13059324067E+02 -0.71291891270E+02  0.96889572578E+02  0.00000000000E+00 0. -1.
         21    1    1    2  505  501  0.58872225873E+02  0.30615483618E+02  0.95130813371E+02  0.11598757894E+03  0.00000000000E+00 0. -1.
          2    1    1    2  501    0 -0.90531113208E+02 -0.27788710579E+02  0.11129017639E+04  0.11169236460E+04  0.00000000000E+00 0. -1.
<scales pt_clust_3="36.30179" pt_clust_4="35.87367" pt_clust_5="89.96234" pt_clust_6="14000.00000"></scales>
<clustering>
<clus scale="   36.302">  2  3  1 -1</clus>
<clus scale="   35.874">  2  4  1 -1</clus>
<clus scale="   89.962">  2  5  1 -1</clus>
<clus scale="   36.302">  2  3  1 -1</clus>
</clustering>
</event>
<event>
 6    0  0.4081161E+002  0.1835094E+03  0.7546771E-02  0.1164449E+00
         21   -1    0    0  505  502  0.00000000000E+00  0.00000000000E+00  0.48129477730E+03  0.48129477730E+03  0.00000000000E+00 0. -1.
          2   -1    0    0  502    0 -0.00000000000E+00 -0.00000000000E+00 -0.19604260136E+03  0.19604260136E+03  0.00000000000E+00 0. -1.
         21    1    1    2  503  504  0.12391019420E+03  0.34691250855E+02  0.24424725300E+03  0.27606872280E+03  0.00000000000E+00 0. -1.
         21    1    1    2  504  501 -0.12087196179E+03 -0.55385455216E+02 -0.62319543949E+02  0.14683768370E+03  0.00000000000E+00 0. -1.
         21    1    1    2  505  503  0.28506268407E+02  0.40098019758E+02  0.17064523530E+03  0.17759576249E+03  0.00000000000E+00 0. -1.
          2    1    1    2  501    0 -0.31544500814E+02 -0.19403815397E+02 -0.67320768409E+02  0.76835209655E+02  0.00000000000E+00 0. -1.
<scales pt_clust_3="43.06897" pt_clust_4="35.00358" pt_clust_5="43.06897" pt_clust_6="182.27165"></scales>
<clustering>
<clus scale="   35.004">  4  6 -1 -1</clus>
<clus scale="   43.069">  3  5 -1 -1</clus>
<clus scale="  182.272">  2  4  1 -1</clus>
<clus scale="  183.509">  1  3  2 -1</clus>
</clustering>
</event>
<event>
 6    0  0.4081161E+002  0.1218071E+03  0.7546771E-02  0.1240145E+00
         21   -1    0    0  505  502  0.00000000000E+00  0.00000000000E+00  0.18196434684E+02  0.18196434684E+02  0.00000000000E+00 0. -1.
          2   -1    0    0  503    0 -0.00000000000E+00 -0.00000000000E+00 -0.31494926070E+04  0.31494926070E+04  0.00000000000E+00 0. -1.
         21    1    1    2  503  504  0.42218378409E+02  0.13962431016E+03 -0.46007282010E+03  0.48264307646E+03  0.00000000000E+00 0. -1.
         21    1    1    2  504  502  0.30121148966E+02 -0.55976519350E+02 -0.17866868438E+03  0.18963953468E+03  0.00000000000E+00 0. -1.
         21    1    1    2  505  501 -0.33066034397E+02 -0.15735174920E+02 -0.51731447377E+03  0.51860893082E+03  0.00000000000E+00 0.  1.
          2    1    1    2  501    0 -0.39273492977E+02 -0.67912615886E+02 -0.19752401941E+04  0.19767974998E+04  0.00000000000E+00 0. -1.
<scales pt_clust_3="113.32451" pt_clust_4="63.56614" pt_clust_5="30.51226" pt_clust_6="30.51226"></scales>
<clustering>
<clus scale="   30.512">  5  6 -1 -1</clus>
<clus scale="   63.566">  1  4  2 -1</clus>
<clus scale="  113.325">  1  3  2 -1</clus>
<clus scale="   63.566">  1  3  2 -1</clus>
</clustering>
</event>
<event>
 6    0  0.4081161E+002  0.1078161E+03  0.7546771E-02  0.1264668E+00
         -3   -1    0    0    0  501 -0.00000000000E+00  0.00000000000E+00  0.55409113914E+03  0.55409113914E+03  0.00000000000E+00 0. -1.
         21   -1    0    0  505  502  0.00000000000E+00 -0.00000000000E+00 -0.10684790326E+04  0.10684790326E+04  0.00000000000E+00 0.  1.
         21    1    1    2  503  502 -0.35753766696E+02  0.21409113689E+02 -0.39734930750E+02  0.57580784153E+02  0.00000000000E+00 0. -1.
         21    1    1    2  504  503  0.67321852754E+02  0.56607137449E+02  0.42898352397E+03  0.43790805394E+03  0.00000000000E+00 0. -1.
         21    1    1    2  505  501 -0.62755203639E+02 -0.67169270675E+02 -0.10107871280E+04  0.10149583955E+04  0.00000000000E+00 0.  1.
         -3    1    1    2    0  504  0.31187117581E+02 -0.10846980463E+02  0.10715064139E+03  0.11212293805E+03  0.00000000000E+00 0. -1.
<scales pt_clust_3="41.02469" pt_clust_4="107.81614" pt_clust_5="14000.00000" pt_clust_6="33.01959"></scales>
<clustering>
<clus scale="   33.020">  1  6  2 -1</clus>
<clus scale="   41.025">  2  3  1 -1</clus>
<clus scale="  107.816">  1  4  2 -1</clus>
<clus scale="   41.025">  2  3  1 -1</clus>
</clustering>
</event>
<event>
 6    0  0.4081161E+002  0.1311012E+03  0.7546771E-02  0.1225831E+00
         21   -1    0    0  505  502  0.00000000000E+00  0.00000000000E+00  0.27894617771E+02  0.27894617771E+02  0.00000000000E+00 0. -1.
          2   -1    0    0  503    0 -0.00000000000E+00 -0.00000000000E+00 -0.16313637638E+04  0.16313637638E+04  0.00000000000E+00 0. -1.
         21    1    1    2  503  504 -0.85408609026E+02  0.88705744168E+02 -0.47540183633E+03  0.49109087298E+03  0.00000000000E+00 0. -1.
         21    1    1    2  504  502  0.33247898517E+02 -0.10493236042E+02 -0.23030082073E+02  0.41784152961E+02  0.00000000000E+00 0. -1.
         21    1    1    2  505  501 -0.39622639785E+02  0.21641566369E+02 -0.75636649989E+02  0.88086399631E+02  0.00000000000E+00 0. -1.
          2    1    1    2  501    0  0.91783350294E+02 -0.99854074495E+02 -0.10294005776E+04  0.10382969560E+04  0.00000000000E+00 0. -1.
<scales pt_clust_3="131.10123" pt_clust_4="34.86446" pt_clust_5="33.72386" pt_clust_6="14000.00000"></scales>
<clustering>
<clus scale="   34.864">  1  4  2 -1</clus>
<clus scale="   33.724">  1  5  2 -1</clus>
<clus scale="  131.101">  1  3  2 -1</clus>
<clus scale="   34.864">  1  3  2 -1</clus>
</clustering>
</event>
<event>
 6    0  0.4081161E+002  0.8695892E+02  0.7546771E-02  0.1310388E+00
         -2   -1    0    0    0  501 -0.00000000000E+00  0.00000000000E+00  0.17911752678E+03  0.17911752678E+03  0.00000000000E+00 0. -1.
         21   -1    0    0  503  502  0.00000000000E+00 -0.00000000000E+00 -0.17165943587E+03  0.17165943587E+03  0.00000000000E+00 0. -1.
         21    1    1    2  503  505 -0.61370133723E+01 -0.42268200116E+02 -0.56774085059E+02  0.71046185038E+02  0.00000000000E+00 0. -1.
         21    1    1    2  504  502  0.82735821776E+02  0.88658526392E+02 -0.39287597371E+02  0.12747182361E+03  0.00000000000E+00 0. -1.
         21    1    1    2  505  501 -0.38228719239E+02 -0.59649029844E+01  0.49285785528E+01  0.39003921968E+02  0.00000000000E+00 0. -1.
         -2    1    1    2    0  504 -0.38370089165E+02 -0.40425423291E+02  0.98591194789E+02  0.11325503203E+03  0.00000000000E+00 0. -1.
<scales pt_clust_3="43.26147" pt_clust_4="86.95892" pt_clust_5="38.69128" pt_clust_6="14000.00000"></scales>
<clustering>
<clus scale="   38.691">  1  5  2 -1</clus>
<clus scale="   43.261">  2  3  1 -1</clus>
<clus scale="   86.959">  2  4  1 -1</clus>
<clus scale="   43.261">  2  3  1 -1</clus>
</clustering>
</event>
<event>
 6    0  0.4081161E+002  0.8277003E+02  0.7546771E-02  0.1321369E+00
          1   -1    0    0  505    0 -0.00000000000E+00  0.00000000000E+00  0.13535366056E+04  0.13535366056E+04  0.00000000000E+00 0. -1.
         21   -1    0    0  503  502  0.00000000000E+00 -0.00000000000E+00 -0.96213570395E+02  0.96213570395E+02  0.00000000000E+00 0.  1.
         21    1    1    2  503  501  0.89239829917E+02  0.94306066502E+01  0.74374753227E+03  0.74914155895E+03  0.00000000000E+00 0. -1.
         21    1    1    2  504  502 -0.35791988072E+02  0.18140719777E+02 -0.79095295040E+02  0.88691700974E+02  0.00000000000E+00 0.  1.
         21    1    1    2  505  504 -0.37765008343E+02 -0.74983557843E+02  0.21256316618E+03  0.22854283935E+03  0.00000000000E+00 0. -1.
          1    1    1    2  501    0 -0.15682833503E+02  0.47412231415E+02  0.38010763179E+03  0.38337407672E+03  0.00000000000E+00 0. -1.
<scales pt_clust_3="14000.00000" pt_clust_4="40.12670" pt_clust_5="82.77003" pt_clust_6="53.84263"></scales>
<clustering>
<clus scale="   40.127">  2  4  1 -1</clus>
<clus scale="   53.843">  1  6  2 -1</clus>
<clus scale="   82.770">  2  5  1 -1</clus>
<clus scale="   40.127">  2  3  1 -1</clus>
</clustering>
</event>
<event>
 6    0  0.4081161E+002  0.9885289E+02  0.7546771E-02  0.1282727E+00
         21   -1    0    0  504  502  0.00000000000E+00  0.00000000000E+00  0.38398673600E+03  0.38398673600E+03  0.00000000000E+00 0.  1.
          1   -1    0    0  503    0 -0.00000000000E+00 -0.00000000000E+00 -0.54103295077E+03  0.54103295077E+03  0.00000000000E+00 0.  1.
         21    1    1    2  503  505  0.51835110158E+02 -0.86406381742E+02 -0.12302256175E+03  0.15902041426E+03  0.00000000000E+00 0.  1.
         21    1    1    2  504  501 -0.11309523248E+02 -0.33808924590E+02  0.38942696050E+02  0.52796612331E+02  0.00000000000E+00 0.  1.
         21    1    1    2  505  502 -0.40846115043E+02  0.18075826677E+02  0.31186487094E+03  0.31504735890E+03  0.00000000000E+00 0.  1.
          1    1    1    2  501    0  0.32052813211E+00  0.10213947966E+03 -0.38483122001E+03  0.39815530128E+03  0.00000000000E+00 0.  1.
<scales pt_clust_3="98.85289" pt_clust_4="35.65037" pt_clust_5="53.01760" pt_clust_6="14000.00000"></scales>
<clustering>
<clus scale="   35.650">  1  4  2 -1</clus>
<clus scale="   53.018">  1  5  2 -1</clus>
<clus scale="   98.853">  1  3  2 -1</clus>
<clus scale="   35.650">  1  3  2 -1</clus>
</clustering>
</event>
<event>
 6    0  0.4081161E+002  0.2907204E+03  0.7546771E-02  0.1089974E+00
          1   -1    0    0  505    0 -0.00000000000E+00  0.00000000000E+00  0.32415754848E+04  0.32415754848E+04  0.00000000000E+00 0. -1.
         21   -1    0    0  501  502  0.00000000000E+00 -0.00000000000E+00 -0.16165635035E+03  0.16165635035E+03  0.00000000000E+00 0.  1.
         21    1    1    2  503  502 -0.23232953755E+02 -0.21699023853E+02 -0.74116498988E+02  0.80646594463E+02  0.00000000000E+00 0.  1.
         21    1    1    2  504  503  0.28425463856E+03 -0.12246363842E+03  0.25209269402E+03  0.39918513080E+03  0.00000000000E+00 0.  1.
         21    1    1    2  505  504 -0.20853905417E+03  0.69879745878E+02  0.25645280429E+04  0.25739416852E+04  0.00000000000E+00 0. -1.
          1    1    1    2  501    0 -0.52482630640E+02  0.74282916393E+02  0.33741489652E+03  0.34945842468E+03  0.00000000000E+00 0. -1.
<scales pt_clust_3="31.79022" pt_clust_4="14000.00000" pt_clust_5="290.72038" pt_clust_6="90.67216"></scales>
<clustering>
<clus scale="   31.790">  2  3  1 -1</clus>
<clus scale="   90.672">  1  6  2 -1</clus>
<clus scale="  290.720">  1  5  2 -1</clus>
<clus scale="   31.790">  2  3  1 -1</clus>
</clustering>
</event>
<event>
 6    0  0.4081161E+002  0.1142287E+03  0.7546771E-02  0.1252933E+00
         21   -1    0    0  503  502  0.00000000000E+00  0.00000000000E+00  0.39611296700E+03  0.39611296700E+03  0.00000000000E+00 0.  1.
          2   -1    0    0  505    0 -0.00000000000E+00 -0.00000000000E+00 -0.31104833252E+03  0.31104833252E+03  0.00000000000E+00 0. -1.
         21    1    1    2  503  504 -0.64833795264E+02  0.10153458910E+03  0.33946694284E+03  0.36020896585E+03  0.00000000000E+00 0.  1.
         21    1    1    2  504  501  0.79565313041E+02 -0.38940166900E+02 -0.30231001642E+02  0.93599621248E+02  0.00000000000E+00 0. -1.
         21    1    1    2  505  502 -0.41555222191E+02 -0.36347534501E+02 -0.47779281497E+02  0.73012598201E+02  0.00000000000E+00 0. -1.
          2    1    1    2  501    0  0.26823704414E+02 -0.26246887697E+02 -0.17639202523E+03  0.18034011422E+03  0.00000000000E+00 0. -1.
<scales pt_clust_3="14000.00000" pt_clust_4="114.22874" pt_clust_5="56.51145" pt_clust_6="37.52879"></scales>
<clustering>
<clus scale="   37.529">  2  6  1 -1</clus>
<clus scale="   56.511">  2  5  1 -1</clus>
<clus scale="  114.229">  2  4  1 -1</clus>
<clus scale="  114.229">  1  3  2 -1</clus>
</clustering>
</event>
<event>
 6    0  0.4081161E+002  0.6947509E+02  0.7546771E-02  0.1361887E+00
         21   -1    0    0  501  502  0.00000000000E+00  0.00000000000E+00  0.15519171699E+03  0.15519171699E+03  0.00000000000E+00 0. -1.
          2   -1    0    0  504    0 -0.00000000000E+00 -0.00000000000E+00 -0.99320614485E+03  0.99320614485E+03  0.00000000000E+00 0. -1.
         21    1    1    2  503  502 -0.23261029869E+02 -0.47216694939E+02  0.12402233782E+03  0.13472947736E+03  0.00000000000E+00 0. -1.
         21    1    1    2  504  505  0.54928178919E+02 -0.15458114760E+01 -0.27892675960E+03  0.28428793782E+03  0.00000000000E+00 0. -1.
         21    1    1    2  505  503  0.50810301938E+02  0.28437929402E+02 -0.21083745661E+02  0.61926786957E+02  0.00000000000E+00 0. -1.
          2    1    1    2  501    0 -0.82477450988E+02  0.20324577013E+02 -0.66202626043E+03  0.66745365970E+03  0.00000000000E+00 0. -1.
<scales pt_clust_3="52.63546" pt_clust_4="69.47509" pt_clust_5="33.61290" pt_clust_6="14000.00000"></scales>
<clustering>
<clus scale="   52.635">  1  3  2 -1</clus>
<clus scale="   33.613">  1  5  2 -1</clus>
<clus scale="   69.475">  2  4  1 -1</clus>
<clus scale="   52.635">  1  3  2 -1</clus>
</clustering>
</event>
<event>
 6    0  0.4081161E+002  0.1299946E+03  0.7546771E-02  0.1227464E+00
          1   -1    0    0  505    0 -0.00000000000E+00  0.00000000000E+00  0.11750626035E+04  0.11750626035E+04  0.00000000000E+00 0.  1.
         21   -1    0    0  501  502  0.00000000000E+00 -0.00000000000E+00 -0.20343027581E+03  0.20343027581E+03  0.00000000000E+00 0. -1.
         21    1    1    2  503  504  0.20059144692E+02  0.73179558420E+02  0.64205564122E+02  0.99398045859E+02  0.00000000000E+00 0.  1.
         21    1    1    2  504  502  0.29861811331E+02 -0.69865940138E+01 -0.17600455156E+03  0.17865649286E+03  0.00000000000E+00 0. -1.
         21    1    1    2  505  503  0.29339691129E+02  0.27433452017E+02  0.79810140918E+02  0.89348029405E+02  0.00000000000E+00 0.  1.
          1    1    1    2  501    0 -0.79260647152E+02 -0.93626416423E+02  0.10036211742E+04  0.10110903111E+04  0.00000000000E+00 0.  1.
<scales pt_clust_3="35.67583" pt_clust_4="30.66823" pt_clust_5="35.67583" pt_clust_6="120.73636"></scales>
<clustering>
<clus scale="   30.668">  2  4  1 -1</clus>
<clus scale="   35.676">  3  5 -1 -1</clus>
<clus scale="  120.736">  1  6  2 -1</clus>
<clus scale="   30.668">  2  3  1 -1</clus>
</clustering>
</event>
<event>
 6    0  0.4081161E+002  0.1374230E+03  0.7546771E-02  0.1216839E+00
         21   -1    0    0  503  502  0.00000000000E+00  0.00000000000E+00  0.32328276704E+02  0.32328276704E+02  0.00000000000E+00 0.  1.
          1   -1    0    0  505    0 -0.00000000000E+00 -0.00000000000E+00 -0.26687101323E+04  0.26687101323E+04  0.00000000000E+00 0.  1.
         21    1    1    2  503  504  0.16292175671E+03  0.74307833887E+02 -0.40109860972E+03  0.43925533315E+03  0.00000000000E+00 0.  1.
         21    1    1    2  504  501 -0.52397064380E+02 -0.19649250844E+02 -0.63701570934E+03  0.63946896669E+03  0.00000000000E+00 0. -1.
         21    1    1    2  505  502 -0.77407337671E+02 -0.84075179691E+02 -0.26850601698E+03  0.29181503203E+03  0.00000000000E+00 0.  1.
          1    1    1    2  501    0 -0.33117354662E+02  0.29416596648E+02 -0.13297615195E+04  0.13304990771E+04  0.00000000000E+00 0.  1.
<scales pt_clust_3="137.42296" pt_clust_4="68.41908" pt_clust_5="14000.00000" pt_clust_6="44.29555"></scales>
<clustering>
<clus scale="   44.296">  2  6  1 -1</clus>
<clus scale="   68.419">  2  4  1 -1</clus>
<clus scale="  137.423">  2  3  1 -1</clus>
<clus scale="  137.423">  1  3  2 -1</clus>
</clustering>
</event>
<event>
 6    0  0.4081161E+002  0.2331679E+03  0.7546771E-02  0.1124430E+00
          2   -1    0    0  502    0 -0.00000000000E+00  0.00000000000E+00  0.14923907051E+04  0.14923907051E+04  0.00000000000E+00 0. -1.
         21   -1    0    0  503  502  0.00000000000E+00 -0.00000000000E+00 -0.12922223060E+03  0.12922223060E+03  0.00000000000E+00 0. -1.
         21    1    1    2  503  505  0.29471090708E+02 -0.17402746812E+02  0.15510171556E+02  0.37576138783E+02  0.00000000000E+00 0.  1.
         21    1    1    2  504  501  0.10776782763E+03 -0.54941022132E+01  0.69119293598E+03  0.69956541123E+03  0.00000000000E+00 0. -1.
         21    1    1    2  505  504 -0.25398085555E+03  0.54480411876E+02  0.48065694261E+02  0.26416794134E+03  0.00000000000E+00 0. -1.
          2    1    1    2  501    0  0.11674193721E+03 -0.31583562850E+02  0.60839967268E+03  0.62030344435E+03  0.00000000000E+00 0. -1.
<scales pt_clust_3="34.22573" pt_clust_4="34.42883" pt_clust_5="230.29074" pt_clust_6="34.42883"></scales>
<clustering>
<clus scale="   34.226">  2  3  1 -1</clus>
<clus scale="   34.429">  4  6 -1 -1</clus>
<clus scale="  230.291">  2  5  1 -1</clus>
<clus scale="   34.226">  2  3  1 -1</clus>
</clustering>
</event>
<event>
 6    0  0.4081161E+002  0.7449221E+02  0.7546771E-02  0.1345451E+00
          1   -1    0    0  503    0 -0.00000000000E+00  0.00000000000E+00  0.85597139573E+03  0.85597139573E+03  0.00000000000E+00 0.  1.
         21   -1    0    0  505  502  0.00000000000E+00 -0.00000000000E+00 -0.60888628400E+03  0.60888628400E+03  0.00000000000E+00 0. -1.
         21    1    1    2  503  504  0.30116262097E+02  0.20833866740E+02  0.32108954925E+03  0.32317106597E+03  0.00000000000E+00 0.  1.
         21    1    1    2  504  502  0.10212782802E+02 -0.87079451143E+02 -0.87187757648E+02  0.12364803608E+03  0.00000000000E+00 0. -1.
         21    1    1    2  505  501  0.33083933107E+02  0.26604873304E+02 -0.49814375354E+03  0.49994956256E+03  0.00000000000E+00 0. -1.
          1    1    1    2  501    0 -0.73412978006E+02  0.39640711100E+02  0.51132707366E+03  0.51808901511E+03  0.00000000000E+00 0.  1.
<scales pt_clust_3="36.62020" pt_clust_4="14000.00000" pt_clust_5="42.51606" pt_clust_6="74.49221"></scales>
<clustering>
<clus scale="   36.620">  1  3  2 -1</clus>
<clus scale="   42.516">  2  5  1 -1</clus>
<clus scale="   74.492">  1  6  2 -1</clus>
<clus scale="   42.516">  2  3  1 -1</clus>
</clustering>
</event>
<event>
 6    0  0.4081161E+002  0.1470081E+03  0.7546771E-02  0.1204198E+00
          2   -1    0    0  504    0 -0.00000000000E+00  0.00000000000E+00  0.25201445045E+04  0.25201445045E+04  0.00000000000E+00 0.  1.
         21   -1    0    0  505  502  0.00000000000E+00 -0.00000000000E+00 -0.37783495155E+03  0.37783495155E+03  0.00000000000E+00 0.  1.
         21    1    1    2  503  501  0.57871744138E+02 -0.66998449507E+01  0.56673247920E+03  0.56971899185E+03  0.00000000000E+00 0. -1.
         21    1    1    2  504  502 -0.13422293120E+03 -0.71207988622E+02  0.72216274763E+02  0.16823068461E+03  0.00000000000E+00 0.  1.
         21    1    1    2  505  503  0.60257989957E+01  0.10677162449E+03 -0.31881296785E+03  0.33627101945E+03  0.00000000000E+00 0.  1.
          2    1    1    2  501    0  0.70325388066E+02 -0.28863790917E+02  0.18221737669E+04  0.18237587602E+04  0.00000000000E+00 0.  1.
<scales pt_clust_3="56.48653" pt_clust_4="132.09074" pt_clust_5="106.94153" pt_clust_6="56.48653"></scales>
<clustering>
<clus scale="   56.487">  3  6 -1 -1</clus>
<clus scale="  106.942">  2  5  1 -1</clus>
<clus scale="  132.091">  2  4  1 -1</clus>
<clus scale="  106.942">  2  3  1 -1</clus>
</clustering>
</event>
<event>
 6    0  0.4081161E+002  0.1642111E+03  0.7546771E-02  0.1184023E+00
         -2   -1    0    0    0  501 -0.00000000000E+00  0.00000000000E+00  0.47339278727E+03  0.47339278727E+03  0.00000000000E+00 0. -1.
         21   -1    0    0  505  502  0.00000000000E+00 -0.00000000000E+00 -0.77662861579E+03  0.77662861579E+03  0.00000000000E+00 0.  1.
         21    1    1    2  503  502 -0.31589935737E+02 -0.12226975700E+01 -0.21807584221E+03  0.22035537657E+03  0.00000000000E+00 0.  1.
         21    1    1    2  504  503  0.16001667963E+03  0.10356331507E+03 -0.51959664435E+03  0.55345403676E+03  0.00000000000E+00 0.  1.
         21    1    1    2  505  501 -0.28281024885E+02 -0.12449791723E+02  0.12495963966E+02  0.33331108562E+02  0.00000000000E+00 0.  1.
         -2    1    1    2    0  504 -0.10014571901E+03 -0.89890825775E+02  0.42194069407E+03  0.44288088117E+03  0.00000000000E+00 0. -1.
<scales pt_clust_3="31.68632" pt_clust_4="14000.00000" pt_clust_5="30.90006" pt_clust_6="164.21106"></scales>
<clustering>
<clus scale="   30.900">  1  5  2 -1</clus>
<clus scale="   31.686">  2  3  1 -1</clus>
<clus scale="  164.211">  1  6  2 -1</clus>
<clus scale="   31.686">  2  3  1 -1</clus>
</clustering>
</event>
<event>
 6    0  0.4081161E+002  0.6967248E+02  0.7546771E-02  0.1361210E+00
         21   -1    0    0  503  502  0.00000000000E+00  0.00000000000E+00  0.19157607817E+04  0.19157607817E+04  0.00000000000E+00 0.  1.
          1   -1    0    0  505    0 -0.00000000000E+00 -0.00000000000E+00 -0.61372067167E+03  0.61372067167E+03  0.00000000000E+00 0. -1.
         21    1    1    2  503  504 -0.32478855638E+01  0.72542715907E+02  0.16182457808E+04  0.16198741931E+04  0.00000000000E+00 0.  1.
         21    1    1    2  504  501  0.52203610779E+02 -0.48506213019E+02  0.28053763202E+03  0.28944676999E+03  0.00000000000E+00 0.  1.
         21    1    1    2  505  502  0.29392580236E+02  0.39310257174E+02 -0.35327287997E+03  0.35666643775E+03  0.00000000000E+00 0. -1.
          1    1    1    2  501    0 -0.78348305451E+02 -0.63346760062E+02 -0.24347042277E+03  0.26349405258E+03  0.00000000000E+00 0. -1.
<scales pt_clust_3="69.67248" pt_clust_4="14000.00000" pt_clust_5="49.08381" pt_clust_6="55.43010"></scales>
<clustering>
<clus scale="   49.084">  2  5  1 -1</clus>
<clus scale="   55.430">  2  6  1 -1</clus>
<clus scale="   69.672">  1  3  2 -1</clus>
<clus scale="   69.672">  1  3  2 -1</clus>
</clustering>
</event>
<event>
 6    0  0.4081161E+002  0.1182239E+03  0.7546771E-02  0.1246056E+00
         21   -1    0    0  504  502  0.00000000000E+00  0.00000000000E+00  0.22027043387E+03  0.22027043387E+03  0.00000000000E+00 0. -1.
          1   -1    0    0  505    0 -0.00000000000E+00 -0.00000000000E+00 -0.39786414669E+03  0.39786414669E+03  0.00000000000E+00 0.  1.
         21    1    1    2  503  502  0.15696121629E+03  0.57914769272E+01  0.90794402609E+02  0.18142212701E+03  0.00000000000E+00 0. -1.
         21    1    1    2  504  501 -0.68079452303E+02 -0.20765319075E+02 -0.11315619973E+02  0.72069782555E+02  0.00000000000E+00 0.  1.
         21    1    1    2  505  503  0.67967041551E+02  0.50108881856E+02 -0.37175271462E+02  0.92262774651E+02  0.00000000000E+00 0. -1.
          1    1    1    2  501    0 -0.15684880554E+03 -0.35135039708E+02 -0.21989722399E+03  0.27237989634E+03  0.00000000000E+00 0.  1.
<scales pt_clust_3="118.22388" pt_clust_4="71.17591" pt_clust_5="74.78519" pt_clust_6="14000.00000"></scales>
<clustering>
<clus scale="   71.176">  1  4  2 -1</clus>
<clus scale="   74.785">  2  5  1 -1</clus>
<clus scale="  118.224">  1  3  2 -1</clus>
<clus scale="   71.176">  1  3  2 -1</clus>
</clustering>
</event>
<event>
 6    0  0.4081161E+002  0.6875883E+02  0.7546771E-02  0.1364365E+00
         21   -1    0    0  505  502  0.00000000000E+00  0.00000000000E+00  0.18455369554E+02  0.18455369554E+02  0.00000000000E+00 0.  1.
          2   -1    0    0  503    0 -0.00000000000E+00 -0.00000000000E+00 -0.20382572086E+04  0.20382572086E+04  0.00000000000E+00 0. -1.
         21    1    1    2  503  504  0.48366019329E+02 -0.39584538666E+02 -0.46462667168E+03  0.46881142431E+03  0.00000000000E+00 0.  1.
         21    1    1    2  504  502  0.68740171167E+02  0.75025190798E+01 -0.82232940515E+02  0.10744187001E+03  0.00000000000E+00 0.  1.
         21    1    1    2  505  501 -0.62794315660E+02 -0.25971886858E+02 -0.78608847954E+03  0.78902012816E+03  0.00000000000E+00 0.  1.
          2    1    1    2  501    0 -0.54311874836E+02  0.58053906444E+02 -0.68685374729E+03  0.69143915565E+03  0.00000000000E+00 0. -1.
<scales pt_clust_3="62.49966" pt_clust_4="68.75883" pt_clust_5="14000.00000" pt_clust_6="52.45850"></scales>
<clustering>
<clus scale="   62.500">  2  3  1 -1</clus>
<clus scale="   52.459">  2  6  1 -1</clus>
<clus scale="   68.759">  1  4  2 -1</clus>
<clus scale="   68.759">  1  3  2 -1</clus>
</clustering>
</event>
<event>
 6    0  0.4081161E+002  0.1482558E+03  0.7546771E-02  0.1202633E+00
         -2   -1    0    0    0  501 -0.00000000000E+00  0.00000000000E+00  0.12165380981E+04  0.12165380981E+04  0.00000000000E+00 0. -1.
         21   -1    0    0  503  502  0.00000000000E+00 -0.00000000000E+00 -0.78780214373E+02  0.78780214373E+02  0.00000000000E+00 0.  1.
         21    1    1    2  503  501  0.10651021430E+03  0.85843695103E+02  0.15537048525E+00  0.13679762381E+03  0.00000000000E+00 0.  1.
         21    1    1    2  504  502  0.25610195992E+02 -0.26471305354E+02  0.58229702092E+02  0.68900728237E+02  0.00000000000E+00 0. -1.
         21    1    1    2  505  504 -0.49799520677E+02 -0.41458244953E+02  0.45704757593E+03  0.46161809431E+03  0.00000000000E+00 0. -1.
         -2    1    1    2    0  505 -0.82320889619E+02 -0.17914144796E+02  0.62232523520E+03  0.62800186609E+03  0.00000000000E+00 0. -1.
<scales pt_clust_3="143.99540" pt_clust_4="36.83222" pt_clust_5="30.94610" pt_clust_6="30.94610"></scales>
<clustering>
<clus scale="   30.946">  5  6 -1 -1</clus>
<clus scale="   36.832">  2  4  1 -1</clus>
<clus scale="  143.995">  2  3  1 -1</clus>
<clus scale="   36.832">  2  3  1 -1</clus>
</clustering>
</event>
<event>
 6    0  0.4081161E+002  0.8646632E+02  0.7546771E-02  0.1311642E+00
          1   -1    0    0  505    0 -0.00000000000E+00  0.00000000000E+00  0.68312257723E+03  0.68312257723E+03  0.00000000000E+00 0. -1.
         21   -1    0    0  503  502  0.00000000000E+00 -0.00000000000E+00 -0.49479369740E+02  0.49479369740E+02  0.00000000000E+00 0.  1.
         21    1    1    2  503  501  0.34986730396E+02  0.59541518795E+02  0.22336698305E+03  0.23379921489E+03  0.00000000000E+00 0.  1.
         21    1    1    2  504  502 -0.24888088467E+02 -0.20441971432E+02 -0.98128772424E+01  0.33668734805E+02  0.00000000000E+00 0.  1.
         21    1    1    2  505  504  0.16108740556E+02 -0.94707300559E+02  0.98008740671E+02  0.13723948976E+03  0.00000000000E+00 0.  1.
          1    1    1    2  501    0 -0.26207382485E+02  0.55607753196E+02  0.32208036101E+03  0.32789450752E+03  0.00000000000E+00 0. -1.
<scales pt_clust_3="86.46632" pt_clust_4="32.20700" pt_clust_5="14000.00000" pt_clust_6="60.73626"></scales>
<clustering>
<clus scale="   32.207">  2  4  1 -1</clus>
<clus scale="   60.736">  1  6  2 -1</clus>
<clus scale="   86.466">  1  3  2 -1</clus>
<clus scale="   32.207">  2  3  1 -1</clus>
</clustering>
</event>
<event>
 6    0  0.4081161E+002  0.7388554E+02  0.7546771E-02  0.1347357E+00
         21   -1    0    0  504  502  0.00000000000E+00  0.00000000000E+00  0.16742228682E+03  0.16742228682E+03  0.00000000000E+00 0. -1.
          2   -1    0    0  503    0 -0.00000000000E+00 -0.00000000000E+00 -0.23305753738E+04  0.23305753738E+04  0.00000000000E+00 0. -1.
         21    1    1    2  503  505  0.28810130641E+02  0.90783668437E+01 -0.44152789024E+03  0.44255996005E+03  0.00000000000E+00 0. -1.
         21    1    1    2  504  501 -0.84760023229E+02 -0.67601482103E+02 -0.25486185039E+03  0.27696350790E+03  0.00000000000E+00 0. -1.
         21    1    1    2  505  502  0.73338915747E+02  0.32036735942E+01  0.14666156402E+03  0.16400754387E+03  0.00000000000E+00 0. -1.
          2    1    1    2  501    0 -0.17389023159E+02  0.55319441665E+02 -0.16134249103E+04  0.16144666488E+04  0.00000000000E+00 0. -1.
<scales pt_clust_3="30.20663" pt_clust_4="14000.00000" pt_clust_5="73.88554" pt_clust_6="63.49110"></scales>
<clustering>
<clus scale="   30.207">  2  3  1 -1</clus>
<clus scale="   63.491">  2  6  1 -1</clus>
<clus scale="   73.886">  1  5  2 -1</clus>
<clus scale="   73.886">  1  3  2 -1</clus>
</clustering>
</event>
<event>
 6    0  0.4081161E+002  0.1315873E+03  0.7546771E-02  0.1225119E+00
         21   -1    0    0  504  502  0.00000000000E+00  0.00000000000E+00  0.87614812693E+03  0.87614812693E+03  0.00000000000E+00 0.  1.
          2   -1    0    0  503    0 -0.00000000000E+00 -0.00000000000E+00 -0.26736038228E+03  0.26736038228E+03  0.00000000000E+00 0. -1.
         21    1    1    2  503  505 -0.89097992378E+01 -0.57208565840E+02 -0.30312982016E+02  0.65353511050E+02  0.00000000000E+00 0. -1.
         21    1    1    2  504  501 -0.45420478847E+02 -0.10163322679E+02 -0.76249318463E+02  0.89332365874E+02  0.00000000000E+00 0. -1.
         21    1    1    2  505  502  0.78067524178E+02  0.99250044607E+02  0.84440074011E+03  0.85379020818E+03  0.00000000000E+00 0.  1.
          2    1    1    2  501    0 -0.23737246094E+02 -0.31878156088E+02 -0.12905069498E+03  0.13503242411E+03  0.00000000000E+00 0. -1.
<scales pt_clust_3="57.89823" pt_clust_4="37.43609" pt_clust_5="125.19600" pt_clust_6="37.43609"></scales>
<clustering>
<clus scale="   37.436">  4  6 -1 -1</clus>
<clus scale="   57.898">  2  3  1 -1</clus>
<clus scale="  125.196">  1  5  2 -1</clus>
<clus scale="  125.196">  1  3  2 -1</clus>
</clustering>
</event>
<event>
 6    0  0.4081161E+002  0.8263354E+02  0.7546771E-02  0.1321740E+00
         -1   -1    0    0    0  501 -0.00000000000E+00  0.00000000000E+00  0.25156871799E+03  0.25156871799E+03  0.00000000000E+00 0. -1.
         21   -1    0    0  505  502  0.00000000000E+00 -0.00000000000E+00 -0.11228639345E+04  0.11228639345E+04  0.00000000000E+00 0. -1.
         21    1    1    2  503  502  0.31026448301E+02  0.64355899742E+02 -0.81859286095E+03  0.82170468803E+03  0.00000000000E+00 0. -1.
         21    1    1    2  504  503  0.31500529032E+02 -0.10864278530E+03 -0.23977984602E+03  0.26512244847E+03  0.00000000000E+00 0. -1.
         21    1    1    2  505  501  0.18871246368E+02 -0.67167687157E+02  0.23581432615E+02  0.73645815235E+02  0.00000000000E+00 0. -1.
         -1    1    1    2    0  504 -0.81398223701E+02  0.11145457271E+03  0.16349605787E+03  0.21395970074E+03  0.00000000000E+00 0. -1.
<scales pt_clust_3="71.04441" pt_clust_4="82.63354" pt_clust_5="69.76835" pt_clust_6="14000.00000"></scales>
<clustering>
<clus scale="   69.768">  1  5  2 -1</clus>
<clus scale="   71.044">  2  3  1 -1</clus>
<clus scale="   82.634">  2  4  1 -1</clus>
<clus scale="   71.044">  2  3  1 -1</clus>
</clustering>
</event>
<event>
 6    0  0.4081161E+002  0.1111226E+03  0.7546771E-02  0.1258505E+00
         -1   -1    0    0    0  501 -0.00000000000E+00  0.00000000000E+00  0.13743168923E+03  0.13743168923E+03  0.00000000000E+00 0.  1.
         21   -1    0    0  504  502  0.00000000000E+00 -0.00000000000E+00 -0.13491624071E+04  0.13491624071E+04  0.00000000000E+00 0.  1.
         21    1    1    2  503  505 -0.56793242152E+02 -0.50721104755E+02 -0.18526564081E+03  0.20030342105E+03  0.00000000000E+00 0.  1.
         21    1    1    2  504  501  0.28355764264E+01 -0.42189422561E+02  0.31016833365E+02  0.52440745816E+02  0.00000000000E+00 0. -1.
         21    1    1    2  505  502  0.85923220266E+02  0.94793236466E+02 -0.11390547333E+04  0.11462173629E+04  0.00000000000E+00 0.  1.
         -1    1    1    2    0  503 -0.31965554540E+02 -0.18827091497E+01  0.81572822950E+02  0.87632566520E+02  0.00000000000E+00 0.  1.
<scales pt_clust_3="111.12259" pt_clust_4="49.09181" pt_clust_5="14000.00000" pt_clust_6="32.02095"></scales>
<clustering>
<clus scale="   32.021">  1  6  2 -1</clus>
<clus scale="   49.092">  1  4  2 -1</clus>
<clus scale="  111.123">  1  3  2 -1</clus>
<clus scale="  111.123">  2  3  1 -1</clus>
</clustering>
</event>
<event>
 6    0  0.4081161E+002  0.8036045E+02  0.7546771E-02  0.1328032E+00
         21   -1    0    0  504  502  0.00000000000E+00  0.00000000000E+00  0.86525590890E+03  0.86525590890E+03  0.00000000000E+00 0. -1.
          1   -1    0    0  503    0 -0.00000000000E+00 -0.00000000000E+00 -0.50168980170E+03  0.50168980170E+03  0.00000000000E+00 0. -1.
         21    1    1    2  503  505 -0.71574238171E+02  0.53294939565E+02 -0.29607042021E+03  0.30922631821E+03  0.00000000000E+00 0. -1.
         21    1    1    2  504  501  0.22279472209E+02 -0.21237718206E+02  0.90426316087E+02  0.95521380840E+02  0.00000000000E+00 0.  1.
         21    1    1    2  505  502  0.29671310746E+02  0.45547265032E+02  0.75653590069E+03  0.75848632754E+03  0.00000000000E+00 0. -1.
          1    1    1    2  501    0  0.19623455216E+02 -0.77604486391E+02 -0.18732568937E+03  0.20371168400E+03  0.00000000000E+00 0. -1.
<scales pt_clust_3="14000.00000" pt_clust_4="30.78012" pt_clust_5="57.14594" pt_clust_6="80.36045"></scales>
<clustering>
<clus scale="   30.780">  1  4  2 -1</clus>
<clus scale="   57.146">  1  5  2 -1</clus>
<clus scale="   80.360">  1  6  2 -1</clus>
<clus scale="   30.780">  1  3  2 -1</clus>
</clustering>
</event>
<event>
 6    0  0.4081161E+002  0.1185004E+03  0.7546771E-02  0.1245592E+00
         21   -1    0    0  505  502  0.00000000000E+00  0.00000000000E+00  0.68564337675E+02  0.68564337675E+02  0.00000000000E+00 0.  1.
          2   -1    0    0  504    0 -0.00000000000E+00 -0.00000000000E+00 -0.60523769066E+03  0.60523769066E+03  0.00000000000E+00 0.  1.
         21    1    1    2  503  502 -0.97334173703E+02 -0.60625829641E+02 -0.34660092872E+02  0.11979463522E+03  0.00000000000E+00 0.  1.
         21    1    1    2  504  503 -0.16985545938E+02  0.25066529414E+02 -0.60752500046E+02  0.67880084925E+02  0.00000000000E+00 0.  1.
         21    1    1    2  505  501  0.10269302681E+03  0.77864443743E+02 -0.18099170891E+03  0.22218624631E+03  0.00000000000E+00 0.  1.
          2    1    1    2  501    0  0.11626692828E+02 -0.42305143516E+02 -0.26026905116E+03  0.26394106187E+03  0.00000000000E+00 0.  1.
<scales pt_clust_3="14000.00000" pt_clust_4="30.27936" pt_clust_5="118.50036" pt_clust_6="30.34971"></scales>
<clustering>
<clus scale="   30.279">  2  4  1 -1</clus>
<clus scale="   30.350">  2  6  1 -1</clus>
<clus scale="  118.500">  2  5  1 -1</clus>
<clus scale="  118.500">  1  3  2 -1</clus>
</clustering>
</event>
<event>
 6    0  0.4081161E+002  0.2308101E+03  0.7546771E-02  0.1126071E+00
         21   -1    0    0  503  502  0.00000000000E+00  0.00000000000E+00  0.43385960107E+03  0.43385960107E+03  0.00000000000E+00 0. -1.
         -1   -1    0    0    0  501 -0.00000000000E+00 -0.00000000000E+00 -0.27224163333E+03  0.27224163333E+03  0.00000000000E+00 0.  1.
         21    1    1    2  503  501 -0.75367092959E+02  0.25196231917E+03  0.24286000617E+03  0.35797512704E+03  0.00000000000E+00 0. -1.
         21    1    1    2  504  505  0.33865384363E+02 -0.39867823149E+02 -0.74165669161E+02  0.90757115769E+02  0.00000000000E+00 0.  1.
         21    1    1    2  505  502 -0.24584610842E+02 -0.68685544636E+02  0.51122005639E+02  0.89081797202E+02  0.00000000000E+00 0. -1.
         -1    1    1    2    0  504  0.66086319438E+02 -0.14340895138E+03 -0.58198374915E+02  0.16828719439E+03  0.00000000000E+00 0.  1.
<scales pt_clust_3="217.41739" pt_clust_4="44.59429" pt_clust_5="72.95277" pt_clust_6="44.59429"></scales>
<clustering>
<clus scale="   44.594">  4  6 -1 -1</clus>
<clus scale="   72.953">  1  5  2 -1</clus>
<clus scale="  217.417">  1  3  2 -1</clus>
<clus scale="   72.953">  1  3  2 -1</clus>
</clustering>
</event>
<event>
 6    0  0.4081161E+002  0.1106757E+03  0.7546771E-02  0.1259324E+00
          2   -1    0    0  502    0 -0.00000000000E+00  0.00000000000E+00  0.29609421268E+03  0.29609421268E+03  0.00000000000E+00 0.  1.
         21   -1    0    0  503  502  0.00000000000E+00 -0.00000000000E+00 -0.24376701571E+03  0.24376701571E+03  0.00000000000E+00 0.  1.
         21    1    1    2  503  505 -0.56855260683E+02  0.16053917965E+02 -0.16787440319E+03  0.17796646930E+03  0.00000000000E+00 0.  1.
         21    1    1    2  504  501  0.87387784188E+02 -0.89034810205E+02  0.19092944606E+03  0.22807427656E+03  0.00000000000E+00 0.  1.
         21    1    1    2  505  504 -0.62597295071E+01  0.94655746053E+02  0.85634592562E+01  0.95248240450E+02  0.00000000000E+00 0.  1.
          2    1    1    2  501    0 -0.24272793998E+02 -0.21674853813E+02  0.20708694844E+02  0.38572242072E+02  0.00000000000E+00 0.  1.
<scales pt_clust_3="59.41144" pt_clust_4="14000.00000" pt_clust_5="110.67569" pt_clust_6="32.54179"></scales>
<clustering>
<clus scale="   32.542">  1  6  2 -1</clus>
<clus scale="   59.411">  2  3  1 -1</clus>
<clus scale="  110.676">  2  5  1 -1</clus>
<clus scale="   59.411">  2  3  1 -1</clus>
</clustering>
</event>
<event>
 6    0  0.4081161E+002  0.9034308E+02  0.7546771E-02  0.1302023E+00
          2   -1    0    0  504    0 -0.00000000000E+00  0.00000000000E+00  0.26381512424E+04  0.26381512424E+04  0.00000000000E+00 0. -1.
         21   -1    0    0  505  502  0.00000000000E+00 -0.00000000000E+00 -0.27636360119E+02  0.27636360119E+02  0.00000000000E+00 0.  1.
         21    1    1    2  503  502  0.10085540344E+02 -0.60588012271E+02  0.75877368737E+02  0.97621721156E+02  0.00000000000E+00 0.  1.
         21    1    1    2  504  503  0.22274616119E+02 -0.27129134424E+02  0.81264107982E+03  0.81339884009E+03  0.00000000000E+00 0.  1.
         21    1    1    2  505  501  0.70120786768E+02  0.16565405704E+02  0.78542675746E+02  0.10658465798E+03  0.00000000000E+00 0.  1.
          2    1    1    2  501    0 -0.10248094323E+03  0.71151740991E+02  0.16434537580E+04  0.16481823833E+04  0.00000000000E+00 0. -1.
<scales pt_clust_3="62.87302" pt_clust_4="35.10197" pt_clust_5="90.34308" pt_clust_6="14000.00000"></scales>
<clustering>
<clus scale="   35.102">  1  4  2 -1</clus>
<clus scale="   62.873">  2  3  1 -1</clus>
<clus scale="   90.343">  2  5  1 -1</clus>
<clus scale="   62.873">  2  3  1 -1</clus>
</clustering>
</event>
<event>
 6    0  0.4081161E+002  0.1923037E+03  0.7546771E-02  0.1156400E+00
          2   -1    0    0  504    0 -0.00000000000E+00  0.00000000000E+00  0.33321389886E+04  0.33321389886E+04  0.00000000000E+00 0. -1.
         21   -1    0    0  505  502  0.00000000000E+00 -0.00000000000E+00 -0.12737745983E+04  0.12737745983E+04  0.00000000000E+00 0.  1.
         21    1    1    2  503  501 -0.63087142372E+02 -0.12314383788E+02  0.79815366800E+03  0.80073772818E+03  0.00000000000E+00 0. -1.
         21    1    1    2  504  502 -0.11166118385E+02  0.10247999059E+03 -0.12160681370E+04  0.12204296557E+04  0.00000000000E+00 0.  1.
         21    1    1    2  505  503  0.19649226954E+03 -0.10988171268E+03  0.18851553227E+03  0.29363465170E+03  0.00000000000E+00 0. -1.
          2    1    1    2  501    0 -0.12223900878E+03  0.19716105874E+02  0.22877633270E+04  0.22911115513E+04  0.00000000000E+00 0. -1.
<scales pt_clust_3="34.15908" pt_clust_4="103.08652" pt_clust_5="186.36797" pt_clust_6="34.15908"></scales>
<clustering>
<clus scale="   34.159">  3  6 -1 -1</clus>
<clus scale="  103.087">  2  4  1 -1</clus>
<clus scale="  186.368">  2  5  1 -1</clus>
<clus scale="  103.087">  2  3  1 -1</clus>
</clustering>
</event>
<event>
 6    0  0.4081161E+002  0.7157787E+02  0.7546771E-02  0.1354808E+00
         21   -1    0    0  504  502  0.00000000000E+00  0.00000000000E+00  0.60848936318E+03  0.60848936318E+03  0.00000000000E+00 0. -1.
          1   -1    0    0  505    0 -0.00000000000E+00 -0.00000000000E+00 -0.82074463978E+03  0.82074463978E+03  0.00000000000E+00 0. -1.
         21    1    1    2  503  502 -0.24267482180E+02  0.61631924669E+02 -0.37825589244E+01  0.66345403622E+02  0.00000000000E+00 0. -1.
         21    1    1    2  504  501  0.70166973452E+02  0.13989072764E+02  0.56614401628E+03  0.57064712870E+03  0.00000000000E+00 0. -1.
         21    1    1    2  505  503  0.29783661550E+02 -0.43257088910E+02 -0.10317058712E+03  0.11576878804E+03  0.00000000000E+00 0. -1.
          1    1    1    2  501    0 -0.75683152822E+02 -0.32363908523E+02 -0.67144614684E+03  0.67647268260E+03  0.00000000000E+00 0. -1.
<scales pt_clust_3="63.71806" pt_clust_4="14000.00000" pt_clust_5="52.51897" pt_clust_6="71.57787"></scales>
<clustering>
<clus scale="   52.519">  2  5  1 -1</clus>
<clus scale="   63.718">  2  3  1 -1</clus>
<clus scale="   71.578">  2  6  1 -1</clus>
<clus scale="   71.578">  1  3  2 -1</clus>
</clustering>
</event>
<event>
 6    0  0.4081161E+002  0.1226091E+03  0.7546771E-02  0.1238854E+00
          2   -1    0    0  505    0 -0.00000000000E+00  0.00000000000E+00  0.25126012675E+04  0.25126012675E+04  0.00000000000E+00 0.  1.
         21   -1    0    0  503  502  0.00000000000E+00 -0.00000000000E+00 -0.11231332622E+03  0.11231332622E+03  0.00000000000E+00 0. -1.
         21    1    1    2  503  501 -0.56402099582E+02 -0.93211066471E+02  0.33696456354E+03  0.35413926192E+03  0.00000000000E+00 0.  1.
         21    1    1    2  504  502  0.19170852888E+02 -0.34072733732E+02 -0.97367784223E+02  0.10492358262E+03  0.00000000000E+00 0. -1.
         21    1    1    2  505  504 -0.15684010680E+02  0.26970646381E+02  0.27746474925E+03  0.27921334322E+03  0.00000000000E+00 0.  1.
          2    1    1    2  501    0  0.52915257374E+02  0.10031315382E+03  0.18832264127E+04  0.18866384059E+04  0.00000000000E+00 0.  1.
<scales pt_clust_3="14000.00000" pt_clust_4="39.04294" pt_clust_5="31.19942" pt_clust_6="122.60913"></scales>
<clustering>
<clus scale="   31.199">  1  5  2 -1</clus>
<clus scale="   39.043">  2  4  1 -1</clus>
<clus scale="  122.609">  1  6  2 -1</clus>
<clus scale="   39.043">  2  3  1 -1</clus>
</clustering>
</event>
<event>
 6    0  0.4081161E+002  0.9643526E+02  0.7546771E-02  0.1287976E+00
         21   -1    0    0  501  502  0.00000000000E+00  0.00000000000E+00  0.18728673017E+03  0.18728673017E+03  0.00000000000E+00 0. -1.
          2   -1    0    0  504    0 -0.00000000000E+00 -0.00000000000E+00 -0.33942078763E+03  0.33942078763E+03  0.00000000000E+00 0. -1.
         21    1    1    2  503  502 -0.31417209861E+02 -0.13233667509E+02  0.73293347372E+02  0.80833692234E+02  0.00000000000E+00 0. -1.
         21    1    1    2  504  505 -0.19858446858E+02  0.43118199412E+02 -0.42616104923E+02  0.63793960772E+02  0.00000000000E+00 0. -1.
         21    1    1    2  505  503  0.11805237452E+03  0.40915924903E+02  0.46228819499E+02  0.13322004275E+03  0.00000000000E+00 0. -1.
          2    1    1    2  501    0 -0.66776717797E+02 -0.70800456806E+02 -0.22904011941E+03  0.24885982203E+03  0.00000000000E+00 0. -1.
<scales pt_clust_3="34.09063" pt_clust_4="47.69173" pt_clust_5="96.43526" pt_clust_6="14000.00000"></scales>
<clustering>
<clus scale="   34.091">  1  3  2 -1</clus>
<clus scale="   47.692">  2  4  1 -1</clus>
<clus scale="   96.435">  1  5  2 -1</clus>
<clus scale="   34.091">  1  3  2 -1</clus>
</clustering>
</event>
<event>
 6    0  0.4081161E+002  0.9073349E+02  0.7546771E-02  0.1301085E+00
          2   -1    0    0  502    0 -0.00000000000E+00  0.00000000000E+00  0.12862269803E+04  0.12862269803E+04  0.00000000000E+00 0.  1.
         21   -1    0    0  504  502  0.00000000000E+00 -0.00000000000E+00 -0.87938332809E+03  0.87938332809E+03  0.00000000000E+00 0. -1.
         21    1    1    2  503  505  0.25620050120E+01 -0.48860966174E+02 -0.27561653600E+03  0.27992576302E+03  0.00000000000E+00 0. -1.
         21    1    1    2  504  503  0.37213625694E+02  0.15517379457E+02 -0.59335667931E+03  0.59472497164E+03  0.00000000000E+00 0. -1.
         21    1    1    2  505  501  0.53235702770E+02 -0.22822707618E+02  0.16557816777E+03  0.17541677706E+03  0.00000000000E+00 0.  1.
          2    1    1    2  501    0 -0.93011333476E+02  0.56166294335E+02  0.11102386997E+04  0.11155427966E+04  0.00000000000E+00 0.  1.
<scales pt_clust_3="51.41932" pt_clust_4="40.31926" pt_clust_5="14000.00000" pt_clust_6="90.73349"></scales>
<clustering>
<clus scale="   40.319">  2  4  1 -1</clus>
<clus scale="   51.419">  2  3  1 -1</clus>
<clus scale="   90.733">  1  6  2 -1</clus>
<clus scale="   40.319">  2  3  1 -1</clus>
</clustering>
</event>
<event>
 6    0  0.4081161E+002  0.1439732E+03  0.7546771E-02  0.1208081E+00
          2   -1    0    0  503    0 -0.00000000000E+00  0.00000000000E+00  0.16599596435E+04  0.16599596435E+04  0.00000000000E+00 0.  1.
         21   -1    0    0  504  502  0.00000000000E+00 -0.00000000000E+00 -0.17528592878E+03  0.17528592878E+03  0.00000000000E+00 0.  1.
         21    1    1    2  503  502  0.24050564517E+02  0.76515359371E+02  0.19093318950E+03  0.20709541937E+03  0.00000000000E+00 0.  1.
         21    1    1    2  504  505 -0.52780927108E+02  0.23237612803E+02 -0.31863750740E+02  0.65887111990E+02  0.00000000000E+00 0.  1.
         21    1    1    2  505  501 -0.50008170535E+02 -0.13067429137E+03 -0.75242276747E+02  0.15886468379E+03  0.00000000000E+00 0.  1.
          2    1    1    2  501    0  0.78738533126E+02  0.30921319192E+02  0.14008465527E+04  0.14033983571E+04  0.00000000000E+00 0.  1.
<scales pt_clust_3="80.69481" pt_clust_4="57.66986" pt_clust_5="143.97319" pt_clust_6="14000.00000"></scales>
<clustering>
<clus scale="   57.670">  2  4  1 -1</clus>
<clus scale="   80.695">  1  3  2 -1</clus>
<clus scale="  143.973">  2  5  1 -1</clus>
<clus scale="   57.670">  2  3  1 -1</clus>
</clustering>
</event>
<event>
 6    0  0.4081161E+002  0.1613437E+03  0.7546771E-02  0.1187188E+00
         21   -1    0    0  504  502  0.00000000000E+00  0.00000000000E+00  0.43168919653E+03  0.43168919653E+03  0.00000000000E+00 0. -1.
         -1   -1    0    0    0  501 -0.00000000000E+00 -0.00000000000E+00 -0.17868173171E+03  0.17868173171E+03  0.00000000000E+00 0. -1.
         21    1    1    2  503  501 -0.23037179430E+02  0.43884132395E+02  0.14436297326E+02  0.51623012239E+02  0.00000000000E+00 0. -1.
         21    1    1    2  504  503  0.21082708481E+03 -0.15784447407E+02  0.22987948823E+03  0.31231680643E+03  0.00000000000E+00 0. -1.
         21    1    1    2  505  502 -0.55497239089E+02  0.12903441802E+02  0.73926470432E+02  0.93335766924E+02  0.00000000000E+00 0.  1.
         -1    1    1    2    0  505 -0.13229266629E+03 -0.41003126790E+02 -0.65234791161E+02  0.15309534264E+03  0.00000000000E+00 0. -1.
<scales pt_clust_3="49.56338" pt_clust_4="161.34374" pt_clust_5="58.98415" pt_clust_6="14000.00000"></scales>
<clustering>
<clus scale="   49.563">  2  3  1 -1</clus>
<clus scale="   58.984">  1  5  2 -1</clus>
<clus scale="  161.344">  1  4  2 -1</clus>
<clus scale="   58.984">  1  3  2 -1</clus>
</clustering>
</event>
<event>
 6    0  0.4081161E+002  0.9906368E+02  0.7546771E-02  0.1282277E+00
         21   -1    0    0  505  502  0.00000000000E+00  0.00000000000E+00  0.16751424317E+03  0.16751424317E+03  0.00000000000E+00 0.  1.
          2   -1    0    0  503    0 -0.00000000000E+00 -0.00000000000E+00 -0.14956299346E+04  0.14956299346E+04  0.00000000000E+00 0.  1.
         21    1    1    2  503  502  0.11217046552E+02  0.41775819129E+02 -0.24362409656E+03  0.24743431779E+03  0.00000000000E+00 0.  1.
         21    1    1    2  504  501 -0.99492799602E+02 -0.94637157843E+02 -0.98568800466E+02  0.16902904260E+03  0.00000000000E+00 0. -1.
         21    1    1    2  505  504  0.25756334681E+02  0.28969533696E+02  0.12646953601E+03  0.13227685436E+03  0.00000000000E+00 0.  1.
          2    1    1    2  501    0  0.62519418369E+02  0.23891805018E+02 -0.11123923304E+04  0.11144039630E+04  0.00000000000E+00 0.  1.
<scales pt_clust_3="44.99501" pt_clust_4="14000.00000" pt_clust_5="38.76368" pt_clust_6="99.06368"></scales>
<clustering>
<clus scale="   38.764">  1  5  2 -1</clus>
<clus scale="   44.995">  2  3  1 -1</clus>
<clus scale="   99.064">  2  6  1 -1</clus>
<clus scale="   38.764">  1  3  2 -1</clus>
</clustering>
</event>
<event>
 6    0  0.4081161E+002  0.1069604E+03  0.7546771E-02  0.1266305E+00
         21   -1    0    0  505  502  0.00000000000E+00  0.00000000000E+00  0.19151131515E+03  0.19151131515E+03  0.00000000000E+00 0. -1.
          1   -1    0    0  503    0 -0.00000000000E+00 -0.00000000000E+00 -0.29841943453E+03  0.29841943453E+03  0.00000000000E+00 0.  1.
         21    1    1    2  503  502  0.36374176310E+02 -0.54187351833E+02 -0.58516624086E+01  0.65525504606E+02  0.00000000000E+00 0. -1.
         21    1    1    2  504  501 -0.30068159457E+02  0.56010180991E+02 -0.10693332923E+03  0.12440245773E+03  0.00000000000E+00 0.  1.
         21    1    1    2  505  504 -0.14937261863E+02 -0.61470643385E+02  0.13963360604E+03  0.15329483268E+03  0.00000000000E+00 0. -1.
          1    1    1    2  501    0  0.86312450095E+01  0.59647814227E+02 -0.13375673378E+03  0.14670795467E+03  0.00000000000E+00 0.  1.
<scales pt_clust_3="98.52757" pt_clust_4="40.53195" pt_clust_5="63.25948" pt_clust_6="40.53195"></scales>
<clustering>
<clus scale="   40.532">  4  6 -1 -1</clus>
<clus scale="   63.259">  1  5  2 -1</clus>
<clus scale="   98.528">  1  3  2 -1</clus>
<clus scale="   63.259">  1  3  2 -1</clus>
</clustering>
</event>
<event>
 6    0  0.4081161E+002  0.7866022E+02  0.7546771E-02  0.1332897E+00
         21   -1    0    0  503  502  0.00000000000E+00  0.00000000000E+00  0.13548461783E+03  0.13548461783E+03  0.00000000000E+00 0.  1.
         -2   -1    0    0    0  501 -0.00000000000E+00 -0.00000000000E+00 -0.23391649001E+04  0.23391649001E+04  0.00000000000E+00 0. -1.
         21    1    1    2  503  505 -0.28658975671E+02  0.24505360738E+02  0.11260016248E+03  0.11874614176E+03  0.00000000000E+00 0.  1.
         21    1    1    2  504  502 -0.32707493796E+02 -0.87090727376E+01 -0.33200275331E+02  0.47411880161E+02  0.00000000000E+00 0.  1.
         21    1    1    2  505  501  0.10526605685E+03  0.47840329680E+02 -0.26739242561E+03  0.29132172789E+03  0.00000000000E+00 0. -1.
         -2    1    1    2    0  504 -0.43899587379E+02 -0.63636617680E+02 -0.20156877438E+04  0.20171697681E+04  0.00000000000E+00 0. -1.
<scales pt_clust_3="60.46920" pt_clust_4="33.84713" pt_clust_5="14000.00000" pt_clust_6="78.66022"></scales>
<clustering>
<clus scale="   33.847">  1  4  2 -1</clus>
<clus scale="   60.469">  1  3  2 -1</clus>
<clus scale="   78.660">  2  6  1 -1</clus>
<clus scale="   33.847">  1  3  2 -1</clus>
</clustering>
</event>
<event>
 6    0  0.4081161E+002  0.1138058E+03  0.7546771E-02  0.1253680E+00
         21   -1    0    0  503  502  0.00000000000E+00  0.00000000000E+00  0.42514589507E+02  0.42514589507E+02  0.00000000000E+00 0.  1.
          2   -1    0    0  504    0 -0.00000000000E+00 -0.00000000000E+00 -0.19501623336E+04  0.19501623336E+04  0.00000000000E+00 0.  1.
         21    1    1    2  503  501 -0.50959636604E+02 -0.96178646789E+02 -0.48712231237E+02  0.11924805295E+03  0.00000000000E+00 0.  1.
         21    1    1    2  504  505 -0.83796695474E+01  0.96750772822E+02 -0.15661497030E+04  0.15691576794E+04  0.00000000000E+00 0.  1.
         21    1    1    2  505  502  0.30949346378E+02 -0.19159903387E+02 -0.69828309927E+02  0.78746154232E+02  0.00000000000E+00 0.  1.
          2    1    1    2  501    0  0.28389959774E+02  0.18587777354E+02 -0.22295750001E+03  0.22552503651E+03  0.00000000000E+00 0.  1.
<scales pt_clust_3="14000.00000" pt_clust_4="113.80576" pt_clust_5="37.04156" pt_clust_6="33.93369"></scales>
<clustering>
<clus scale="   33.934">  2  6  1 -1</clus>
<clus scale="   37.042">  1  5  2 -1</clus>
<clus scale="  113.806">  2  4  1 -1</clus>
<clus scale="   37.042">  1  3  2 -1</clus>
</clustering>
</event>
<event>
 6    0  0.4081161E+002  0.1183573E+03  0.7546771E-02  0.1245832E+00
          1   -1    0    0  503    0 -0.00000000000E+00  0.00000000000E+00  0.86095613563E+03  0.86095613563E+03  0.00000000000E+00 0. -1.
         21   -1    0    0  505  502  0.00000000000E+00 -0.00000000000E+00 -0.48360478838E+03  0.48360478838E+03  0.00000000000E+00 0.  1.
         21    1    1    2  503  504  0.23303396779E+02 -0.84357552514E+02 -0.85219558324E+02  0.12215407520E+03  0.00000000000E+00 0.  1.
         21    1    1    2  504  502 -0.76278299657E+02 -0.24906269749E+02 -0.36529205671E+03  0.37400132081E+03  0.00000000000E+00 0.  1.
         21    1    1    2  505  501  0.33898676710E+02  0.14150775407E+03  0.59415420248E+03  0.61171298913E+03  0.00000000000E+00 0. -1.
          1    1    1    2  501    0  0.19076226168E+02 -0.32243931803E+02  0.23370875981E+03  0.23669253886E+03  0.00000000000E+00 0. -1.
<scales pt_clust_3="14000.00000" pt_clust_4="80.18537" pt_clust_5="118.35728" pt_clust_6="37.46430"></scales>
<clustering>
<clus scale="   37.464">  1  6  2 -1</clus>
<clus scale="   80.185">  2  4  1 -1</clus>
<clus scale="  118.357">  1  5  2 -1</clus>
<clus scale="   80.185">  2  3  1 -1</clus>
</clustering>
</event>
<event>
 6    0  0.4081161E+002  0.8653673E+02  0.7546771E-02  0.1311462E+00
         -1   -1    0    0    0  501 -0.00000000000E+00  0.00000000000E+00  0.82233515877E+03  0.82233515877E+03  0.00000000000E+00 0. -1.
         21   -1    0    0  505  502  0.00000000000E+00 -0.00000000000E+00 -0.37749979476E+03  0.37749979476E+03  0.00000000000E+00 0.  1.
         21    1    1    2  503  501  0.26632842916E+02 -0.63794979926E+02 -0.91346463954E+02  0.11455690404E+03  0.00000000000E+00 0.  1.
         21    1    1    2  504  502  0.80619479957E+02 -0.10384797101E+02  0.17298752146E+03  0.19113353222E+03  0.00000000000E+00 0.  1.
         21    1    1    2  505  503 -0.76250327993E+02  0.73095414567E+02 -0.25456380899E+03  0.27560802781E+03  0.00000000000E+00 0.  1.
         -1    1    1    2    0  504 -0.31001994880E+02  0.10843624609E+01  0.61775811550E+03  0.61853648946E+03  0.00000000000E+00 0. -1.
<scales pt_clust_3="14000.00000" pt_clust_4="53.80771" pt_clust_5="86.53673" pt_clust_6="31.02095"></scales>
<clustering>
<clus scale="   31.021">  1  6  2 -1</clus>
<clus scale="   53.808">  1  4  2 -1</clus>
<clus scale="   86.537">  2  5  1 -1</clus>
<clus scale="   86.537">  2  3  1 -1</clus>
</clustering>
</event>
<event>
 6    0  0.4081161E+002  0.1405776E+03  0.7546771E-02  0.1212554E+00
         21   -1    0    0  503  502  0.00000000000E+00  0.00000000000E+00  0.41791889656E+03  0.41791889656E+03  0.00000000000E+00 0. -1.
          1   -1    0    0  505    0 -0.00000000000E+00 -0.00000000000E+00 -0.62998117369E+03  0.62998117369E+03  0.00000000000E+00 0.  1.
         21    1    1    2  503  504  0.32873318355E+02 -0.70012360032E+02  0.18522663161E+02  0.79532852756E+02  0.00000000000E+00 0.  1.
         21    1    1    2  504  501 -0.45666681853E+02 -0.54489444681E+02 -0.22009987078E+03  0.23129742440E+03  0.00000000000E+00 0.  1.
         21    1    1    2  505  502  0.51037761423E+02  0.17526360539E+03  0.33729862087E+03  0.38352645816E+03  0.00000000000E+00 0. -1.
          1    1    1    2  501    0 -0.38244397924E+02 -0.50761800680E+02 -0.34778369038E+03  0.35354333494E+03  0.00000000000E+00 0.  1.
<scales pt_clust_3="77.34588" pt_clust_4="35.73016" pt_clust_5="135.40306" pt_clust_6="35.73016"></scales>
<clustering>
<clus scale="   35.730">  4  6 -1 -1</clus>
<clus scale="   77.346">  1  3  2 -1</clus>
<clus scale="  135.403">  1  5  2 -1</clus>
<clus scale="   77.346">  1  3  2 -1</clus>
</clustering>
</event>
<event>
 6    0  0.4081161E+002  0.1493728E+03  0.7546771E-02  0.1201246E+00
         21   -1    0    0  505  502  0.00000000000E+00  0.00000000000E+00  0.20859775182E+03  0.20859775182E+03  0.00000000000E+00 0.  1.
         -1   -1    0    0    0  501 -0.00000000000E+00 -0.00000000000E+00 -0.20142145178E+04  0.20142145178E+04  0.00000000000E+00 0. -1.
         21    1    1    2  503  502  0.64134383158E+02 -0.90720066940E+02 -0.22064774125E+03  0.24704002786E+03  0.00000000000E+00 0.  1.
         21    1    1    2  504  501 -0.71164672807E+02  0.14447027720E+03  0.89393475301E+02  0.18419355330E+03  0.00000000000E+00 0.  1.
         21    1    1    2  505  504 -0.42311143177E+02 -0.31602548095E+02  0.46199672794E+02  0.70166684753E+02  0.00000000000E+00 0.  1.
         -1    1    1    2    0  503  0.49341432826E+02 -0.22147662168E+02 -0.17205621728E+04  0.17214120037E+04  0.00000000000E+00 0. -1.
<scales pt_clust_3="149.37276" pt_clust_4="14000.00000" pt_clust_5="52.81055" pt_clust_6="54.01183"></scales>
<clustering>
<clus scale="   52.811">  1  5  2 -1</clus>
<clus scale="   54.012">  2  6  1 -1</clus>
<clus scale="  149.373">  2  3  1 -1</clus>
<clus scale="   52.811">  1  3  2 -1</clus>
</clustering>
</event>
<event>
 6    0  0.4081161E+002  0.7659023E+02  0.7546771E-02  0.1339016E+00
         21   -1    0    0  503  502  0.00000000000E+00  0.00000000000E+00  0.87933008106E+03  0.87933008106E+03  0.00000000000E+00 0.  1.
          2   -1    0    0  504    0 -0.00000000000E+00 -0.00000000000E+00 -0.26526983393E+04  0.26526983393E+04  0.00000000000E+00 0. -1.
         21    1    1    2  503  505 -0.74374566719E+01  0.50377394292E+02  0.83870912582E+03  0.84025364942E+03  0.00000000000E+00 0.  1.
         21    1    1    2  504  502 -0.59263844305E+01  0.30147529420E+02 -0.20275431405E+03  0.20506903089E+03  0.00000000000E+00 0.  1.
         21    1    1    2  505  501 -0.41322428425E+02 -0.10831480131E+03 -0.49449890802E+02  0.12603543539E+03  0.00000000000E+00 0. -1.
          2    1    1    2  501    0  0.54686269528E+02  0.27789877599E+02 -0.23598731793E+04  0.23606703047E+04  0.00000000000E+00 0. -1.
<scales pt_clust_3="50.93313" pt_clust_4="30.72451" pt_clust_5="14000.00000" pt_clust_6="76.59023"></scales>
<clustering>
<clus scale="   30.725">  2  4  1 -1</clus>
<clus scale="   50.933">  1  3  2 -1</clus>
<clus scale="   76.590">  2  6  1 -1</clus>
<clus scale="   50.933">  1  3  2 -1</clus>
</clustering>
</event>
<event>
 6    0  0.4081161E+002  0.8864495E+02  0.7546771E-02  0.1306167E+00
         21   -1    0    0  504  502  0.00000000000E+00  0.00000000000E+00  0.52978584259E+02  0.52978584259E+02  0.00000000000E+00 0.  1.
          1   -1    0    0  505    0 -0.00000000000E+00 -0.00000000000E+00 -0.67761100566E+03  0.67761100566E+03  0.00000000000E+00 0.  1.
         21    1    1    2  503  502 -0.61152822952E+02  0.32313089442E+02 -0.53785346949E+01  0.69373857754E+02  0.00000000000E+00 0.  1.
         21    1    1    2  504  501 -0.26266476267E+02 -0.15078469902E+02 -0.11250082694E+02  0.32308704565E+02  0.00000000000E+00 0.  1.
         21    1    1    2  505  503 -0.35305632003E+02  0.24092885898E+01 -0.10620974578E+03  0.11194999965E+03  0.00000000000E+00 0. -1.
          1    1    1    2  501    0  0.12272493122E+03 -0.19643908129E+02 -0.50179405824E+03  0.51695702796E+03  0.00000000000E+00 0.  1.
<scales pt_clust_3="88.64495" pt_clust_4="30.28676" pt_clust_5="37.10762" pt_clust_6="14000.00000"></scales>
<clustering>
<clus scale="   30.287">  1  4  2 -1</clus>
<clus scale="   37.108">  2  5  1 -1</clus>
<clus scale="   88.645">  1  3  2 -1</clus>
<clus scale="   30.287">  1  3  2 -1</clus>
</clustering>
</event>
<event>
 6    0  0.4081161E+002  0.1510633E+03  0.7546771E-02  0.1199173E+00
         21   -1    0    0  503  502  0.00000000000E+00  0.00000000000E+00  0.28102544324E+03  0.28102544324E+03  0.00000000000E+00 0.  1.
          1   -1    0    0  505    0 -0.00000000000E+00 -0.00000000000E+00 -0.64205166007E+03  0.64205166007E+03  0.00000000000E+00 0.  1.
         21    1    1    2  503  501  0.26998594129E+02  0.29362045024E+02 -0.16414885687E+00  0.39888353160E+02  0.00000000000E+00 0. -1.
         21    1    1    2  504  502 -0.26947915724E+02 -0.17941419236E+03  0.20768478423E+03  0.27576912841E+03  0.00000000000E+00 0.  1.
         21    1    1    2  505  504 -0.57141829073E+02  0.15252381355E+02 -0.96375665720E+02  0.11307560617E+03  0.00000000000E+00 0.  1.
          1    1    1    2  501    0  0.57091150668E+02  0.13479976598E+03 -0.47217118648E+03  0.49434401558E+03  0.00000000000E+00 0.  1.
<scales pt_clust_3="39.88802" pt_clust_4="151.06327" pt_clust_5="58.56139" pt_clust_6="14000.00000"></scales>
<clustering>
<clus scale="   39.888">  1  3  2 -1</clus>
<clus scale="   58.561">  2  5  1 -1</clus>
<clus scale="  151.063">  1  4  2 -1</clus>
<clus scale="   39.888">  1  3  2 -1</clus>
</clustering>
</event>
<event>
 6    0  0.4081161E+002  0.1484523E+03  0.7546771E-02  0.1202388E+00
          2   -1    0    0  505    0 -0.00000000000E+00  0.00000000000E+00  0.12936307304E+04  0.12936307304E+04  0.00000000000E+00 0. -1.
         21   -1    0    0  503  502  0.00000000000E+00 -0.00000000000E+00 -0.39435852597E+02  0.39435852597E+02  0.00000000000E+00 0. -1.
         21    1    1    2  503  504  0.56575307431E+02  0.12503110340E+03  0.15494695925E+03  0.20698333848E+03  0.00000000000E+00 0. -1.
         21    1    1    2  504  501 -0.11628205775E+02 -0.39429011676E+02  0.17796629660E+03  0.18265230592E+03  0.00000000000E+00 0. -1.
         21    1    1    2  505  502 -0.29287410430E+02  0.14330594260E+02  0.24050551358E+02  0.40516013651E+02  0.00000000000E+00 0. -1.
          2    1    1    2  501    0 -0.15659691226E+02 -0.99932685980E+02  0.89723107060E+03  0.90291492496E+03  0.00000000000E+00 0. -1.
<scales pt_clust_3="140.70376" pt_clust_4="30.17517" pt_clust_5="32.60550" pt_clust_6="30.17517"></scales>
<clustering>
<clus scale="   30.175">  4  6 -1 -1</clus>
<clus scale="   32.605">  2  5  1 -1</clus>
<clus scale="  140.704">  2  3  1 -1</clus>
<clus scale="   32.605">  2  3  1 -1</clus>
</clustering>
</event>
<event>
 6    0  0.6547297E+002  0.1365648E+03  0.7546771E-02  0.1218027E+00
         21   -1    0    0  504  502  0.00000000000E+00  0.00000000000E+00  0.25866493555E+03  0.25866493555E+03  0.00000000000E+00 0. -1.
         -2   -1    0    0    0  501 -0.00000000000E+00 -0.00000000000E+00 -0.18497852989E+04  0.18497852989E+04  0.00000000000E+00 0. -1.
         21    1    1    2  503  505 -0.38743165704E+02  0.47447098155E+02 -0.15593131621E+02  0.63209222158E+02  0.00000000000E+00 0.  1.
         21    1    1    2  504  501 -0.40623444584E+02  0.99972351094E+02  0.21090253916E+03  0.23690634491E+03  0.00000000000E+00 0. -1.
         21    1    1    2  505  502  0.12816928432E+02 -0.27768487713E+02 -0.19857521146E+02  0.36464828402E+02  0.00000000000E+00 0. -1.
         -2    1    1    2    0  503  0.66549681857E+02 -0.11965096154E+03 -0.17665722497E+04  0.17718698390E+04  0.00000000000E+00 0. -1.
<scales pt_clust_3="58.44395" pt_clust_4="14000.00000" pt_clust_5="30.58370" pt_clust_6="136.56484"></scales>
<clustering>
<clus scale="   30.584">  1  5  2 -1</clus>
<clus scale="   58.444">  1  3  2 -1</clus>
<clus scale="  136.565">  2  6  1 -1</clus>
<clus scale="   30.584">  1  3  2 -1</clus>
</clustering>
</event>
<event>
 6    0  0.4081161E+002  0.7282055E+02  0.7546771E-02  0.1350756E+00
         21   -1    0    0  504  502  0.00000000000E+00  0.00000000000E+00  0.92363969851E+02  0.92363969851E+02  0.00000000000E+00 0.  1.
         -3   -1    0    0    0  501 -0.00000000000E+00 -0.00000000000E+00 -0.94762033409E+03  0.94762033409E+03  0.00000000000E+00 0.  1.
         21    1    1    2  503  502  0.10081786822E+03  0.13748276560E+02  0.28184919198E+02  0.10558241961E+03  0.00000000000E+00 0.  1.
         21    1    1    2  504  505 -0.31440579301E+02 -0.22804527738E+02  0.15920137738E+01  0.38872754211E+02  0.00000000000E+00 0. -1.
         21    1    1    2  505  501  0.13110486262E+02 -0.30835384698E+02 -0.10711834126E+03  0.11223655747E+03  0.00000000000E+00 0. -1.
         -3    1    1    2    0  503 -0.82487775180E+02  0.39891635875E+02 -0.77791495595E+03  0.78329257265E+03  0.00000000000E+00 0.  1.
<scales pt_clust_3="14000.00000" pt_clust_4="39.01356" pt_clust_5="33.50680" pt_clust_6="72.82055"></scales>
<clustering>
<clus scale="   33.507">  2  5  1 -1</clus>
<clus scale="   39.014">  1  4  2 -1</clus>
<clus scale="   72.821">  2  6  1 -1</clus>
<clus scale="   39.014">  1  3  2 -1</clus>
</clustering>
</event>
<event>
 6    0  0.4081161E+002  0.1147860E+03  0.7546771E-02  0.1251955E+00
         -2   -1    0    0    0  501 -0.00000000000E+00  0.00000000000E+00  0.22061068102E+03  0.22061068102E+03  0.00000000000E+00 0. -1.
         21   -1    0    0  505  502  0.00000000000E+00 -0.00000000000E+00 -0.27930404044E+03  0.27930404044E+03  0.00000000000E+00 0. -1.
         21    1    1    2  503  502  0.86940371872E+02  0.53503583429E+02 -0.61047614622E+02  0.11894567227E+03  0.00000000000E+00 0. -1.
         21    1    1    2  504  503 -0.31194854126E+02 -0.28230769578E+02  0.47920442133E+02  0.63768832898E+02  0.00000000000E+00 0. -1.
         21    1    1    2  505  501 -0.56803444735E+02  0.51639259983E+02 -0.16106963782E+03  0.17842834061E+03  0.00000000000E+00 0. -1.
         -2    1    1    2    0  504  0.10579269896E+01 -0.76912073834E+02  0.11550345089E+03  0.13877187567E+03  0.00000000000E+00 0. -1.
<scales pt_clust_3="104.03700" pt_clust_4="35.86831" pt_clust_5="76.76747" pt_clust_6="35.86831"></scales>
<clustering>
<clus scale="   35.868">  4  6 -1 -1</clus>
<clus scale="   76.767">  2  5  1 -1</clus>
<clus scale="  104.037">  2  3  1 -1</clus>
<clus scale="   76.767">  2  3  1 -1</clus>
</clustering>
</event>
<event>
 6    0  0.4081161E+002  0.1117369E+03  0.7546771E-02  0.1257387E+00
         21   -1    0    0  504  502  0.00000000000E+00  0.00000000000E+00  0.14241300827E+03  0.14241300827E+03  0.00000000000E+00 0. -1.
          2   -1    0    0  503    0 -0.00000000000E+00 -0.00000000000E+00 -0.21571075175E+04  0.21571075175E+04  0.00000000000E+00 0.  1.
         21    1    1    2  503  505 -0.46551872482E+01  0.31789553936E+02 -0.49275378320E+03  0.49380009859E+03  0.00000000000E+00 0. -1.
         21    1    1    2  504  501 -0.62405708843E+02  0.43446190553E+02  0.11566089392E+03  0.13841779637E+03  0.00000000000E+00 0. -1.
         21    1    1    2  505  502 -0.28873334036E+02 -0.11890366108E+03 -0.27941390351E+03  0.30503094845E+03  0.00000000000E+00 0. -1.
          2    1    1    2  501    0  0.95934230127E+02  0.43667916595E+02 -0.13581877165E+04  0.13622716824E+04  0.00000000000E+00 0.  1.
<scales pt_clust_3="32.12859" pt_clust_4="76.19026" pt_clust_5="111.73687" pt_clust_6="14000.00000"></scales>
<clustering>
<clus scale="   32.129">  2  3  1 -1</clus>
<clus scale="   76.190">  1  4  2 -1</clus>
<clus scale="  111.737">  1  5  2 -1</clus>
<clus scale="   76.190">  1  3  2 -1</clus>
</clustering>
</event>
<event>
 6    0  0.4081161E+002  0.2321312E+03  0.7546771E-02  0.1125149E+00
         21   -1    0    0  505  502  0.00000000000E+00  0.00000000000E+00  0.32729760248E+03  0.32729760248E+03  0.00000000000E+00 0.  1.
          1   -1    0    0  504    0 -0.00000000000E+00 -0.00000000000E+00 -0.23978185540E+04  0.23978185540E+04  0.00000000000E+00 0.  1.
         21    1    1    2  503  502  0.77994698635E+02  0.78495529461E+02  0.98290785785E+02  0.14800608005E+03  0.00000000000E+00 0.  1.
         21    1    1    2  504  503  0.16887717774E+02 -0.28701737976E+02 -0.74253987643E+02  0.81379600978E+02  0.00000000000E+00 0. -1.
         21    1    1    2  505  501 -0.22279750271E+03  0.10549989822E+03  0.11852086321E+03  0.27352541153E+03  0.00000000000E+00 0.  1.
          1    1    1    2  501    0  0.12791508630E+03 -0.15529368971E+03 -0.22130786129E+04  0.22222050639E+04  0.00000000000E+00 0.  1.
<scales pt_clust_3="110.56580" pt_clust_4="33.30142" pt_clust_5="14000.00000" pt_clust_6="232.13118"></scales>
<clustering>
<clus scale="   33.301">  2  4  1 -1</clus>
<clus scale="  110.566">  1  3  2 -1</clus>
<clus scale="  232.131">  2  6  1 -1</clus>
<clus scale="  110.566">  1  3  2 -1</clus>
</clustering>
</event>
<event>
 6    0  0.4081161E+002  0.7517739E+02  0.7546771E-02  0.1343323E+00
         21   -1    0    0  505  502  0.00000000000E+00  0.00000000000E+00  0.19957807228E+03  0.19957807228E+03  0.00000000000E+00 0.  1.
          1   -1    0    0  504    0 -0.00000000000E+00 -0.00000000000E+00 -0.46434990739E+03  0.46434990739E+03  0.00000000000E+00 0. -1.
         21    1    1    2  503  502 -0.59020866513E+02 -0.46480550303E+02  0.15675508779E+03  0.17382767843E+03  0.00000000000E+00 0.  1.
         21    1    1    2  504  503 -0.27610134409E+01  0.12286961021E+03 -0.18687295285E+03  0.22366507285E+03  0.00000000000E+00 0. -1.
         21    1    1    2  505  501  0.45439629175E+02 -0.30149958329E+02 -0.45482478737E+02  0.71010110258E+02  0.00000000000E+00 0. -1.
          1    1    1    2  501    0  0.16342250779E+02 -0.46239101574E+02 -0.18917149130E+03  0.19542511813E+03  0.00000000000E+00 0. -1.
<scales pt_clust_3="75.17739" pt_clust_4="14000.00000" pt_clust_5="63.23734" pt_clust_6="49.04206"></scales>
<clustering>
<clus scale="   49.042">  2  6  1 -1</clus>
<clus scale="   63.237">  2  5  1 -1</clus>
<clus scale="   75.177">  1  3  2 -1</clus>
<clus scale="   75.177">  1  3  2 -1</clus>
</clustering>
</event>
<event>
 6    0  0.4081161E+002  0.1617819E+03  0.7546771E-02  0.1186700E+00
         21   -1    0    0  504  502  0.00000000000E+00  0.00000000000E+00  0.37472421028E+03  0.37472421028E+03  0.00000000000E+00 0.  1.
          2   -1    0    0  505    0 -0.00000000000E+00 -0.00000000000E+00 -0.13239624380E+04  0.13239624380E+04  0.00000000000E+00 0.  1.
         21    1    1    2  503  501 -0.16446656050E+03  0.73392579319E+02 -0.65029635959E+02  0.19147995659E+03  0.00000000000E+00 0.  1.
         21    1    1    2  504  503  0.66574276856E+02 -0.85512625091E+02  0.12286151797E+03  0.16382764110E+03  0.00000000000E+00 0.  1.
         21    1    1    2  505  502 -0.25474979006E+02  0.11511635231E+03  0.14118038973E+03  0.18393654224E+03  0.00000000000E+00 0.  1.
          2    1    1    2  501    0  0.12336726265E+03 -0.10299630654E+03 -0.11482504994E+04  0.11594425083E+04  0.00000000000E+00 0.  1.
<scales pt_clust_3="14000.00000" pt_clust_4="108.37224" pt_clust_5="59.01540" pt_clust_6="161.78191"></scales>
<clustering>
<clus scale="  108.372">  1  4  2 -1</clus>
<clus scale="   59.015">  1  5  2 -1</clus>
<clus scale="  161.782">  2  6  1 -1</clus>
<clus scale="  108.372">  1  3  2 -1</clus>
</clustering>
</event>
<event>
 6    0  0.9910558E+002  0.8129823E+02  0.7546771E-02  0.1325407E+00
          1   -1    0    0  505    0 -0.00000000000E+00  0.00000000000E+00  0.18508414918E+04  0.18508414918E+04  0.00000000000E+00 0. -1.
         21   -1    0    0  503  502  0.00000000000E+00 -0.00000000000E+00 -0.69689703326E+03  0.69689703326E+03  0.00000000000E+00 0. -1.
         21    1    1    2  503  504  0.81850015967E+02 -0.58018651844E+02  0.70435387394E+02  0.12258357505E+03  0.00000000000E+00 0.  1.
         21    1    1    2  504  501 -0.23952096650E+01  0.38231737501E+02  0.35964219185E+03  0.36167652528E+03  0.00000000000E+00 0.  1.
         21    1    1    2  505  502 -0.80226936823E+02 -0.14729107838E+02 -0.66710748413E+03  0.67207566791E+03  0.00000000000E+00 0. -1.
          1    1    1    2  501    0  0.77213052027E+00  0.34516022181E+02  0.13909743634E+04  0.13914027568E+04  0.00000000000E+00 0. -1.
<scales pt_clust_3="14000.00000" pt_clust_4="65.33869" pt_clust_5="81.29823" pt_clust_6="34.52466"></scales>
<clustering>
<clus scale="   34.525">  1  6  2 -1</clus>
<clus scale="   65.339">  1  4  2 -1</clus>
<clus scale="   81.298">  2  5  1 -1</clus>
<clus scale="   81.298">  2  3  1 -1</clus>
</clustering>
</event>
<event>
 6    0  0.4081161E+002  0.2323652E+03  0.7546771E-02  0.1124986E+00
         21   -1    0    0  504  502  0.00000000000E+00  0.00000000000E+00  0.77117896920E+02  0.77117896920E+02  0.00000000000E+00 0. -1.
         -4   -1    0    0    0  501 -0.00000000000E+00 -0.00000000000E+00 -0.97898731860E+03  0.97898731860E+03  0.00000000000E+00 0.  1.
         21    1    1    2  503  505  0.67074924182E+02  0.83771661957E+02 -0.21558547714E+03  0.24081909134E+03  0.00000000000E+00 0. -1.
         21    1    1    2  504  501  0.20728808993E+02 -0.27865218155E+02 -0.25852601680E+02  0.43295622397E+02  0.00000000000E+00 0. -1.
         21    1    1    2  505  502 -0.15267258817E+03 -0.15027225838E+03 -0.18526406563E+03  0.28321978185E+03  0.00000000000E+00 0. -1.
         -4    1    1    2    0  503  0.64868854998E+02  0.94365814581E+02 -0.47516727723E+03  0.48877071993E+03  0.00000000000E+00 0.  1.
<scales pt_clust_3="74.95484" pt_clust_4="34.72973" pt_clust_5="219.02917" pt_clust_6="74.95484"></scales>
<clustering>
<clus scale="   34.730">  1  4  2 -1</clus>
<clus scale="   74.955">  3  6 -1 -1</clus>
<clus scale="  219.029">  1  5  2 -1</clus>
<clus scale="   34.730">  1  3  2 -1</clus>
</clustering>
</event>
<event>
 6    0  0.4081161E+002  0.1505897E+03  0.7546771E-02  0.1199750E+00
          1   -1    0    0  504    0 -0.00000000000E+00  0.00000000000E+00  0.21208750338E+04  0.21208750338E+04  0.00000000000E+00 0. -1.
         21   -1    0    0  505  502  0.00000000000E+00 -0.00000000000E+00 -0.88107082507E+02  0.88107082507E+02  0.00000000000E+00 0. -1.
         21    1    1    2  503  502 -0.95173067060E+02 -0.76334382012E+02  0.10250617670E+03  0.15934982533E+03  0.00000000000E+00 0. -1.
         21    1    1    2  504  503  0.22521912908E+02  0.89209300471E+02  0.66991579524E+03  0.67620463512E+03  0.00000000000E+00 0. -1.
         21    1    1    2  505  501 -0.42346478933E+02 -0.22427318577E+02 -0.43360291777E+02  0.64624482973E+02  0.00000000000E+00 0. -1.
          1    1    1    2  501    0  0.11499763308E+03  0.95524001183E+01  0.13037062711E+04  0.13088031729E+04  0.00000000000E+00 0. -1.
<scales pt_clust_3="150.58967" pt_clust_4="89.10897" pt_clust_5="47.91877" pt_clust_6="14000.00000"></scales>
<clustering>
<clus scale="   47.919">  2  5  1 -1</clus>
<clus scale="   89.109">  1  4  2 -1</clus>
<clus scale="  150.590">  2  3  1 -1</clus>
<clus scale="   47.919">  2  3  1 -1</clus>
</clustering>
</event>
<event>
 6    0  0.4081161E+002  0.8265188E+02  0.7546771E-02  0.1321690E+00
          2   -1    0    0  504    0 -0.00000000000E+00  0.00000000000E+00  0.63934092044E+03  0.63934092044E+03  0.00000000000E+00 0.  1.
         21   -1    0    0  503  502  0.00000000000E+00 -0.00000000000E+00 -0.38044978401E+02  0.38044978401E+02  0.00000000000E+00 0.  1.
         21    1    1    2  503  501  0.50498302693E+02 -0.30091784448E+02  0.64823009076E+02  0.87507808633E+02  0.00000000000E+00 0.  1.
         21    1    1    2  504  505  0.23492767082E+02  0.24415929911E+02  0.81720117500E+02  0.88465955841E+02  0.00000000000E+00 0.  1.
         21    1    1    2  505  502 -0.13019008379E+03  0.23438162134E+02  0.19899903367E+03  0.23895485089E+03  0.00000000000E+00 0.  1.
          2    1    1    2  501    0  0.56199014019E+02 -0.17762307597E+02  0.25575378179E+03  0.26245728348E+03  0.00000000000E+00 0.  1.
<scales pt_clust_3="60.01167" pt_clust_4="33.88285" pt_clust_5="14000.00000" pt_clust_6="82.65188"></scales>
<clustering>
<clus scale="   33.883">  1  4  2 -1</clus>
<clus scale="   60.012">  2  3  1 -1</clus>
<clus scale="   82.652">  1  6  2 -1</clus>
<clus scale="   60.012">  2  3  1 -1</clus>
</clustering>
</event>
<event>
 6    0  0.4081161E+002  0.7304911E+02  0.7546771E-02  0.1350021E+00
         21   -1    0    0  505  502  0.00000000000E+00  0.00000000000E+00  0.12203186416E+04  0.12203186416E+04  0.00000000000E+00 0. -1.
          2   -1    0    0  503    0 -0.00000000000E+00 -0.00000000000E+00 -0.11536179210E+04  0.11536179210E+04  0.00000000000E+00 0.  1.
         21    1    1    2  503  504 -0.12903949547E+02 -0.96517015086E+02 -0.49897054835E+02  0.10941554824E+03  0.00000000000E+00 0. -1.
         21    1    1    2  504  502  0.65571185505E+02  0.31344344283E+02  0.71945876555E+03  0.72312029678E+03  0.00000000000E+00 0. -1.
         21    1    1    2  505  501 -0.45775690601E+02 -0.66512253840E+01  0.46691174855E+03  0.46919743561E+03  0.00000000000E+00 0. -1.
          2    1    1    2  501    0 -0.68915453570E+01  0.71823896188E+02 -0.10697727387E+04  0.10722032820E+04  0.00000000000E+00 0.  1.
<scales pt_clust_3="14000.00000" pt_clust_4="33.06639" pt_clust_5="46.25638" pt_clust_6="73.04911"></scales>
<clustering>
<clus scale="   46.256">  1  5  2 -1</clus>
<clus scale="   33.066">  1  4  2 -1</clus>
<clus scale="   73.049">  2  6  1 -1</clus>
<clus scale="   46.256">  1  3  2 -1</clus>
</clustering>
</event>
<event>
 6    0  0.4081161E+002  0.1227056E+03  0.7546771E-02  0.1238699E+00
          1   -1    0    0  505    0 -0.00000000000E+00  0.00000000000E+00  0.83791069876E+03  0.83791069876E+03  0.00000000000E+00 0.  1.
         21   -1    0    0  503  502  0.00000000000E+00 -0.00000000000E+00 -0.12914435167E+03  0.12914435167E+03  0.00000000000E+00 0.  1.
         21    1    1    2  503  504  0.52665298447E+02 -0.34009816917E+01 -0.11264806750E+02  0.53963841673E+02  0.00000000000E+00 0.  1.
         21    1    1    2  504  501  0.10164036735E+03  0.23901491000E+02  0.82765053434E+02  0.13323700543E+03  0.00000000000E+00 0.  1.
         21    1    1    2  505  502 -0.30657403797E+02  0.77886985328E+01 -0.61772805354E+02  0.69400430213E+02  0.00000000000E+00 0. -1.
          1    1    1    2  501    0 -0.12364826200E+03 -0.28289207841E+02  0.69903890576E+03  0.71045377312E+03  0.00000000000E+00 0.  1.
<scales pt_clust_3="36.93841" pt_clust_4="14000.00000" pt_clust_5="31.63132" pt_clust_6="122.70560"></scales>
<clustering>
<clus scale="   31.631">  2  5  1 -1</clus>
<clus scale="   36.938">  2  3  1 -1</clus>
<clus scale="  122.706">  1  6  2 -1</clus>
<clus scale="   31.631">  2  3  1 -1</clus>
</clustering>
</event>
<event>
 6    0  0.4081161E+002  0.1240916E+03  0.7546771E-02  0.1236496E+00
         21   -1    0    0  505  502  0.00000000000E+00  0.00000000000E+00  0.79210939252E+02  0.79210939252E+02  0.00000000000E+00 0. -1.
          2   -1    0    0  503    0 -0.00000000000E+00 -0.00000000000E+00 -0.20093176888E+04  0.20093176888E+04  0.00000000000E+00 0.  1.
         21    1    1    2  503  504 -0.32817466805E+02  0.90329058811E+02 -0.74577903416E+03  0.75194593741E+03  0.00000000000E+00 0.  1.
         21    1    1    2  504  502 -0.10730327090E+03 -0.21777473318E+02 -0.66999315310E+01  0.10969566707E+03  0.00000000000E+00 0. -1.
         21    1    1    2  505  501  0.25808660825E+02 -0.86599729320E+02 -0.72870918349E+02  0.11608518783E+03  0.00000000000E+00 0. -1.
          2    1    1    2  501    0  0.11431207688E+03  0.18048143827E+02 -0.11047568655E+04  0.11108018357E+04  0.00000000000E+00 0.  1.
<scales pt_clust_3="91.27757" pt_clust_4="14000.00000" pt_clust_5="90.36371" pt_clust_6="124.09155"></scales>
<clustering>
<clus scale="   90.364">  1  5  2 -1</clus>
<clus scale="   91.278">  2  3  1 -1</clus>
<clus scale="  124.092">  2  6  1 -1</clus>
<clus scale="   90.364">  1  3  2 -1</clus>
</clustering>
</event>
<event>
 6    0  0.4081161E+002  0.1812683E+03  0.7546771E-02  0.1166581E+00
         -1   -1    0    0    0  501 -0.00000000000E+00  0.00000000000E+00  0.15403194189E+03  0.15403194189E+03  0.00000000000E+00 0.  1.
         21   -1    0    0  501  502  0.00000000000E+00 -0.00000000000E+00 -0.73600383760E+03  0.73600383760E+03  0.00000000000E+00 0.  1.
         21    1    1    2  503  505 -0.15658985595E+01 -0.45071647265E+02  0.18377214616E+02  0.48699357722E+02  0.00000000000E+00 0.  1.
         21    1    1    2  504  502 -0.12500730837E+01  0.79056728507E+02 -0.19686675900E+03  0.21215100708E+03  0.00000000000E+00 0. -1.
         21    1    1    2  505  504  0.10957309841E+03  0.61276310130E+02 -0.45888908623E+03  0.47575229221E+03  0.00000000000E+00 0.  1.
         -1    1    1    2    0  503 -0.10675712677E+03 -0.95261391371E+02  0.55406734913E+02  0.15343312249E+03  0.00000000000E+00 0.  1.
<scales pt_clust_3="35.44661" pt_clust_4="79.06661" pt_clust_5="169.91754" pt_clust_6="35.44661"></scales>
<clustering>
<clus scale="   35.447">  3  6 -1 -1</clus>
<clus scale="   79.067">  2  4  1 -1</clus>
<clus scale="  169.918">  2  5  1 -1</clus>
<clus scale="   79.067">  2  3  1 -1</clus>
</clustering>
</event>
<event>
 6    0  0.4081161E+002  0.1085343E+03  0.7546771E-02  0.1263308E+00
          2   -1    0    0  504    0 -0.00000000000E+00  0.00000000000E+00  0.16502106962E+04  0.16502106962E+04  0.00000000000E+00 0.  1.
         21   -1    0    0  505  502  0.00000000000E+00 -0.00000000000E+00 -0.14258901450E+03  0.14258901450E+03  0.00000000000E+00 0. -1.
         21    1    1    2  503  502  0.11330433571E+03  0.74651830953E+02 -0.17072677704E+01  0.13569702694E+03  0.00000000000E+00 0. -1.
         21    1    1    2  504  503 -0.17549634211E+02 -0.39656835381E+02  0.14760109971E+03  0.15383997819E+03  0.00000000000E+00 0. -1.
         21    1    1    2  505  501 -0.62036808849E+02 -0.74224248161E+02 -0.37006170760E+02  0.10357249317E+03  0.00000000000E+00 0. -1.
          2    1    1    2  501    0 -0.33717892654E+02  0.39229252589E+02  0.13987340205E+04  0.13996902124E+04  0.00000000000E+00 0.  1.
<scales pt_clust_3="108.53431" pt_clust_4="43.36651" pt_clust_5="14000.00000" pt_clust_6="50.14326"></scales>
<clustering>
<clus scale="   43.367">  1  4  2 -1</clus>
<clus scale="   50.143">  1  6  2 -1</clus>
<clus scale="  108.534">  1  3  2 -1</clus>
<clus scale="  108.534">  2  3  1 -1</clus>
</clustering>
</event>
<event>
 6    0  0.4081161E+002  0.1045414E+03  0.7546771E-02  0.1271026E+00
          2   -1    0    0  504    0 -0.00000000000E+00  0.00000000000E+00  0.80735351140E+03  0.80735351140E+03  0.00000000000E+00 0. -1.
         21   -1    0    0  505  502  0.00000000000E+00 -0.00000000000E+00 -0.19671075059E+03  0.19671075059E+03  0.00000000000E+00 0. -1.
         21    1    1    2  503  501  0.24738253879E+02  0.73362745447E+02  0.87525369390E+02  0.11685360034E+03  0.00000000000E+00 0.  1.
         21    1    1    2  504  502  0.45337530881E+02 -0.14660239009E+03  0.26203332433E+03  0.30365970353E+03  0.00000000000E+00 0.  1.
         21    1    1    2  505  503 -0.31813033626E+02  0.43108013182E+02 -0.15532406050E+03  0.16430439336E+03  0.00000000000E+00 0. -1.
          2    1    1    2  501    0 -0.38262751134E+02  0.30131631463E+02  0.41640812759E+03  0.41924656476E+03  0.00000000000E+00 0. -1.
<scales pt_clust_3="14000.00000" pt_clust_4="104.54138" pt_clust_5="54.11741" pt_clust_6="48.70270"></scales>
<clustering>
<clus scale="   48.703">  1  6  2 -1</clus>
<clus scale="   54.117">  2  5  1 -1</clus>
<clus scale="  104.541">  1  4  2 -1</clus>
<clus scale="   54.117">  2  3  1 -1</clus>
</clustering>
</event>
<event>
 6    0  0.4081161E+002  0.9158331E+02  0.7546771E-02  0.1299062E+00
         -3   -1    0    0    0  501 -0.00000000000E+00  0.00000000000E+00  0.49339534343E+03  0.49339534343E+03  0.00000000000E+00 0.  1.
         21   -1    0    0  505  502  0.00000000000E+00 -0.00000000000E+00 -0.36039680455E+03  0.36039680455E+03  0.00000000000E+00 0.  1.
         21    1    1    2  503  504 -0.14712125332E+03 -0.63309131919E+02  0.22968694625E+03  0.28001571856E+03  0.00000000000E+00 0.  1.
         21    1    1    2  504  502  0.48363709982E+02  0.43043666084E+02 -0.12448744145E+03  0.14031724310E+03  0.00000000000E+00 0. -1.
         21    1    1    2  505  501  0.39364376674E+02 -0.13076851771E+02 -0.19557814622E+03  0.19992841089E+03  0.00000000000E+00 0.  1.
         -3    1    1    2    0  503  0.59393166664E+02  0.33342317606E+02  0.22337718030E+03  0.23353077542E+03  0.00000000000E+00 0.  1.
<scales pt_clust_3="14000.00000" pt_clust_4="91.58331" pt_clust_5="41.47961" pt_clust_6="68.99037"></scales>
<clustering>
<clus scale="   41.480">  2  5  1 -1</clus>
<clus scale="   68.990">  1  6  2 -1</clus>
<clus scale="   91.583">  2  4  1 -1</clus>
<clus scale="   41.480">  2  3  1 -1</clus>
</clustering>
</event>
<event>
 6    0  0.4081161E+002  0.3605833E+03  0.7546771E-02  0.1058353E+00
          3   -1    0    0  502    0 -0.00000000000E+00  0.00000000000E+00  0.18814910482E+04  0.18814910482E+04  0.00000000000E+00 0. -1.
         21   -1    0    0  504  502  0.00000000000E+00 -0.00000000000E+00 -0.13973423473E+04  0.13973423473E+04  0.00000000000E+00 0. -1.
         21    1    1    2  503  501  0.15790023771E+03  0.89937854304E+02  0.98002216863E+01  0.18198172175E+03  0.00000000000E+00 0.  1.
         21    1    1    2  504  505  0.20708486991E+02  0.29109525321E+02 -0.11535856494E+04  0.11541386643E+04  0.00000000000E+00 0. -1.
         21    1    1    2  505  503  0.10515778049E+03  0.58811284469E+02 -0.11579858016E+03  0.16711145127E+03  0.00000000000E+00 0.  1.
          3    1    1    2  501    0 -0.28376650519E+03 -0.17785866409E+03  0.17437327088E+04  0.17756015582E+04  0.00000000000E+00 0. -1.
<scales pt_clust_3="118.05895" pt_clust_4="35.72402" pt_clust_5="118.05895" pt_clust_6="332.73982"></scales>
<clustering>
<clus scale="   35.724">  2  4  1 -1</clus>
<clus scale="  118.059">  3  5 -1 -1</clus>
<clus scale="  332.740">  1  6  2 -1</clus>
<clus scale="   35.724">  2  3  1 -1</clus>
</clustering>
</event>
<event>
 6    0  0.4081161E+002  0.5979135E+02  0.7546771E-02  0.1398709E+00
         21   -1    0    0  505  502  0.00000000000E+00  0.00000000000E+00  0.10243706427E+03  0.10243706427E+03  0.00000000000E+00 0.  1.
          1   -1    0    0  503    0 -0.00000000000E+00 -0.00000000000E+00 -0.45187160016E+03  0.45187160016E+03  0.00000000000E+00 0.  1.
         21    1    1    2  503  504 -0.58208213057E+02 -0.56745585014E+01 -0.16518344451E+03  0.17523118165E+03  0.00000000000E+00 0.  1.
         21    1    1    2  504  502 -0.59620510504E+02 -0.32783376741E+01  0.40732101380E+02  0.72280404353E+02  0.00000000000E+00 0.  1.
         21    1    1    2  505  501  0.53626305356E+02  0.41693202501E+02  0.26993343971E+01  0.67980807343E+02  0.00000000000E+00 0.  1.
          1    1    1    2  501    0  0.64202418205E+02 -0.32740306325E+02 -0.22768252715E+03  0.23881627108E+03  0.00000000000E+00 0.  1.
<scales pt_clust_3="58.48416" pt_clust_4="14000.00000" pt_clust_5="59.79135" pt_clust_6="40.71485"></scales>
<clustering>
<clus scale="   58.484">  2  3  1 -1</clus>
<clus scale="   40.715">  2  6  1 -1</clus>
<clus scale="   59.791">  2  5  1 -1</clus>
<clus scale="   59.791">  1  3  2 -1</clus>
</clustering>
</event>
<event>
 6    0  0.4081161E+002  0.1067006E+03  0.7546771E-02  0.1266805E+00
         21   -1    0    0  505  502  0.00000000000E+00  0.00000000000E+00  0.44281226456E+03  0.44281226456E+03  0.00000000000E+00 0. -1.
          2   -1    0    0  504    0 -0.00000000000E+00 -0.00000000000E+00 -0.10823667564E+04  0.10823667564E+04  0.00000000000E+00 0. -1.
         21    1    1    2  503  501  0.46569682938E+02  0.92500419566E+02  0.48137967999E+02  0.11420300763E+03  0.00000000000E+00 0. -1.
         21    1    1    2  504  502 -0.33218160368E+02 -0.38880744766E+02 -0.21829994115E+03  0.22420977409E+03  0.00000000000E+00 0. -1.
         21    1    1    2  505  503 -0.36208646826E+02  0.16409819304E+02  0.35593982283E+03  0.35815290834E+03  0.00000000000E+00 0. -1.
          2    1    1    2  501    0  0.22857124255E+02 -0.70029494105E+02 -0.82533234155E+03  0.82861333092E+03  0.00000000000E+00 0. -1.
<scales pt_clust_3="14000.00000" pt_clust_4="51.53591" pt_clust_5="39.75359" pt_clust_6="106.70061"></scales>
<clustering>
<clus scale="   39.754">  1  5  2 -1</clus>
<clus scale="   51.536">  2  4  1 -1</clus>
<clus scale="  106.701">  2  6  1 -1</clus>
<clus scale="   39.754">  1  3  2 -1</clus>
</clustering>
</event>
<event>
 6    0  0.4081161E+002  0.1543149E+03  0.7546771E-02  0.1195269E+00
         21   -1    0    0  504  502  0.00000000000E+00  0.00000000000E+00  0.56978379203E+02  0.56978379203E+02  0.00000000000E+00 0. -1.
          2   -1    0    0  503    0 -0.00000000000E+00 -0.00000000000E+00 -0.11760413562E+04  0.11760413562E+04  0.00000000000E+00 0.  1.
         21    1    1    2  503  502  0.10931959519E+02  0.17899482819E+03 -0.20387601992E+03  0.27152179978E+03  0.00000000000E+00 0. -1.
         21    1    1    2  504  505 -0.20881984320E+02 -0.64813439473E+02 -0.13573576730E+03  0.15185861098E+03  0.00000000000E+00 0. -1.
         21    1    1    2  505  501 -0.61493624818E+02 -0.21317219804E+02 -0.94527933540E+02  0.11476680693E+03  0.00000000000E+00 0. -1.
          2    1    1    2  501    0  0.71443649618E+02 -0.92864168910E+02 -0.68492325619E+03  0.69487251767E+03  0.00000000000E+00 0.  1.
<scales pt_clust_3="141.24293" pt_clust_4="60.76754" pt_clust_5="60.76754" pt_clust_6="117.16633"></scales>
<clustering>
<clus scale="   60.768">  4  5 -1 -1</clus>
<clus scale="  117.166">  2  6  1 -1</clus>
<clus scale="  141.243">  2  3  1 -1</clus>
<clus scale="  154.315">  1  3  2 -1</clus>
</clustering>
</event>
<event>
 6    0  0.4081161E+002  0.1132903E+03  0.7546771E-02  0.1254595E+00
         21   -1    0    0  504  502  0.00000000000E+00  0.00000000000E+00  0.25828906684E+02  0.25828906684E+02  0.00000000000E+00 0. -1.
         -2   -1    0    0    0  501 -0.00000000000E+00 -0.00000000000E+00 -0.10521141887E+04  0.10521141887E+04  0.00000000000E+00 0. -1.
         21    1    1    2  503  502 -0.35925135509E+02 -0.64342632959E+02 -0.24167334517E+03  0.25265904999E+03  0.00000000000E+00 0. -1.
         21    1    1    2  504  505  0.23926009824E+02  0.96491779164E+02 -0.15720321921E+03  0.18599991807E+03  0.00000000000E+00 0. -1.
         21    1    1    2  505  501  0.41339967683E+02  0.31885558986E+02 -0.26483554852E+03  0.26993249075E+03  0.00000000000E+00 0.  1.
         -2    1    1    2    0  503 -0.29340841997E+02 -0.64034705191E+02 -0.36257316909E+03  0.36935163655E+03  0.00000000000E+00 0. -1.
<scales pt_clust_3="31.57486" pt_clust_4="108.58932" pt_clust_5="52.20806" pt_clust_6="31.57486"></scales>
<clustering>
<clus scale="   31.575">  3  6 -1 -1</clus>
<clus scale="   52.208">  2  5  1 -1</clus>
<clus scale="  108.589">  1  4  2 -1</clus>
<clus scale="  108.589">  1  3  2 -1</clus>
</clustering>
</event>
<event>
 6    0  0.4081161E+002  0.1068579E+03  0.7546771E-02  0.1266502E+00
          2   -1    0    0  505    0 -0.00000000000E+00  0.00000000000E+00  0.22831803639E+03  0.22831803639E+03  0.00000000000E+00 0.  1.
         21   -1    0    0  503  502  0.00000000000E+00 -0.00000000000E+00 -0.11314011991E+04  0.11314011991E+04  0.00000000000E+00 0.  1.
         21    1    1    2  503  504  0.27779816332E+02  0.13593553870E+03 -0.97875515429E+03  0.98854025761E+03  0.00000000000E+00 0.  1.
         21    1    1    2  504  501 -0.17203277267E+02 -0.60591839642E+02  0.60682203741E+02  0.87462298339E+02  0.00000000000E+00 0.  1.
         21    1    1    2  505  502 -0.13467998925E+02 -0.27582078942E+02 -0.12867902724E+03  0.13228926686E+03  0.00000000000E+00 0.  1.
          2    1    1    2  501    0  0.28914598609E+01 -0.47761620114E+02  0.14366881506E+03  0.15142741269E+03  0.00000000000E+00 0.  1.
<scales pt_clust_3="14000.00000" pt_clust_4="106.85794" pt_clust_5="30.69459" pt_clust_6="47.95265"></scales>
<clustering>
<clus scale="   30.695">  2  5  1 -1</clus>
<clus scale="   47.953">  1  6  2 -1</clus>
<clus scale="  106.858">  1  4  2 -1</clus>
<clus scale="   30.695">  2  3  1 -1</clus>
</clustering>
</event>
<event>
 6    0  0.4081161E+002  0.1122924E+03  0.7546771E-02  0.1256383E+00
          1   -1    0    0  502    0 -0.00000000000E+00  0.00000000000E+00  0.67931909347E+03  0.67931909347E+03  0.00000000000E+00 0. -1.
         21   -1    0    0  503  502  0.00000000000E+00 -0.00000000000E+00 -0.56366937340E+02  0.56366937340E+02  0.00000000000E+00 0. -1.
         21    1    1    2  503  504 -0.69064501932E+02  0.24692726314E+02  0.30853184290E+02  0.79571069747E+02  0.00000000000E+00 0. -1.
         21    1    1    2  504  505 -0.39234879243E+02 -0.13913720933E+02  0.40115528515E+02  0.57811962494E+02  0.00000000000E+00 0. -1.
         21    1    1    2  505  501  0.69741696602E+02 -0.95160170443E+02  0.18222493894E+03  0.21708360292E+03  0.00000000000E+00 0. -1.
          1    1    1    2  501    0  0.38557684572E+02  0.84381165062E+02  0.36975850438E+03  0.38121939565E+03  0.00000000000E+00 0. -1.
<scales pt_clust_3="33.62939" pt_clust_4="33.62939" pt_clust_5="103.03873" pt_clust_6="92.77325"></scales>
<clustering>
<clus scale="   33.629">  3  4 -1 -1</clus>
<clus scale="   92.773">  1  6  2 -1</clus>
<clus scale="  103.039">  1  5  2 -1</clus>
<clus scale="  112.292">  2  3  1 -1</clus>
</clustering>
</event>
<event>
 6    0  0.4081161E+002  0.2606526E+03  0.7546771E-02  0.1106752E+00
         21   -1    0    0  504  502  0.00000000000E+00  0.00000000000E+00  0.14676784181E+03  0.14676784181E+03  0.00000000000E+00 0.  1.
          2   -1    0    0  503    0 -0.00000000000E+00 -0.00000000000E+00 -0.16670799182E+04  0.16670799182E+04  0.00000000000E+00 0.  1.
         21    1    1    2  503  502 -0.91915658071E+02  0.37297207583E+01  0.51768946372E+02  0.10555767534E+03  0.00000000000E+00 0.  1.
         21    1    1    2  504  505 -0.17407054407E+03  0.19737341592E+02 -0.83420632980E+02  0.19403380884E+03  0.00000000000E+00 0.  1.
         21    1    1    2  505  501  0.10168547881E+03 -0.20064283720E+02 -0.77615678718E+03  0.78304653142E+03  0.00000000000E+00 0.  1.
          2    1    1    2  501    0  0.16430072334E+03 -0.34027786299E+01 -0.71250360265E+03  0.73120974445E+03  0.00000000000E+00 0.  1.
<scales pt_clust_3="91.99130" pt_clust_4="249.75355" pt_clust_5="59.23287" pt_clust_6="59.23287"></scales>
<clustering>
<clus scale="   59.233">  5  6 -1 -1</clus>
<clus scale="   91.991">  1  3  2 -1</clus>
<clus scale="  249.754">  1  4  2 -1</clus>
<clus scale="   91.991">  1  3  2 -1</clus>
</clustering>
</event>
<event>
 6    0  0.4081161E+002  0.1324806E+03  0.7546771E-02  0.1223821E+00
          1   -1    0    0  505    0 -0.00000000000E+00  0.00000000000E+00  0.20468196588E+03  0.20468196588E+03  0.00000000000E+00 0. -1.
         21   -1    0    0  504  502  0.00000000000E+00 -0.00000000000E+00 -0.28937249470E+03  0.28937249470E+03  0.00000000000E+00 0. -1.
         21    1    1    2  503  501 -0.54561872746E+02  0.27982501724E+00  0.31924699282E+02  0.63216000220E+02  0.00000000000E+00 0. -1.
         21    1    1    2  504  503 -0.14320594032E+02 -0.33291432523E+02 -0.11478993276E+03  0.12037494572E+03  0.00000000000E+00 0.  1.
         21    1    1    2  505  502  0.13693772099E+03  0.36511494352E+02 -0.11219183029E+03  0.18075407446E+03  0.00000000000E+00 0. -1.
          1    1    1    2  501    0 -0.68055254209E+02 -0.34998868461E+01  0.11036653496E+03  0.12970944018E+03  0.00000000000E+00 0. -1.
<scales pt_clust_3="39.51436" pt_clust_4="36.24085" pt_clust_5="124.99203" pt_clust_6="39.51436"></scales>
<clustering>
<clus scale="   36.241">  2  4  1 -1</clus>
<clus scale="   39.514">  3  6 -1 -1</clus>
<clus scale="  124.992">  2  5  1 -1</clus>
<clus scale="   36.241">  2  3  1 -1</clus>
</clustering>
</event>
<event>
 6    0  0.4081161E+002  0.1211352E+03  0.7546771E-02  0.1241236E+00
         21   -1    0    0  505  502  0.00000000000E+00  0.00000000000E+00  0.20843453770E+04  0.20843453770E+04  0.00000000000E+00 0.  1.
          2   -1    0    0  503    0 -0.00000000000E+00 -0.00000000000E+00 -0.31141436103E+02  0.31141436103E+02  0.00000000000E+00 0.  1.
         21    1    1    2  503  504  0.16233794628E+01  0.32915434017E+02  0.12581141341E+03  0.13005603754E+03  0.00000000000E+00 0.  1.
         21    1    1    2  504  502  0.40883221492E+02 -0.11402472823E+02  0.17454260516E+03  0.17962899322E+03  0.00000000000E+00 0.  1.
         21    1    1    2  505  501  0.66024274728E+02  0.72038471562E+02  0.15721633088E+04  0.15751971990E+04  0.00000000000E+00 0.  1.
          2    1    1    2  501    0 -0.10853087568E+03 -0.93551432756E+02  0.18068661352E+03  0.23060458333E+03  0.00000000000E+00 0.  1.
<scales pt_clust_3="32.95544" pt_clust_4="41.90041" pt_clust_5="14000.00000" pt_clust_6="121.13525"></scales>
<clustering>
<clus scale="   32.955">  2  3  1 -1</clus>
<clus scale="   41.900">  1  4  2 -1</clus>
<clus scale="  121.135">  2  6  1 -1</clus>
<clus scale="   41.900">  1  3  2 -1</clus>
</clustering>
</event>
<event>
 6    0  0.4081161E+002  0.1333758E+03  0.7546771E-02  0.1222531E+00
          1   -1    0    0  504    0 -0.00000000000E+00  0.00000000000E+00  0.27217486459E+04  0.27217486459E+04  0.00000000000E+00 0.  1.
         21   -1    0    0  503  502  0.00000000000E+00 -0.00000000000E+00 -0.56531300390E+02  0.56531300390E+02  0.00000000000E+00 0. -1.
         21    1    1    2  503  505  0.16728888244E+02  0.53123572064E+02 -0.84378014002E+01  0.56330862794E+02  0.00000000000E+00 0. -1.
         21    1    1    2  504  502 -0.75339398691E+02  0.62647977664E+02  0.84995687637E+02  0.12971145292E+03  0.00000000000E+00 0. -1.
         21    1    1    2  505  501  0.22848916769E+02 -0.75574226726E+02  0.18103143870E+04  0.18120352415E+04  0.00000000000E+00 0.  1.
          1    1    1    2  501    0  0.35761593678E+02 -0.40197323002E+02  0.77834507228E+03  0.78020238906E+03  0.00000000000E+00 0.  1.
<scales pt_clust_3="55.69533" pt_clust_4="126.84324" pt_clust_5="34.03523" pt_clust_6="34.03523"></scales>
<clustering>
<clus scale="   34.035">  5  6 -1 -1</clus>
<clus scale="   55.695">  2  3  1 -1</clus>
<clus scale="  126.843">  2  4  1 -1</clus>
<clus scale="   55.695">  2  3  1 -1</clus>
</clustering>
</event>
<event>
 6    0  0.4081161E+002  0.8712182E+02  0.7546771E-02  0.1309975E+00
         21   -1    0    0  504  502  0.00000000000E+00  0.00000000000E+00  0.19758000234E+04  0.19758000234E+04  0.00000000000E+00 0.  1.
          3   -1    0    0  502    0 -0.00000000000E+00 -0.00000000000E+00 -0.69911017342E+03  0.69911017342E+03  0.00000000000E+00 0.  1.
         21    1    1    2  503  505  0.11836843595E+03 -0.28188406079E+02  0.16226627720E+04  0.16272185300E+04  0.00000000000E+00 0.  1.
         21    1    1    2  504  503 -0.35814107077E+02  0.53909548199E-01  0.34319309872E+03  0.34505674342E+03  0.00000000000E+00 0. -1.
         21    1    1    2  505  501 -0.71120640066E+02 -0.61876059567E+01 -0.20416070870E+03  0.21628228519E+03  0.00000000000E+00 0. -1.
          3    1    1    2  501    0 -0.11433688805E+02  0.34322102487E+02 -0.48500531203E+03  0.48635263817E+03  0.00000000000E+00 0.  1.
<scales pt_clust_3="14000.00000" pt_clust_4="35.81415" pt_clust_5="87.12182" pt_clust_6="36.18115"></scales>
<clustering>
<clus scale="   35.814">  1  4  2 -1</clus>
<clus scale="   36.181">  2  6  1 -1</clus>
<clus scale="   87.122">  2  5  1 -1</clus>
<clus scale="   35.814">  1  3  2 -1</clus>
</clustering>
</event>
<event>
 6    0  0.4081161E+002  0.2210831E+03  0.7546771E-02  0.1133078E+00
         -1   -1    0    0    0  501 -0.00000000000E+00  0.00000000000E+00  0.11130450298E+04  0.11130450298E+04  0.00000000000E+00 0.  1.
         21   -1    0    0  505  502  0.00000000000E+00 -0.00000000000E+00 -0.75838346027E+03  0.75838346027E+03  0.00000000000E+00 0.  1.
         21    1    1    2  503  504 -0.37798562057E+02  0.15474961146E+01  0.76891429200E+02  0.85693744942E+02  0.00000000000E+00 0.  1.
         21    1    1    2  504  502  0.23209426812E+03  0.21148326213E+02  0.11070652153E+03  0.25801343939E+03  0.00000000000E+00 0. -1.
         21    1    1    2  505  501 -0.26392088320E+02 -0.19969325971E+02 -0.67159799863E+03  0.67241295947E+03  0.00000000000E+00 0.  1.
         -1    1    1    2    0  503 -0.16790361774E+03 -0.27264963564E+01  0.83866161740E+03  0.85530834624E+03  0.00000000000E+00 0.  1.
<scales pt_clust_3="33.65265" pt_clust_4="209.63056" pt_clust_5="33.09556" pt_clust_6="33.65265"></scales>
<clustering>
<clus scale="   33.096">  2  5  1 -1</clus>
<clus scale="   33.653">  3  6 -1 -1</clus>
<clus scale="  209.631">  2  4  1 -1</clus>
<clus scale="   33.096">  2  3  1 -1</clus>
</clustering>
</event>
<event>
 6    0  0.4081161E+002  0.7076024E+02  0.7546771E-02  0.1357527E+00
         21   -1    0    0  505  502  0.00000000000E+00  0.00000000000E+00  0.28772848130E+02  0.28772848130E+02  0.00000000000E+00 0. -1.
          2   -1    0    0  504    0 -0.00000000000E+00 -0.00000000000E+00 -0.22576512597E+04  0.22576512597E+04  0.00000000000E+00 0. -1.
         21    1    1    2  503  502  0.34940299839E+02  0.63974144384E+02 -0.50117086322E+02  0.88460375558E+02  0.00000000000E+00 0. -1.
         21    1    1    2  504  503 -0.48972851630E+02  0.30731117466E+02 -0.84595209885E+03  0.84792552463E+03  0.00000000000E+00 0.  1.
         21    1    1    2  505  501  0.44546309470E+02 -0.71580087911E+02 -0.20608498267E+03  0.22266365387E+03  0.00000000000E+00 0. -1.
          2    1    1    2  501    0 -0.30513757679E+02 -0.23125173939E+02 -0.11267242437E+04  0.11273745537E+04  0.00000000000E+00 0. -1.
<scales pt_clust_3="70.76024" pt_clust_4="70.24287" pt_clust_5="14000.00000" pt_clust_6="38.28659"></scales>
<clustering>
<clus scale="   38.287">  2  6  1 -1</clus>
<clus scale="   70.760">  1  3  2 -1</clus>
<clus scale="   70.243">  2  4  1 -1</clus>
<clus scale="   70.760">  1  3  2 -1</clus>
</clustering>
</event>
<event>
 6    0  0.4081161E+002  0.1278984E+03  0.7546771E-02  0.1230608E+00
         21   -1    0    0  503  502  0.00000000000E+00  0.00000000000E+00  0.60382797624E+03  0.60382797624E+03  0.00000000000E+00 0. -1.
          1   -1    0    0  505    0 -0.00000000000E+00 -0.00000000000E+00 -0.70364072451E+03  0.70364072451E+03  0.00000000000E+00 0.  1.
         21    1    1    2  503  501 -0.11161869916E+02 -0.28127098358E+02  0.16260672701E+03  0.16539851472E+03  0.00000000000E+00 0. -1.
         21    1    1    2  504  502  0.14101911101E+03  0.37721030356E+02  0.41485070621E+03  0.43978446339E+03  0.00000000000E+00 0. -1.
         21    1    1    2  505  504 -0.88537434456E+02  0.13206969306E+02 -0.16391386130E+03  0.18676470562E+03  0.00000000000E+00 0.  1.
          1    1    1    2  501    0 -0.41319806635E+02 -0.22800901304E+02 -0.51335632018E+03  0.51552101702E+03  0.00000000000E+00 0.  1.
<scales pt_clust_3="30.26088" pt_clust_4="127.89838" pt_clust_5="14000.00000" pt_clust_6="47.25081"></scales>
<clustering>
<clus scale="   30.261">  1  3  2 -1</clus>
<clus scale="   47.251">  2  6  1 -1</clus>
<clus scale="  127.898">  1  4  2 -1</clus>
<clus scale="   30.261">  1  3  2 -1</clus>
</clustering>
</event>
<event>
 6    0  0.4081161E+002  0.9040046E+02  0.7546771E-02  0.1301885E+00
         21   -1    0    0  504  502  0.00000000000E+00  0.00000000000E+00  0.45382418700E+03  0.45382418700E+03  0.00000000000E+00 0. -1.
          2   -1    0    0  505    0 -0.00000000000E+00 -0.00000000000E+00 -0.40252314922E+04  0.40252314922E+04  0.00000000000E+00 0.  1.
         21    1    1    2  503  502 -0.19465924459E+02  0.24058682384E+02  0.22297623128E+02  0.38143497614E+02  0.00000000000E+00 0. -1.
         21    1    1    2  504  501  0.67784597254E+02 -0.10019719597E+03  0.41275224950E+03  0.43011469305E+03  0.00000000000E+00 0. -1.
         21    1    1    2  505  503  0.58248984559E+02  0.18850924501E+02 -0.96948899721E+03  0.97142020633E+03  0.00000000000E+00 0. -1.
          2    1    1    2  501    0 -0.10656765735E+03  0.57287589087E+02 -0.30369681806E+04  0.30393772822E+04  0.00000000000E+00 0.  1.
<scales pt_clust_3="30.94741" pt_clust_4="90.40046" pt_clust_5="61.19808" pt_clust_6="14000.00000"></scales>
<clustering>
<clus scale="   30.947">  1  3  2 -1</clus>
<clus scale="   61.198">  2  5  1 -1</clus>
<clus scale="   90.400">  1  4  2 -1</clus>
<clus scale="   30.947">  1  3  2 -1</clus>
</clustering>
</event>
<event>
 6    0  0.4081161E+002  0.1383406E+03  0.7546771E-02  0.1215579E+00
         21   -1    0    0  504  502  0.00000000000E+00  0.00000000000E+00  0.18836957663E+03  0.18836957663E+03  0.00000000000E+00 0. -1.
          2   -1    0    0  505    0 -0.00000000000E+00 -0.00000000000E+00 -0.12540520995E+04  0.12540520995E+04  0.00000000000E+00 0.  1.
         21    1    1    2  503  501  0.87747513117E+02  0.28968231365E+02 -0.62942629519E+03  0.63617312547E+03  0.00000000000E+00 0.  1.
         21    1    1    2  504  503 -0.16589075035E+02  0.27217935316E+02 -0.21330478239E+02  0.38353653220E+02  0.00000000000E+00 0.  1.
         21    1    1    2  505  502 -0.10830493969E+03 -0.61193477495E+02  0.15387023965E+03  0.19786523772E+03  0.00000000000E+00 0. -1.
          2    1    1    2  501    0  0.37146501604E+02  0.50073108131E+01 -0.56879598914E+03  0.57002965976E+03  0.00000000000E+00 0.  1.
<scales pt_clust_3="31.43213" pt_clust_4="31.87497" pt_clust_5="129.23797" pt_clust_6="31.43213"></scales>
<clustering>
<clus scale="   31.432">  3  6 -1 -1</clus>
<clus scale="   31.875">  1  4  2 -1</clus>
<clus scale="  129.238">  1  5  2 -1</clus>
<clus scale="   31.875">  1  3  2 -1</clus>
</clustering>
</event>
<event>
 6    0  0.4081161E+002  0.1104677E+03  0.7546771E-02  0.1259706E+00
          1   -1    0    0  503    0 -0.00000000000E+00  0.00000000000E+00  0.13596289823E+04  0.13596289823E+04  0.00000000000E+00 0.  1.
         21   -1    0    0  505  502  0.00000000000E+00 -0.00000000000E+00 -0.85475979388E+02  0.85475979388E+02  0.00000000000E+00 0.  1.
         21    1    1    2  503  504 -0.44070029047E+02  0.61613660465E+01  0.59701864041E+03  0.59867469204E+03  0.00000000000E+00 0.  1.
         21    1    1    2  504  502 -0.12416292983E+03 -0.89968874046E+01  0.18056549862E+03  0.21932003196E+03  0.00000000000E+00 0.  1.
         21    1    1    2  505  501  0.10160377239E+03  0.36788638392E+02 -0.15892494773E+02  0.10922134347E+03  0.00000000000E+00 0.  1.
          1    1    1    2  501    0  0.66629186485E+02 -0.33953117034E+02  0.51246135870E+03  0.51788889427E+03  0.00000000000E+00 0.  1.
<scales pt_clust_3="44.49865" pt_clust_4="110.46773" pt_clust_5="14000.00000" pt_clust_6="47.36408"></scales>
<clustering>
<clus scale="   44.499">  1  3  2 -1</clus>
<clus scale="   47.364">  1  6  2 -1</clus>
<clus scale="  110.468">  1  4  2 -1</clus>
<clus scale="  110.468">  2  3  1 -1</clus>
</clustering>
</event>
<event>
 6    0  0.4081161E+002  0.9525429E+02  0.7546771E-02  0.1290604E+00
         21   -1    0    0  504  502  0.00000000000E+00  0.00000000000E+00  0.70746388018E+02  0.70746388018E+02  0.00000000000E+00 0.  1.
          1   -1    0    0  505    0 -0.00000000000E+00 -0.00000000000E+00 -0.16927521235E+04  0.16927521235E+04  0.00000000000E+00 0. -1.
         21    1    1    2  503  502  0.85690657864E+02 -0.11361564251E+01  0.34466599484E+02  0.92369508911E+02  0.00000000000E+00 0.  1.
         21    1    1    2  504  501 -0.40527343738E+02  0.53096232615E+02 -0.83732598856E+03  0.83998600382E+03  0.00000000000E+00 0. -1.
         21    1    1    2  505  503  0.30438075397E+01 -0.60707726786E+02 -0.17731032551E+03  0.18743970868E+03  0.00000000000E+00 0. -1.
          1    1    1    2  501    0 -0.48207121665E+02  0.87476505958E+01 -0.64183602094E+03  0.64370329015E+03  0.00000000000E+00 0. -1.
<scales pt_clust_3="85.77984" pt_clust_4="35.46957" pt_clust_5="60.78399" pt_clust_6="35.46957"></scales>
<clustering>
<clus scale="   35.470">  4  6 -1 -1</clus>
<clus scale="   60.784">  2  5  1 -1</clus>
<clus scale="   85.780">  1  3  2 -1</clus>
<clus scale="   85.780">  1  3  2 -1</clus>
</clustering>
</event>
<event>
 6    0  0.4081161E+002  0.7784719E+02  0.7546771E-02  0.1335274E+00
          2   -1    0    0  505    0 -0.00000000000E+00  0.00000000000E+00  0.14033224955E+04  0.14033224955E+04  0.00000000000E+00 0.  1.
         21   -1    0    0  503  502  0.00000000000E+00 -0.00000000000E+00 -0.92407387272E+02  0.92407387272E+02  0.00000000000E+00 0. -1.
         21    1    1    2  503  501  0.84015024987E+02  0.62705227981E+01 -0.27779132561E+02  0.88710338099E+02  0.00000000000E+00 0. -1.
         21    1    1    2  504  502 -0.11445769130E+02 -0.31087645302E+02 -0.12246574064E+01  0.33150371147E+02  0.00000000000E+00 0. -1.
         21    1    1    2  505  504 -0.86859990850E+02 -0.51044876744E+02  0.14560079285E+03  0.17705882732E+03  0.00000000000E+00 0.  1.
          2    1    1    2  501    0  0.14290734993E+02  0.75861999248E+02  0.11943181053E+04  0.11968103462E+04  0.00000000000E+00 0.  1.
<scales pt_clust_3="77.84719" pt_clust_4="33.12774" pt_clust_5="14000.00000" pt_clust_6="76.65514"></scales>
<clustering>
<clus scale="   33.128">  2  4  1 -1</clus>
<clus scale="   76.655">  1  6  2 -1</clus>
<clus scale="   77.847">  2  3  1 -1</clus>
<clus scale="   33.128">  2  3  1 -1</clus>
</clustering>
</event>
<event>
 6    0  0.4081161E+002  0.6609812E+02  0.7546771E-02  0.1373888E+00
         21   -1    0    0  505  502  0.00000000000E+00  0.00000000000E+00  0.13488594629E+03  0.13488594629E+03  0.00000000000E+00 0.  1.
          1   -1    0    0  504    0 -0.00000000000E+00 -0.00000000000E+00 -0.67427331670E+03  0.67427331670E+03  0.00000000000E+00 0. -1.
         21    1    1    2  503  502 -0.76320569426E+02 -0.92396768883E+02 -0.25017310244E+03  0.27739605874E+03  0.00000000000E+00 0.  1.
         21    1    1    2  504  503  0.11716318620E+02  0.33302031675E+02 -0.39549840714E+02  0.53014029617E+02  0.00000000000E+00 0.  1.
         21    1    1    2  505  501  0.62908223470E+02  0.16208957604E+02  0.10392825090E+03  0.12256123458E+03  0.00000000000E+00 0.  1.
          1    1    1    2  501    0  0.16960273359E+01  0.42885779604E+02 -0.35359267815E+03  0.35618794006E+03  0.00000000000E+00 0. -1.
<scales pt_clust_3="66.09812" pt_clust_4="35.30294" pt_clust_5="14000.00000" pt_clust_6="62.26342"></scales>
<clustering>
<clus scale="   35.303">  2  4  1 -1</clus>
<clus scale="   62.263">  2  6  1 -1</clus>
<clus scale="   66.098">  2  3  1 -1</clus>
<clus scale="   66.098">  1  3  2 -1</clus>
</clustering>
</event>
<event>
 6    0  0.4081161E+002  0.1365161E+03  0.7546771E-02  0.1218095E+00
         -1   -1    0    0    0  501 -0.00000000000E+00  0.00000000000E+00  0.92970105143E+03  0.92970105143E+03  0.00000000000E+00 0. -1.
         21   -1    0    0  505  502  0.00000000000E+00 -0.00000000000E+00 -0.59343442812E+02  0.59343442812E+02  0.00000000000E+00 0. -1.
         21    1    1    2  503  502  0.47829367985E+02  0.52735532197E+02  0.22735628133E+03  0.23824265668E+03  0.00000000000E+00 0. -1.
         21    1    1    2  504  501 -0.21312186380E+02 -0.10003526736E+03  0.15883545689E+03  0.18891788261E+03  0.00000000000E+00 0. -1.
         21    1    1    2  505  504 -0.79575948931E+02 -0.82335795370E+01  0.89483988404E+01  0.80499672807E+02  0.00000000000E+00 0. -1.
         -1    1    1    2    0  503  0.53058767326E+02  0.55533314700E+02  0.47521747155E+03  0.48138428215E+03  0.00000000000E+00 0. -1.
<scales pt_clust_3="46.69712" pt_clust_4="127.60941" pt_clust_5="80.00077" pt_clust_6="46.69712"></scales>
<clustering>
<clus scale="   46.697">  3  6 -1 -1</clus>
<clus scale="   80.001">  2  5  1 -1</clus>
<clus scale="  127.609">  2  4  1 -1</clus>
<clus scale="   80.001">  2  3  1 -1</clus>
</clustering>
</event>
<event>
 6    0  0.4081161E+002  0.8230882E+02  0.7546771E-02  0.1322624E+00
          2   -1    0    0  504    0 -0.00000000000E+00  0.00000000000E+00  0.93718798438E+03  0.93718798438E+03  0.00000000000E+00 0. -1.
         21   -1    0    0  503  502  0.00000000000E+00 -0.00000000000E+00 -0.36344787175E+03  0.36344787175E+03  0.00000000000E+00 0.  1.
         21    1    1    2  503  501  0.10348755594E+03 -0.49427355760E+02 -0.28222886587E+03  0.30464055945E+03  0.00000000000E+00 0.  1.
         21    1    1    2  504  505 -0.16456706601E+02 -0.26686547576E+02  0.46371559882E+02  0.55976035761E+02  0.00000000000E+00 0.  1.
         21    1    1    2  505  502 -0.24032268483E+02  0.73954374912E+02 -0.40439783850E+02  0.87648021170E+02  0.00000000000E+00 0.  1.
          2    1    1    2  501    0 -0.62998580854E+02  0.21595284230E+01  0.85003720247E+03  0.85237123974E+03  0.00000000000E+00 0. -1.
<scales pt_clust_3="82.30882" pt_clust_4="31.35275" pt_clust_5="77.22314" pt_clust_6="14000.00000"></scales>
<clustering>
<clus scale="   31.353">  1  4  2 -1</clus>
<clus scale="   77.223">  2  5  1 -1</clus>
<clus scale="   82.309">  2  3  1 -1</clus>
<clus scale="   77.223">  2  3  1 -1</clus>
</clustering>
</event>
<event>
 6    0  0.4081161E+002  0.1774994E+03  0.7546771E-02  0.1170245E+00
         21   -1    0    0  505  502  0.00000000000E+00  0.00000000000E+00  0.61619886226E+03  0.61619886226E+03  0.00000000000E+00 0.  1.
         -2   -1    0    0    0  501 -0.00000000000E+00 -0.00000000000E+00 -0.28429176501E+03  0.28429176501E+03  0.00000000000E+00 0. -1.
         21    1    1    2  503  504  0.93118020351E+02 -0.65372875675E+02  0.14655025024E+03  0.18553046767E+03  0.00000000000E+00 0.  1.
         21    1    1    2  504  501 -0.16194906053E+02 -0.33971293064E+02 -0.33840245727E+01  0.37785914794E+02  0.00000000000E+00 0. -1.
         21    1    1    2  505  503  0.10119185987E+03  0.13903375741E+02  0.38523344586E+03  0.39854473295E+03  0.00000000000E+00 0.  1.
         -2    1    1    2    0  502 -0.17811497417E+03  0.85440792999E+02 -0.19649257428E+03  0.27862951185E+03  0.00000000000E+00 0. -1.
<scales pt_clust_3="14000.00000" pt_clust_4="37.63408" pt_clust_5="101.62399" pt_clust_6="177.49941"></scales>
<clustering>
<clus scale="   37.634">  2  4  1 -1</clus>
<clus scale="  101.624">  1  5  2 -1</clus>
<clus scale="  177.499">  2  6  1 -1</clus>
<clus scale="  101.624">  1  3  2 -1</clus>
</clustering>
</event>
<event>
 6    0  0.4081161E+002  0.1180523E+03  0.7546771E-02  0.1246345E+00
         21   -1    0    0  504  502  0.00000000000E+00  0.00000000000E+00  0.10574478319E+03  0.10574478319E+03  0.00000000000E+00 0.  1.
          1   -1    0    0  505    0 -0.00000000000E+00 -0.00000000000E+00 -0.22534297575E+04  0.22534297575E+04  0.00000000000E+00 0. -1.
         21    1    1    2  503  502  0.45483137497E+01 -0.36829065229E+02  0.14277083943E+01  0.37136310463E+02  0.00000000000E+00 0.  1.
         21    1    1    2  504  501  0.54436195732E+02 -0.26260137363E+02  0.65391749717E+02  0.89044792948E+02  0.00000000000E+00 0.  1.
         21    1    1    2  505  503 -0.61474379849E+02 -0.69349936966E+02 -0.30181508288E+03  0.31572275399E+03  0.00000000000E+00 0.  1.
          1    1    1    2  501    0  0.24898703677E+01  0.13243913956E+03 -0.19126893496E+04  0.19172706833E+04  0.00000000000E+00 0. -1.
<scales pt_clust_3="37.10886" pt_clust_4="83.19218" pt_clust_5="14000.00000" pt_clust_6="118.05230"></scales>
<clustering>
<clus scale="   37.109">  1  3  2 -1</clus>
<clus scale="   83.192">  1  4  2 -1</clus>
<clus scale="  118.052">  2  6  1 -1</clus>
<clus scale="   37.109">  1  3  2 -1</clus>
</clustering>
</event>
<event>
 6    0  0.4081161E+002  0.7050101E+02  0.7546771E-02  0.1358398E+00
         21   -1    0    0  504  502  0.00000000000E+00  0.00000000000E+00  0.26304701034E+03  0.26304701034E+03  0.00000000000E+00 0.  1.
          2   -1    0    0  505    0 -0.00000000000E+00 -0.00000000000E+00 -0.57187240944E+03  0.57187240944E+03  0.00000000000E+00 0. -1.
         21    1    1    2  503  502 -0.33966709381E+02  0.61013182403E+02  0.23887208416E+03  0.24886988239E+03  0.00000000000E+00 0.  1.
         21    1    1    2  504  501  0.24171378953E+02 -0.91194809186E+02 -0.14287350399E+03  0.17121211092E+03  0.00000000000E+00 0. -1.
         21    1    1    2  505  503 -0.34381136227E+02  0.27403000034E+02 -0.15466539362E+03  0.16079294425E+03  0.00000000000E+00 0. -1.
          2    1    1    2  501    0  0.44176466655E+02  0.27786267482E+01 -0.25015858565E+03  0.25404448222E+03  0.00000000000E+00 0. -1.
<scales pt_clust_3="14000.00000" pt_clust_4="70.50101" pt_clust_5="43.96575" pt_clust_6="30.31717"></scales>
<clustering>
<clus scale="   43.966">  2  5  1 -1</clus>
<clus scale="   30.317">  2  6  1 -1</clus>
<clus scale="   70.501">  2  4  1 -1</clus>
<clus scale="   70.501">  1  3  2 -1</clus>
</clustering>
</event>
<event>
 6    0  0.4081161E+002  0.1595947E+03  0.7546771E-02  0.1189155E+00
         21   -1    0    0  501  502  0.00000000000E+00  0.00000000000E+00  0.12907819950E+03  0.12907819950E+03  0.00000000000E+00 0. -1.
          2   -1    0    0  505    0 -0.00000000000E+00 -0.00000000000E+00 -0.39849466892E+04  0.39849466892E+04  0.00000000000E+00 0.  1.
         21    1    1    2  503  502 -0.14002527535E+03 -0.10007990996E+03  0.16858982339E+02  0.17293724700E+03  0.00000000000E+00 0. -1.
         21    1    1    2  504  503  0.13402452679E+03  0.41502623728E+02 -0.11932800434E+03  0.18418527134E+03  0.00000000000E+00 0.  1.
         21    1    1    2  505  504  0.44867213201E+02 -0.33322868613E+02 -0.18971459743E+04  0.18979690009E+04  0.00000000000E+00 0.  1.
          2    1    1    2  501    0 -0.38866464644E+02  0.91900154842E+02 -0.18562534933E+04  0.18589333695E+04  0.00000000000E+00 0.  1.
<scales pt_clust_3="159.59471" pt_clust_4="14000.00000" pt_clust_5="55.88811" pt_clust_6="62.25477"></scales>
<clustering>
<clus scale="   55.888">  2  5  1 -1</clus>
<clus scale="   62.255">  2  6  1 -1</clus>
<clus scale="  159.595">  1  3  2 -1</clus>
<clus scale="  159.595">  1  3  2 -1</clus>
</clustering>
</event>
<event>
 6    0  0.4081161E+002  0.8631942E+02  0.7546771E-02  0.1312018E+00
          2   -1    0    0  504    0 -0.00000000000E+00  0.00000000000E+00  0.17302313765E+04  0.17302313765E+04  0.00000000000E+00 0.  1.
         21   -1    0    0  505  502  0.00000000000E+00 -0.00000000000E+00 -0.19675225321E+03  0.19675225321E+03  0.00000000000E+00 0.  1.
         21    1    1    2  503  502  0.19235114155E+02 -0.12204067118E+03 -0.48097217242E+02  0.13257924930E+03  0.00000000000E+00 0.  1.
         21    1    1    2  504  503 -0.11363845093E+01 -0.36136333902E+02  0.89142250599E+02  0.96194941860E+02  0.00000000000E+00 0. -1.
         21    1    1    2  505  501  0.15019943892E+02  0.45797906115E+02 -0.94963318689E+02  0.10649450134E+03  0.00000000000E+00 0.  1.
          2    1    1    2  501    0 -0.33118673538E+02  0.11237909896E+03  0.15873974086E+04  0.15917149372E+04  0.00000000000E+00 0.  1.
<scales pt_clust_3="86.31942" pt_clust_4="36.15420" pt_clust_5="48.07587" pt_clust_6="14000.00000"></scales>
<clustering>
<clus scale="   36.154">  1  4  2 -1</clus>
<clus scale="   48.076">  2  5  1 -1</clus>
<clus scale="   86.319">  2  3  1 -1</clus>
<clus scale="   48.076">  2  3  1 -1</clus>
</clustering>
</event>
<event>
 6    0  0.4081161E+002  0.1262805E+03  0.7546771E-02  0.1233082E+00
         21   -1    0    0  501  502  0.00000000000E+00  0.00000000000E+00  0.82946079827E+03  0.82946079827E+03  0.00000000000E+00 0. -1.
          2   -1    0    0  505    0 -0.00000000000E+00 -0.00000000000E+00 -0.34270214836E+03  0.34270214836E+03  0.00000000000E+00 0. -1.
         21    1    1    2  503  502  0.72864186712E+02  0.44911233205E+02  0.60334236390E+03  0.60938347257E+03  0.00000000000E+00 0. -1.
         21    1    1    2  504  503  0.36739187580E+02 -0.84180047891E+01  0.16964284210E+03  0.17377952867E+03  0.00000000000E+00 0. -1.
         21    1    1    2  505  504  0.41263729785E+02 -0.29973167682E+02  0.14041359691E+02  0.52898449492E+02  0.00000000000E+00 0. -1.
          2    1    1    2  501    0 -0.15086710408E+03 -0.65200607341E+01 -0.30026791579E+03  0.33610149589E+03  0.00000000000E+00 0. -1.
<scales pt_clust_3="33.13640" pt_clust_4="33.13640" pt_clust_5="51.00084" pt_clust_6="115.98815"></scales>
<clustering>
<clus scale="   33.136">  3  4 -1 -1</clus>
<clus scale="   51.001">  2  5  1 -1</clus>
<clus scale="  115.988">  2  6  1 -1</clus>
<clus scale="  126.280">  1  3  2 -1</clus>
</clustering>
</event>
<event>
 6    0  0.4081161E+002  0.1496426E+03  0.7546771E-02  0.1200913E+00
         21   -1    0    0  501  502  0.00000000000E+00  0.00000000000E+00  0.52114354848E+03  0.52114354848E+03  0.00000000000E+00 0. -1.
          2   -1    0    0  505    0 -0.00000000000E+00 -0.00000000000E+00 -0.61165721847E+03  0.61165721847E+03  0.00000000000E+00 0.  1.
         21    1    1    2  503  502  0.14456702172E+03 -0.47626886230E+02  0.44478447803E+03  0.47010762168E+03  0.00000000000E+00 0. -1.
         21    1    1    2  504  503 -0.82610250963E+02 -0.10219024163E+03 -0.63921162426E+02  0.14612738981E+03  0.00000000000E+00 0. -1.
         21    1    1    2  505  504 -0.47354069974E+02 -0.88044189460E+01 -0.72325118028E+02  0.86895618036E+02  0.00000000000E+00 0.  1.
          2    1    1    2  501    0 -0.14602700782E+02  0.15862154680E+03 -0.39905186757E+03  0.42967013742E+03  0.00000000000E+00 0.  1.
<scales pt_clust_3="149.64264" pt_clust_4="138.77070" pt_clust_5="48.16561" pt_clust_6="14000.00000"></scales>
<clustering>
<clus scale="   48.166">  2  5  1 -1</clus>
<clus scale="  138.771">  2  4  1 -1</clus>
<clus scale="  149.643">  1  3  2 -1</clus>
<clus scale="  149.643">  1  3  2 -1</clus>
</clustering>
</event>
<event>
 6    0  0.4081161E+002  0.7716521E+02  0.7546771E-02  0.1337294E+00
         21   -1    0    0  501  502  0.00000000000E+00  0.00000000000E+00  0.14891972294E+03  0.14891972294E+03  0.00000000000E+00 0.  1.
          2   -1    0    0  503    0 -0.00000000000E+00 -0.00000000000E+00 -0.47765289929E+03  0.47765289929E+03  0.00000000000E+00 0.  1.
         21    1    1    2  503  504  0.50940084081E+02 -0.92963914856E+00 -0.12210829259E+03  0.13231096521E+03  0.00000000000E+00 0.  1.
         21    1    1    2  504  505 -0.79462673415E+02  0.72670029131E+02 -0.29537309015E+03  0.31438910921E+03  0.00000000000E+00 0.  1.
         21    1    1    2  505  502 -0.14827992005E+02 -0.57673808070E+02  0.11337961500E+03  0.12806668021E+03  0.00000000000E+00 0.  1.
          2    1    1    2  501    0  0.43350581339E+02 -0.14066581912E+02 -0.24631408601E+02  0.51805867609E+02  0.00000000000E+00 0.  1.
<scales pt_clust_3="52.59444" pt_clust_4="77.16521" pt_clust_5="14000.00000" pt_clust_6="45.57567"></scales>
<clustering>
<clus scale="   45.576">  1  6  2 -1</clus>
<clus scale="   52.594">  2  3  1 -1</clus>
<clus scale="   77.165">  2  4  1 -1</clus>
<clus scale="   45.576">  1  3  2 -1</clus>
</clustering>
</event>
<event>
 6    0  0.4081161E+002  0.8288175E+02  0.7546771E-02  0.1321067E+00
          1   -1    0    0  505    0 -0.00000000000E+00  0.00000000000E+00  0.49346589027E+03  0.49346589027E+03  0.00000000000E+00 0. -1.
         21   -1    0    0  503  502  0.00000000000E+00 -0.00000000000E+00 -0.11962339846E+04  0.11962339846E+04  0.00000000000E+00 0.  1.
         21    1    1    2  503  501  0.79396934323E+02 -0.50161760495E+02 -0.91476772735E+03  0.91957602753E+03  0.00000000000E+00 0.  1.
         21    1    1    2  504  502 -0.32762882339E+02  0.58414675477E+02 -0.22999893190E+03  0.23955205999E+03  0.00000000000E+00 0.  1.
         21    1    1    2  505  504  0.39743402686E+02  0.47224082681E+02 -0.13891407993E+02  0.63266288481E+02  0.00000000000E+00 0. -1.
          1    1    1    2  501    0 -0.86377454670E+02 -0.55476997663E+02  0.45588997287E+03  0.46730549891E+03  0.00000000000E+00 0. -1.
<scales pt_clust_3="14000.00000" pt_clust_4="82.88175" pt_clust_5="61.72238" pt_clust_6="48.08804"></scales>
<clustering>
<clus scale="   61.722">  1  5  2 -1</clus>
<clus scale="   48.088">  1  6  2 -1</clus>
<clus scale="   82.882">  1  4  2 -1</clus>
<clus scale="   82.882">  2  3  1 -1</clus>
</clustering>
</event>
<event>
 6    0  0.4081161E+002  0.5769045E+02  0.7546771E-02  0.1407788E+00
         21   -1    0    0  501  502  0.00000000000E+00  0.00000000000E+00  0.22804954388E+03  0.22804954388E+03  0.00000000000E+00 0. -1.
          1   -1    0    0  503    0 -0.00000000000E+00 -0.00000000000E+00 -0.26774720546E+03  0.26774720546E+03  0.00000000000E+00 0.  1.
         21    1    1    2  503  504  0.18564167642E+02  0.37844430731E+02 -0.81301520224E+02  0.91579290499E+02  0.00000000000E+00 0.  1.
         21    1    1    2  504  505  0.52658983840E+02  0.82944126757E+02  0.11254607665E+03  0.14939650635E+03  0.00000000000E+00 0. -1.
         21    1    1    2  505  502 -0.41387819979E+02 -0.36289567651E+02  0.69234032936E+02  0.88449056974E+02  0.00000000000E+00 0. -1.
          1    1    1    2  501    0 -0.29835331503E+02 -0.84498989837E+02 -0.14017625093E+03  0.16637189551E+03  0.00000000000E+00 0.  1.
<scales pt_clust_3="42.15245" pt_clust_4="57.69045" pt_clust_5="52.98958" pt_clust_6="14000.00000"></scales>
<clustering>
<clus scale="   42.152">  2  3  1 -1</clus>
<clus scale="   52.990">  1  5  2 -1</clus>
<clus scale="   57.690">  1  4  2 -1</clus>
<clus scale="   52.990">  1  3  2 -1</clus>
</clustering>
</event>
<event>
 6    0  0.4158284E+002  0.1053450E+03  0.7546771E-02  0.1269441E+00
         21   -1    0    0  504  502  0.00000000000E+00  0.00000000000E+00  0.89533071659E+03  0.89533071659E+03  0.00000000000E+00 0.  1.
          1   -1    0    0  503    0 -0.00000000000E+00 -0.00000000000E+00 -0.69817033688E+03  0.69817033688E+03  0.00000000000E+00 0.  1.
         21    1    1    2  503  505 -0.62844596049E+01  0.57030400021E+02 -0.24686134509E+02  0.62460917349E+02  0.00000000000E+00 0. -1.
         21    1    1    2  504  501 -0.65831674982E+02 -0.26838472038E+02  0.80362234124E+03  0.80676079500E+03  0.00000000000E+00 0.  1.
         21    1    1    2  505  502 -0.38559646036E+02  0.58962224361E+01  0.60255486346E+02  0.71779769965E+02  0.00000000000E+00 0.  1.
          1    1    1    2  501    0  0.11067578062E+03 -0.36088150419E+02 -0.64203131336E+03  0.65249957116E+03  0.00000000000E+00 0.  1.
<scales pt_clust_3="57.61167" pt_clust_4="14000.00000" pt_clust_5="39.00784" pt_clust_6="105.34505"></scales>
<clustering>
<clus scale="   39.008">  1  5  2 -1</clus>
<clus scale="   57.612">  2  3  1 -1</clus>
<clus scale="  105.345">  2  6  1 -1</clus>
<clus scale="   39.008">  1  3  2 -1</clus>
</clustering>
</event>
<event>
 6    0  0.4081161E+002  0.1014142E+03  0.7546771E-02  0.1277350E+00
         21   -1    0    0  503  502  0.00000000000E+00  0.00000000000E+00  0.29168359362E+04  0.29168359362E+04  0.00000000000E+00 0.  1.
          1   -1    0    0  504    0 -0.00000000000E+00 -0.00000000000E+00 -0.66911395895E+03  0.66911395895E+03  0.00000000000E+00 0. -1.
         21    1    1    2  503  501 -0.10502008385E+03 -0.16869440693E+02  0.28797215076E+03  0.30698820116E+03  0.00000000000E+00 0.  1.
         21    1    1    2  504  505  0.59524067319E+02  0.42668064611E+01 -0.33265675188E+02  0.68322217275E+02  0.00000000000E+00 0. -1.
         21    1    1    2  505  502  0.78689030131E+02 -0.69199995483E+02  0.25975652713E+04  0.25996780457E+04  0.00000000000E+00 0.  1.
          1    1    1    2  501    0 -0.33193013600E+02  0.81802629714E+02 -0.60454976954E+03  0.61096143105E+03  0.00000000000E+00 0. -1.
<scales pt_clust_3="101.41420" pt_clust_4="59.67680" pt_clust_5="14000.00000" pt_clust_6="89.64488"></scales>
<clustering>
<clus scale="   59.677">  2  4  1 -1</clus>
<clus scale="   89.645">  2  6  1 -1</clus>
<clus scale="  101.414">  2  3  1 -1</clus>
<clus scale="  101.414">  1  3  2 -1</clus>
</clustering>
</event>
<event>
 6    0  0.4081161E+002  0.9936863E+02  0.7546771E-02  0.1281629E+00
         21   -1    0    0  504  502  0.00000000000E+00  0.00000000000E+00  0.32085742662E+03  0.32085742662E+03  0.00000000000E+00 0. -1.
         -4   -1    0    0    0  501 -0.00000000000E+00 -0.00000000000E+00 -0.43407796837E+03  0.43407796837E+03  0.00000000000E+00 0.  1.
         21    1    1    2  503  501 -0.38941509078E+02  0.17039513139E+02 -0.54818830909E+02  0.69367790505E+02  0.00000000000E+00 0. -1.
         21    1    1    2  504  503  0.89743774878E+02 -0.31719994774E+02  0.21926969253E+03  0.23903828409E+03  0.00000000000E+00 0. -1.
         21    1    1    2  505  502 -0.97960841194E+02  0.81491333702E+02  0.27696939205E+02  0.13040047668E+03  0.00000000000E+00 0. -1.
         -4    1    1    2    0  505  0.47158575394E+02 -0.66810852068E+02 -0.30536834258E+03  0.31612884372E+03  0.00000000000E+00 0.  1.
<scales pt_clust_3="42.50631" pt_clust_4="99.36863" pt_clust_5="14000.00000" pt_clust_6="54.57328"></scales>
<clustering>
<clus scale="   42.506">  2  3  1 -1</clus>
<clus scale="   54.573">  2  6  1 -1</clus>
<clus scale="   99.369">  1  4  2 -1</clus>
<clus scale="   99.369">  1  3  2 -1</clus>
</clustering>
</event>
<event>
 6    0  0.4081161E+002  0.1314070E+03  0.7546771E-02  0.1225383E+00
          2   -1    0    0  505    0 -0.00000000000E+00  0.00000000000E+00  0.26132938831E+04  0.26132938831E+04  0.00000000000E+00 0. -1.
         21   -1    0    0  504  502  0.00000000000E+00 -0.00000000000E+00 -0.30766373090E+03  0.30766373090E+03  0.00000000000E+00 0. -1.
         21    1    1    2  503  502  0.19504397818E+02 -0.52121800184E+02 -0.31157653993E+02  0.63780114385E+02  0.00000000000E+00 0. -1.
         21    1    1    2  504  501 -0.13571682683E+03  0.11275089556E+03 -0.22370787726E+03  0.28491584000E+03  0.00000000000E+00 0. -1.
         21    1    1    2  505  503  0.33962339251E+02 -0.25465466400E+02  0.83678844440E+02  0.93830056342E+02  0.00000000000E+00 0.  1.
          2    1    1    2  501    0  0.82250089763E+02 -0.35163628978E+02  0.24768168390E+04  0.24784316033E+04  0.00000000000E+00 0. -1.
<scales pt_clust_3="55.88283" pt_clust_4="131.40704" pt_clust_5="42.44915" pt_clust_6="14000.00000"></scales>
<clustering>
<clus scale="   42.449">  1  5  2 -1</clus>
<clus scale="   55.883">  2  3  1 -1</clus>
<clus scale="  131.407">  2  4  1 -1</clus>
<clus scale="   55.883">  2  3  1 -1</clus>
</clustering>
</event>
<event>
 6    0  0.4081161E+002  0.1097166E+03  0.7546771E-02  0.1261096E+00
          2   -1    0    0  504    0 -0.00000000000E+00  0.00000000000E+00  0.38983168034E+04  0.38983168034E+04  0.00000000000E+00 0. -1.
         21   -1    0    0  501  502  0.00000000000E+00 -0.00000000000E+00 -0.32265679655E+02  0.32265679655E+02  0.00000000000E+00 0.  1.
         21    1    1    2  503  505 -0.83261094543E+02 -0.13434421370E+03  0.40032529326E+03  0.43039646611E+03  0.00000000000E+00 0.  1.
         21    1    1    2  504  503  0.38990149049E+02  0.35300528601E+02  0.75503562084E+03  0.75686534323E+03  0.00000000000E+00 0. -1.
         21    1    1    2  505  502 -0.17143072279E+02  0.78979156014E+02  0.86666871546E+02  0.11850206173E+03  0.00000000000E+00 0.  1.
          2    1    1    2  501    0  0.61414017773E+02  0.20064529081E+02  0.26240233381E+04  0.26248186120E+04  0.00000000000E+00 0. -1.
<scales pt_clust_3="109.71658" pt_clust_4="52.59619" pt_clust_5="81.68801" pt_clust_6="14000.00000"></scales>
<clustering>
<clus scale="   52.596">  1  4  2 -1</clus>
<clus scale="   81.688">  2  5  1 -1</clus>
<clus scale="  109.717">  2  3  1 -1</clus>
<clus scale="   81.688">  2  3  1 -1</clus>
</clustering>
</event>
<event>
 6    0  0.4081161E+002  0.2027113E+03  0.7546771E-02  0.1147471E+00
         21   -1    0    0  504  502  0.00000000000E+00  0.00000000000E+00  0.73504494695E+02  0.73504494695E+02  0.00000000000E+00 0.  1.
          2   -1    0    0  505    0 -0.00000000000E+00 -0.00000000000E+00 -0.13032882502E+04  0.13032882502E+04  0.00000000000E+00 0. -1.
         21    1    1    2  503  502  0.21381008220E+03  0.12388353260E+02 -0.13279119515E+03  0.25199548420E+03  0.00000000000E+00 0.  1.
         21    1    1    2  504  501 -0.55183319759E+02 -0.29310120604E+02 -0.40816369817E+03  0.41291874074E+03  0.00000000000E+00 0. -1.
         21    1    1    2  505  503 -0.83784211353E+02  0.14613805651E+02 -0.19977046652E+03  0.21712115669E+03  0.00000000000E+00 0.  1.
          2    1    1    2  501    0 -0.74842551087E+02  0.23079616930E+01 -0.48905839567E+03  0.49475736328E+03  0.00000000000E+00 0. -1.
<scales pt_clust_3="199.64795" pt_clust_4="32.07122" pt_clust_5="85.04915" pt_clust_6="32.07122"></scales>
<clustering>
<clus scale="   32.071">  4  6 -1 -1</clus>
<clus scale="   85.049">  2  5  1 -1</clus>
<clus scale="  199.648">  1  3  2 -1</clus>
<clus scale="  199.648">  1  3  2 -1</clus>
</clustering>
</event>
<event>
 6    0  0.4081161E+002  0.2974843E+03  0.7546771E-02  0.1086505E+00
         21   -1    0    0  501  502  0.00000000000E+00  0.00000000000E+00  0.36917131509E+03  0.36917131509E+03  0.00000000000E+00 0. -1.
          2   -1    0    0  505    0 -0.00000000000E+00 -0.00000000000E+00 -0.24305352012E+04  0.24305352012E+04  0.00000000000E+00 0.  1.
         21    1    1    2  503  502 -0.26277921959E+02 -0.27498652556E+02  0.86595326673E+02  0.94580419096E+02  0.00000000000E+00 0. -1.
         21    1    1    2  504  503 -0.29940040898E+02 -0.27103910461E+03  0.16713611207E+03  0.31983289736E+03  0.00000000000E+00 0. -1.
         21    1    1    2  505  504  0.18227159402E+03  0.22548248953E+02 -0.33460512642E+03  0.38169614635E+03  0.00000000000E+00 0.  1.
          2    1    1    2  501    0 -0.12605363116E+03  0.27598950822E+03 -0.19804901985E+04  0.20035970535E+04  0.00000000000E+00 0.  1.
<scales pt_clust_3="38.03558" pt_clust_4="297.48425" pt_clust_5="181.18289" pt_clust_6="14000.00000"></scales>
<clustering>
<clus scale="   38.036">  1  3  2 -1</clus>
<clus scale="  181.183">  2  5  1 -1</clus>
<clus scale="  297.484">  1  4  2 -1</clus>
<clus scale="   38.036">  1  3  2 -1</clus>
</clustering>
</event>
<event>
 6    0  0.4081161E+002  0.1146980E+03  0.7546771E-02  0.1252109E+00
         21   -1    0    0  505  502  0.00000000000E+00  0.00000000000E+00  0.17535926243E+03  0.17535926243E+03  0.00000000000E+00 0.  1.
          1   -1    0    0  504    0 -0.00000000000E+00 -0.00000000000E+00 -0.97232995740E+03  0.97232995740E+03  0.00000000000E+00 0.  1.
         21    1    1    2  503  501  0.52644955102E+02  0.80142479599E+02  0.93020155762E+02  0.13359288047E+03  0.00000000000E+00 0.  1.
         21    1    1    2  504  502 -0.13326725469E+02  0.35116959817E+02 -0.53054684108E+02  0.65004630484E+02  0.00000000000E+00 0.  1.
         21    1    1    2  505  503 -0.25161497160E+02  0.32304896408E+02  0.41461350634E+02  0.58273071548E+02  0.00000000000E+00 0.  1.
          1    1    1    2  501    0 -0.14156732473E+02 -0.14756433582E+03 -0.87839751726E+03  0.89081863733E+03  0.00000000000E+00 0.  1.
<scales pt_clust_3="14000.00000" pt_clust_4="37.56065" pt_clust_5="41.27810" pt_clust_6="114.69798"></scales>
<clustering>
<clus scale="   37.561">  2  4  1 -1</clus>
<clus scale="   41.278">  1  5  2 -1</clus>
<clus scale="  114.698">  2  6  1 -1</clus>
<clus scale="   41.278">  1  3  2 -1</clus>
</clustering>
</event>
<event>
 6    0  0.4081161E+002  0.8624773E+02  0.7546771E-02  0.1312201E+00
          2   -1    0    0  504    0 -0.00000000000E+00  0.00000000000E+00  0.83218715447E+03  0.83218715447E+03  0.00000000000E+00 0. -1.
         21   -1    0    0  503  502  0.00000000000E+00 -0.00000000000E+00 -0.26003265023E+03  0.26003265023E+03  0.00000000000E+00 0. -1.
         21    1    1    2  503  501 -0.24914477966E+02  0.22547021669E+02 -0.13222344945E+03  0.13642631705E+03  0.00000000000E+00 0. -1.
         21    1    1    2  504  505 -0.50686203881E+02 -0.40464060214E+02  0.15498376599E+03  0.16800714019E+03  0.00000000000E+00 0. -1.
         21    1    1    2  505  502 -0.62158579519E+02 -0.10637294064E+02 -0.10279411241E+03  0.12059631246E+03  0.00000000000E+00 0. -1.
          2    1    1    2  501    0  0.13775926137E+03  0.28554332608E+02  0.65218830012E+03  0.66719003501E+03  0.00000000000E+00 0. -1.
<scales pt_clust_3="33.60207" pt_clust_4="65.15958" pt_clust_5="86.24773" pt_clust_6="14000.00000"></scales>
<clustering>
<clus scale="   33.602">  2  3  1 -1</clus>
<clus scale="   65.160">  1  4  2 -1</clus>
<clus scale="   86.248">  2  5  1 -1</clus>
<clus scale="   33.602">  2  3  1 -1</clus>
</clustering>
</event>
<event>
 6    0  0.4081161E+002  0.1124428E+03  0.7546771E-02  0.1256112E+00
         21   -1    0    0  503  502  0.00000000000E+00  0.00000000000E+00  0.24807480352E+04  0.24807480352E+04  0.00000000000E+00 0. -1.
         -2   -1    0    0    0  501 -0.00000000000E+00 -0.00000000000E+00 -0.54472705725E+02  0.54472705725E+02  0.00000000000E+00 0. -1.
         21    1    1    2  503  505  0.73746757798E+02  0.11454445323E+03  0.21342614656E+04  0.21386049236E+04  0.00000000000E+00 0. -1.
         21    1    1    2  504  502 -0.21517366053E+02 -0.66360841644E+02  0.29539361476E+03  0.30351959737E+03  0.00000000000E+00 0.  1.
         21    1    1    2  505  501 -0.41469571655E+02 -0.86179045250E+01 -0.22380588410E+02  0.47904951615E+02  0.00000000000E+00 0. -1.
         -2    1    1    2    0  504 -0.10759820090E+02 -0.39565707063E+02  0.19000837593E+02  0.45191268327E+02  0.00000000000E+00 0. -1.
<scales pt_clust_3="14000.00000" pt_clust_4="112.44281" pt_clust_5="65.90803" pt_clust_6="41.00267"></scales>
<clustering>
<clus scale="   41.003">  2  6  1 -1</clus>
<clus scale="   65.908">  2  5  1 -1</clus>
<clus scale="  112.443">  2  4  1 -1</clus>
<clus scale="  112.443">  1  3  2 -1</clus>
</clustering>
</event>
<event>
 6    0  0.4081161E+002  0.8221765E+02  0.7546771E-02  0.1322873E+00
          1   -1    0    0  503    0 -0.00000000000E+00  0.00000000000E+00  0.31804197136E+04  0.31804197136E+04  0.00000000000E+00 0.  1.
         21   -1    0    0  504  502  0.00000000000E+00 -0.00000000000E+00 -0.12771008695E+02  0.12771008695E+02  0.00000000000E+00 0. -1.
         21    1    1    2  503  505 -0.24990454033E+02 -0.19325754417E+02  0.62977719708E+03  0.63056904899E+03  0.00000000000E+00 0. -1.
         21    1    1    2  504  501  0.94670790917E+02  0.47537838410E+02  0.28499062554E+03  0.30404286109E+03  0.00000000000E+00 0. -1.
         21    1    1    2  505  502 -0.77211246645E+01 -0.55277601255E+02  0.34380922105E+03  0.34831022013E+03  0.00000000000E+00 0. -1.
          1    1    1    2  501    0 -0.61959212220E+02  0.27065517263E+02  0.19090716612E+04  0.19102685920E+04  0.00000000000E+00 0.  1.
<scales pt_clust_3="31.59126" pt_clust_4="82.21765" pt_clust_5="58.95673" pt_clust_6="14000.00000"></scales>
<clustering>
<clus scale="   31.591">  1  3  2 -1</clus>
<clus scale="   58.957">  2  5  1 -1</clus>
<clus scale="   82.218">  2  4  1 -1</clus>
<clus scale="   58.957">  2  3  1 -1</clus>
</clustering>
</event>
<event>
 6    0  0.4081161E+002  0.1100496E+03  0.7546771E-02  0.1260478E+00
         -4   -1    0    0    0  501 -0.00000000000E+00  0.00000000000E+00  0.23672145225E+03  0.23672145225E+03  0.00000000000E+00 0.  1.
         21   -1    0    0  503  502  0.00000000000E+00 -0.00000000000E+00 -0.20144466089E+04  0.20144466089E+04  0.00000000000E+00 0. -1.
         21    1    1    2  503  501 -0.32008589208E+02 -0.96792534117E+01 -0.41332941249E+01  0.33694537392E+02  0.00000000000E+00 0.  1.
         21    1    1    2  504  505  0.52720333113E+02 -0.90787065617E+02 -0.23109858966E+03  0.25382726991E+03  0.00000000000E+00 0. -1.
         21    1    1    2  505  502 -0.46959232546E+02 -0.20869278609E+02 -0.17343595685E+04  0.17351206901E+04  0.00000000000E+00 0. -1.
         -4    1    1    2    0  504  0.26247488642E+02  0.12133559764E+03  0.19186629561E+03  0.22852556379E+03  0.00000000000E+00 0.  1.
<scales pt_clust_3="33.44006" pt_clust_4="14000.00000" pt_clust_5="51.44460" pt_clust_6="110.04965"></scales>
<clustering>
<clus scale="   33.440">  1  3  2 -1</clus>
<clus scale="   51.445">  2  5  1 -1</clus>
<clus scale="  110.050">  1  6  2 -1</clus>
<clus scale="   51.445">  2  3  1 -1</clus>
</clustering>
</event>
<event>
 6    0  0.4081161E+002  0.1420351E+03  0.7546771E-02  0.1210617E+00
          2   -1    0    0  504    0 -0.00000000000E+00  0.00000000000E+00  0.38296409053E+03  0.38296409053E+03  0.00000000000E+00 0.  1.
         21   -1    0    0  505  502  0.00000000000E+00 -0.00000000000E+00 -0.42106130168E+03  0.42106130168E+03  0.00000000000E+00 0.  1.
         21    1    1    2  503  502 -0.27532259053E+02  0.10282959400E+03 -0.33823652451E+03  0.35459257917E+03  0.00000000000E+00 0.  1.
         21    1    1    2  504  503 -0.15571681889E+02 -0.45686721326E+02  0.78391067664E+02  0.92059292154E+02  0.00000000000E+00 0.  1.
         21    1    1    2  505  501 -0.61302822773E+02  0.15602002271E+02 -0.33927915922E+02  0.71781348787E+02  0.00000000000E+00 0. -1.
          2    1    1    2  501    0  0.10440676372E+03 -0.72744874948E+02  0.25567616162E+03  0.28559217209E+03  0.00000000000E+00 0.  1.
<scales pt_clust_3="142.03508" pt_clust_4="48.26752" pt_clust_5="63.57368" pt_clust_6="14000.00000"></scales>
<clustering>
<clus scale="   48.268">  1  4  2 -1</clus>
<clus scale="   63.574">  2  5  1 -1</clus>
<clus scale="  142.035">  2  3  1 -1</clus>
<clus scale="   63.574">  2  3  1 -1</clus>
</clustering>
</event>
<event>
 6    0  0.4081161E+002  0.5916901E+02  0.7546771E-02  0.1401352E+00
          1   -1    0    0  504    0 -0.00000000000E+00  0.00000000000E+00  0.50858855131E+03  0.50858855131E+03  0.00000000000E+00 0. -1.
         21   -1    0    0  505  502  0.00000000000E+00 -0.00000000000E+00 -0.24686518193E+03  0.24686518193E+03  0.00000000000E+00 0. -1.
         21    1    1    2  503  502  0.22441461203E+02  0.27644827020E+02 -0.31473500199E+02  0.47523013969E+02  0.00000000000E+00 0.  1.
         21    1    1    2  504  503 -0.98502679523E+00 -0.58056347686E+02  0.16925192177E+03  0.17893496810E+03  0.00000000000E+00 0.  1.
         21    1    1    2  505  501  0.31540247696E+02 -0.50745601222E+02 -0.19065732172E+03  0.19980019418E+03  0.00000000000E+00 0. -1.
          1    1    1    2  501    0 -0.52996682104E+02  0.81157121888E+02  0.31460226953E+03  0.32919555699E+03  0.00000000000E+00 0. -1.
<scales pt_clust_3="35.60696" pt_clust_4="57.41276" pt_clust_5="59.16901" pt_clust_6="14000.00000"></scales>
<clustering>
<clus scale="   35.607">  2  3  1 -1</clus>
<clus scale="   57.413">  1  4  2 -1</clus>
<clus scale="   59.169">  2  5  1 -1</clus>
<clus scale="   35.607">  2  3  1 -1</clus>
</clustering>
</event>
<event>
 6    0  0.4081161E+002  0.2391720E+03  0.7546771E-02  0.1120346E+00
         21   -1    0    0  504  502  0.00000000000E+00  0.00000000000E+00  0.20994539130E+03  0.20994539130E+03  0.00000000000E+00 0. -1.
          1   -1    0    0  502    0 -0.00000000000E+00 -0.00000000000E+00 -0.13624785775E+04  0.13624785775E+04  0.00000000000E+00 0.  1.
         21    1    1    2  503  505 -0.21618570436E+03  0.91176435220E+02  0.28875817766E+02  0.23639630699E+03  0.00000000000E+00 0. -1.
         21    1    1    2  504  503 -0.31081292329E+02  0.67927408794E+01  0.46006373269E+02  0.55935448893E+02  0.00000000000E+00 0. -1.
         21    1    1    2  505  501  0.18573319125E+03  0.49488196502E+02 -0.50803318737E+03  0.54317917798E+03  0.00000000000E+00 0.  1.
          1    1    1    2  501    0  0.61533805434E+02 -0.14745737260E+03 -0.71938218987E+03  0.73691303493E+03  0.00000000000E+00 0.  1.
<scales pt_clust_3="14000.00000" pt_clust_4="31.81490" pt_clust_5="239.17197" pt_clust_6="158.78225"></scales>
<clustering>
<clus scale="   31.815">  1  4  2 -1</clus>
<clus scale="  158.782">  2  6  1 -1</clus>
<clus scale="  239.172">  2  5  1 -1</clus>
<clus scale="   31.815">  1  3  2 -1</clus>
</clustering>
</event>
<event>
 6    0  0.4081161E+002  0.1668671E+03  0.7546771E-02  0.1181155E+00
         21   -1    0    0  503  502  0.00000000000E+00  0.00000000000E+00  0.17288360256E+04  0.17288360256E+04  0.00000000000E+00 0. -1.
         -1   -1    0    0    0  501 -0.00000000000E+00 -0.00000000000E+00 -0.36412271265E+02  0.36412271265E+02  0.00000000000E+00 0. -1.
         21    1    1    2  503  501 -0.45688338131E+02 -0.14613901260E+03  0.19087488704E+03  0.24469829943E+03  0.00000000000E+00 0. -1.
         21    1    1    2  504  502 -0.44681471695E+02  0.11925275306E+02  0.63295984990E+03  0.63464700243E+03  0.00000000000E+00 0. -1.
         21    1    1    2  505  504  0.33948699943E+02  0.21358764439E+02  0.34511746860E+03  0.34744032319E+03  0.00000000000E+00 0. -1.
         -1    1    1    2    0  505  0.56421109883E+02  0.11285497285E+03  0.52347154880E+03  0.53846267181E+03  0.00000000000E+00 0. -1.
<scales pt_clust_3="153.77722" pt_clust_4="46.24550" pt_clust_5="36.52723" pt_clust_6="36.52723"></scales>
<clustering>
<clus scale="   36.527">  5  6 -1 -1</clus>
<clus scale="   46.245">  1  4  2 -1</clus>
<clus scale="  153.777">  2  3  1 -1</clus>
<clus scale="   46.245">  1  3  2 -1</clus>
</clustering>
</event>
<event>
 6    0  0.4081161E+002  0.2206905E+03  0.7546771E-02  0.1133369E+00
         21   -1    0    0  505  502  0.00000000000E+00  0.00000000000E+00  0.31036217991E+03  0.31036217991E+03  0.00000000000E+00 0.  1.
          2   -1    0    0  503    0 -0.00000000000E+00 -0.00000000000E+00 -0.41379662373E+03  0.41379662373E+03  0.00000000000E+00 0. -1.
         21    1    1    2  503  504  0.88663004576E+02 -0.10919317815E+02  0.83023757145E+02  0.12195615660E+03  0.00000000000E+00 0.  1.
         21    1    1    2  504  502  0.84309796253E+02 -0.97172583943E+02  0.15138478660E+03  0.19866556427E+03  0.00000000000E+00 0.  1.
         21    1    1    2  505  501 -0.96519556345E+02  0.45686280488E+02 -0.10112085584E+03  0.14706695233E+03  0.00000000000E+00 0. -1.
          2    1    1    2  501    0 -0.76453244484E+02  0.62405621270E+02 -0.23672213172E+03  0.25647013043E+03  0.00000000000E+00 0. -1.
<scales pt_clust_3="65.86490" pt_clust_4="218.74854" pt_clust_5="81.00887" pt_clust_6="81.00887"></scales>
<clustering>
<clus scale="   65.865">  3  4 -1 -1</clus>
<clus scale="   81.009">  5  6 -1 -1</clus>
<clus scale="  218.749">  1  3  2 -1</clus>
<clus scale="  218.749">  1  3  2 -1</clus>
</clustering>
</event>
<event>
 6    0  0.4081161E+002  0.2353222E+03  0.7546771E-02  0.1122949E+00
         21   -1    0    0  504  502  0.00000000000E+00  0.00000000000E+00  0.51626510345E+03  0.51626510345E+03  0.00000000000E+00 0. -1.
         -2   -1    0    0    0  501 -0.00000000000E+00 -0.00000000000E+00 -0.65045049572E+03  0.65045049572E+03  0.00000000000E+00 0. -1.
         21    1    1    2  503  501 -0.48004460668E+02  0.23373551853E+03 -0.31232268361E+03  0.39304221092E+03  0.00000000000E+00 0. -1.
         21    1    1    2  504  503  0.25113390229E+01 -0.41741779229E+02  0.43538912336E+03  0.43739269736E+03  0.00000000000E+00 0. -1.
         21    1    1    2  505  502 -0.27037023612E+02 -0.48111755067E+02 -0.72978912557E+02  0.91496793930E+02  0.00000000000E+00 0. -1.
         -2    1    1    2    0  505  0.72530145257E+02 -0.14388198424E+03 -0.18427291947E+03  0.24478389696E+03  0.00000000000E+00 0. -1.
<scales pt_clust_3="217.71902" pt_clust_4="41.81726" pt_clust_5="51.87732" pt_clust_6="51.87732"></scales>
<clustering>
<clus scale="   41.817">  1  4  2 -1</clus>
<clus scale="   51.877">  5  6 -1 -1</clus>
<clus scale="  217.719">  1  3  2 -1</clus>
<clus scale="   41.817">  1  3  2 -1</clus>
</clustering>
</event>
<event>
 6    0  0.4081161E+002  0.9510748E+02  0.7546771E-02  0.1290934E+00
          2   -1    0    0  503    0 -0.00000000000E+00  0.00000000000E+00  0.15428650320E+04  0.15428650320E+04  0.00000000000E+00 0. -1.
         21   -1    0    0  505  502  0.00000000000E+00 -0.00000000000E+00 -0.26296870839E+02  0.26296870839E+02  0.00000000000E+00 0. -1.
         21    1    1    2  503  504 -0.38823157444E+02 -0.29113738327E+01  0.23305422418E+03  0.23628369614E+03  0.00000000000E+00 0. -1.
         21    1    1    2  504  502 -0.46748263105E+02  0.22063889235E+02  0.72033192751E+02  0.88662258991E+02  0.00000000000E+00 0. -1.
         21    1    1    2  505  501  0.10181436426E+03  0.60080683174E+02  0.22270393827E+03  0.25213666410E+03  0.00000000000E+00 0. -1.
          2    1    1    2  501    0 -0.16242943710E+02 -0.79233198577E+02  0.98877680593E+03  0.99207928358E+03  0.00000000000E+00 0. -1.
<scales pt_clust_3="38.93217" pt_clust_4="53.78645" pt_clust_5="14000.00000" pt_clust_6="95.10748"></scales>
<clustering>
<clus scale="   38.932">  1  3  2 -1</clus>
<clus scale="   53.786">  2  4  1 -1</clus>
<clus scale="   95.107">  1  6  2 -1</clus>
<clus scale="   53.786">  2  3  1 -1</clus>
</clustering>
</event>
<event>
 6    0  0.4081161E+002  0.1308542E+03  0.7546771E-02  0.1226194E+00
         21   -1    0    0  503  502  0.00000000000E+00  0.00000000000E+00  0.27419788865E+03  0.27419788865E+03  0.00000000000E+00 0. -1.
          2   -1    0    0  505    0 -0.00000000000E+00 -0.00000000000E+00 -0.22923625232E+04  0.22923625232E+04  0.00000000000E+00 0.  1.
         21    1    1    2  503  504  0.20174090693E+00  0.67340635321E+02  0.23386034149E+03  0.24336281800E+03  0.00000000000E+00 0. -1.
         21    1    1    2  504  501 -0.12006721264E+03 -0.11136886538E+03 -0.20147786086E+03  0.25963914986E+03  0.00000000000E+00 0.  1.
         21    1    1    2  505  502 -0.11224815813E+02  0.61903846986E+02 -0.23753551466E+03  0.24572587061E+03  0.00000000000E+00 0. -1.
          2    1    1    2  501    0  0.13109028754E+03 -0.17875616927E+02 -0.18130116005E+04  0.18178325733E+04  0.00000000000E+00 0.  1.
<scales pt_clust_3="67.48429" pt_clust_4="14000.00000" pt_clust_5="62.91330" pt_clust_6="130.85420"></scales>
<clustering>
<clus scale="   62.913">  2  5  1 -1</clus>
<clus scale="   67.484">  1  3  2 -1</clus>
<clus scale="  130.854">  2  6  1 -1</clus>
<clus scale="   67.484">  1  3  2 -1</clus>
</clustering>
</event>
<event>
 6    0  0.4081161E+002  0.3352211E+03  0.7546771E-02  0.1068850E+00
         21   -1    0    0  505  502  0.00000000000E+00  0.00000000000E+00  0.54639576558E+03  0.54639576558E+03  0.00000000000E+00 0. -1.
          2   -1    0    0  503    0 -0.00000000000E+00 -0.00000000000E+00 -0.20929242784E+04  0.20929242784E+04  0.00000000000E+00 0.  1.
         21    1    1    2  503  504 -0.14553470195E+02 -0.43677873955E+02 -0.25693107523E+03  0.26102325104E+03  0.00000000000E+00 0.  1.
         21    1    1    2  504  502  0.17018312631E+03 -0.87425084955E+02  0.13270717559E+03  0.23284466155E+03  0.00000000000E+00 0. -1.
         21    1    1    2  505  501  0.16503770403E+03  0.16448444799E+03  0.30752824789E+03  0.38583182947E+03  0.00000000000E+00 0. -1.
          2    1    1    2  501    0 -0.32066736014E+03 -0.33381489083E+02 -0.17298328610E+04  0.17596203019E+04  0.00000000000E+00 0.  1.
<scales pt_clust_3="46.03868" pt_clust_4="191.52098" pt_clust_5="14000.00000" pt_clust_6="335.22111"></scales>
<clustering>
<clus scale="   46.039">  2  3  1 -1</clus>
<clus scale="  191.521">  1  4  2 -1</clus>
<clus scale="  335.221">  2  6  1 -1</clus>
<clus scale="  191.521">  1  3  2 -1</clus>
</clustering>
</event>
<event>
 6    0  0.4081161E+002  0.6926422E+02  0.7546771E-02  0.1362613E+00
         21   -1    0    0  503  502  0.00000000000E+00  0.00000000000E+00  0.19629222392E+04  0.19629222392E+04  0.00000000000E+00 0. -1.
         -4   -1    0    0    0  501 -0.00000000000E+00 -0.00000000000E+00 -0.58295683121E+02  0.58295683121E+02  0.00000000000E+00 0. -1.
         21    1    1    2  503  501 -0.25561361531E+02 -0.12830611054E+03  0.12385908546E+03  0.18015802579E+03  0.00000000000E+00 0. -1.
         21    1    1    2  504  505  0.24054609578E+02  0.37042489973E+02  0.62059060017E+02  0.76171498840E+02  0.00000000000E+00 0. -1.
         21    1    1    2  505  502  0.40185336668E+01  0.35344472046E+02  0.17074143227E+04  0.17077848371E+04  0.00000000000E+00 0. -1.
         -4    1    1    2    0  504 -0.25117817131E+01  0.55919148518E+02  0.11294087927E+02  0.57103560664E+02  0.00000000000E+00 0. -1.
<scales pt_clust_3="14000.00000" pt_clust_4="52.95893" pt_clust_5="35.57218" pt_clust_6="69.26422"></scales>
<clustering>
<clus scale="   35.572">  1  5  2 -1</clus>
<clus scale="   52.959">  1  4  2 -1</clus>
<clus scale="   69.264">  2  6  1 -1</clus>
<clus scale="   35.572">  1  3  2 -1</clus>
</clustering>
</event>
<event>
 6    0  0.4081161E+002  0.8322416E+02  0.7546771E-02  0.1320143E+00
          1   -1    0    0  504    0 -0.00000000000E+00  0.00000000000E+00  0.12034535849E+04  0.12034535849E+04  0.00000000000E+00 0. -1.
         21   -1    0    0  505  502  0.00000000000E+00 -0.00000000000E+00 -0.99062552843E+02  0.99062552843E+02  0.00000000000E+00 0. -1.
         21    1    1    2  503  502 -0.38668071249E+02  0.52409100760E+01  0.27494675308E+02  0.47735144735E+02  0.00000000000E+00 0.  1.
         21    1    1    2  504  503  0.51638268951E+02  0.10813813078E+02  0.69705984319E+02  0.87420670458E+02  0.00000000000E+00 0. -1.
         21    1    1    2  505  501  0.41334304476E+02 -0.79020153546E+02 -0.53116513278E+02  0.10379823397E+03  0.00000000000E+00 0. -1.
          1    1    1    2  501    0 -0.54304502177E+02  0.62965430392E+02  0.10603068857E+04  0.10635620886E+04  0.00000000000E+00 0. -1.
<scales pt_clust_3="39.02162" pt_clust_4="49.11358" pt_clust_5="83.22416" pt_clust_6="14000.00000"></scales>
<clustering>
<clus scale="   39.022">  2  3  1 -1</clus>
<clus scale="   49.114">  2  4  1 -1</clus>
<clus scale="   83.224">  2  5  1 -1</clus>
<clus scale="   39.022">  2  3  1 -1</clus>
</clustering>
</event>
<event>
 6    0  0.4081161E+002  0.1028588E+03  0.7546771E-02  0.1274397E+00
          2   -1    0    0  504    0 -0.00000000000E+00  0.00000000000E+00  0.10538776799E+04  0.10538776799E+04  0.00000000000E+00 0.  1.
         21   -1    0    0  501  502  0.00000000000E+00 -0.00000000000E+00 -0.91450174399E+02  0.91450174399E+02  0.00000000000E+00 0. -1.
         21    1    1    2  503  502 -0.10444100738E+02 -0.53380293975E+02 -0.81107873409E+01  0.54993816893E+02  0.00000000000E+00 0. -1.
         21    1    1    2  504  505  0.10082013587E+01 -0.69097959897E+02  0.21770194438E+03  0.22840683246E+03  0.00000000000E+00 0. -1.
         21    1    1    2  505  503  0.92616353824E+02  0.11429545410E+03  0.51856333757E+02  0.15598179116E+03  0.00000000000E+00 0. -1.
          2    1    1    2  501    0 -0.83180454445E+02  0.81827997750E+01  0.70098001468E+03  0.70594541375E+03  0.00000000000E+00 0.  1.
<scales pt_clust_3="54.39242" pt_clust_4="73.86803" pt_clust_5="14000.00000" pt_clust_6="102.85884"></scales>
<clustering>
<clus scale="   54.392">  2  3  1 -1</clus>
<clus scale="   73.868">  1  4  2 -1</clus>
<clus scale="  102.859">  1  6  2 -1</clus>
<clus scale="   54.392">  2  3  1 -1</clus>
</clustering>
</event>
<event>
 6    0  0.4081161E+002  0.1645019E+03  0.7546771E-02  0.1183706E+00
         21   -1    0    0  505  502  0.00000000000E+00  0.00000000000E+00  0.30614623159E+03  0.30614623159E+03  0.00000000000E+00 0. -1.
          2   -1    0    0  502    0 -0.00000000000E+00 -0.00000000000E+00 -0.35668062765E+04  0.35668062765E+04  0.00000000000E+00 0.  1.
         21    1    1    2  503  501 -0.97339612451E+02 -0.85206896255E+02 -0.19145794694E+03  0.23106570661E+03  0.00000000000E+00 0.  1.
         21    1    1    2  504  503 -0.34347185143E+02  0.31406106028E+02  0.19995621585E+03  0.20530114681E+03  0.00000000000E+00 0. -1.
         21    1    1    2  505  504 -0.94955761349E+01 -0.37971183582E+02  0.76902750194E+02  0.86290264434E+02  0.00000000000E+00 0. -1.
          2    1    1    2  501    0  0.14118237373E+03  0.91771973810E+02 -0.33460610640E+04  0.33502953902E+04  0.00000000000E+00 0.  1.
<scales pt_clust_3="164.50188" pt_clust_4="43.01086" pt_clust_5="39.14047" pt_clust_6="14000.00000"></scales>
<clustering>
<clus scale="   39.140">  1  5  2 -1</clus>
<clus scale="   43.011">  1  4  2 -1</clus>
<clus scale="  164.502">  1  3  2 -1</clus>
<clus scale="   39.140">  1  3  2 -1</clus>
</clustering>
</event>
<event>
 6    0  0.4081161E+002  0.9877007E+02  0.7546771E-02  0.1282904E+00
         -2   -1    0    0    0  501 -0.00000000000E+00  0.00000000000E+00  0.99412899568E+03  0.99412899568E+03  0.00000000000E+00 0.  1.
         21   -1    0    0  505  502  0.00000000000E+00 -0.00000000000E+00 -0.34149875759E+03  0.34149875759E+03  0.00000000000E+00 0.  1.
         21    1    1    2  503  502 -0.50949806601E+02 -0.55182183900E+02  0.11791450320E+03  0.13980266906E+03  0.00000000000E+00 0. -1.
         21    1    1    2  504  501 -0.70032900957E+02 -0.27630752788E+02 -0.87252903823E+02  0.11524380652E+03  0.00000000000E+00 0.  1.
         21    1    1    2  505  504  0.23264731201E+02  0.37729222490E+02 -0.22372205009E+03  0.22807081716E+03  0.00000000000E+00 0.  1.
         -2    1    1    2    0  503  0.97717976356E+02  0.45083714198E+02  0.84569068879E+03  0.85251046052E+03  0.00000000000E+00 0.  1.
<scales pt_clust_3="98.77007" pt_clust_4="49.95112" pt_clust_5="44.32541" pt_clust_6="14000.00000"></scales>
<clustering>
<clus scale="   44.325">  2  5  1 -1</clus>
<clus scale="   49.951">  2  4  1 -1</clus>
<clus scale="   98.770">  2  3  1 -1</clus>
<clus scale="   44.325">  2  3  1 -1</clus>
</clustering>
</event>
<event>
 6    0  0.4081161E+002  0.1448280E+03  0.7546771E-02  0.1206976E+00
         21   -1    0    0  504  502  0.00000000000E+00  0.00000000000E+00  0.92548630096E+03  0.92548630096E+03  0.00000000000E+00 0.  1.
          1   -1    0    0  503    0 -0.00000000000E+00 -0.00000000000E+00 -0.24135692610E+04  0.24135692610E+04  0.00000000000E+00 0. -1.
         21    1    1    2  503  505 -0.21276819875E+02  0.32022525495E+02 -0.25105098456E+03  0.25397783772E+03  0.00000000000E+00 0. -1.
         21    1    1    2  504  501  0.33654955704E+02 -0.49996787199E-01  0.64885714363E+03  0.64972936781E+03  0.00000000000E+00 0.  1.
         21    1    1    2  505  502 -0.12839327607E+03 -0.10922877685E+03  0.24638030013E+03  0.29852807460E+03  0.00000000000E+00 0.  1.
          1    1    1    2  501    0  0.11601514024E+03  0.77256248139E+02 -0.21322694193E+04  0.21368202819E+04  0.00000000000E+00 0. -1.
<scales pt_clust_3="38.34803" pt_clust_4="33.65499" pt_clust_5="14000.00000" pt_clust_6="144.82802"></scales>
<clustering>
<clus scale="   33.655">  1  4  2 -1</clus>
<clus scale="   38.348">  2  3  1 -1</clus>
<clus scale="  144.828">  2  6  1 -1</clus>
<clus scale="   33.655">  1  3  2 -1</clus>
</clustering>
</event>
<event>
 6    0  0.4081161E+002  0.8439854E+02  0.7546771E-02  0.1317013E+00
         21   -1    0    0  503  502  0.00000000000E+00  0.00000000000E+00  0.16309987297E+04  0.16309987297E+04  0.00000000000E+00 0. -1.
         -3   -1    0    0    0  501 -0.00000000000E+00 -0.00000000000E+00 -0.30143595398E+03  0.30143595398E+03  0.00000000000E+00 0.  1.
         21    1    1    2  503  504 -0.77018392217E+02 -0.15667571432E+01  0.14259938362E+03  0.16207674626E+03  0.00000000000E+00 0. -1.
         21    1    1    2  504  501  0.10218191015E+03 -0.46201500437E+02 -0.15923809518E+03  0.19476265648E+03  0.00000000000E+00 0.  1.
         21    1    1    2  505  502  0.10543699056E+02  0.54730021118E+02  0.14574675372E+04  0.14585328816E+04  0.00000000000E+00 0. -1.
         -3    1    1    2    0  505 -0.35707216990E+02 -0.69617635376E+01 -0.11126604986E+03  0.11706239937E+03  0.00000000000E+00 0.  1.
<scales pt_clust_3="84.39854" pt_clust_4="14000.00000" pt_clust_5="55.69781" pt_clust_6="36.37955"></scales>
<clustering>
<clus scale="   36.380">  2  6  1 -1</clus>
<clus scale="   55.698">  1  5  2 -1</clus>
<clus scale="   84.399">  1  3  2 -1</clus>
<clus scale="   55.698">  1  3  2 -1</clus>
</clustering>
</event>
<event>
 6    0  0.4081161E+002  0.1042067E+03  0.7546771E-02  0.1271691E+00
         21   -1    0    0  503  502  0.00000000000E+00  0.00000000000E+00  0.44351225609E+03  0.44351225609E+03  0.00000000000E+00 0.  1.
          2   -1    0    0  504    0 -0.00000000000E+00 -0.00000000000E+00 -0.18260694175E+04  0.18260694175E+04  0.00000000000E+00 0.  1.
         21    1    1    2  503  505  0.92257894854E+02  0.30459034436E+02  0.28009393213E+03  0.29646565191E+03  0.00000000000E+00 0.  1.
         21    1    1    2  504  502  0.47379175029E+02 -0.38552343122E+02 -0.18900013481E+03  0.19862557827E+03  0.00000000000E+00 0.  1.
         21    1    1    2  505  501 -0.11635084368E+03 -0.55158768525E+02  0.12202108510E+03  0.17739547282E+03  0.00000000000E+00 0.  1.
          2    1    1    2  501    0 -0.23286226204E+02  0.63252077211E+02 -0.15956720438E+04  0.15970949706E+04  0.00000000000E+00 0.  1.
<scales pt_clust_3="104.20670" pt_clust_4="61.08248" pt_clust_5="14000.00000" pt_clust_6="34.40973"></scales>
<clustering>
<clus scale="   61.082">  2  4  1 -1</clus>
<clus scale="   34.410">  2  6  1 -1</clus>
<clus scale="  104.207">  1  3  2 -1</clus>
<clus scale="  104.207">  1  3  2 -1</clus>
</clustering>
</event>
<event>
 6    0  0.4081161E+002  0.3226053E+03  0.7546771E-02  0.1074456E+00
         21   -1    0    0  504  502  0.00000000000E+00  0.00000000000E+00  0.98512194028E+03  0.98512194028E+03  0.00000000000E+00 0.  1.
          2   -1    0    0  503    0 -0.00000000000E+00 -0.00000000000E+00 -0.16082889146E+04  0.16082889146E+04  0.00000000000E+00 0. -1.
         21    1    1    2  503  505  0.11352779125E+03  0.34157307489E+03  0.11141883923E+03  0.37679554484E+03  0.00000000000E+00 0. -1.
         21    1    1    2  504  501 -0.23237639613E+02 -0.69132275571E+02 -0.20391012079E+03  0.21656083852E+03  0.00000000000E+00 0. -1.
         21    1    1    2  505  502  0.21071236803E+01 -0.55839801990E+02  0.72264543363E+03  0.72480269467E+03  0.00000000000E+00 0.  1.
          2    1    1    2  501    0 -0.92397275315E+02 -0.21660099733E+03 -0.12533211264E+04  0.12752517769E+04  0.00000000000E+00 0. -1.
<scales pt_clust_3="311.62021" pt_clust_4="46.45207" pt_clust_5="55.87954" pt_clust_6="46.45207"></scales>
<clustering>
<clus scale="   46.452">  4  6 -1 -1</clus>
<clus scale="   55.880">  1  5  2 -1</clus>
<clus scale="  311.620">  1  3  2 -1</clus>
<clus scale="   55.880">  1  3  2 -1</clus>
</clustering>
</event>
<event>
 6    0  0.4081161E+002  0.1211066E+03  0.7546771E-02  0.1241283E+00
          2   -1    0    0  503    0 -0.00000000000E+00  0.00000000000E+00  0.42018517255E+04  0.42018517255E+04  0.00000000000E+00 0.  1.
         21   -1    0    0  505  502  0.00000000000E+00 -0.00000000000E+00 -0.73778709457E+02  0.73778709457E+02  0.00000000000E+00 0.  1.
         21    1    1    2  503  504  0.29778031204E+02 -0.23624979768E+02  0.11640514819E+04  0.11646719381E+04  0.00000000000E+00 0. -1.
         21    1    1    2  504  502 -0.10875453367E+03  0.25652410175E+02  0.12637732464E+02  0.11245135404E+03  0.00000000000E+00 0.  1.
         21    1    1    2  505  501  0.16951598436E+03 -0.14216031302E+02  0.29485116555E+03  0.34040413383E+03  0.00000000000E+00 0.  1.
          2    1    1    2  501    0 -0.90539481891E+02  0.12188600895E+02  0.26565326362E+04  0.26581030091E+04  0.00000000000E+00 0.  1.
<scales pt_clust_3="38.01146" pt_clust_4="14000.00000" pt_clust_5="121.10659" pt_clust_6="65.04356"></scales>
<clustering>
<clus scale="   38.011">  1  3  2 -1</clus>
<clus scale="   65.044">  1  6  2 -1</clus>
<clus scale="  121.107">  1  5  2 -1</clus>
<clus scale="  121.107">  2  3  1 -1</clus>
</clustering>
</event>
<event>
 6    0  0.4081161E+002  0.6730422E+02  0.7546771E-02  0.1369508E+00
          2   -1    0    0  504    0 -0.00000000000E+00  0.00000000000E+00  0.12160653455E+04  0.12160653455E+04  0.00000000000E+00 0.  1.
         21   -1    0    0  503  502  0.00000000000E+00 -0.00000000000E+00 -0.97618105505E+02  0.97618105505E+02  0.00000000000E+00 0. -1.
         21    1    1    2  503  501  0.60152575694E+02 -0.13830864698E+02  0.73102001266E+02  0.95674070520E+02  0.00000000000E+00 0. -1.
         21    1    1    2  504  505 -0.48602889672E+02  0.11672539447E+03  0.23322874932E+03  0.26529739559E+03  0.00000000000E+00 0. -1.
         21    1    1    2  505  502 -0.27310064675E+02 -0.41720696819E+02 -0.60166872796E+02  0.78144153701E+02  0.00000000000E+00 0. -1.
          2    1    1    2  501    0  0.15760378653E+02 -0.61173832957E+02  0.87228336224E+03  0.87456783122E+03  0.00000000000E+00 0.  1.
<scales pt_clust_3="57.92576" pt_clust_4="67.30422" pt_clust_5="49.86438" pt_clust_6="14000.00000"></scales>
<clustering>
<clus scale="   49.864">  2  5  1 -1</clus>
<clus scale="   57.926">  2  3  1 -1</clus>
<clus scale="   67.304">  2  4  1 -1</clus>
<clus scale="   49.864">  2  3  1 -1</clus>
</clustering>
</event>
<event>
 6    0  0.4081161E+002  0.1408794E+03  0.7546771E-02  0.1212150E+00
         21   -1    0    0  503  502  0.00000000000E+00  0.00000000000E+00  0.42237995559E+02  0.42237995559E+02  0.00000000000E+00 0. -1.
          2   -1    0    0  504    0 -0.00000000000E+00 -0.00000000000E+00 -0.33768061592E+04  0.33768061592E+04  0.00000000000E+00 0.  1.
         21    1    1    2  503  501 -0.30591096330E+01 -0.34735801317E+02 -0.75450357788E+02  0.83118533043E+02  0.00000000000E+00 0. -1.
         21    1    1    2  504  505  0.56689401561E+02  0.13370271895E+03 -0.30372894286E+04  0.30407593096E+04  0.00000000000E+00 0.  1.
         21    1    1    2  505  502  0.11543593670E+02 -0.73433483524E+02 -0.13705987565E+02  0.75588260679E+02  0.00000000000E+00 0. -1.
          2    1    1    2  501    0 -0.65173885599E+02 -0.25533434105E+02 -0.20812238966E+03  0.21957805149E+03  0.00000000000E+00 0.  1.
<scales pt_clust_3="34.87025" pt_clust_4="140.87945" pt_clust_5="14000.00000" pt_clust_6="72.46155"></scales>
<clustering>
<clus scale="   34.870">  1  3  2 -1</clus>
<clus scale="   72.462">  1  6  2 -1</clus>
<clus scale="  140.879">  2  4  1 -1</clus>
<clus scale="   34.870">  1  3  2 -1</clus>
</clustering>
</event>
<event>
 6    0  0.4081161E+002  0.1940141E+03  0.7546771E-02  0.1154890E+00
          2   -1    0    0  504    0 -0.00000000000E+00  0.00000000000E+00  0.15707658480E+04  0.15707658480E+04  0.00000000000E+00 0.  1.
         21   -1    0    0  501  502  0.00000000000E+00 -0.00000000000E+00 -0.60889822130E+02  0.60889822130E+02  0.00000000000E+00 0.  1.
         21    1    1    2  503  505  0.22836857944E+03  0.27361832649E+02  0.52687005900E+03  0.57488515117E+03  0.00000000000E+00 0.  1.
         21    1    1    2  504  503 -0.26401639918E+02 -0.25950420317E+02  0.10634192500E+03  0.11260140282E+03  0.00000000000E+00 0. -1.
         21    1    1    2  505  502 -0.36516048795E+02 -0.19129071806E+02 -0.96773458577E+01  0.42343762594E+02  0.00000000000E+00 0.  1.
          2    1    1    2  501    0 -0.16545089073E+03  0.17717659474E+02  0.88634138777E+03  0.90182535359E+03  0.00000000000E+00 0.  1.
<scales pt_clust_3="194.01413" pt_clust_4="37.01987" pt_clust_5="41.61926" pt_clust_6="14000.00000"></scales>
<clustering>
<clus scale="   37.020">  1  4  2 -1</clus>
<clus scale="   41.619">  2  5  1 -1</clus>
<clus scale="  194.014">  2  3  1 -1</clus>
<clus scale="   41.619">  2  3  1 -1</clus>
</clustering>
</event>
<event>
 6    0  0.4081161E+002  0.8213635E+02  0.7546771E-02  0.1323096E+00
          2   -1    0    0  503    0 -0.00000000000E+00  0.00000000000E+00  0.15432579007E+04  0.15432579007E+04  0.00000000000E+00 0. -1.
         21   -1    0    0  504  502  0.00000000000E+00 -0.00000000000E+00 -0.29253651814E+03  0.29253651814E+03  0.00000000000E+00 0. -1.
         21    1    1    2  503  505  0.53533499759E+02  0.30273378448E+02  0.17924541493E+03  0.18950259052E+03  0.00000000000E+00 0. -1.
         21    1    1    2  504  501 -0.54699900810E+02  0.44097962193E+02 -0.20315028379E+03  0.21495754749E+03  0.00000000000E+00 0. -1.
         21    1    1    2  505  502  0.47567904125E+02  0.38504278680E+02 -0.63187456446E+02  0.87965559349E+02  0.00000000000E+00 0. -1.
          2    1    1    2  501    0 -0.46401503074E+02 -0.11287561932E+03  0.13378137079E+04  0.13433687215E+04  0.00000000000E+00 0. -1.
<scales pt_clust_3="62.92776" pt_clust_4="82.13635" pt_clust_5="61.19873" pt_clust_6="14000.00000"></scales>
<clustering>
<clus scale="   61.199">  2  5  1 -1</clus>
<clus scale="   62.928">  1  3  2 -1</clus>
<clus scale="   82.136">  2  4  1 -1</clus>
<clus scale="   61.199">  2  3  1 -1</clus>
</clustering>
</event>
<event>
 6    0  0.4081161E+002  0.8888030E+02  0.7546771E-02  0.1305586E+00
          2   -1    0    0  504    0 -0.00000000000E+00  0.00000000000E+00  0.80835832855E+03  0.80835832855E+03  0.00000000000E+00 0.  1.
         21   -1    0    0  505  502  0.00000000000E+00 -0.00000000000E+00 -0.45464975855E+03  0.45464975855E+03  0.00000000000E+00 0. -1.
         21    1    1    2  503  502 -0.47109028288E+02  0.42342813029E+02  0.20632094961E+02  0.66617247796E+02  0.00000000000E+00 0.  1.
         21    1    1    2  504  503  0.42750761820E+02  0.15579254845E+02  0.58165766697E+02  0.73848474819E+02  0.00000000000E+00 0. -1.
         21    1    1    2  505  501 -0.87477855124E+02 -0.15952727522E+02 -0.41543842275E+03  0.42484814669E+03  0.00000000000E+00 0. -1.
          2    1    1    2  501    0  0.91836121592E+02 -0.41969340352E+02  0.69034913108E+03  0.69769421779E+03  0.00000000000E+00 0.  1.
<scales pt_clust_3="62.13014" pt_clust_4="45.50100" pt_clust_5="88.88030" pt_clust_6="14000.00000"></scales>
<clustering>
<clus scale="   45.501">  1  4  2 -1</clus>
<clus scale="   62.130">  1  3  2 -1</clus>
<clus scale="   88.880">  2  5  1 -1</clus>
<clus scale="   88.880">  2  3  1 -1</clus>
</clustering>
</event>
<event>
 6    0  0.4081161E+002  0.1310527E+03  0.7546771E-02  0.1225902E+00
         21   -1    0    0  504  502  0.00000000000E+00  0.00000000000E+00  0.11160501078E+03  0.11160501078E+03  0.00000000000E+00 0.  1.
          1   -1    0    0  502    0 -0.00000000000E+00 -0.00000000000E+00 -0.30595721207E+03  0.30595721207E+03  0.00000000000E+00 0.  1.
         21    1    1    2  503  501  0.84079626508E+02 -0.12253243172E+02 -0.66614249829E+02  0.10796751290E+03  0.00000000000E+00 0.  1.
         21    1    1    2  504  505 -0.52299249515E+02 -0.13814358338E+02  0.35872058953E+02  0.64906491276E+02  0.00000000000E+00 0.  1.
         21    1    1    2  505  503 -0.85604915030E+02  0.11761305382E+02 -0.17282615403E+02  0.88120477625E+02  0.00000000000E+00 0.  1.
          1    1    1    2  501    0  0.53824538038E+02  0.14306296128E+02 -0.14632739502E+03  0.15656774105E+03  0.00000000000E+00 0.  1.
<scales pt_clust_3="114.56398" pt_clust_4="50.35162" pt_clust_5="50.35162" pt_clust_6="55.69337"></scales>
<clustering>
<clus scale="   50.352">  4  5 -1 -1</clus>
<clus scale="   55.693">  2  6  1 -1</clus>
<clus scale="  114.564">  2  3  1 -1</clus>
<clus scale="  131.053">  1  3  2 -1</clus>
</clustering>
</event>
<event>
 6    0  0.4081161E+002  0.2069060E+03  0.7546771E-02  0.1144040E+00
         21   -1    0    0  503  502  0.00000000000E+00  0.00000000000E+00  0.12677116661E+04  0.12677116661E+04  0.00000000000E+00 0. -1.
          1   -1    0    0  505    0 -0.00000000000E+00 -0.00000000000E+00 -0.12925337925E+04  0.12925337925E+04  0.00000000000E+00 0.  1.
         21    1    1    2  503  501  0.14392175482E+02  0.47881413857E+02  0.65644313784E+03  0.65834440661E+03  0.00000000000E+00 0. -1.
         21    1    1    2  504  502  0.10139877893E+03  0.12614224179E+03  0.58378210574E+03  0.60580122525E+03  0.00000000000E+00 0. -1.
         21    1    1    2  505  504  0.97652348969E+01 -0.70639184996E+02 -0.12023334260E+03  0.13979023908E+03  0.00000000000E+00 0. -1.
          1    1    1    2  501    0 -0.12555618931E+03 -0.10338447065E+03 -0.11448140273E+04  0.11563095877E+04  0.00000000000E+00 0.  1.
<scales pt_clust_3="49.99765" pt_clust_4="14000.00000" pt_clust_5="70.58341" pt_clust_6="206.90599"></scales>
<clustering>
<clus scale="   49.998">  1  3  2 -1</clus>
<clus scale="   70.583">  2  5  1 -1</clus>
<clus scale="  206.906">  2  6  1 -1</clus>
<clus scale="   49.998">  1  3  2 -1</clus>
</clustering>
</event>
<event>
 6    0  0.4081161E+002  0.8920818E+02  0.7546771E-02  0.1304781E+00
          1   -1    0    0  504    0 -0.00000000000E+00  0.00000000000E+00  0.15060282567E+04  0.15060282567E+04  0.00000000000E+00 0.  1.
         21   -1    0    0  505  502  0.00000000000E+00 -0.00000000000E+00 -0.37574279098E+02  0.37574279098E+02  0.00000000000E+00 0.  1.
         21    1    1    2  503  502  0.53544974457E+02  0.10196626858E+02  0.24694840050E+02  0.59840376118E+02  0.00000000000E+00 0.  1.
         21    1    1    2  504  503  0.64340554197E+02 -0.84039628202E+02  0.45393930767E+03  0.46611507278E+03  0.00000000000E+00 0.  1.
         21    1    1    2  505  501 -0.74714050326E+02  0.18589830844E+01  0.10515181369E+03  0.12900600396E+03  0.00000000000E+00 0.  1.
          1    1    1    2  501    0 -0.43171478328E+02  0.71984018260E+02  0.88466801618E+03  0.88864108293E+03  0.00000000000E+00 0.  1.
<scales pt_clust_3="54.50721" pt_clust_4="89.20818" pt_clust_5="43.51506" pt_clust_6="14000.00000"></scales>
<clustering>
<clus scale="   54.507">  2  3  1 -1</clus>
<clus scale="   43.515">  2  5  1 -1</clus>
<clus scale="   89.208">  2  4  1 -1</clus>
<clus scale="   54.507">  2  3  1 -1</clus>
</clustering>
</event>
<event>
 6    0  0.4081161E+002  0.2109630E+03  0.7546771E-02  0.1140806E+00
         21   -1    0    0  504  502  0.00000000000E+00  0.00000000000E+00  0.11317132342E+04  0.11317132342E+04  0.00000000000E+00 0.  1.
          1   -1    0    0  505    0 -0.00000000000E+00 -0.00000000000E+00 -0.20370721109E+04  0.20370721109E+04  0.00000000000E+00 0. -1.
         21    1    1    2  503  501  0.11710413118E+03 -0.21716369323E+03  0.86813302162E+03  0.90251226608E+03  0.00000000000E+00 0.  1.
         21    1    1    2  504  503 -0.87388568331E+02  0.16914036230E+02  0.19815084215E+03  0.21722477470E+03  0.00000000000E+00 0.  1.
         21    1    1    2  505  502  0.72192348642E+02  0.15793231199E+02 -0.82275356806E+01  0.74356261992E+02  0.00000000000E+00 0.  1.
          1    1    1    2  501    0 -0.10190791149E+03  0.18445642580E+03 -0.19634152048E+04  0.19746920423E+04  0.00000000000E+00 0. -1.
<scales pt_clust_3="210.96305" pt_clust_4="76.37921" pt_clust_5="73.89967" pt_clust_6="14000.00000"></scales>
<clustering>
<clus scale="   73.900">  1  5  2 -1</clus>
<clus scale="   76.379">  1  4  2 -1</clus>
<clus scale="  210.963">  1  3  2 -1</clus>
<clus scale="   73.900">  1  3  2 -1</clus>
</clustering>
</event>
<event>
 6    0  0.4081161E+002  0.9924788E+02  0.7546771E-02  0.1281886E+00
          1   -1    0    0  503    0 -0.00000000000E+00  0.00000000000E+00  0.29906792328E+03  0.29906792328E+03  0.00000000000E+00 0.  1.
         21   -1    0    0  501  502  0.00000000000E+00 -0.00000000000E+00 -0.90983762839E+02  0.90983762839E+02  0.00000000000E+00 0.  1.
         21    1    1    2  503  504 -0.20118271679E+02 -0.23026992371E+02  0.23403025795E+02  0.38505698921E+02  0.00000000000E+00 0.  1.
         21    1    1    2  504  505  0.77402403798E+02  0.29657386190E+02  0.51709936852E+02  0.97696521118E+02  0.00000000000E+00 0.  1.
         21    1    1    2  505  502 -0.93982872699E+02  0.63756227641E+02  0.19285859648E+02  0.11519366869E+03  0.00000000000E+00 0.  1.
          1    1    1    2  501    0  0.36698740580E+02 -0.70386621459E+02  0.11368533814E+03  0.13865579739E+03  0.00000000000E+00 0.  1.
<scales pt_clust_3="30.57756" pt_clust_4="75.46501" pt_clust_5="99.24788" pt_clust_6="14000.00000"></scales>
<clustering>
<clus scale="   30.578">  1  3  2 -1</clus>
<clus scale="   75.465">  1  4  2 -1</clus>
<clus scale="   99.248">  2  5  1 -1</clus>
<clus scale="   99.248">  2  3  1 -1</clus>
</clustering>
</event>
<event>
 6    0  0.4081161E+002  0.1387444E+03  0.7546771E-02  0.1215028E+00
          1   -1    0    0  504    0 -0.00000000000E+00  0.00000000000E+00  0.16530918316E+04  0.16530918316E+04  0.00000000000E+00 0.  1.
         21   -1    0    0  503  502  0.00000000000E+00 -0.00000000000E+00 -0.15471397967E+03  0.15471397967E+03  0.00000000000E+00 0. -1.
         21    1    1    2  503  501  0.47199394352E+02  0.36841988793E+02  0.55210009587E+03  0.55533740268E+03  0.00000000000E+00 0. -1.
         21    1    1    2  504  505 -0.59840026132E+02 -0.79297044259E+02 -0.76725162235E+02  0.12552131483E+03  0.00000000000E+00 0. -1.
         21    1    1    2  505  502 -0.37916568793E+02 -0.64239223741E+01 -0.43537998104E+02  0.58090362769E+02  0.00000000000E+00 0. -1.
          1    1    1    2  501    0  0.50557200573E+02  0.48878977840E+02  0.10665409164E+04  0.10688567309E+04  0.00000000000E+00 0.  1.
<scales pt_clust_3="30.65143" pt_clust_4="30.13325" pt_clust_5="30.13325" pt_clust_6="134.19336"></scales>
<clustering>
<clus scale="   30.133">  4  5 -1 -1</clus>
<clus scale="   30.651">  3  6 -1 -1</clus>
<clus scale="  134.193">  1  3  2 -1</clus>
<clus scale="  138.744">  2  3  1 -1</clus>
</clustering>
</event>
<event>
 6    0  0.4081161E+002  0.9075935E+02  0.7546771E-02  0.1301023E+00
         21   -1    0    0  505  502  0.00000000000E+00  0.00000000000E+00  0.61185333470E+03  0.61185333470E+03  0.00000000000E+00 0.  1.
          2   -1    0    0  504    0 -0.00000000000E+00 -0.00000000000E+00 -0.37766738077E+03  0.37766738077E+03  0.00000000000E+00 0.  1.
         21    1    1    2  503  502  0.37848246138E+02  0.58223970651E+02  0.85342794562E+02  0.11002687434E+03  0.00000000000E+00 0. -1.
         21    1    1    2  504  503 -0.25040906486E+02 -0.18672941192E+02 -0.10089530414E+03  0.10562001765E+03  0.00000000000E+00 0. -1.
         21    1    1    2  505  501 -0.65044163594E+02 -0.75100428955E+02  0.50306720422E+03  0.51278399898E+03  0.00000000000E+00 0.  1.
          2    1    1    2  501    0  0.52236823942E+02  0.35549399497E+02 -0.25332874072E+03  0.26108982449E+03  0.00000000000E+00 0.  1.
<scales pt_clust_3="90.75935" pt_clust_4="31.23661" pt_clust_5="14000.00000" pt_clust_6="33.95800"></scales>
<clustering>
<clus scale="   31.237">  2  4  1 -1</clus>
<clus scale="   33.958">  2  6  1 -1</clus>
<clus scale="   90.759">  2  3  1 -1</clus>
<clus scale="   90.759">  1  3  2 -1</clus>
</clustering>
</event>
<event>
 6    0  0.4081161E+002  0.1389297E+03  0.7546771E-02  0.1214776E+00
         21   -1    0    0  503  502  0.00000000000E+00  0.00000000000E+00  0.97296847780E+03  0.97296847780E+03  0.00000000000E+00 0.  1.
          1   -1    0    0  505    0 -0.00000000000E+00 -0.00000000000E+00 -0.77281129805E+02  0.77281129805E+02  0.00000000000E+00 0.  1.
         21    1    1    2  503  501 -0.30530411942E+02  0.32442855385E+02  0.14124253117E+03  0.14810164594E+03  0.00000000000E+00 0.  1.
         21    1    1    2  504  502  0.79968578583E+02  0.29720311208E+02  0.51662025660E+03  0.52361699743E+03  0.00000000000E+00 0.  1.
         21    1    1    2  505  504  0.83871150005E+02 -0.77899446671E+02  0.11041733588E+02  0.11499831945E+03  0.00000000000E+00 0.  1.
          1    1    1    2  501    0 -0.13330931665E+03  0.15736280078E+02  0.22678282663E+03  0.26353264479E+03  0.00000000000E+00 0.  1.
<scales pt_clust_3="40.05954" pt_clust_4="85.31278" pt_clust_5="120.27476" pt_clust_6="40.05954"></scales>
<clustering>
<clus scale="   40.060">  3  6 -1 -1</clus>
<clus scale="   85.313">  1  4  2 -1</clus>
<clus scale="  120.275">  2  5  1 -1</clus>
<clus scale="   85.313">  1  3  2 -1</clus>
</clustering>
</event>
<event>
 6    0  0.4081161E+002  0.1697527E+03  0.7546771E-02  0.1178106E+00
         21   -1    0    0  503  502  0.00000000000E+00  0.00000000000E+00  0.22913849858E+02  0.22913849858E+02  0.00000000000E+00 0. -1.
          2   -1    0    0  505    0 -0.00000000000E+00 -0.00000000000E+00 -0.29279155271E+04  0.29279155271E+04  0.00000000000E+00 0.  1.
         21    1    1    2  503  504 -0.50795516765E+02  0.21598507692E+02 -0.36604276409E+03  0.37018101680E+03  0.00000000000E+00 0. -1.
         21    1    1    2  504  501 -0.62859512392E+02 -0.31004566901E+02 -0.38960840950E+03  0.39586274669E+03  0.00000000000E+00 0.  1.
         21    1    1    2  505  502  0.19975227259E+03 -0.33950384917E+02 -0.61723224505E+03  0.64963777859E+03  0.00000000000E+00 0. -1.
          2    1    1    2  501    0 -0.86097243433E+02  0.43356444126E+02 -0.15321182586E+04  0.15351478348E+04  0.00000000000E+00 0.  1.
<scales pt_clust_3="47.02829" pt_clust_4="47.02829" pt_clust_5="161.26862" pt_clust_6="96.39770"></scales>
<clustering>
<clus scale="   47.028">  3  4 -1 -1</clus>
<clus scale="   96.398">  2  6  1 -1</clus>
<clus scale="  161.269">  1  5  2 -1</clus>
<clus scale="  161.269">  1  3  2 -1</clus>
</clustering>
</event>
<event>
 6    0  0.4081161E+002  0.1255727E+03  0.7546771E-02  0.1234177E+00
         21   -1    0    0  501  502  0.00000000000E+00  0.00000000000E+00  0.13662072100E+03  0.13662072100E+03  0.00000000000E+00 0.  1.
          2   -1    0    0  505    0 -0.00000000000E+00 -0.00000000000E+00 -0.36339902596E+04  0.36339902596E+04  0.00000000000E+00 0.  1.
         21    1    1    2  503  504  0.90631819523E+02  0.48544153478E+02 -0.33016955378E+02  0.10798509568E+03  0.00000000000E+00 0.  1.
         21    1    1    2  504  502  0.32039906257E+02 -0.74544067571E+01  0.94535469830E+02  0.10009534869E+03  0.00000000000E+00 0.  1.
         21    1    1    2  505  503 -0.52408385529E+02 -0.38521053569E+02 -0.76565415598E+03  0.76841186678E+03  0.00000000000E+00 0. -1.
          2    1    1    2  501    0 -0.70263340251E+02 -0.25686931521E+01 -0.27932338971E+04  0.27941186695E+04  0.00000000000E+00 0.  1.
<scales pt_clust_3="125.57275" pt_clust_4="32.89565" pt_clust_5="64.29757" pt_clust_6="14000.00000"></scales>
<clustering>
<clus scale="   32.896">  1  4  2 -1</clus>
<clus scale="   64.298">  2  5  1 -1</clus>
<clus scale="  125.573">  1  3  2 -1</clus>
<clus scale="   32.896">  1  3  2 -1</clus>
</clustering>
</event>
<event>
 6    0  0.4081161E+002  0.1026226E+03  0.7546771E-02  0.1274876E+00
          1   -1    0    0  502    0 -0.00000000000E+00  0.00000000000E+00  0.42332672388E+03  0.42332672388E+03  0.00000000000E+00 0.  1.
         21   -1    0    0  503  502  0.00000000000E+00 -0.00000000000E+00 -0.44769569981E+03  0.44769569981E+03  0.00000000000E+00 0.  1.
         21    1    1    2  503  504  0.24634126199E+02  0.37160005925E+02 -0.26100417181E+03  0.26478459909E+03  0.00000000000E+00 0.  1.
         21    1    1    2  504  505  0.42151839207E+02 -0.11741745941E+03 -0.15000864690E+03  0.19510569307E+03  0.00000000000E+00 0.  1.
         21    1    1    2  505  501 -0.10796837477E+02  0.82296829521E+02  0.20965710991E+03  0.22548934251E+03  0.00000000000E+00 0.  1.
          1    1    1    2  501    0 -0.55989127929E+02 -0.20393760367E+01  0.17698673288E+03  0.18564278902E+03  0.00000000000E+00 0.  1.
<scales pt_clust_3="44.58370" pt_clust_4="102.62262" pt_clust_5="14000.00000" pt_clust_6="55.42453"></scales>
<clustering>
<clus scale="   44.584">  2  3  1 -1</clus>
<clus scale="   55.425">  1  6  2 -1</clus>
<clus scale="  102.623">  2  4  1 -1</clus>
<clus scale="   44.584">  2  3  1 -1</clus>
</clustering>
</event>
<event>
 6    0  0.4081161E+002  0.1415947E+03  0.7546771E-02  0.1211199E+00
         -4   -1    0    0    0  501 -0.00000000000E+00  0.00000000000E+00  0.11788692429E+04  0.11788692429E+04  0.00000000000E+00 0.  1.
         21   -1    0    0  503  502  0.00000000000E+00 -0.00000000000E+00 -0.74219122070E+03  0.74219122070E+03  0.00000000000E+00 0. -1.
         21    1    1    2  503  501 -0.40004628317E+02 -0.20943662587E+02 -0.57631834186E+03  0.57808462914E+03  0.00000000000E+00 0. -1.
         21    1    1    2  504  502 -0.31036213224E+02 -0.91692411946E+02 -0.14603755693E+03  0.17520762818E+03  0.00000000000E+00 0.  1.
         21    1    1    2  505  504  0.25901686861E+02  0.60230177684E+02  0.37490313572E+03  0.38059287022E+03  0.00000000000E+00 0.  1.
         -4    1    1    2    0  505  0.45139154680E+02  0.52405896849E+02  0.78413078529E+03  0.78717533609E+03  0.00000000000E+00 0.  1.
<scales pt_clust_3="45.15537" pt_clust_4="132.13548" pt_clust_5="49.45246" pt_clust_6="49.45246"></scales>
<clustering>
<clus scale="   45.155">  2  3  1 -1</clus>
<clus scale="   49.452">  5  6 -1 -1</clus>
<clus scale="  132.135">  2  4  1 -1</clus>
<clus scale="   45.155">  2  3  1 -1</clus>
</clustering>
</event>
<event>
 6    0  0.4081161E+002  0.6036331E+02  0.7546771E-02  0.1396313E+00
          2   -1    0    0  503    0 -0.00000000000E+00  0.00000000000E+00  0.46609949302E+03  0.46609949302E+03  0.00000000000E+00 0.  1.
         21   -1    0    0  504  502  0.00000000000E+00 -0.00000000000E+00 -0.49390615560E+03  0.49390615560E+03  0.00000000000E+00 0. -1.
         21    1    1    2  503  502 -0.56845588523E+02  0.21385069280E+02 -0.95333330303E+02  0.11303621539E+03  0.00000000000E+00 0.  1.
         21    1    1    2  504  505  0.51128704039E+02  0.89255238986E+01 -0.11820503696E+02  0.53230946462E+02  0.00000000000E+00 0. -1.
         21    1    1    2  505  501  0.15280951788E+02 -0.89727610678E+02 -0.34926074431E+03  0.36092605769E+03  0.00000000000E+00 0. -1.
          2    1    1    2  501    0 -0.95640673040E+01  0.59417017500E+02  0.42860791572E+03  0.43281242908E+03  0.00000000000E+00 0.  1.
<scales pt_clust_3="50.98716" pt_clust_4="51.90192" pt_clust_5="60.36331" pt_clust_6="14000.00000"></scales>
<clustering>
<clus scale="   51.902">  2  4  1 -1</clus>
<clus scale="   50.987">  2  3  1 -1</clus>
<clus scale="   60.363">  2  5  1 -1</clus>
<clus scale="   51.902">  2  3  1 -1</clus>
</clustering>
</event>
<event>
 6    0  0.4081161E+002  0.1190321E+03  0.7546771E-02  0.1244702E+00
         21   -1    0    0  504  502  0.00000000000E+00  0.00000000000E+00  0.22359065675E+03  0.22359065675E+03  0.00000000000E+00 0. -1.
          2   -1    0    0  505    0 -0.00000000000E+00 -0.00000000000E+00 -0.34706480727E+03  0.34706480727E+03  0.00000000000E+00 0. -1.
         21    1    1    2  503  501 -0.17105537816E+03 -0.64371864889E+00  0.53374678147E+02  0.17919043791E+03  0.00000000000E+00 0. -1.
         21    1    1    2  504  503  0.69040483812E+02 -0.80553248056E+02  0.31854660567E+02  0.11077063500E+03  0.00000000000E+00 0. -1.
         21    1    1    2  505  502  0.73496499610E+02  0.51337964409E+02 -0.25945234733E+02  0.93329937587E+02  0.00000000000E+00 0.  1.
          2    1    1    2  501    0  0.28518394736E+02  0.29859002296E+02 -0.18275825451E+03  0.18736445353E+03  0.00000000000E+00 0. -1.
<scales pt_clust_3="119.03209" pt_clust_4="14000.00000" pt_clust_5="104.59513" pt_clust_6="41.28994"></scales>
<clustering>
<clus scale="   41.290">  2  6  1 -1</clus>
<clus scale="  104.595">  2  5  1 -1</clus>
<clus scale="  119.032">  2  3  1 -1</clus>
<clus scale="  119.032">  1  3  2 -1</clus>
</clustering>
</event>
<event>
 6    0  0.4081161E+002  0.1029124E+03  0.7546771E-02  0.1274288E+00
         21   -1    0    0  504  502  0.00000000000E+00  0.00000000000E+00  0.76658231117E+02  0.76658231117E+02  0.00000000000E+00 0. -1.
          1   -1    0    0  503    0 -0.00000000000E+00 -0.00000000000E+00 -0.17745441629E+04  0.17745441629E+04  0.00000000000E+00 0.  1.
         21    1    1    2  503  502 -0.73591333503E+02 -0.16748293647E+02 -0.29093042463E+03  0.30056064560E+03  0.00000000000E+00 0. -1.
         21    1    1    2  504  505  0.54466503265E+02 -0.17509316049E+02 -0.47697518626E+02  0.74486437756E+02  0.00000000000E+00 0. -1.
         21    1    1    2  505  501 -0.94120412086E+02 -0.72080304134E+02 -0.11091408042E+02  0.11906822224E+03  0.00000000000E+00 0. -1.
          1    1    1    2  501    0  0.11324524232E+03  0.10633791383E+03 -0.13481665804E+04  0.13570870884E+04  0.00000000000E+00 0.  1.
<scales pt_clust_3="71.76099" pt_clust_4="57.21168" pt_clust_5="102.91235" pt_clust_6="14000.00000"></scales>
<clustering>
<clus scale="   57.212">  1  4  2 -1</clus>
<clus scale="   71.761">  2  3  1 -1</clus>
<clus scale="  102.912">  1  5  2 -1</clus>
<clus scale="   57.212">  1  3  2 -1</clus>
</clustering>
</event>
<event>
 6    0  0.4081161E+002  0.1365983E+03  0.7546771E-02  0.1217981E+00
          4   -1    0    0  503    0 -0.00000000000E+00  0.00000000000E+00  0.34453987964E+03  0.34453987964E+03  0.00000000000E+00 0. -1.
         21   -1    0    0  505  502  0.00000000000E+00 -0.00000000000E+00 -0.19005467951E+03  0.19005467951E+03  0.00000000000E+00 0.  1.
         21    1    1    2  503  504  0.59845051875E+02 -0.83612969513E+02 -0.24703103942E+02  0.10574876949E+03  0.00000000000E+00 0.  1.
         21    1    1    2  504  502  0.88902877480E+01 -0.34992967004E+02 -0.10471010730E+03  0.11075988229E+03  0.00000000000E+00 0.  1.
         21    1    1    2  505  501 -0.14613971262E+02  0.61344464214E+02  0.10296781840E+03  0.12074387385E+03  0.00000000000E+00 0.  1.
          4    1    1    2  501    0 -0.54121368362E+02  0.57261472302E+02  0.18093059297E+03  0.19734203352E+03  0.00000000000E+00 0. -1.
<scales pt_clust_3="129.88720" pt_clust_4="36.10464" pt_clust_5="37.39445" pt_clust_6="37.39445"></scales>
<clustering>
<clus scale="   36.105">  2  4  1 -1</clus>
<clus scale="   37.394">  5  6 -1 -1</clus>
<clus scale="  129.887">  2  3  1 -1</clus>
<clus scale="   36.105">  2  3  1 -1</clus>
</clustering>
</event>
<event>
 6    0  0.4081161E+002  0.1092612E+03  0.7546771E-02  0.1261944E+00
          2   -1    0    0  505    0 -0.00000000000E+00  0.00000000000E+00  0.23107646165E+04  0.23107646165E+04  0.00000000000E+00 0. -1.
         21   -1    0    0  504  502  0.00000000000E+00 -0.00000000000E+00 -0.22246712705E+02  0.22246712705E+02  0.00000000000E+00 0. -1.
         21    1    1    2  503  502  0.71037746656E+01 -0.10468476016E+03  0.19562625747E+03  0.22198872773E+03  0.00000000000E+00 0. -1.
         21    1    1    2  504  501  0.66223727036E+02  0.12209130620E+03  0.67021461524E+03  0.68445562277E+03  0.00000000000E+00 0. -1.
         21    1    1    2  505  503 -0.46742129801E+01 -0.29713010555E+02  0.24732286481E+03  0.24914515994E+03  0.00000000000E+00 0. -1.
          2    1    1    2  501    0 -0.68653288721E+02  0.12306464515E+02  0.11753541663E+04  0.11774218188E+04  0.00000000000E+00 0. -1.
<scales pt_clust_3="109.26117" pt_clust_4="14000.00000" pt_clust_5="30.07842" pt_clust_6="71.47010"></scales>
<clustering>
<clus scale="   30.078">  1  5  2 -1</clus>
<clus scale="   71.470">  1  6  2 -1</clus>
<clus scale="  109.261">  2  3  1 -1</clus>
<clus scale="  109.261">  2  3  1 -1</clus>
</clustering>
</event>
<event>
 6    0  0.4081161E+002  0.1077965E+03  0.7546771E-02  0.1264706E+00
          1   -1    0    0  504    0 -0.00000000000E+00  0.00000000000E+00  0.10747281502E+03  0.10747281502E+03  0.00000000000E+00 0. -1.
         21   -1    0    0  503  502  0.00000000000E+00 -0.00000000000E+00 -0.23089724784E+03  0.23089724784E+03  0.00000000000E+00 0.  1.
         21    1    1    2  503  505  0.37219886987E+02  0.22388537927E+02 -0.59307799205E+02  0.73511779086E+02  0.00000000000E+00 0.  1.
         21    1    1    2  504  502 -0.11663272272E+03  0.31483112273E+02 -0.98350251629E+02  0.15577917179E+03  0.00000000000E+00 0.  1.
         21    1    1    2  505  501  0.36314167725E+02 -0.38866826663E+02  0.20404518478E+01  0.53230747094E+02  0.00000000000E+00 0. -1.
          1    1    1    2  501    0  0.43098668007E+02 -0.15004823536E+02  0.32193166172E+02  0.55848364896E+02  0.00000000000E+00 0. -1.
<scales pt_clust_3="43.43462" pt_clust_4="100.51032" pt_clust_5="36.08555" pt_clust_6="36.08555"></scales>
<clustering>
<clus scale="   36.086">  5  6 -1 -1</clus>
<clus scale="   43.435">  2  3  1 -1</clus>
<clus scale="  100.510">  2  4  1 -1</clus>
<clus scale="   43.435">  2  3  1 -1</clus>
</clustering>
</event>
<event>
 6    0  0.4081161E+002  0.8322163E+02  0.7546771E-02  0.1320150E+00
          2   -1    0    0  504    0 -0.00000000000E+00  0.00000000000E+00  0.17349460714E+04  0.17349460714E+04  0.00000000000E+00 0.  1.
         21   -1    0    0  505  502  0.00000000000E+00 -0.00000000000E+00 -0.85600723940E+02  0.85600723940E+02  0.00000000000E+00 0.  1.
         21    1    1    2  503  501  0.68744530211E+02  0.61163541716E+02  0.45125236000E+03  0.46053825213E+03  0.00000000000E+00 0.  1.
         21    1    1    2  504  502  0.30460201522E+02 -0.49576049925E+02 -0.36635620896E+02  0.68758834496E+02  0.00000000000E+00 0.  1.
         21    1    1    2  505  503 -0.24756377053E+02  0.21879524047E+02 -0.16797866292E+02  0.37064269712E+02  0.00000000000E+00 0.  1.
          2    1    1    2  501    0 -0.74448354680E+02 -0.33467015838E+02  0.12515264747E+04  0.12541854390E+04  0.00000000000E+00 0.  1.
<scales pt_clust_3="14000.00000" pt_clust_4="31.03333" pt_clust_5="33.03925" pt_clust_6="83.22163"></scales>
<clustering>
<clus scale="   33.039">  2  5  1 -1</clus>
<clus scale="   31.033">  2  4  1 -1</clus>
<clus scale="   83.222">  1  6  2 -1</clus>
<clus scale="   33.039">  2  3  1 -1</clus>
</clustering>
</event>
<event>
 6    0  0.4081161E+002  0.1885520E+03  0.7546771E-02  0.1159774E+00
         21   -1    0    0  501  502  0.00000000000E+00  0.00000000000E+00  0.12720708810E+03  0.12720708810E+03  0.00000000000E+00 0.  1.
         -1   -1    0    0    0  501 -0.00000000000E+00 -0.00000000000E+00 -0.93649364527E+03  0.93649364527E+03  0.00000000000E+00 0. -1.
         21    1    1    2  503  504 -0.77106004405E+02 -0.12092405342E+03  0.25758675657E+02  0.14571023293E+03  0.00000000000E+00 0.  1.
         21    1    1    2  504  502  0.16404205572E+02 -0.41621660063E+02  0.15106292967E+02  0.47219282439E+02  0.00000000000E+00 0.  1.
         21    1    1    2  505  503  0.64131590685E+02  0.98396456812E+02 -0.43063031583E+03  0.44635993610E+03  0.00000000000E+00 0. -1.
         -1    1    1    2    0  505 -0.34297918522E+01  0.64149256666E+02 -0.41952120996E+03  0.42441128190E+03  0.00000000000E+00 0. -1.
<scales pt_clust_3="41.21726" pt_clust_4="41.21726" pt_clust_5="54.24147" pt_clust_6="188.37435"></scales>
<clustering>
<clus scale="   41.217">  3  4 -1 -1</clus>
<clus scale="   54.241">  5  6 -1 -1</clus>
<clus scale="  188.374">  2  5  1 -1</clus>
<clus scale="  188.552">  1  3  2 -1</clus>
</clustering>
</event>
<event>
 6    0  0.4081161E+002  0.8271898E+02  0.7546771E-02  0.1321508E+00
         -2   -1    0    0    0  501 -0.00000000000E+00  0.00000000000E+00  0.69596676699E+03  0.69596676699E+03  0.00000000000E+00 0.  1.
         21   -1    0    0  504  502  0.00000000000E+00 -0.00000000000E+00 -0.43313220364E+02  0.43313220364E+02  0.00000000000E+00 0. -1.
         21    1    1    2  503  502  0.87933509026E+01 -0.11756966909E+03  0.11348241520E+03  0.16364048603E+03  0.00000000000E+00 0. -1.
         21    1    1    2  504  505 -0.22801158062E+02  0.33696292566E+02  0.16373021715E+02  0.43856684573E+02  0.00000000000E+00 0. -1.
         21    1    1    2  505  501  0.26756920820E+02  0.24608441889E+02  0.21880874601E+03  0.22180797000E+03  0.00000000000E+00 0.  1.
         -2    1    1    2    0  503 -0.12749113661E+02  0.59264934632E+02  0.30398936370E+03  0.30997484675E+03  0.00000000000E+00 0.  1.
<scales pt_clust_3="82.71898" pt_clust_4="41.08986" pt_clust_5="36.35255" pt_clust_6="14000.00000"></scales>
<clustering>
<clus scale="   36.353">  1  5  2 -1</clus>
<clus scale="   41.090">  2  4  1 -1</clus>
<clus scale="   82.719">  2  3  1 -1</clus>
<clus scale="   41.090">  2  3  1 -1</clus>
</clustering>
</event>
<event>
 6    0  0.4081161E+002  0.9326636E+02  0.7546771E-02  0.1295129E+00
          1   -1    0    0  503    0 -0.00000000000E+00  0.00000000000E+00  0.16445920115E+04  0.16445920115E+04  0.00000000000E+00 0. -1.
         21   -1    0    0  505  502  0.00000000000E+00 -0.00000000000E+00 -0.12304574494E+03  0.12304574494E+03  0.00000000000E+00 0.  1.
         21    1    1    2  503  502  0.27642199955E+02 -0.14647703134E+02 -0.15462049133E+02  0.34895864925E+02  0.00000000000E+00 0.  1.
         21    1    1    2  504  501  0.42912041437E+02  0.29216714044E+02  0.16282862246E+03  0.17090412509E+03  0.00000000000E+00 0. -1.
         21    1    1    2  505  504 -0.11959672356E+03 -0.28460166825E+02 -0.52909476460E+02  0.13383859713E+03  0.00000000000E+00 0.  1.
          1    1    1    2  501    0  0.49042482166E+02  0.13891155915E+02  0.14270891697E+04  0.14279991693E+04  0.00000000000E+00 0. -1.
<scales pt_clust_3="31.28333" pt_clust_4="14000.00000" pt_clust_5="93.26636" pt_clust_6="51.07704"></scales>
<clustering>
<clus scale="   31.283">  2  3  1 -1</clus>
<clus scale="   51.077">  1  6  2 -1</clus>
<clus scale="   93.266">  2  5  1 -1</clus>
<clus scale="   31.283">  2  3  1 -1</clus>
</clustering>
</event>
<event>
 6    0  0.4081161E+002  0.7696002E+02  0.7546771E-02  0.1337907E+00
          2   -1    0    0  504    0 -0.00000000000E+00  0.00000000000E+00  0.36871174818E+04  0.36871174818E+04  0.00000000000E+00 0. -1.
         21   -1    0    0  503  502  0.00000000000E+00 -0.00000000000E+00 -0.15410320617E+02  0.15410320617E+02  0.00000000000E+00 0.  1.
         21    1    1    2  503  501 -0.51294250932E+02  0.45342048444E+02  0.96679289081E+02  0.11846470560E+03  0.00000000000E+00 0.  1.
         21    1    1    2  504  505  0.74919429096E+01 -0.54403082375E+02  0.17548307329E+04  0.17556898147E+04  0.00000000000E+00 0.  1.
         21    1    1    2  505  502 -0.36152731627E+02 -0.52725754961E+02  0.45899189299E+03  0.46342268294E+03  0.00000000000E+00 0.  1.
          2    1    1    2  501    0  0.79955039650E+02  0.61786788893E+02  0.13612052463E+04  0.13649505991E+04  0.00000000000E+00 0. -1.
<scales pt_clust_3="66.17282" pt_clust_4="54.91652" pt_clust_5="14000.00000" pt_clust_6="76.96002"></scales>
<clustering>
<clus scale="   54.917">  1  4  2 -1</clus>
<clus scale="   66.173">  2  3  1 -1</clus>
<clus scale="   76.960">  1  6  2 -1</clus>
<clus scale="   66.173">  2  3  1 -1</clus>
</clustering>
</event>
<event>
 6    0  0.4081161E+002  0.9574553E+02  0.7546771E-02  0.1289506E+00
         21   -1    0    0  504  502  0.00000000000E+00  0.00000000000E+00  0.59014265604E+03  0.59014265604E+03  0.00000000000E+00 0. -1.
         -1   -1    0    0    0  501 -0.00000000000E+00 -0.00000000000E+00 -0.24327650085E+03  0.24327650085E+03  0.00000000000E+00 0. -1.
         21    1    1    2  503  505  0.10119484439E+03 -0.38358332124E+02  0.46966800050E+02  0.11797304133E+03  0.00000000000E+00 0. -1.
         21    1    1    2  504  501 -0.25659640741E+02 -0.24519994141E+02  0.11269727546E+02  0.37237803837E+02  0.00000000000E+00 0.  1.
         21    1    1    2  505  502 -0.40607756278E+01  0.35868596379E+02  0.47521516566E+03  0.47658420009E+03  0.00000000000E+00 0. -1.
         -1    1    1    2    0  503 -0.71474428021E+02  0.27009729887E+02 -0.18658553807E+03  0.20162411162E+03  0.00000000000E+00 0. -1.
<scales pt_clust_3="14000.00000" pt_clust_4="35.49151" pt_clust_5="36.03399" pt_clust_6="95.74553"></scales>
<clustering>
<clus scale="   35.492">  2  4  1 -1</clus>
<clus scale="   36.034">  1  5  2 -1</clus>
<clus scale="   95.746">  2  6  1 -1</clus>
<clus scale="   36.034">  1  3  2 -1</clus>
</clustering>
</event>
<event>
 6    0  0.4081161E+002  0.1127077E+03  0.7546771E-02  0.1255636E+00
         21   -1    0    0  503  502  0.00000000000E+00  0.00000000000E+00  0.50795358582E+02  0.50795358582E+02  0.00000000000E+00 0.  1.
          2   -1    0    0  505    0 -0.00000000000E+00 -0.00000000000E+00 -0.27320878615E+04  0.27320878615E+04  0.00000000000E+00 0. -1.
         21    1    1    2  503  504 -0.16624725858E+02  0.54676959891E+02 -0.41456617357E+02  0.70601717935E+02  0.00000000000E+00 0. -1.
         21    1    1    2  504  501 -0.32366285008E+02  0.60810231387E+02 -0.39584214695E+03  0.40179157029E+03  0.00000000000E+00 0. -1.
         21    1    1    2  505  502  0.58835413425E+02 -0.17036057995E+03 -0.21423621012E+03  0.27996693877E+03  0.00000000000E+00 0.  1.
          2    1    1    2  501    0 -0.98444025593E+01  0.54873388676E+02 -0.20297575285E+04  0.20305229931E+04  0.00000000000E+00 0. -1.
<scales pt_clust_3="61.56985" pt_clust_4="112.70774" pt_clust_5="14000.00000" pt_clust_6="55.74945"></scales>
<clustering>
<clus scale="   55.749">  2  6  1 -1</clus>
<clus scale="   61.570">  1  3  2 -1</clus>
<clus scale="  112.708">  2  4  1 -1</clus>
<clus scale="   61.570">  1  3  2 -1</clus>
</clustering>
</event>
<event>
 6    0  0.4081161E+002  0.6393124E+02  0.7546771E-02  0.1382037E+00
         21   -1    0    0  503  502  0.00000000000E+00  0.00000000000E+00  0.31441024500E+02  0.31441024500E+02  0.00000000000E+00 0.  1.
          2   -1    0    0  504    0 -0.00000000000E+00 -0.00000000000E+00 -0.20838259081E+04  0.20838259081E+04  0.00000000000E+00 0.  1.
         21    1    1    2  503  501 -0.14804768582E+02 -0.83072478444E+02 -0.17417195636E+03  0.19353575439E+03  0.00000000000E+00 0.  1.
         21    1    1    2  504  505 -0.27985142231E+02 -0.49997821144E+02 -0.47923389378E+03  0.48264694680E+03  0.00000000000E+00 0.  1.
         21    1    1    2  505  502 -0.64718169835E+01  0.36822673374E+02 -0.14878446943E+01  0.37416672371E+02  0.00000000000E+00 0.  1.
          2    1    1    2  501    0  0.49261727796E+02  0.96247626213E+02 -0.13974911888E+04  0.14016675591E+04  0.00000000000E+00 0.  1.
<scales pt_clust_3="14000.00000" pt_clust_4="53.71193" pt_clust_5="37.38708" pt_clust_6="63.93124"></scales>
<clustering>
<clus scale="   37.387">  1  5  2 -1</clus>
<clus scale="   53.712">  2  4  1 -1</clus>
<clus scale="   63.931">  2  6  1 -1</clus>
<clus scale="   37.387">  1  3  2 -1</clus>
</clustering>
</event>
<event>
 6    0  0.4081161E+002  0.1632084E+03  0.7546771E-02  0.1185121E+00
          1   -1    0    0  504    0 -0.00000000000E+00  0.00000000000E+00  0.77915947947E+03  0.77915947947E+03  0.00000000000E+00 0. -1.
         21   -1    0    0  505  502  0.00000000000E+00 -0.00000000000E+00 -0.16266401999E+03  0.16266401999E+03  0.00000000000E+00 0. -1.
         21    1    1    2  503  501  0.23589993495E+02 -0.59566391976E+02  0.16264607164E+03  0.17480957487E+03  0.00000000000E+00 0. -1.
         21    1    1    2  504  502 -0.58488155486E+02  0.14494098331E+02  0.22679582049E+02  0.64384055949E+02  0.00000000000E+00 0. -1.
         21    1    1    2  505  503 -0.98350001616E+01  0.12110787078E+03 -0.10418370377E+03  0.16005651416E+03  0.00000000000E+00 0. -1.
          1    1    1    2  501    0  0.44733162152E+02 -0.76035577136E+02  0.53535350956E+03  0.54257335448E+03  0.00000000000E+00 0. -1.
<scales pt_clust_3="56.39262" pt_clust_4="60.25731" pt_clust_5="149.19137" pt_clust_6="56.39262"></scales>
<clustering>
<clus scale="   56.393">  3  6 -1 -1</clus>
<clus scale="   60.257">  2  4  1 -1</clus>
<clus scale="  149.191">  2  5  1 -1</clus>
<clus scale="   60.257">  2  3  1 -1</clus>
</clustering>
</event>
<event>
 6    0  0.4081161E+002  0.1961543E+03  0.7546771E-02  0.1153025E+00
         -2   -1    0    0    0  501 -0.00000000000E+00  0.00000000000E+00  0.15964157953E+03  0.15964157953E+03  0.00000000000E+00 0. -1.
         21   -1    0    0  504  502  0.00000000000E+00 -0.00000000000E+00 -0.23195474651E+04  0.23195474651E+04  0.00000000000E+00 0. -1.
         21    1    1    2  503  502  0.12047329838E+03  0.13111375159E+03 -0.10099359216E+04  0.10255121634E+04  0.00000000000E+00 0. -1.
         21    1    1    2  504  505 -0.29556427626E+02  0.49916450959E+02 -0.12050333896E+04  0.12064289057E+04  0.00000000000E+00 0. -1.
         21    1    1    2  505  501 -0.31085507164E-01 -0.34735721528E+02  0.66095885348E+02  0.74667512188E+02  0.00000000000E+00 0.  1.
         -2    1    1    2    0  503 -0.90885785245E+02 -0.14629448103E+03 -0.11032459638E+02  0.17258046327E+03  0.00000000000E+00 0. -1.
<scales pt_clust_3="196.15426" pt_clust_4="57.77728" pt_clust_5="34.73574" pt_clust_6="14000.00000"></scales>
<clustering>
<clus scale="   34.736">  1  5  2 -1</clus>
<clus scale="   57.777">  2  4  1 -1</clus>
<clus scale="  196.154">  2  3  1 -1</clus>
<clus scale="   57.777">  2  3  1 -1</clus>
</clustering>
</event>
<event>
 6    0  0.4081161E+002  0.2559367E+03  0.7546771E-02  0.1109609E+00
          2   -1    0    0  504    0 -0.00000000000E+00  0.00000000000E+00  0.86615027304E+03  0.86615027304E+03  0.00000000000E+00 0. -1.
         21   -1    0    0  503  502  0.00000000000E+00 -0.00000000000E+00 -0.34332275795E+03  0.34332275795E+03  0.00000000000E+00 0.  1.
         21    1    1    2  503  501  0.13120604508E+03 -0.15983853405E+03 -0.16680180557E+02  0.20746472389E+03  0.00000000000E+00 0. -1.
         21    1    1    2  504  505  0.21333071956E+03  0.85219334541E+02  0.83396736616E+02  0.24439178907E+03  0.00000000000E+00 0.  1.
         21    1    1    2  505  502 -0.71920898258E+02  0.22046334577E+02 -0.10640780148E+03  0.13031222771E+03  0.00000000000E+00 0. -1.
          2    1    1    2  501    0 -0.27261586639E+03  0.52572864936E+02  0.56251876051E+03  0.62730429032E+03  0.00000000000E+00 0. -1.
<scales pt_clust_3="176.78967" pt_clust_4="255.93672" pt_clust_5="75.22404" pt_clust_6="14000.00000"></scales>
<clustering>
<clus scale="   75.224">  2  5  1 -1</clus>
<clus scale="  176.790">  2  3  1 -1</clus>
<clus scale="  255.937">  2  4  1 -1</clus>
<clus scale="   75.224">  2  3  1 -1</clus>
</clustering>
</event>
<event>
 6    0  0.4081161E+002  0.1086626E+03  0.7546771E-02  0.1263067E+00
         21   -1    0    0  504  502  0.00000000000E+00  0.00000000000E+00  0.25534166378E+03  0.25534166378E+03  0.00000000000E+00 0. -1.
          3   -1    0    0  503    0 -0.00000000000E+00 -0.00000000000E+00 -0.11566471869E+04  0.11566471869E+04  0.00000000000E+00 0. -1.
         21    1    1    2  503  505  0.43174127860E+02  0.25710239649E+02 -0.11820192223E+03  0.12843954281E+03  0.00000000000E+00 0. -1.
         21    1    1    2  504  501  0.13242974602E+01  0.10901724236E+03  0.22293647858E+03  0.24816765780E+03  0.00000000000E+00 0. -1.
         21    1    1    2  505  502  0.33296493748E+02 -0.10211404962E+03 -0.21989475263E+03  0.24472359482E+03  0.00000000000E+00 0. -1.
          3    1    1    2  501    0 -0.77794919068E+02 -0.32613432381E+02 -0.78614532684E+03  0.79065805524E+03  0.00000000000E+00 0. -1.
<scales pt_clust_3="50.24959" pt_clust_4="14000.00000" pt_clust_5="108.66264" pt_clust_6="46.69928"></scales>
<clustering>
<clus scale="   50.250">  2  3  1 -1</clus>
<clus scale="   46.699">  2  6  1 -1</clus>
<clus scale="  108.663">  2  5  1 -1</clus>
<clus scale="  108.663">  1  3  2 -1</clus>
</clustering>
</event>
<event>
 6    0  0.4081161E+002  0.1032201E+03  0.7546771E-02  0.1273667E+00
         21   -1    0    0  503  502  0.00000000000E+00  0.00000000000E+00  0.12594759230E+03  0.12594759230E+03  0.00000000000E+00 0.  1.
          2   -1    0    0  505    0 -0.00000000000E+00 -0.00000000000E+00 -0.84592121796E+03  0.84592121796E+03  0.00000000000E+00 0. -1.
         21    1    1    2  503  504 -0.37362657568E+02  0.82284916715E+02  0.79207183261E+02  0.12016885445E+03  0.00000000000E+00 0.  1.
         21    1    1    2  504  501 -0.26804295598E+02 -0.55894027185E+02 -0.32229494090E+03  0.32820213507E+03  0.00000000000E+00 0. -1.
         21    1    1    2  505  502  0.84264077977E+02  0.16842244291E+01 -0.55980025472E+02  0.10117823235E+03  0.00000000000E+00 0. -1.
          2    1    1    2  501    0 -0.20097124811E+02 -0.28075113958E+02 -0.42090584255E+03  0.42231958839E+03  0.00000000000E+00 0. -1.
<scales pt_clust_3="94.70742" pt_clust_4="30.63432" pt_clust_5="84.28091" pt_clust_6="30.63432"></scales>
<clustering>
<clus scale="   30.634">  4  6 -1 -1</clus>
<clus scale="   84.281">  1  5  2 -1</clus>
<clus scale="   94.707">  1  3  2 -1</clus>
<clus scale="   84.281">  1  3  2 -1</clus>
</clustering>
</event>
<event>
 6    0  0.4081161E+002  0.1608999E+03  0.7546771E-02  0.1187685E+00
         21   -1    0    0  503  502  0.00000000000E+00  0.00000000000E+00  0.65591350358E+03  0.65591350358E+03  0.00000000000E+00 0. -1.
          2   -1    0    0  505    0 -0.00000000000E+00 -0.00000000000E+00 -0.20978219064E+04  0.20978219064E+04  0.00000000000E+00 0.  1.
         21    1    1    2  503  504  0.52973057401E+01  0.54106108446E+02  0.35302594187E+03  0.35718741306E+03  0.00000000000E+00 0.  1.
         21    1    1    2  504  501 -0.77532142392E+02  0.91098545573E+02  0.28434321718E+03  0.30848216037E+03  0.00000000000E+00 0. -1.
         21    1    1    2  505  502  0.44792867605E+02 -0.10488663791E+02 -0.82370121822E+03  0.82498491499E+03  0.00000000000E+00 0.  1.
          2    1    1    2  501    0  0.27441969047E+02 -0.13471599023E+03 -0.12555763436E+04  0.12630809215E+04  0.00000000000E+00 0.  1.
<scales pt_clust_3="54.35494" pt_clust_4="160.89989" pt_clust_5="46.00449" pt_clust_6="14000.00000"></scales>
<clustering>
<clus scale="   46.004">  2  5  1 -1</clus>
<clus scale="   54.355">  1  3  2 -1</clus>
<clus scale="  160.900">  1  4  2 -1</clus>
<clus scale="   54.355">  1  3  2 -1</clus>
</clustering>
</event>
<event>
 6    0  0.4081161E+002  0.1586133E+03  0.7546771E-02  0.1190271E+00
         21   -1    0    0  503  502  0.00000000000E+00  0.00000000000E+00  0.77817460878E+03  0.77817460878E+03  0.00000000000E+00 0.  1.
          2   -1    0    0  505    0 -0.00000000000E+00 -0.00000000000E+00 -0.58591209379E+03  0.58591209379E+03  0.00000000000E+00 0.  1.
         21    1    1    2  503  504  0.27685744607E+02  0.14259789322E+03  0.72768638960E+03  0.74204322059E+03  0.00000000000E+00 0.  1.
         21    1    1    2  504  501 -0.57801138896E+02 -0.48855332199E+02 -0.11752821992E+03  0.13978804534E+03  0.00000000000E+00 0.  1.
         21    1    1    2  505  502  0.11067891172E+03 -0.71545497088E+02 -0.14089757791E+03  0.19292668844E+03  0.00000000000E+00 0. -1.
          2    1    1    2  501    0 -0.80563517434E+02 -0.22197063931E+02 -0.27699807679E+03  0.28932874820E+03  0.00000000000E+00 0.  1.
<scales pt_clust_3="144.43399" pt_clust_4="62.38305" pt_clust_5="131.78991" pt_clust_6="62.38305"></scales>
<clustering>
<clus scale="   62.383">  4  6 -1 -1</clus>
<clus scale="  131.790">  2  5  1 -1</clus>
<clus scale="  144.434">  1  3  2 -1</clus>
<clus scale="  144.434">  1  3  2 -1</clus>
</clustering>
</event>
<event>
 6    0  0.4081161E+002  0.1028571E+03  0.7546771E-02  0.1274400E+00
          1   -1    0    0  504    0 -0.00000000000E+00  0.00000000000E+00  0.56903096367E+03  0.56903096367E+03  0.00000000000E+00 0.  1.
         21   -1    0    0  505  502  0.00000000000E+00 -0.00000000000E+00 -0.21074206907E+03  0.21074206907E+03  0.00000000000E+00 0. -1.
         21    1    1    2  503  502 -0.28543141149E+01 -0.46817046600E+02 -0.69130692653E+02  0.83540622622E+02  0.00000000000E+00 0. -1.
         21    1    1    2  504  503  0.96155643325E+02  0.30365030006E+01  0.38833964618E+03  0.40007850341E+03  0.00000000000E+00 0. -1.
         21    1    1    2  505  501  0.42721489659E+02  0.31092425442E+02 -0.92469088346E+02  0.10650068966E+03  0.00000000000E+00 0. -1.
          1    1    1    2  501    0 -0.13602281887E+03  0.12688118158E+02  0.13154902942E+03  0.18965321705E+03  0.00000000000E+00 0.  1.
<scales pt_clust_3="46.90398" pt_clust_4="14000.00000" pt_clust_5="40.76458" pt_clust_6="102.85706"></scales>
<clustering>
<clus scale="   46.904">  2  3  1 -1</clus>
<clus scale="   40.765">  2  5  1 -1</clus>
<clus scale="  102.857">  2  6  1 -1</clus>
<clus scale="   46.904">  2  3  1 -1</clus>
</clustering>
</event>
<event>
 6    0  0.4081161E+002  0.1533653E+03  0.7546771E-02  0.1196398E+00
          2   -1    0    0  503    0 -0.00000000000E+00  0.00000000000E+00  0.18277552439E+04  0.18277552439E+04  0.00000000000E+00 0.  1.
         21   -1    0    0  504  502  0.00000000000E+00 -0.00000000000E+00 -0.38045113048E+03  0.38045113048E+03  0.00000000000E+00 0. -1.
         21    1    1    2  503  502  0.50673232654E+01  0.35882323069E+02 -0.34130624365E+03  0.34322466524E+03  0.00000000000E+00 0. -1.
         21    1    1    2  504  505  0.12374768380E+03  0.11687516385E+02  0.76625858921E+02  0.14601920949E+03  0.00000000000E+00 0. -1.
         21    1    1    2  505  501 -0.46405344473E+02 -0.53653931675E+02  0.68714636885E+03  0.69079832990E+03  0.00000000000E+00 0.  1.
          2    1    1    2  501    0 -0.82409662589E+02  0.60840922212E+01  0.10248381293E+04  0.10281641697E+04  0.00000000000E+00 0.  1.
<scales pt_clust_3="36.23836" pt_clust_4="135.77907" pt_clust_5="65.42688" pt_clust_6="65.42688"></scales>
<clustering>
<clus scale="   36.238">  2  3  1 -1</clus>
<clus scale="   65.427">  5  6 -1 -1</clus>
<clus scale="  135.779">  2  4  1 -1</clus>
<clus scale="   36.238">  2  3  1 -1</clus>
</clustering>
</event>
<event>
 6    0  0.4081161E+002  0.1286724E+03  0.7546771E-02  0.1229439E+00
          2   -1    0    0  503    0 -0.00000000000E+00  0.00000000000E+00  0.14934034562E+04  0.14934034562E+04  0.00000000000E+00 0.  1.
         21   -1    0    0  504  502  0.00000000000E+00 -0.00000000000E+00 -0.45241552300E+03  0.45241552300E+03  0.00000000000E+00 0. -1.
         21    1    1    2  503  505 -0.16355054348E+03  0.58908720419E+02 -0.13823621318E+03  0.22209968088E+03  0.00000000000E+00 0.  1.
         21    1    1    2  504  501  0.59597188023E+02 -0.64866014681E+02  0.49572322802E+03  0.50348877195E+03  0.00000000000E+00 0.  1.
         21    1    1    2  505  502  0.49038012634E+02  0.29815862302E+01 -0.26531340493E+03  0.26982368201E+03  0.00000000000E+00 0. -1.
          2    1    1    2  501    0  0.54915342824E+02  0.29757080311E+01  0.94881432327E+03  0.95040684434E+03  0.00000000000E+00 0.  1.
<scales pt_clust_3="128.67243" pt_clust_4="14000.00000" pt_clust_5="49.12857" pt_clust_6="55.20753"></scales>
<clustering>
<clus scale="   49.129">  2  5  1 -1</clus>
<clus scale="   55.208">  1  6  2 -1</clus>
<clus scale="  128.672">  2  3  1 -1</clus>
<clus scale="   49.129">  2  3  1 -1</clus>
</clustering>
</event>
<event>
 6    0  0.4081161E+002  0.9073997E+02  0.7546771E-02  0.1301070E+00
         21   -1    0    0  505  502  0.00000000000E+00  0.00000000000E+00  0.16944206784E+04  0.16944206784E+04  0.00000000000E+00 0.  1.
         -1   -1    0    0    0  501 -0.00000000000E+00 -0.00000000000E+00 -0.13744599728E+03  0.13744599728E+03  0.00000000000E+00 0.  1.
         21    1    1    2  503  502  0.21405375362E+02  0.28626855497E+02  0.15653192501E+04  0.15657273203E+04  0.00000000000E+00 0.  1.
         21    1    1    2  504  503  0.20844856111E+02  0.37238097737E+02  0.33462763078E+02  0.54230438521E+02  0.00000000000E+00 0. -1.
         21    1    1    2  505  501  0.61527052968E+02 -0.30063332096E+02  0.35987663927E+02  0.77359512269E+02  0.00000000000E+00 0.  1.
         -1    1    1    2    0  504 -0.10377728444E+03 -0.35801621139E+02 -0.77794996032E+02  0.13454940449E+03  0.00000000000E+00 0.  1.
<scales pt_clust_3="35.74475" pt_clust_4="54.75245" pt_clust_5="90.73997" pt_clust_6="14000.00000"></scales>
<clustering>
<clus scale="   35.745">  1  3  2 -1</clus>
<clus scale="   54.752">  1  4  2 -1</clus>
<clus scale="   90.740">  1  5  2 -1</clus>
<clus scale="   35.745">  1  3  2 -1</clus>
</clustering>
</event>
<event>
 6    0  0.4081161E+002  0.7984026E+02  0.7546771E-02  0.1329505E+00
          1   -1    0    0  504    0 -0.00000000000E+00  0.00000000000E+00  0.10797500386E+04  0.10797500386E+04  0.00000000000E+00 0.  1.
         21   -1    0    0  503  502  0.00000000000E+00 -0.00000000000E+00 -0.10108552167E+03  0.10108552167E+03  0.00000000000E+00 0.  1.
         21    1    1    2  503  501 -0.39320186545E+02 -0.17034735864E+01 -0.67961301603E+02  0.78534816532E+02  0.00000000000E+00 0.  1.
         21    1    1    2  504  505  0.10193559152E+03  0.56932021406E+02  0.71762235776E+03  0.72705843523E+03  0.00000000000E+00 0.  1.
         21    1    1    2  505  502 -0.96563442983E+01 -0.65518909127E+02  0.32317631055E+02  0.73691259423E+02  0.00000000000E+00 0.  1.
          1    1    1    2  501    0 -0.52959060679E+02  0.10290361307E+02  0.29668582977E+03  0.30155104913E+03  0.00000000000E+00 0.  1.
<scales pt_clust_3="39.35707" pt_clust_4="79.84026" pt_clust_5="14000.00000" pt_clust_6="57.29972"></scales>
<clustering>
<clus scale="   39.357">  2  3  1 -1</clus>
<clus scale="   57.300">  1  6  2 -1</clus>
<clus scale="   79.840">  1  4  2 -1</clus>
<clus scale="   39.357">  2  3  1 -1</clus>
</clustering>
</event>
<event>
 6    0  0.4081161E+002  0.8470812E+02  0.7546771E-02  0.1316198E+00
          2   -1    0    0  503    0 -0.00000000000E+00  0.00000000000E+00  0.34050685036E+03  0.34050685036E+03  0.00000000000E+00 0. -1.
         21   -1    0    0  505  502  0.00000000000E+00 -0.00000000000E+00 -0.15973640020E+03  0.15973640020E+03  0.00000000000E+00 0.  1.
         21    1    1    2  503  504 -0.14421724381E+02 -0.31975563365E+02  0.12556477754E+03  0.13037229822E+03  0.00000000000E+00 0. -1.
         21    1    1    2  504  502  0.85260316173E+02 -0.48928018787E+02  0.14423313345E+02  0.99354438774E+02  0.00000000000E+00 0. -1.
         21    1    1    2  505  501 -0.35695190690E+02  0.76896206171E+02 -0.96674744732E+02  0.12858141169E+03  0.00000000000E+00 0.  1.
          2    1    1    2  501    0 -0.35143401101E+02  0.40073759803E+01  0.13745710401E+03  0.14193510188E+03  0.00000000000E+00 0. -1.
<scales pt_clust_3="35.07738" pt_clust_4="14000.00000" pt_clust_5="84.70812" pt_clust_6="47.75438"></scales>
<clustering>
<clus scale="   35.077">  1  3  2 -1</clus>
<clus scale="   47.754">  1  6  2 -1</clus>
<clus scale="   84.708">  2  5  1 -1</clus>
<clus scale="   84.708">  2  3  1 -1</clus>
</clustering>
</event>
<event>
 6    0  0.4081161E+002  0.1301145E+03  0.7546771E-02  0.1227286E+00
          1   -1    0    0  505    0 -0.00000000000E+00  0.00000000000E+00  0.22949469907E+04  0.22949469907E+04  0.00000000000E+00 0. -1.
         21   -1    0    0  504  502  0.00000000000E+00 -0.00000000000E+00 -0.16593907921E+03  0.16593907921E+03  0.00000000000E+00 0.  1.
         21    1    1    2  503  502 -0.19071271174E+03 -0.62873046185E+01 -0.83598888753E+02  0.20832580930E+03  0.00000000000E+00 0.  1.
         21    1    1    2  504  501  0.62704515581E+02 -0.26411077413E+01  0.50608591527E+02  0.80622957405E+02  0.00000000000E+00 0. -1.
         21    1    1    2  505  503  0.79193174330E+01 -0.46704716713E+02  0.20218756132E+03  0.20766284238E+03  0.00000000000E+00 0.  1.
          1    1    1    2  501    0  0.12008887873E+03  0.55633129073E+02  0.19598106474E+04  0.19642744608E+04  0.00000000000E+00 0. -1.
<scales pt_clust_3="130.11445" pt_clust_4="63.08699" pt_clust_5="47.37136" pt_clust_6="14000.00000"></scales>
<clustering>
<clus scale="   47.371">  1  5  2 -1</clus>
<clus scale="   63.087">  2  4  1 -1</clus>
<clus scale="  130.114">  2  3  1 -1</clus>
<clus scale="   63.087">  2  3  1 -1</clus>
</clustering>
</event>
<event>
 6    0  0.4081161E+002  0.1733734E+03  0.7546771E-02  0.1174375E+00
         21   -1    0    0  505  502  0.00000000000E+00  0.00000000000E+00  0.43323763963E+02  0.43323763963E+02  0.00000000000E+00 0.  1.
          2   -1    0    0  503    0 -0.00000000000E+00 -0.00000000000E+00 -0.29920256405E+04  0.29920256405E+04  0.00000000000E+00 0.  1.
         21    1    1    2  503  502 -0.43993732800E+02  0.13228730192E+03 -0.50753830808E+03  0.52633688161E+03  0.00000000000E+00 0.  1.
         21    1    1    2  504  501  0.64186632955E+02  0.34892037810E+01 -0.10487565679E+03  0.12300813705E+03  0.00000000000E+00 0.  1.
         21    1    1    2  505  504  0.17186080833E+02  0.54637171132E+02 -0.18619516116E+02  0.60226806524E+02  0.00000000000E+00 0.  1.
          2    1    1    2  501    0 -0.37378980988E+02 -0.19041367683E+03 -0.23176683956E+04  0.23257775793E+04  0.00000000000E+00 0.  1.
<scales pt_clust_3="14000.00000" pt_clust_4="75.53467" pt_clust_5="57.27636" pt_clust_6="173.37343"></scales>
<clustering>
<clus scale="   57.276">  1  5  2 -1</clus>
<clus scale="   75.535">  1  4  2 -1</clus>
<clus scale="  173.373">  2  6  1 -1</clus>
<clus scale="   57.276">  1  3  2 -1</clus>
</clustering>
</event>
<event>
 6    0  0.4081161E+002  0.2242297E+03  0.7546771E-02  0.1130768E+00
         21   -1    0    0  504  502  0.00000000000E+00  0.00000000000E+00  0.44014189636E+03  0.44014189636E+03  0.00000000000E+00 0.  1.
         -1   -1    0    0    0  501 -0.00000000000E+00 -0.00000000000E+00 -0.77444510555E+03  0.77444510555E+03  0.00000000000E+00 0.  1.
         21    1    1    2  503  502 -0.41684399474E+02 -0.11896333260E+03  0.36411184672E+03  0.38531454759E+03  0.00000000000E+00 0.  1.
         21    1    1    2  504  505  0.70305358194E+02 -0.13746191512E+02 -0.19611239562E+03  0.20878666837E+03  0.00000000000E+00 0.  1.
         21    1    1    2  505  501  0.15034888542E+03  0.28228361306E+02 -0.16847537550E+03  0.22756445214E+03  0.00000000000E+00 0.  1.
         -1    1    1    2    0  503 -0.17896984414E+03  0.10448116280E+03 -0.33382728479E+03  0.39292133381E+03  0.00000000000E+00 0.  1.
<scales pt_clust_3="126.05500" pt_clust_4="63.38702" pt_clust_5="63.38702" pt_clust_6="204.20318"></scales>
<clustering>
<clus scale="   63.387">  4  5 -1 -1</clus>
<clus scale="  126.055">  1  3  2 -1</clus>
<clus scale="  204.203">  2  6  1 -1</clus>
<clus scale="  126.055">  1  3  2 -1</clus>
</clustering>
</event>
<event>
 6    0  0.4081161E+002  0.8755586E+02  0.7546771E-02  0.1308881E+00
         -1   -1    0    0    0  501 -0.00000000000E+00  0.00000000000E+00  0.20260917932E+04  0.20260917932E+04  0.00000000000E+00 0. -1.
         21   -1    0    0  505  502  0.00000000000E+00 -0.00000000000E+00 -0.19780571705E+03  0.19780571705E+03  0.00000000000E+00 0.  1.
         21    1    1    2  503  501 -0.32986000935E+02  0.21879232498E+01  0.96336729061E+02  0.10185101193E+03  0.00000000000E+00 0. -1.
         21    1    1    2  504  502 -0.97146582044E+02  0.11806116361E+03 -0.56661019307E+02  0.16305326695E+03  0.00000000000E+00 0.  1.
         21    1    1    2  505  503  0.53253514338E+02 -0.45671327111E+02 -0.68938961617E+02  0.98358463481E+02  0.00000000000E+00 0.  1.
         -1    1    1    2    0  504  0.76879068640E+02 -0.74577759747E+02  0.18575493280E+04  0.18606347679E+04  0.00000000000E+00 0. -1.
<scales pt_clust_3="33.05848" pt_clust_4="14000.00000" pt_clust_5="69.95375" pt_clust_6="87.55586"></scales>
<clustering>
<clus scale="   33.058">  1  3  2 -1</clus>
<clus scale="   69.954">  2  5  1 -1</clus>
<clus scale="   87.556">  1  6  2 -1</clus>
<clus scale="   69.954">  2  3  1 -1</clus>
</clustering>
</event>
<event>
 6    0  0.4081161E+002  0.1042739E+03  0.7546771E-02  0.1271557E+00
         -2   -1    0    0    0  501 -0.00000000000E+00  0.00000000000E+00  0.44363583584E+03  0.44363583584E+03  0.00000000000E+00 0. -1.
         21   -1    0    0  505  502  0.00000000000E+00 -0.00000000000E+00 -0.26141364351E+03  0.26141364351E+03  0.00000000000E+00 0. -1.
         21    1    1    2  503  501  0.90512740437E+02 -0.13282905873E+02  0.35790638500E+03  0.36941301032E+03  0.00000000000E+00 0. -1.
         21    1    1    2  504  502 -0.54843540105E+02  0.38925506129E+02 -0.79911880878E+02  0.10444576403E+03  0.00000000000E+00 0. -1.
         21    1    1    2  505  503 -0.53307788633E+02 -0.53164023900E+02 -0.15002221723E+03  0.16785350585E+03  0.00000000000E+00 0. -1.
         -2    1    1    2    0  504  0.17638588300E+02  0.27521423644E+02  0.54249905432E+02  0.63337199149E+02  0.00000000000E+00 0. -1.
<scales pt_clust_3="14000.00000" pt_clust_4="67.31062" pt_clust_5="104.27390" pt_clust_6="32.68866"></scales>
<clustering>
<clus scale="   32.689">  1  6  2 -1</clus>
<clus scale="   67.311">  2  4  1 -1</clus>
<clus scale="  104.274">  2  5  1 -1</clus>
<clus scale="   67.311">  2  3  1 -1</clus>
</clustering>
</event>
<event>
 6    0  0.4081161E+002  0.2885724E+03  0.7546771E-02  0.1091097E+00
          1   -1    0    0  504    0 -0.00000000000E+00  0.00000000000E+00  0.77009316967E+03  0.77009316967E+03  0.00000000000E+00 0. -1.
         21   -1    0    0  505  502  0.00000000000E+00 -0.00000000000E+00 -0.49859172684E+03  0.49859172684E+03  0.00000000000E+00 0.  1.
         21    1    1    2  503  502  0.35064285724E+02 -0.34130885227E+03 -0.28623249236E+03  0.44682242161E+03  0.00000000000E+00 0.  1.
         21    1    1    2  504  503  0.40361749309E+02 -0.25216790812E+02  0.24963600834E+02  0.53741405943E+02  0.00000000000E+00 0. -1.
         21    1    1    2  505  501  0.13172187720E+02  0.21434333112E+03  0.83333599450E+01  0.21490931812E+03  0.00000000000E+00 0.  1.
          1    1    1    2  501    0 -0.88598222753E+02  0.15218231196E+03  0.52443697440E+03  0.55321175084E+03  0.00000000000E+00 0. -1.
<scales pt_clust_3="14000.00000" pt_clust_4="47.59157" pt_clust_5="288.57238" pt_clust_6="145.97121"></scales>
<clustering>
<clus scale="   47.592">  1  4  2 -1</clus>
<clus scale="  145.971">  1  6  2 -1</clus>
<clus scale="  288.572">  1  5  2 -1</clus>
<clus scale="  288.572">  2  3  1 -1</clus>
</clustering>
</event>
<event>
 6    0  0.4081161E+002  0.1170062E+03  0.7546771E-02  0.1248119E+00
         21   -1    0    0  504  502  0.00000000000E+00  0.00000000000E+00  0.44601917210E+02  0.44601917210E+02  0.00000000000E+00 0. -1.
          2   -1    0    0  503    0 -0.00000000000E+00 -0.00000000000E+00 -0.35868177223E+04  0.35868177223E+04  0.00000000000E+00 0.  1.
         21    1    1    2  503  502 -0.23002671732E+02 -0.11280409965E+03 -0.73534992919E+02  0.13660630655E+03  0.00000000000E+00 0. -1.
         21    1    1    2  504  505  0.59809359623E+02  0.12825218330E+02 -0.14313967196E+03  0.15566184957E+03  0.00000000000E+00 0.  1.
         21    1    1    2  505  501 -0.52139266280E+02  0.17757279561E+03 -0.14253039744E+04  0.14372689450E+04  0.00000000000E+00 0. -1.
          2    1    1    2  501    0  0.15332578389E+02 -0.77593914289E+02 -0.19002371658E+04  0.19018825384E+04  0.00000000000E+00 0.  1.
<scales pt_clust_3="117.00617" pt_clust_4="61.16899" pt_clust_5="14000.00000" pt_clust_6="79.08396"></scales>
<clustering>
<clus scale="   61.169">  1  4  2 -1</clus>
<clus scale="   79.084">  2  6  1 -1</clus>
<clus scale="  117.006">  1  3  2 -1</clus>
<clus scale="   61.169">  1  3  2 -1</clus>
</clustering>
</event>
<event>
 6    0  0.4081161E+002  0.7369485E+02  0.7546771E-02  0.1347961E+00
         -3   -1    0    0    0  501 -0.00000000000E+00  0.00000000000E+00  0.44755338970E+03  0.44755338970E+03  0.00000000000E+00 0. -1.
         21   -1    0    0  504  502  0.00000000000E+00 -0.00000000000E+00 -0.37535873069E+03  0.37535873069E+03  0.00000000000E+00 0.  1.
         21    1    1    2  503  501  0.23370585879E+02 -0.20342531656E+02  0.31013195345E+02  0.43838580771E+02  0.00000000000E+00 0.  1.
         21    1    1    2  504  503  0.69176497551E+02  0.83919317127E+01 -0.29064114302E+03  0.29887804594E+03  0.00000000000E+00 0.  1.
         21    1    1    2  505  502 -0.13377329005E+03 -0.11866769011E+02 -0.10377614963E+02  0.13469895408E+03  0.00000000000E+00 0.  1.
         -3    1    1    2    0  505  0.41226206620E+02  0.23817368955E+02  0.34220022165E+03  0.34549653960E+03  0.00000000000E+00 0. -1.
<scales pt_clust_3="30.98391" pt_clust_4="73.69485" pt_clust_5="14000.00000" pt_clust_6="61.19474"></scales>
<clustering>
<clus scale="   30.984">  1  3  2 -1</clus>
<clus scale="   61.195">  1  6  2 -1</clus>
<clus scale="   73.695">  2  4  1 -1</clus>
<clus scale="   73.695">  2  3  1 -1</clus>
</clustering>
</event>
<event>
 6    0  0.4081161E+002  0.1524922E+03  0.7546771E-02  0.1197444E+00
         -3   -1    0    0    0  501 -0.00000000000E+00  0.00000000000E+00  0.13175276960E+03  0.13175276960E+03  0.00000000000E+00 0. -1.
         21   -1    0    0  504  502  0.00000000000E+00 -0.00000000000E+00 -0.41608108054E+03  0.41608108054E+03  0.00000000000E+00 0. -1.
         21    1    1    2  503  502  0.12217732019E+03 -0.68293874837E+02 -0.12169715505E+03  0.18547654422E+03  0.00000000000E+00 0. -1.
         21    1    1    2  504  505 -0.15607499327E+03  0.58986544076E+02 -0.16831148476E+03  0.23699698691E+03  0.00000000000E+00 0. -1.
         21    1    1    2  505  501 -0.69756548529E+01  0.59497293704E+02 -0.33881259333E+01  0.60000559298E+02  0.00000000000E+00 0.  1.
         -3    1    1    2    0  503  0.40873327924E+02 -0.50189962943E+02  0.90684547964E+01  0.65359759701E+02  0.00000000000E+00 0. -1.
<scales pt_clust_3="152.49215" pt_clust_4="14000.00000" pt_clust_5="59.90482" pt_clust_6="47.96287"></scales>
<clustering>
<clus scale="   59.905">  1  5  2 -1</clus>
<clus scale="   47.963">  1  6  2 -1</clus>
<clus scale="  152.492">  2  3  1 -1</clus>
<clus scale="  152.492">  2  3  1 -1</clus>
</clustering>
</event>
<event>
 6    0  0.4081161E+002  0.7821796E+02  0.7546771E-02  0.1334186E+00
          2   -1    0    0  503    0 -0.00000000000E+00  0.00000000000E+00  0.84285833742E+02  0.84285833742E+02  0.00000000000E+00 0. -1.
         21   -1    0    0  504  502  0.00000000000E+00 -0.00000000000E+00 -0.32047135684E+03  0.32047135684E+03  0.00000000000E+00 0. -1.
         21    1    1    2  503  502 -0.82933310766E+02 -0.36522473213E+02 -0.82850915413E+02  0.12278476807E+03  0.00000000000E+00 0. -1.
         21    1    1    2  504  505 -0.70813991394E+01  0.83444965260E+02 -0.13555981268E+03  0.15934136706E+03  0.00000000000E+00 0. -1.
         21    1    1    2  505  501  0.66531088387E+02 -0.53920482605E+01  0.98937387349E+01  0.67478485257E+02  0.00000000000E+00 0. -1.
          2    1    1    2  501    0  0.23483621518E+02 -0.41530443787E+02 -0.27668533738E+02  0.55152570203E+02  0.00000000000E+00 0. -1.
<scales pt_clust_3="78.21796" pt_clust_4="76.50841" pt_clust_5="14000.00000" pt_clust_6="47.71015"></scales>
<clustering>
<clus scale="   47.710">  1  6  2 -1</clus>
<clus scale="   76.508">  2  4  1 -1</clus>
<clus scale="   78.218">  2  3  1 -1</clus>
<clus scale="   76.508">  2  3  1 -1</clus>
</clustering>
</event>
<event>
 6    0  0.4081161E+002  0.8873314E+02  0.7546771E-02  0.1305949E+00
          2   -1    0    0  503    0 -0.00000000000E+00  0.00000000000E+00  0.72972267469E+03  0.72972267469E+03  0.00000000000E+00 0.  1.
         21   -1    0    0  505  502  0.00000000000E+00 -0.00000000000E+00 -0.26743415719E+03  0.26743415719E+03  0.00000000000E+00 0.  1.
         21    1    1    2  503  504  0.30814142034E+02 -0.39499295883E+02  0.46185665252E+02  0.68138252101E+02  0.00000000000E+00 0. -1.
         21    1    1    2  504  502 -0.29494628578E+00 -0.38353887616E+02 -0.13484233822E+03  0.14019116900E+03  0.00000000000E+00 0.  1.
         21    1    1    2  505  501  0.17496792750E+02  0.12286590690E+03 -0.84398282563E+02  0.15008410620E+03  0.00000000000E+00 0.  1.
          2    1    1    2  501    0 -0.48015988498E+02 -0.45012723398E+02  0.63534347303E+03  0.63874330458E+03  0.00000000000E+00 0.  1.
<scales pt_clust_3="52.67502" pt_clust_4="38.35502" pt_clust_5="88.73314" pt_clust_6="14000.00000"></scales>
<clustering>
<clus scale="   38.355">  2  4  1 -1</clus>
<clus scale="   52.675">  1  3  2 -1</clus>
<clus scale="   88.733">  2  5  1 -1</clus>
<clus scale="   38.355">  2  3  1 -1</clus>
</clustering>
</event>
<event>
 6    0  0.4081161E+002  0.1071862E+03  0.7546771E-02  0.1265871E+00
          2   -1    0    0  503    0 -0.00000000000E+00  0.00000000000E+00  0.10739481828E+04  0.10739481828E+04  0.00000000000E+00 0. -1.
         21   -1    0    0  504  502  0.00000000000E+00 -0.00000000000E+00 -0.28856864696E+02  0.28856864696E+02  0.00000000000E+00 0.  1.
         21    1    1    2  503  502  0.11594555971E+03 -0.45733077762E+02  0.39343841620E+03  0.41270894655E+03  0.00000000000E+00 0.  1.
         21    1    1    2  504  505  0.27651046355E+02  0.21609813032E+02  0.28196467695E+02  0.45017831737E+02  0.00000000000E+00 0.  1.
         21    1    1    2  505  501 -0.41775967624E+02  0.38183910770E+02  0.14390135076E+03  0.15463130751E+03  0.00000000000E+00 0.  1.
          2    1    1    2  501    0 -0.10182063844E+03 -0.14060646040E+02  0.47955508348E+03  0.49044696173E+03  0.00000000000E+00 0. -1.
<scales pt_clust_3="14000.00000" pt_clust_4="35.09365" pt_clust_5="55.81089" pt_clust_6="107.18617"></scales>
<clustering>
<clus scale="   35.094">  2  4  1 -1</clus>
<clus scale="   55.811">  2  5  1 -1</clus>
<clus scale="  107.186">  1  6  2 -1</clus>
<clus scale="   35.094">  2  3  1 -1</clus>
</clustering>
</event>
<event>
 6    0  0.4081161E+002  0.7022345E+02  0.7546771E-02  0.1359335E+00
          2   -1    0    0  503    0 -0.00000000000E+00  0.00000000000E+00  0.25705621593E+03  0.25705621593E+03  0.00000000000E+00 0. -1.
         21   -1    0    0  505  502  0.00000000000E+00 -0.00000000000E+00 -0.87647845482E+03  0.87647845482E+03  0.00000000000E+00 0.  1.
         21    1    1    2  503  502  0.92234654775E+02  0.22283851637E+02  0.40196804479E+02  0.10305136911E+03  0.00000000000E+00 0.  1.
         21    1    1    2  504  501 -0.43034256046E+02 -0.39124051133E+02 -0.19706291408E+03  0.20546637359E+03  0.00000000000E+00 0.  1.
         21    1    1    2  505  504  0.14212914379E+02  0.33477759825E+02 -0.63732206803E+03  0.63835897874E+03  0.00000000000E+00 0.  1.
          2    1    1    2  501    0 -0.63413313108E+02 -0.16637560329E+02  0.17476593875E+03  0.18665794931E+03  0.00000000000E+00 0. -1.
<scales pt_clust_3="70.22345" pt_clust_4="32.90148" pt_clust_5="36.36987" pt_clust_6="14000.00000"></scales>
<clustering>
<clus scale="   36.370">  2  5  1 -1</clus>
<clus scale="   32.901">  2  4  1 -1</clus>
<clus scale="   70.223">  2  3  1 -1</clus>
<clus scale="   36.370">  2  3  1 -1</clus>
</clustering>
</event>
<event>
 6    0  0.4081161E+002  0.1313462E+03  0.7546771E-02  0.1225472E+00
          2   -1    0    0  505    0 -0.00000000000E+00  0.00000000000E+00  0.17666810023E+04  0.17666810023E+04  0.00000000000E+00 0.  1.
         21   -1    0    0  504  502  0.00000000000E+00 -0.00000000000E+00 -0.12356859423E+04  0.12356859423E+04  0.00000000000E+00 0. -1.
         21    1    1    2  503  502 -0.14921479781E+03 -0.13357626651E+02  0.13772470214E+03  0.20349834312E+03  0.00000000000E+00 0. -1.
         21    1    1    2  504  501  0.10366717741E+03  0.80823222472E+02 -0.11928265271E+04  0.12000476660E+04  0.00000000000E+00 0. -1.
         21    1    1    2  505  503 -0.20010693341E+02 -0.45992048619E+02  0.10760373078E+03  0.11871924554E+03  0.00000000000E+00 0.  1.
          2    1    1    2  501    0  0.65558313736E+02 -0.21473547202E+02  0.14784931541E+04  0.14801016899E+04  0.00000000000E+00 0.  1.
<scales pt_clust_3="14000.00000" pt_clust_4="131.34620" pt_clust_5="50.15672" pt_clust_6="78.69130"></scales>
<clustering>
<clus scale="   50.157">  1  5  2 -1</clus>
<clus scale="   78.691">  1  6  2 -1</clus>
<clus scale="  131.346">  2  4  1 -1</clus>
<clus scale="  131.346">  2  3  1 -1</clus>
</clustering>
</event>
<event>
 6    0  0.5970937E+002  0.7928735E+02  0.7546771E-02  0.1331086E+00
         21   -1    0    0  505  502  0.00000000000E+00  0.00000000000E+00  0.50426259983E+03  0.50426259983E+03  0.00000000000E+00 0.  1.
          1   -1    0    0  504    0 -0.00000000000E+00 -0.00000000000E+00 -0.46777400078E+03  0.46777400078E+03  0.00000000000E+00 0. -1.
         21    1    1    2  503  502 -0.15300397568E+02  0.26693652214E+02  0.84818720452E+01  0.31915441210E+02  0.00000000000E+00 0. -1.
         21    1    1    2  504  503 -0.12987897476E+01 -0.32576041869E+02 -0.20701589287E+02  0.38619181214E+02  0.00000000000E+00 0.  1.
         21    1    1    2  505  501  0.56678770196E+02 -0.92087140706E+02  0.46219818541E+03  0.47467850917E+03  0.00000000000E+00 0.  1.
          1    1    1    2  501    0 -0.40079582880E+02  0.97969530361E+02 -0.41348986911E+03  0.42682346901E+03  0.00000000000E+00 0. -1.
<scales pt_clust_3="30.76773" pt_clust_4="32.12099" pt_clust_5="79.28735" pt_clust_6="14000.00000"></scales>
<clustering>
<clus scale="   30.768">  1  3  2 -1</clus>
<clus scale="   32.121">  2  4  1 -1</clus>
<clus scale="   79.287">  1  5  2 -1</clus>
<clus scale="   30.768">  1  3  2 -1</clus>
</clustering>
</event>
<event>
 6    0  0.4081161E+002  0.1121168E+03  0.7546771E-02  0.1256699E+00
         21   -1    0    0  504  502  0.00000000000E+00  0.00000000000E+00  0.35222452382E+02  0.35222452382E+02  0.00000000000E+00 0. -1.
          1   -1    0    0  505    0 -0.00000000000E+00 -0.00000000000E+00 -0.15818100561E+04  0.15818100561E+04  0.00000000000E+00 0. -1.
         21    1    1    2  503  502  0.42696495565E+02  0.84679109828E+02 -0.94141109117E+02  0.13362668446E+03  0.00000000000E+00 0. -1.
         21    1    1    2  504  501  0.56415897241E+02 -0.15996561026E+02 -0.11492048371E+03  0.12901690200E+03  0.00000000000E+00 0. -1.
         21    1    1    2  505  503 -0.46973369034E+02  0.53820038264E+02 -0.30170505936E+03  0.31004682995E+03  0.00000000000E+00 0.  1.
          1    1    1    2  501    0 -0.52139023773E+02 -0.12250258707E+03 -0.10358209516E+04  0.10443420921E+04  0.00000000000E+00 0. -1.
<scales pt_clust_3="14000.00000" pt_clust_4="58.63995" pt_clust_5="64.33452" pt_clust_6="112.11679"></scales>
<clustering>
<clus scale="   58.640">  1  4  2 -1</clus>
<clus scale="   64.335">  2  5  1 -1</clus>
<clus scale="  112.117">  2  6  1 -1</clus>
<clus scale="   58.640">  1  3  2 -1</clus>
</clustering>
</event>
<event>
 6    0  0.4081161E+002  0.1162988E+03  0.7546771E-02  0.1249331E+00
          2   -1    0    0  503    0 -0.00000000000E+00  0.00000000000E+00  0.14193379148E+04  0.14193379148E+04  0.00000000000E+00 0.  1.
         21   -1    0    0  505  502  0.00000000000E+00 -0.00000000000E+00 -0.21770812637E+03  0.21770812637E+03  0.00000000000E+00 0.  1.
         21    1    1    2  503  504 -0.43971996173E+02  0.84117472474E+02  0.11576857935E+04  0.11615703517E+04  0.00000000000E+00 0.  1.
         21    1    1    2  504  502 -0.39794163965E+02 -0.10362924582E+03 -0.58995844662E+02  0.12571040435E+03  0.00000000000E+00 0.  1.
         21    1    1    2  505  501  0.52914467804E+02 -0.14070446545E+02 -0.11485985686E+03  0.12724270151E+03  0.00000000000E+00 0.  1.
          2    1    1    2  501    0  0.30851692334E+02  0.33582219887E+02  0.21779969646E+03  0.22252258355E+03  0.00000000000E+00 0.  1.
<scales pt_clust_3="14000.00000" pt_clust_4="116.29881" pt_clust_5="54.86303" pt_clust_6="45.60255"></scales>
<clustering>
<clus scale="   45.603">  1  6  2 -1</clus>
<clus scale="   54.863">  2  5  1 -1</clus>
<clus scale="  116.299">  2  4  1 -1</clus>
<clus scale="   54.863">  2  3  1 -1</clus>
</clustering>
</event>
<event>
 6    0  0.4081161E+002  0.7816687E+02  0.7546771E-02  0.1334336E+00
         21   -1    0    0  501  502  0.00000000000E+00  0.00000000000E+00  0.12202664320E+03  0.12202664320E+03  0.00000000000E+00 0.  1.
          2   -1    0    0  505    0 -0.00000000000E+00 -0.00000000000E+00 -0.15620241900E+04  0.15620241900E+04  0.00000000000E+00 0. -1.
         21    1    1    2  503  502 -0.36726020249E+02  0.20798566246E+02  0.56603203078E+02  0.70606681836E+02  0.00000000000E+00 0.  1.
         21    1    1    2  504  503  0.10774216379E+03 -0.20434555931E+02 -0.65386901755E+01  0.10985763243E+03  0.00000000000E+00 0.  1.
         21    1    1    2  505  504  0.47935270840E+02 -0.19673395229E+02 -0.89202489192E+03  0.89352853366E+03  0.00000000000E+00 0. -1.
          2    1    1    2  501    0 -0.11895141438E+03  0.19309384915E+02 -0.59803716777E+03  0.61005798525E+03  0.00000000000E+00 0. -1.
<scales pt_clust_3="42.20641" pt_clust_4="78.16687" pt_clust_5="51.27656" pt_clust_6="14000.00000"></scales>
<clustering>
<clus scale="   42.206">  1  3  2 -1</clus>
<clus scale="   51.277">  2  5  1 -1</clus>
<clus scale="   78.167">  1  4  2 -1</clus>
<clus scale="   42.206">  1  3  2 -1</clus>
</clustering>
</event>
<event>
 6    0  0.4081161E+002  0.7925322E+02  0.7546771E-02  0.1331184E+00
          2   -1    0    0  505    0 -0.00000000000E+00  0.00000000000E+00  0.30305968573E+03  0.30305968573E+03  0.00000000000E+00 0.  1.
         21   -1    0    0  501  502  0.00000000000E+00 -0.00000000000E+00 -0.10149204834E+03  0.10149204834E+03  0.00000000000E+00 0.  1.
         21    1    1    2  503  502 -0.28510129198E+02  0.55339498997E+02 -0.84078628036E+01  0.62817034100E+02  0.00000000000E+00 0.  1.
         21    1    1    2  504  503  0.94455651341E+02 -0.96291835068E+02  0.28761596895E+02  0.13791742829E+03  0.00000000000E+00 0.  1.
         21    1    1    2  505  504 -0.14828270190E+02  0.39121258432E+02  0.73430095767E+02  0.84512303380E+02  0.00000000000E+00 0.  1.
          2    1    1    2  501    0 -0.51117251953E+02  0.18310776386E+01  0.10778380754E+03  0.11930496830E+03  0.00000000000E+00 0.  1.
<scales pt_clust_3="79.25322" pt_clust_4="14000.00000" pt_clust_5="41.83719" pt_clust_6="62.50146"></scales>
<clustering>
<clus scale="   41.837">  1  5  2 -1</clus>
<clus scale="   62.501">  1  6  2 -1</clus>
<clus scale="   79.253">  2  3  1 -1</clus>
<clus scale="   79.253">  2  3  1 -1</clus>
</clustering>
</event>
<event>
 6    0  0.4081161E+002  0.7832073E+02  0.7546771E-02  0.1333886E+00
          1   -1    0    0  505    0 -0.00000000000E+00  0.00000000000E+00  0.23208124384E+04  0.23208124384E+04  0.00000000000E+00 0.  1.
         21   -1    0    0  503  502  0.00000000000E+00 -0.00000000000E+00 -0.48726099163E+02  0.48726099163E+02  0.00000000000E+00 0. -1.
         21    1    1    2  503  504 -0.51096807913E+02 -0.40524043743E+02 -0.16320044370E+02  0.67226674382E+02  0.00000000000E+00 0. -1.
         21    1    1    2  504  501  0.85620957275E+02 -0.45983435167E+02  0.45356099195E+03  0.46385665679E+03  0.00000000000E+00 0.  1.
         21    1    1    2  505  502 -0.41518372102E+02  0.21029746974E+02  0.57001769377E+03  0.57191450120E+03  0.00000000000E+00 0. -1.
          1    1    1    2  501    0  0.69942227392E+01  0.65477731936E+02  0.12648276979E+04  0.12665407052E+04  0.00000000000E+00 0.  1.
<scales pt_clust_3="65.50164" pt_clust_4="14000.00000" pt_clust_5="46.54058" pt_clust_6="78.32073"></scales>
<clustering>
<clus scale="   46.541">  1  5  2 -1</clus>
<clus scale="   65.502">  2  3  1 -1</clus>
<clus scale="   78.321">  1  6  2 -1</clus>
<clus scale="   65.502">  2  3  1 -1</clus>
</clustering>
</event>
<event>
 6    0  0.4081161E+002  0.1606038E+03  0.7546771E-02  0.1188017E+00
          2   -1    0    0  504    0 -0.00000000000E+00  0.00000000000E+00  0.12521714101E+03  0.12521714101E+03  0.00000000000E+00 0.  1.
         21   -1    0    0  505  502  0.00000000000E+00 -0.00000000000E+00 -0.58543842493E+03  0.58543842493E+03  0.00000000000E+00 0.  1.
         21    1    1    2  503  501  0.52967588275E+02  0.72076913385E+02 -0.19120662182E+03  0.21109386320E+03  0.00000000000E+00 0.  1.
         21    1    1    2  504  502 -0.96747539119E+01 -0.47819014747E+02 -0.29360307638E+02  0.56941080945E+02  0.00000000000E+00 0.  1.
         21    1    1    2  505  503  0.56972416790E+02  0.30994158291E+02 -0.30430905751E+03  0.31114385195E+03  0.00000000000E+00 0.  1.
          2    1    1    2  501    0 -0.10026525115E+03 -0.55252056928E+02  0.64654703044E+02  0.13147676985E+03  0.00000000000E+00 0.  1.
<scales pt_clust_3="57.89983" pt_clust_4="48.78790" pt_clust_5="57.89983" pt_clust_6="145.97121"></scales>
<clustering>
<clus scale="   48.788">  1  4  2 -1</clus>
<clus scale="   57.900">  3  5 -1 -1</clus>
<clus scale="  145.971">  1  6  2 -1</clus>
<clus scale="  160.604">  2  3  1 -1</clus>
</clustering>
</event>
<event>
 6    0  0.4081161E+002  0.1456762E+03  0.7546771E-02  0.1205889E+00
          1   -1    0    0  503    0 -0.00000000000E+00  0.00000000000E+00  0.99409606874E+03  0.99409606874E+03  0.00000000000E+00 0. -1.
         21   -1    0    0  504  502  0.00000000000E+00 -0.00000000000E+00 -0.56513051761E+03  0.56513051761E+03  0.00000000000E+00 0. -1.
         21    1    1    2  503  505 -0.17841835611E+02 -0.30592832008E+02  0.55161136202E+02  0.65551532517E+02  0.00000000000E+00 0. -1.
         21    1    1    2  504  501  0.16323985924E+03 -0.75310091470E+02  0.13704300601E+03  0.22605231036E+03  0.00000000000E+00 0. -1.
         21    1    1    2  505  502 -0.90588709973E+02  0.11290777903E+03 -0.50421809298E+03  0.52458589976E+03  0.00000000000E+00 0. -1.
          1    1    1    2  501    0 -0.54809313655E+02 -0.70048555479E+01  0.74097950191E+03  0.74303684371E+03  0.00000000000E+00 0. -1.
<scales pt_clust_3="35.41543" pt_clust_4="145.67617" pt_clust_5="14000.00000" pt_clust_6="75.76255"></scales>
<clustering>
<clus scale="   35.415">  1  3  2 -1</clus>
<clus scale="   75.763">  1  6  2 -1</clus>
<clus scale="  145.676">  1  4  2 -1</clus>
<clus scale="  145.676">  2  3  1 -1</clus>
</clustering>
</event>
<event>
 6    0  0.4081161E+002  0.1075173E+03  0.7546771E-02  0.1265238E+00
         -4   -1    0    0    0  501 -0.00000000000E+00  0.00000000000E+00  0.20060428125E+03  0.20060428125E+03  0.00000000000E+00 0. -1.
         21   -1    0    0  504  502  0.00000000000E+00 -0.00000000000E+00 -0.69400799242E+03  0.69400799242E+03  0.00000000000E+00 0. -1.
         21    1    1    2  503  501 -0.24305767399E+02 -0.22221795344E+02  0.22025604910E+01  0.33006511326E+02  0.00000000000E+00 0.  1.
         21    1    1    2  504  503  0.12853955690E+03 -0.45685714855E+02 -0.45095896895E+03  0.47114073684E+03  0.00000000000E+00 0. -1.
         21    1    1    2  505  502 -0.36722923467E+02 -0.78892857103E+01 -0.20076652405E+03  0.20424987421E+03  0.00000000000E+00 0. -1.
         -4    1    1    2    0  505 -0.67510866032E+02  0.75796795909E+02  0.15611922134E+03  0.18621515130E+03  0.00000000000E+00 0. -1.
<scales pt_clust_3="32.93294" pt_clust_4="107.51733" pt_clust_5="37.83172" pt_clust_6="14000.00000"></scales>
<clustering>
<clus scale="   32.933">  1  3  2 -1</clus>
<clus scale="   37.832">  2  5  1 -1</clus>
<clus scale="  107.517">  2  4  1 -1</clus>
<clus scale="   37.832">  2  3  1 -1</clus>
</clustering>
</event>
<event>
 6    0  0.4081161E+002  0.1861003E+03  0.7546771E-02  0.1162026E+00
          1   -1    0    0  503    0 -0.00000000000E+00  0.00000000000E+00  0.51069776128E+03  0.51069776128E+03  0.00000000000E+00 0.  1.
         21   -1    0    0  504  502  0.00000000000E+00 -0.00000000000E+00 -0.33919832502E+03  0.33919832502E+03  0.00000000000E+00 0.  1.
         21    1    1    2  503  505 -0.13893679997E+03 -0.16109278557E+03 -0.16481137896E+03  0.26910427456E+03  0.00000000000E+00 0.  1.
         21    1    1    2  504  501  0.30018840407E+02  0.57435017621E+02  0.10627585471E+03  0.12447678226E+03  0.00000000000E+00 0. -1.
         21    1    1    2  505  502  0.31788630278E+02  0.21289263326E+02 -0.10024095992E+03  0.10729398769E+03  0.00000000000E+00 0.  1.
          1    1    1    2  501    0  0.77129329281E+02  0.82368504623E+02  0.33027592044E+03  0.34902104179E+03  0.00000000000E+00 0.  1.
<scales pt_clust_3="178.98702" pt_clust_4="38.75167" pt_clust_5="38.25898" pt_clust_6="38.75167"></scales>
<clustering>
<clus scale="   38.259">  2  5  1 -1</clus>
<clus scale="   38.752">  4  6 -1 -1</clus>
<clus scale="  178.987">  2  3  1 -1</clus>
<clus scale="   38.259">  2  3  1 -1</clus>
</clustering>
</event>
<event>
 6    0  0.4081161E+002  0.7161820E+02  0.7546771E-02  0.1354675E+00
         21   -1    0    0  504  502  0.00000000000E+00  0.00000000000E+00  0.16667524340E+03  0.16667524340E+03  0.00000000000E+00 0. -1.
          2   -1    0    0  505    0 -0.00000000000E+00 -0.00000000000E+00 -0.68343619586E+03  0.68343619586E+03  0.00000000000E+00 0. -1.
         21    1    1    2  503  502 -0.82873038548E+02  0.13380693931E+02  0.14123543321E+02  0.85126129738E+02  0.00000000000E+00 0. -1.
         21    1    1    2  504  501  0.22608100661E+02 -0.55476774928E+02  0.98482804217E+02  0.11527211935E+03  0.00000000000E+00 0. -1.
         21    1    1    2  505  503 -0.14788636827E+02  0.42172816709E+02 -0.56926596646E+02  0.72373252338E+02  0.00000000000E+00 0.  1.
          2    1    1    2  501    0  0.75053574714E+02 -0.76735711839E-01 -0.57244070335E+03  0.57733993784E+03  0.00000000000E+00 0. -1.
<scales pt_clust_3="71.61820" pt_clust_4="59.30105" pt_clust_5="44.69061" pt_clust_6="14000.00000"></scales>
<clustering>
<clus scale="   44.691">  2  5  1 -1</clus>
<clus scale="   59.301">  1  4  2 -1</clus>
<clus scale="   71.618">  1  3  2 -1</clus>
<clus scale="   59.301">  1  3  2 -1</clus>
</clustering>
</event>
<event>
 6    0  0.4081161E+002  0.9111900E+02  0.7546771E-02  0.1300164E+00
          2   -1    0    0  503    0 -0.00000000000E+00  0.00000000000E+00  0.21896659862E+04  0.21896659862E+04  0.00000000000E+00 0.  1.
         21   -1    0    0  501  502  0.00000000000E+00 -0.00000000000E+00 -0.16182464894E+03  0.16182464894E+03  0.00000000000E+00 0.  1.
         21    1    1    2  503  505 -0.38684153001E+02  0.80277342497E+02  0.44072747587E+03  0.44964610907E+03  0.00000000000E+00 0.  1.
         21    1    1    2  504  502 -0.58787128445E+01  0.36218961574E+02 -0.14414755898E+03  0.14874438209E+03  0.00000000000E+00 0.  1.
         21    1    1    2  505  504  0.40917090593E+02 -0.23175252570E+02  0.47810793399E+02  0.67060961817E+02  0.00000000000E+00 0.  1.
          2    1    1    2  501    0  0.36457752517E+01 -0.93321051501E+02  0.16834506270E+04  0.16860391821E+04  0.00000000000E+00 0.  1.
<scales pt_clust_3="14000.00000" pt_clust_4="36.69295" pt_clust_5="37.24122" pt_clust_6="91.11900"></scales>
<clustering>
<clus scale="   36.693">  2  4  1 -1</clus>
<clus scale="   37.241">  2  5  1 -1</clus>
<clus scale="   91.119">  1  6  2 -1</clus>
<clus scale="   36.693">  2  3  1 -1</clus>
</clustering>
</event>
<event>
 6    0  0.4081161E+002  0.1269255E+03  0.7546771E-02  0.1232090E+00
          2   -1    0    0  504    0 -0.00000000000E+00  0.00000000000E+00  0.39972770422E+03  0.39972770422E+03  0.00000000000E+00 0. -1.
         21   -1    0    0  503  502  0.00000000000E+00 -0.00000000000E+00 -0.35349228787E+03  0.35349228787E+03  0.00000000000E+00 0. -1.
         21    1    1    2  503  505 -0.71174954591E+02  0.11436037938E+03 -0.23545070800E+03  0.27125856011E+03  0.00000000000E+00 0. -1.
         21    1    1    2  504  502 -0.39278053791E+02 -0.76985749381E+02 -0.67892964521E+02  0.10990462114E+03  0.00000000000E+00 0. -1.
         21    1    1    2  505  501  0.70576564574E+02 -0.18870093943E+02  0.13997991508E+03  0.15789714544E+03  0.00000000000E+00 0. -1.
          2    1    1    2  501    0  0.39876443808E+02 -0.18504536055E+02  0.20959917380E+03  0.21415966540E+03  0.00000000000E+00 0. -1.
<scales pt_clust_3="116.12961" pt_clust_4="86.42668" pt_clust_5="39.73632" pt_clust_6="39.73632"></scales>
<clustering>
<clus scale="   39.736">  5  6 -1 -1</clus>
<clus scale="   86.427">  2  4  1 -1</clus>
<clus scale="  116.130">  2  3  1 -1</clus>
<clus scale="   86.427">  2  3  1 -1</clus>
</clustering>
</event>
<event>
 6    0  0.4081161E+002  0.1472155E+03  0.7546771E-02  0.1203937E+00
         21   -1    0    0  503  502  0.00000000000E+00  0.00000000000E+00  0.11040919179E+04  0.11040919179E+04  0.00000000000E+00 0.  1.
          2   -1    0    0  504    0 -0.00000000000E+00 -0.00000000000E+00 -0.14752895182E+04  0.14752895182E+04  0.00000000000E+00 0. -1.
         21    1    1    2  503  505  0.20918164549E+02 -0.24307911706E+02  0.81953475416E+02  0.88004638016E+02  0.00000000000E+00 0.  1.
         21    1    1    2  504  502  0.11325966714E+03  0.69366366819E+02  0.10110768506E+04  0.10197626405E+04  0.00000000000E+00 0.  1.
         21    1    1    2  505  501 -0.73233304231E+02 -0.34352854722E+01 -0.76198081495E+03  0.76549962795E+03  0.00000000000E+00 0. -1.
          2    1    1    2  501    0 -0.60944527454E+02 -0.41623169641E+02 -0.70224711133E+03  0.70611452970E+03  0.00000000000E+00 0. -1.
<scales pt_clust_3="32.06937" pt_clust_4="141.49758" pt_clust_5="40.48856" pt_clust_6="40.48856"></scales>
<clustering>
<clus scale="   32.069">  1  3  2 -1</clus>
<clus scale="   40.489">  5  6 -1 -1</clus>
<clus scale="  141.498">  1  4  2 -1</clus>
<clus scale="   32.069">  1  3  2 -1</clus>
</clustering>
</event>
<event>
 6    0  0.4081161E+002  0.1593160E+03  0.7546771E-02  0.1189471E+00
          2   -1    0    0  503    0 -0.00000000000E+00  0.00000000000E+00  0.13796940307E+03  0.13796940307E+03  0.00000000000E+00 0.  1.
         21   -1    0    0  505  502  0.00000000000E+00 -0.00000000000E+00 -0.30328266009E+03  0.30328266009E+03  0.00000000000E+00 0.  1.
         21    1    1    2  503  502 -0.43779411378E+02 -0.15578463436E+03 -0.11236694433E+03  0.19700715556E+03  0.00000000000E+00 0.  1.
         21    1    1    2  504  501 -0.31800491762E+02  0.53606164321E+02  0.27514996380E+02  0.68131983351E+02  0.00000000000E+00 0.  1.
         21    1    1    2  505  504  0.67670015667E+02  0.19306030694E+02 -0.54188881017E+02  0.88816601305E+02  0.00000000000E+00 0.  1.
          2    1    1    2  501    0  0.79098874731E+01  0.82872439346E+02 -0.26272428049E+02  0.87296322938E+02  0.00000000000E+00 0.  1.
<scales pt_clust_3="142.90672" pt_clust_4="60.93444" pt_clust_5="70.37012" pt_clust_6="60.93444"></scales>
<clustering>
<clus scale="   60.934">  4  6 -1 -1</clus>
<clus scale="   70.370">  2  5  1 -1</clus>
<clus scale="  142.907">  2  3  1 -1</clus>
<clus scale="   70.370">  2  3  1 -1</clus>
</clustering>
</event>
<event>
 6    0  0.4081161E+002  0.1038385E+03  0.7546771E-02  0.1272425E+00
          1   -1    0    0  505    0 -0.00000000000E+00  0.00000000000E+00  0.31255503525E+03  0.31255503525E+03  0.00000000000E+00 0. -1.
         21   -1    0    0  504  502  0.00000000000E+00 -0.00000000000E+00 -0.19060274085E+03  0.19060274085E+03  0.00000000000E+00 0. -1.
         21    1    1    2  503  502  0.80147883038E+02 -0.69009528572E+02 -0.12394532033E+03  0.16293692222E+03  0.00000000000E+00 0. -1.
         21    1    1    2  504  501  0.24720541825E+02  0.33409824380E+02  0.45813076921E+02  0.61855958243E+02  0.00000000000E+00 0.  1.
         21    1    1    2  505  503 -0.12393584575E+03 -0.10508260544E+02  0.78858883485E+02  0.14727267535E+03  0.00000000000E+00 0. -1.
          1    1    1    2  501    0  0.19067420885E+02  0.46107964737E+02  0.12122565432E+03  0.13109222028E+03  0.00000000000E+00 0. -1.
<scales pt_clust_3="103.83851" pt_clust_4="30.08494" pt_clust_5="14000.00000" pt_clust_6="96.57671"></scales>
<clustering>
<clus scale="   30.085">  4  6 -1 -1</clus>
<clus scale="   96.577">  1  4  2 -1</clus>
<clus scale="  103.839">  2  3  1 -1</clus>
<clus scale="  103.839">  2  3  1 -1</clus>
</clustering>
</event>
<event>
 6    0  0.4081161E+002  0.1820192E+03  0.7546771E-02  0.1165863E+00
         21   -1    0    0  505  502  0.00000000000E+00  0.00000000000E+00  0.12172925340E+03  0.12172925340E+03  0.00000000000E+00 0.  1.
          1   -1    0    0  503    0 -0.00000000000E+00 -0.00000000000E+00 -0.55287153308E+03  0.55287153308E+03  0.00000000000E+00 0.  1.
         21    1    1    2  503  502  0.16636469677E+03  0.13122778639E+03 -0.11143887055E+03  0.23940878455E+03  0.00000000000E+00 0.  1.
         21    1    1    2  504  501 -0.49297993309E+02 -0.74453247653E+01 -0.54762837253E+02  0.74058715552E+02  0.00000000000E+00 0.  1.
         21    1    1    2  505  504 -0.17585397548E+02 -0.67395985921E+02  0.30985198610E+01  0.69721345013E+02  0.00000000000E+00 0.  1.
          1    1    1    2  501    0 -0.99481305914E+02 -0.56386475705E+02 -0.26803909174E+03  0.29141194136E+03  0.00000000000E+00 0.  1.
<scales pt_clust_3="173.12722" pt_clust_4="37.10621" pt_clust_5="69.65246" pt_clust_6="37.10621"></scales>
<clustering>
<clus scale="   37.106">  4  6 -1 -1</clus>
<clus scale="   69.652">  1  5  2 -1</clus>
<clus scale="  173.127">  1  3  2 -1</clus>
<clus scale="   69.652">  1  3  2 -1</clus>
</clustering>
</event>
<event>
 6    0  0.4081161E+002  0.1581384E+03  0.7546771E-02  0.1190815E+00
         -1   -1    0    0    0  501 -0.00000000000E+00  0.00000000000E+00  0.53775367769E+03  0.53775367769E+03  0.00000000000E+00 0.  1.
         21   -1    0    0  505  502  0.00000000000E+00 -0.00000000000E+00 -0.22032902805E+03  0.22032902805E+03  0.00000000000E+00 0.  1.
         21    1    1    2  503  504 -0.42767790707E+02 -0.22240129405E+02  0.65741872841E+02  0.81521169781E+02  0.00000000000E+00 0.  1.
         21    1    1    2  504  502 -0.39143952751E+02 -0.11568546080E+02 -0.16620277304E+03  0.17114158484E+03  0.00000000000E+00 0.  1.
         21    1    1    2  505  501  0.17171637212E+03  0.81060027502E+01  0.17554281453E+03  0.24569798426E+03  0.00000000000E+00 0.  1.
         -1    1    1    2    0  503 -0.89804628660E+02  0.25702672735E+02  0.24234273531E+03  0.25972196686E+03  0.00000000000E+00 0.  1.
<scales pt_clust_3="46.45822" pt_clust_4="40.81765" pt_clust_5="145.13589" pt_clust_6="46.45822"></scales>
<clustering>
<clus scale="   40.818">  2  4  1 -1</clus>
<clus scale="   46.458">  3  6 -1 -1</clus>
<clus scale="  145.136">  2  5  1 -1</clus>
<clus scale="   40.818">  2  3  1 -1</clus>
</clustering>
</event>
<event>
 6    0  0.4081161E+002  0.1320692E+03  0.7546771E-02  0.1224417E+00
          2   -1    0    0  503    0 -0.00000000000E+00  0.00000000000E+00  0.17810350082E+04  0.17810350082E+04  0.00000000000E+00 0. -1.
         21   -1    0    0  505  502  0.00000000000E+00 -0.00000000000E+00 -0.41030901187E+03  0.41030901187E+03  0.00000000000E+00 0.  1.
         21    1    1    2  503  502 -0.44545947154E+02 -0.14672900868E+03  0.13428508834E+04  0.13515776849E+04  0.00000000000E+00 0. -1.
         21    1    1    2  504  501 -0.46792628845E+02  0.69440920464E+02 -0.46772203383E+02  0.95912619391E+02  0.00000000000E+00 0. -1.
         21    1    1    2  505  504 -0.16889407729E+02  0.27096035136E+02 -0.32511024037E+03  0.32667432652E+03  0.00000000000E+00 0.  1.
          2    1    1    2  501    0  0.10822798373E+03  0.50192053081E+02  0.39975755672E+03  0.41717938924E+03  0.00000000000E+00 0. -1.
<scales pt_clust_3="14000.00000" pt_clust_4="110.70605" pt_clust_5="31.92878" pt_clust_6="132.06919"></scales>
<clustering>
<clus scale="   31.929">  2  5  1 -1</clus>
<clus scale="  110.706">  2  4  1 -1</clus>
<clus scale="  132.069">  2  6  1 -1</clus>
<clus scale="   31.929">  2  3  1 -1</clus>
</clustering>
</event>
<event>
 6    0  0.4081161E+002  0.9011479E+02  0.7546771E-02  0.1302574E+00
          1   -1    0    0  503    0 -0.00000000000E+00  0.00000000000E+00  0.62145651121E+03  0.62145651121E+03  0.00000000000E+00 0.  1.
         21   -1    0    0  504  502  0.00000000000E+00 -0.00000000000E+00 -0.10803285866E+03  0.10803285866E+03  0.00000000000E+00 0. -1.
         21    1    1    2  503  502 -0.39580604986E+02 -0.10346455383E+02 -0.34166686714E+01  0.41052978636E+02  0.00000000000E+00 0. -1.
         21    1    1    2  504  505  0.13837110604E+03  0.84990259281E+01 -0.15041148705E+02  0.13944544662E+03  0.00000000000E+00 0. -1.
         21    1    1    2  505  501 -0.49431094032E+02 -0.31186289608E+02  0.12733604754E+03  0.14010883883E+03  0.00000000000E+00 0. -1.
          1    1    1    2  501    0 -0.49359407021E+02  0.33033719063E+02  0.40454542239E+03  0.40888210579E+03  0.00000000000E+00 0.  1.
<scales pt_clust_3="40.91055" pt_clust_4="90.11479" pt_clust_5="14000.00000" pt_clust_6="60.08428"></scales>
<clustering>
<clus scale="   40.911">  2  3  1 -1</clus>
<clus scale="   60.084">  1  6  2 -1</clus>
<clus scale="   90.115">  2  4  1 -1</clus>
<clus scale="   40.911">  2  3  1 -1</clus>
</clustering>
</event>
<event>
 6    0  0.4081161E+002  0.1076062E+03  0.7546771E-02  0.1265068E+00
         21   -1    0    0  503  502  0.00000000000E+00  0.00000000000E+00  0.10741664280E+03  0.10741664280E+03  0.00000000000E+00 0.  1.
         -2   -1    0    0    0  501 -0.00000000000E+00 -0.00000000000E+00 -0.13449285102E+04  0.13449285102E+04  0.00000000000E+00 0. -1.
         21    1    1    2  503  501  0.21180422905E+02 -0.23954979019E+02 -0.26464614302E+03  0.26657087678E+03  0.00000000000E+00 0.  1.
         21    1    1    2  504  502 -0.72232165714E+01  0.30893631422E+02  0.13577229425E+02  0.34509889582E+02  0.00000000000E+00 0.  1.
         21    1    1    2  505  504  0.70209893753E+02  0.57847662407E+02  0.53749296423E+02  0.10566346622E+03  0.00000000000E+00 0.  1.
         -2    1    1    2    0  505 -0.84167100087E+02 -0.64786314810E+02 -0.10401922503E+04  0.10456009204E+04  0.00000000000E+00 0. -1.
<scales pt_clust_3="31.65389" pt_clust_4="31.72682" pt_clust_5="107.60622" pt_clust_6="14000.00000"></scales>
<clustering>
<clus scale="   31.727">  1  4  2 -1</clus>
<clus scale="   31.654">  2  3  1 -1</clus>
<clus scale="  107.606">  1  5  2 -1</clus>
<clus scale="   31.727">  1  3  2 -1</clus>
</clustering>
</event>
<event>
 6    0  0.4081161E+002  0.8236662E+02  0.7546771E-02  0.1322466E+00
         21   -1    0    0  503  502  0.00000000000E+00  0.00000000000E+00  0.56885317808E+03  0.56885317808E+03  0.00000000000E+00 0. -1.
          2   -1    0    0  505    0 -0.00000000000E+00 -0.00000000000E+00 -0.24574125934E+04  0.24574125934E+04  0.00000000000E+00 0.  1.
         21    1    1    2  503  504 -0.67519659467E+01  0.42083861907E+02  0.54536349284E+03  0.54702648912E+03  0.00000000000E+00 0. -1.
         21    1    1    2  504  501 -0.70356936225E+02 -0.11214110316E+02 -0.45538174985E+02  0.84555189824E+02  0.00000000000E+00 0. -1.
         21    1    1    2  505  502 -0.25564223865E+02  0.40944215621E+02 -0.65004038800E+03  0.65183008857E+03  0.00000000000E+00 0.  1.
          2    1    1    2  501    0  0.10267312604E+03 -0.71813967212E+02 -0.17383443452E+04  0.17428540039E+04  0.00000000000E+00 0.  1.
<scales pt_clust_3="42.62207" pt_clust_4="14000.00000" pt_clust_5="49.82497" pt_clust_6="82.36662"></scales>
<clustering>
<clus scale="   42.622">  1  3  2 -1</clus>
<clus scale="   49.825">  2  5  1 -1</clus>
<clus scale="   82.367">  2  6  1 -1</clus>
<clus scale="   42.622">  1  3  2 -1</clus>
</clustering>
</event>
<event>
 6    0  0.4081161E+002  0.1266418E+03  0.7546771E-02  0.1232526E+00
          2   -1    0    0  504    0 -0.00000000000E+00  0.00000000000E+00  0.15607136560E+04  0.15607136560E+04  0.00000000000E+00 0.  1.
         21   -1    0    0  503  502  0.00000000000E+00 -0.00000000000E+00 -0.46155631934E+02  0.46155631934E+02  0.00000000000E+00 0. -1.
         21    1    1    2  503  501  0.13512659219E+03 -0.13269213080E+03  0.32601773788E+03  0.37703310585E+03  0.00000000000E+00 0.  1.
         21    1    1    2  504  505 -0.23818625665E+02  0.42191569867E+02  0.22770737849E+03  0.23280486618E+03  0.00000000000E+00 0.  1.
         21    1    1    2  505  502 -0.21019710965E+02  0.73392493950E+02  0.76989678082E+02  0.10842369182E+03  0.00000000000E+00 0. -1.
          2    1    1    2  501    0 -0.90288255562E+02  0.17108066983E+02  0.88384322964E+03  0.88860762411E+03  0.00000000000E+00 0.  1.
<scales pt_clust_3="126.64179" pt_clust_4="48.45055" pt_clust_5="79.63035" pt_clust_6="14000.00000"></scales>
<clustering>
<clus scale="   48.451">  1  4  2 -1</clus>
<clus scale="   79.630">  2  5  1 -1</clus>
<clus scale="  126.642">  2  3  1 -1</clus>
<clus scale="   79.630">  2  3  1 -1</clus>
</clustering>
</event>
<event>
 6    0  0.4081161E+002  0.9011018E+02  0.7546771E-02  0.1302585E+00
          2   -1    0    0  503    0 -0.00000000000E+00  0.00000000000E+00  0.42464152659E+03  0.42464152659E+03  0.00000000000E+00 0. -1.
         21   -1    0    0  501  502  0.00000000000E+00 -0.00000000000E+00 -0.12890925892E+03  0.12890925892E+03  0.00000000000E+00 0. -1.
         21    1    1    2  503  504 -0.59962058199E+02 -0.27935493633E+02  0.15007984113E+03  0.16401158173E+03  0.00000000000E+00 0.  1.
         21    1    1    2  504  505  0.47703597224E+02  0.12043779446E+03  0.21210411391E+03  0.24853380185E+03  0.00000000000E+00 0. -1.
         21    1    1    2  505  502 -0.26648386940E+02 -0.60776824372E+02 -0.61640630205E+02  0.90573319468E+02  0.00000000000E+00 0. -1.
          2    1    1    2  501    0  0.38906847915E+02 -0.31725476458E+02 -0.48110571542E+01  0.50432082468E+02  0.00000000000E+00 0. -1.
<scales pt_clust_3="64.72076" pt_clust_4="14000.00000" pt_clust_5="90.11018" pt_clust_6="50.20208"></scales>
<clustering>
<clus scale="   50.202">  2  6  1 -1</clus>
<clus scale="   64.721">  1  3  2 -1</clus>
<clus scale="   90.110">  2  5  1 -1</clus>
<clus scale="   50.202">  2  3  1 -1</clus>
</clustering>
</event>
<event>
 6    0  0.4081161E+002  0.1010522E+03  0.7546771E-02  0.1278099E+00
         21   -1    0    0  505  502  0.00000000000E+00  0.00000000000E+00  0.40478850133E+02  0.40478850133E+02  0.00000000000E+00 0. -1.
          2   -1    0    0  504    0 -0.00000000000E+00 -0.00000000000E+00 -0.96294994372E+03  0.96294994372E+03  0.00000000000E+00 0. -1.
         21    1    1    2  503  501  0.64857714080E+01 -0.70435376479E+02 -0.20638238158E+03  0.21816712612E+03  0.00000000000E+00 0. -1.
         21    1    1    2  504  502  0.23707051696E+02  0.14085886798E+03 -0.19466078216E+03  0.24144578087E+03  0.00000000000E+00 0. -1.
         21    1    1    2  505  503  0.11588329230E+02 -0.34308786482E+02 -0.24255732075E+02  0.43585808960E+02  0.00000000000E+00 0. -1.
          2    1    1    2  501    0 -0.41781152334E+02 -0.36114705016E+02 -0.49717219777E+03  0.50023007791E+03  0.00000000000E+00 0. -1.
<scales pt_clust_3="101.05219" pt_clust_4="14000.00000" pt_clust_5="36.21301" pt_clust_6="55.92922"></scales>
<clustering>
<clus scale="   36.213">  1  5  2 -1</clus>
<clus scale="   55.929">  2  6  1 -1</clus>
<clus scale="  101.052">  2  3  1 -1</clus>
<clus scale="   36.213">  1  3  2 -1</clus>
</clustering>
</event>
<event>
 6    0  0.4081161E+002  0.9975667E+02  0.7546771E-02  0.1280808E+00
          2   -1    0    0  504    0 -0.00000000000E+00  0.00000000000E+00  0.75677972453E+03  0.75677972453E+03  0.00000000000E+00 0. -1.
         21   -1    0    0  501  502  0.00000000000E+00 -0.00000000000E+00 -0.86666001507E+02  0.86666001507E+02  0.00000000000E+00 0. -1.
         21    1    1    2  503  505  0.40116349718E+02  0.93185037330E+02  0.16524657133E+02  0.10279025727E+03  0.00000000000E+00 0. -1.
         21    1    1    2  504  503  0.73793602721E+01 -0.36717929586E+02  0.10747987793E+03  0.11381821238E+03  0.00000000000E+00 0.  1.
         21    1    1    2  505  502  0.27544291037E+02 -0.15445207000E+02 -0.30510259359E+02  0.43910344044E+02  0.00000000000E+00 0. -1.
          2    1    1    2  501    0 -0.75040001027E+02 -0.41021900745E+02  0.57661944733E+03  0.58292691234E+03  0.00000000000E+00 0. -1.
<scales pt_clust_3="14000.00000" pt_clust_4="38.80063" pt_clust_5="31.57914" pt_clust_6="99.75667"></scales>
<clustering>
<clus scale="   31.579">  2  5  1 -1</clus>
<clus scale="   38.801">  1  4  2 -1</clus>
<clus scale="   99.757">  1  6  2 -1</clus>
<clus scale="   31.579">  2  3  1 -1</clus>
</clustering>
</event>
<event>
 6    0  0.4081161E+002  0.1057712E+03  0.7546771E-02  0.1268608E+00
          1   -1    0    0  505    0 -0.00000000000E+00  0.00000000000E+00  0.21934988132E+03  0.21934988132E+03  0.00000000000E+00 0.  1.
         21   -1    0    0  504  502  0.00000000000E+00 -0.00000000000E+00 -0.11800982451E+04  0.11800982451E+04  0.00000000000E+00 0.  1.
         21    1    1    2  503  501 -0.44223153606E+02 -0.66338388684E+02  0.15298304113E+03  0.17251168077E+03  0.00000000000E+00 0.  1.
         21    1    1    2  504  503 -0.58240371721E+02  0.14951161036E+02 -0.25566144542E+03  0.26263711236E+03  0.00000000000E+00 0.  1.
         21    1    1    2  505  502  0.85667619727E+02  0.88605604396E+02 -0.89845493900E+03  0.90686888336E+03  0.00000000000E+00 0.  1.
          1    1    1    2  501    0  0.16795905600E+02 -0.37218376748E+02  0.40384979490E+02  0.57430449947E+02  0.00000000000E+00 0.  1.
<scales pt_clust_3="14000.00000" pt_clust_4="59.61013" pt_clust_5="105.77122" pt_clust_6="40.83271"></scales>
<clustering>
<clus scale="   40.833">  1  6  2 -1</clus>
<clus scale="   59.610">  2  4  1 -1</clus>
<clus scale="  105.771">  2  5  1 -1</clus>
<clus scale="   59.610">  2  3  1 -1</clus>
</clustering>
</event>
<event>
 6    0  0.4081161E+002  0.8722469E+02  0.7546771E-02  0.1309715E+00
         21   -1    0    0  503  502  0.00000000000E+00  0.00000000000E+00  0.24338635961E+04  0.24338635961E+04  0.00000000000E+00 0. -1.
          3   -1    0    0  505    0 -0.00000000000E+00 -0.00000000000E+00 -0.36951777838E+02  0.36951777838E+02  0.00000000000E+00 0.  1.
         21    1    1    2  503  501  0.23125656689E+02  0.81852988917E+02  0.12851755351E+04  0.12879871366E+04  0.00000000000E+00 0. -1.
         21    1    1    2  504  502  0.33689714473E+02 -0.97963885014E+01  0.98454737765E+03  0.98517232246E+03  0.00000000000E+00 0.  1.
         21    1    1    2  505  504 -0.50733204377E+02  0.74609415222E+01  0.47009468749E+01  0.51493908147E+02  0.00000000000E+00 0.  1.
          3    1    1    2  501    0 -0.60821667851E+01 -0.79517541938E+02  0.12248795862E+03  0.14616200682E+03  0.00000000000E+00 0.  1.
<scales pt_clust_3="14000.00000" pt_clust_4="35.08513" pt_clust_5="50.60501" pt_clust_6="87.22469"></scales>
<clustering>
<clus scale="   35.085">  1  4  2 -1</clus>
<clus scale="   50.605">  2  5  1 -1</clus>
<clus scale="   87.225">  2  6  1 -1</clus>
<clus scale="   35.085">  1  3  2 -1</clus>
</clustering>
</event>
<event>
 6    0  0.4081161E+002  0.8144718E+02  0.7546771E-02  0.1324994E+00
         21   -1    0    0  501  502  0.00000000000E+00  0.00000000000E+00  0.97842139354E+02  0.97842139354E+02  0.00000000000E+00 0. -1.
          2   -1    0    0  505    0 -0.00000000000E+00 -0.00000000000E+00 -0.15748583551E+04  0.15748583551E+04  0.00000000000E+00 0. -1.
         21    1    1    2  503  502  0.41584226236E+02 -0.11513649656E+02  0.74273335469E+02  0.85897266322E+02  0.00000000000E+00 0. -1.
         21    1    1    2  504  503  0.51947154230E+02  0.78467695565E-01 -0.48912507925E+02  0.71350868399E+02  0.00000000000E+00 0. -1.
         21    1    1    2  505  504  0.15739221306E+02  0.70150581841E+02 -0.43647183296E+03  0.44235335218E+03  0.00000000000E+00 0.  1.
          2    1    1    2  501    0 -0.10927060177E+03 -0.58715399880E+02 -0.10659052103E+04  0.10730990075E+04  0.00000000000E+00 0. -1.
<scales pt_clust_3="43.14872" pt_clust_4="81.44718" pt_clust_5="71.89682" pt_clust_6="14000.00000"></scales>
<clustering>
<clus scale="   43.149">  1  3  2 -1</clus>
<clus scale="   71.897">  2  5  1 -1</clus>
<clus scale="   81.447">  1  4  2 -1</clus>
<clus scale="   43.149">  1  3  2 -1</clus>
</clustering>
</event>
<event>
 6    0  0.4081161E+002  0.1105177E+03  0.7546771E-02  0.1259614E+00
         21   -1    0    0  504  502  0.00000000000E+00  0.00000000000E+00  0.11324668457E+03  0.11324668457E+03  0.00000000000E+00 0. -1.
          2   -1    0    0  505    0 -0.00000000000E+00 -0.00000000000E+00 -0.14156606730E+04  0.14156606730E+04  0.00000000000E+00 0. -1.
         21    1    1    2  503  501  0.77783772461E+02  0.67332056526E+02 -0.24520390001E+03  0.26591140192E+03  0.00000000000E+00 0. -1.
         21    1    1    2  504  503  0.19076752589E+02  0.48546000080E+02  0.72281340591E+02  0.89136012984E+02  0.00000000000E+00 0. -1.
         21    1    1    2  505  502  0.76077226013E+01 -0.70719241921E+02 -0.46664985344E+02  0.85068851399E+02  0.00000000000E+00 0. -1.
          2    1    1    2  501    0 -0.10446824765E+03 -0.45158814684E+02 -0.10828264437E+04  0.10887910912E+04  0.00000000000E+00 0. -1.
<scales pt_clust_3="14000.00000" pt_clust_4="52.15972" pt_clust_5="46.10672" pt_clust_6="110.51773"></scales>
<clustering>
<clus scale="   52.160">  1  4  2 -1</clus>
<clus scale="   46.107">  1  5  2 -1</clus>
<clus scale="  110.518">  2  6  1 -1</clus>
<clus scale="   52.160">  1  3  2 -1</clus>
</clustering>
</event>
<event>
 6    0  0.4081161E+002  0.1476440E+03  0.7546771E-02  0.1203398E+00
         21   -1    0    0  503  502  0.00000000000E+00  0.00000000000E+00  0.22786255910E+04  0.22786255910E+04  0.00000000000E+00 0. -1.
          2   -1    0    0  504    0 -0.00000000000E+00 -0.00000000000E+00 -0.16679816042E+03  0.16679816042E+03  0.00000000000E+00 0.  1.
         21    1    1    2  503  501 -0.10868551944E+03  0.45678384620E+02  0.19293488232E+04  0.19329474743E+04  0.00000000000E+00 0. -1.
         21    1    1    2  504  505  0.61263099136E+01 -0.61547994233E+02  0.43776069443E+01  0.62006860183E+02  0.00000000000E+00 0. -1.
         21    1    1    2  505  502  0.11131987925E+02  0.70476511996E+02  0.28843279829E+03  0.29712680631E+03  0.00000000000E+00 0. -1.
          2    1    1    2  501    0  0.91427221600E+02 -0.54606902384E+02 -0.11033179779E+03  0.15334261065E+03  0.00000000000E+00 0.  1.
<scales pt_clust_3="14000.00000" pt_clust_4="61.85214" pt_clust_5="69.46687" pt_clust_6="147.64404"></scales>
<clustering>
<clus scale="   61.852">  2  4  1 -1</clus>
<clus scale="   69.467">  1  5  2 -1</clus>
<clus scale="  147.644">  2  6  1 -1</clus>
<clus scale="   69.467">  1  3  2 -1</clus>
</clustering>
</event>
<event>
 6    0  0.4081161E+002  0.2614051E+03  0.7546771E-02  0.1106302E+00
         21   -1    0    0  504  502  0.00000000000E+00  0.00000000000E+00  0.94426623648E+03  0.94426623648E+03  0.00000000000E+00 0.  1.
         -1   -1    0    0    0  501 -0.00000000000E+00 -0.00000000000E+00 -0.12370844741E+03  0.12370844741E+03  0.00000000000E+00 0.  1.
         21    1    1    2  503  505  0.14593787523E+02 -0.11967755693E+03  0.19262998112E+03  0.22724877534E+03  0.00000000000E+00 0.  1.
         21    1    1    2  504  501 -0.15441745416E+03  0.20957085815E+03  0.14059561907E+03  0.29585777467E+03  0.00000000000E+00 0.  1.
         21    1    1    2  505  502  0.64311348580E+02  0.60265018194E+01  0.36983338049E+03  0.37543174827E+03  0.00000000000E+00 0.  1.
         -1    1    1    2    0  503  0.75512318062E+02 -0.95919803038E+02  0.11749880839E+03  0.16943638561E+03  0.00000000000E+00 0.  1.
<scales pt_clust_3="78.58253" pt_clust_4="248.50497" pt_clust_5="64.59310" pt_clust_6="78.58253"></scales>
<clustering>
<clus scale="   64.593">  1  5  2 -1</clus>
<clus scale="   78.583">  3  6 -1 -1</clus>
<clus scale="  248.505">  2  4  1 -1</clus>
<clus scale="   64.593">  1  3  2 -1</clus>
</clustering>
</event>
<event>
 6    0  0.4081161E+002  0.1313193E+03  0.7546771E-02  0.1225511E+00
         21   -1    0    0  504  502  0.00000000000E+00  0.00000000000E+00  0.73404662471E+03  0.73404662471E+03  0.00000000000E+00 0.  1.
          2   -1    0    0  505    0 -0.00000000000E+00 -0.00000000000E+00 -0.10284098550E+04  0.10284098550E+04  0.00000000000E+00 0. -1.
         21    1    1    2  503  502 -0.42235271771E+02  0.31087294378E+02  0.59136304935E+03  0.59368383353E+03  0.00000000000E+00 0.  1.
         21    1    1    2  504  501  0.12723765301E+02 -0.78646414758E+02 -0.48996957953E+03  0.49640441338E+03  0.00000000000E+00 0. -1.
         21    1    1    2  505  503 -0.94340073145E+01  0.75800681076E+02  0.12656860510E+03  0.14783218710E+03  0.00000000000E+00 0. -1.
          2    1    1    2  501    0  0.38945513785E+02 -0.28241560696E+02 -0.52232530522E+03  0.52453604573E+03  0.00000000000E+00 0. -1.
<scales pt_clust_3="52.44271" pt_clust_4="45.86532" pt_clust_5="117.30735" pt_clust_6="45.86532"></scales>
<clustering>
<clus scale="   45.865">  4  6 -1 -1</clus>
<clus scale="   52.443">  1  3  2 -1</clus>
<clus scale="  117.307">  1  5  2 -1</clus>
<clus scale="   52.443">  1  3  2 -1</clus>
</clustering>
</event>
<event>
 6    0  0.4081161E+002  0.8632036E+02  0.7546771E-02  0.1312015E+00
         -3   -1    0    0    0  501 -0.00000000000E+00  0.00000000000E+00  0.12384610328E+04  0.12384610328E+04  0.00000000000E+00 0. -1.
         21   -1    0    0  503  502  0.00000000000E+00 -0.00000000000E+00 -0.37160552388E+03  0.37160552388E+03  0.00000000000E+00 0.  1.
         21    1    1    2  503  501 -0.16718267353E+02  0.54426463783E+02  0.34401355880E+02  0.66522129473E+02  0.00000000000E+00 0.  1.
         21    1    1    2  504  502 -0.49227055309E+02 -0.36543239751E+02 -0.79980019428E+02  0.10077457444E+03  0.00000000000E+00 0.  1.
         21    1    1    2  505  504  0.33595467058E+02  0.62413267943E+02 -0.25880502488E+03  0.26833582006E+03  0.00000000000E+00 0.  1.
         -3    1    1    2    0  505  0.32349855604E+02 -0.80296491975E+02  0.11712391974E+04  0.11744340327E+04  0.00000000000E+00 0. -1.
<scales pt_clust_3="56.93628" pt_clust_4="58.09846" pt_clust_5="86.32036" pt_clust_6="14000.00000"></scales>
<clustering>
<clus scale="   56.936">  2  3  1 -1</clus>
<clus scale="   58.098">  2  4  1 -1</clus>
<clus scale="   86.320">  2  5  1 -1</clus>
<clus scale="   56.936">  2  3  1 -1</clus>
</clustering>
</event>
<event>
 6    0  0.4081161E+002  0.6428893E+02  0.7546771E-02  0.1380666E+00
          2   -1    0    0  504    0 -0.00000000000E+00  0.00000000000E+00  0.18977774861E+03  0.18977774861E+03  0.00000000000E+00 0.  1.
         21   -1    0    0  505  502  0.00000000000E+00 -0.00000000000E+00 -0.84786814802E+03  0.84786814802E+03  0.00000000000E+00 0.  1.
         21    1    1    2  503  502  0.40832779037E+02 -0.45730368023E+02 -0.15083047382E+03  0.16281404803E+03  0.00000000000E+00 0.  1.
         21    1    1    2  504  503 -0.53196895011E+02 -0.95665553640E+00  0.22616777596E+02  0.57813004224E+02  0.00000000000E+00 0.  1.
         21    1    1    2  505  501 -0.71553464305E+02  0.96978760234E+02 -0.65057844676E+03  0.66164725766E+03  0.00000000000E+00 0.  1.
          2    1    1    2  501    0  0.83917580278E+02 -0.50291736674E+02  0.12070174357E+03  0.15537158671E+03  0.00000000000E+00 0.  1.
<scales pt_clust_3="59.93820" pt_clust_4="53.20550" pt_clust_5="64.28893" pt_clust_6="14000.00000"></scales>
<clustering>
<clus scale="   53.205">  1  4  2 -1</clus>
<clus scale="   59.938">  2  3  1 -1</clus>
<clus scale="   64.289">  2  5  1 -1</clus>
<clus scale="   59.938">  2  3  1 -1</clus>
</clustering>
</event>
<event>
 6    0  0.4081161E+002  0.1012246E+03  0.7546771E-02  0.1277742E+00
         21   -1    0    0  504  502  0.00000000000E+00  0.00000000000E+00  0.99816540162E+02  0.99816540162E+02  0.00000000000E+00 0. -1.
         -1   -1    0    0    0  501 -0.00000000000E+00 -0.00000000000E+00 -0.29500103356E+03  0.29500103356E+03  0.00000000000E+00 0. -1.
         21    1    1    2  503  501  0.83654406461E+01 -0.63129485857E+02 -0.60537694620E+02  0.87864242168E+02  0.00000000000E+00 0.  1.
         21    1    1    2  504  503  0.34260131374E+02 -0.33949306576E+02 -0.36279084515E+02  0.60352994888E+02  0.00000000000E+00 0. -1.
         21    1    1    2  505  502 -0.91594563444E+02  0.35354773735E+02  0.23989990678E+02  0.10106949951E+03  0.00000000000E+00 0. -1.
         -1    1    1    2    0  505  0.48968991424E+02  0.61724018698E+02 -0.12235770494E+03  0.14553083716E+03  0.00000000000E+00 0. -1.
<scales pt_clust_3="32.01922" pt_clust_4="32.01922" pt_clust_5="94.30154" pt_clust_6="78.78970"></scales>
<clustering>
<clus scale="   32.019">  3  4 -1 -1</clus>
<clus scale="   78.790">  2  6  1 -1</clus>
<clus scale="   94.302">  1  5  2 -1</clus>
<clus scale="   94.302">  1  3  2 -1</clus>
</clustering>
</event>
<event>
 6    0  0.4081161E+002  0.1326688E+03  0.7546771E-02  0.1223549E+00
         21   -1    0    0  501  502  0.00000000000E+00  0.00000000000E+00  0.16284779915E+03  0.16284779915E+03  0.00000000000E+00 0. -1.
          1   -1    0    0  504    0 -0.00000000000E+00 -0.00000000000E+00 -0.11411096686E+04  0.11411096686E+04  0.00000000000E+00 0.  1.
         21    1    1    2  503  502 -0.55215569953E+02  0.56593671632E+02  0.11362843875E+03  0.13843057800E+03  0.00000000000E+00 0. -1.
         21    1    1    2  504  505  0.86862911297E+01 -0.11034842066E+03 -0.71077287217E+03  0.71934018475E+03  0.00000000000E+00 0.  1.
         21    1    1    2  505  503 -0.12376429093E+02  0.42372615730E+02  0.14178187637E+02  0.46364162513E+02  0.00000000000E+00 0. -1.
          1    1    1    2  501    0  0.58905707916E+02  0.11382133296E+02 -0.39529562369E+03  0.39982254250E+03  0.00000000000E+00 0.  1.
<scales pt_clust_3="43.89765" pt_clust_4="118.95153" pt_clust_5="43.89765" pt_clust_6="59.99529"></scales>
<clustering>
<clus scale="   43.898">  3  5 -1 -1</clus>
<clus scale="   59.995">  2  6  1 -1</clus>
<clus scale="  118.952">  2  4  1 -1</clus>
<clus scale="  132.669">  1  3  2 -1</clus>
</clustering>
</event>
<event>
 6    0  0.4081161E+002  0.2234723E+03  0.7546771E-02  0.1131320E+00
         -2   -1    0    0    0  501 -0.00000000000E+00  0.00000000000E+00  0.14331402495E+04  0.14331402495E+04  0.00000000000E+00 0. -1.
         21   -1    0    0  505  502  0.00000000000E+00 -0.00000000000E+00 -0.23077402599E+03  0.23077402599E+03  0.00000000000E+00 0. -1.
         21    1    1    2  503  501  0.89519954861E+02 -0.24926469400E+02  0.18291585281E+03  0.20516666495E+03  0.00000000000E+00 0. -1.
         21    1    1    2  504  502 -0.93823711680E+01 -0.22096168528E+03 -0.35737627335E+02  0.22402962585E+03  0.00000000000E+00 0. -1.
         21    1    1    2  505  503  0.30764552720E+02  0.84029255171E+00 -0.70720390661E+02  0.77126762222E+02  0.00000000000E+00 0.  1.
         -2    1    1    2    0  504 -0.11090213641E+03  0.24504786213E+03  0.11259083887E+04  0.11575912225E+04  0.00000000000E+00 0. -1.
<scales pt_clust_3="95.01386" pt_clust_4="223.47231" pt_clust_5="30.77603" pt_clust_6="14000.00000"></scales>
<clustering>
<clus scale="   30.776">  2  5  1 -1</clus>
<clus scale="   95.014">  1  3  2 -1</clus>
<clus scale="  223.472">  2  4  1 -1</clus>
<clus scale="   30.776">  2  3  1 -1</clus>
</clustering>
</event>
<event>
 6    0  0.4081161E+002  0.1438169E+03  0.7546771E-02  0.1208283E+00
          3   -1    0    0  505    0 -0.00000000000E+00  0.00000000000E+00  0.39118768852E+03  0.39118768852E+03  0.00000000000E+00 0.  1.
         21   -1    0    0  504  502  0.00000000000E+00 -0.00000000000E+00 -0.97262151585E+03  0.97262151585E+03  0.00000000000E+00 0. -1.
         21    1    1    2  503  502  0.25085544807E+02 -0.10068537464E+03 -0.14871934346E+03  0.18134021160E+03  0.00000000000E+00 0. -1.
         21    1    1    2  504  501 -0.88752546237E+02 -0.39774023670E+02 -0.78534860904E+03  0.79134785344E+03  0.00000000000E+00 0. -1.
         21    1    1    2  505  503 -0.68847022222E+01  0.29803040390E+02  0.30116458318E+02  0.42925766187E+02  0.00000000000E+00 0. -1.
          3    1    1    2  501    0  0.70551703653E+02  0.11065635792E+03  0.32251766687E+03  0.34819537314E+03  0.00000000000E+00 0.  1.
<scales pt_clust_3="14000.00000" pt_clust_4="97.20771" pt_clust_5="30.58791" pt_clust_6="143.81686"></scales>
<clustering>
<clus scale="   30.588">  1  5  2 -1</clus>
<clus scale="   97.208">  2  4  1 -1</clus>
<clus scale="  143.817">  1  6  2 -1</clus>
<clus scale="   97.208">  2  3  1 -1</clus>
</clustering>
</event>
<event>
 6    0  0.4081161E+002  0.7946771E+02  0.7546771E-02  0.1330569E+00
         21   -1    0    0  503  502  0.00000000000E+00  0.00000000000E+00  0.67675182756E+02  0.67675182756E+02  0.00000000000E+00 0. -1.
          1   -1    0    0  504    0 -0.00000000000E+00 -0.00000000000E+00 -0.19021153814E+04  0.19021153814E+04  0.00000000000E+00 0. -1.
         21    1    1    2  503  501  0.99682989755E+02  0.47556745554E+02 -0.19463712752E+03  0.22378997722E+03  0.00000000000E+00 0. -1.
         21    1    1    2  504  505 -0.14709237445E+01 -0.60965898489E+02 -0.10701936442E+04  0.10719297741E+04  0.00000000000E+00 0. -1.
         21    1    1    2  505  502 -0.39221962224E+02  0.10334719005E+02  0.42714577609E+02  0.58904192362E+02  0.00000000000E+00 0. -1.
          1    1    1    2  501    0 -0.58990103787E+02  0.30744339303E+01 -0.61232400452E+03  0.61516662051E+03  0.00000000000E+00 0. -1.
<scales pt_clust_3="14000.00000" pt_clust_4="60.53465" pt_clust_5="40.56068" pt_clust_6="79.46771"></scales>
<clustering>
<clus scale="   40.561">  1  5  2 -1</clus>
<clus scale="   60.535">  2  4  1 -1</clus>
<clus scale="   79.468">  2  6  1 -1</clus>
<clus scale="   40.561">  1  3  2 -1</clus>
</clustering>
</event>
<event>
 6    0  0.4081161E+002  0.1406010E+03  0.7546771E-02  0.1212523E+00
         -2   -1    0    0    0  501 -0.00000000000E+00  0.00000000000E+00  0.19074717671E+03  0.19074717671E+03  0.00000000000E+00 0.  1.
         21   -1    0    0  505  502  0.00000000000E+00 -0.00000000000E+00 -0.59034227359E+03  0.59034227359E+03  0.00000000000E+00 0.  1.
         21    1    1    2  503  504 -0.53002326993E+02 -0.30994172324E+02 -0.30807612432E+03  0.31413497698E+03  0.00000000000E+00 0.  1.
         21    1    1    2  504  501  0.28222312757E+02 -0.20765102983E+02  0.37595204858E+02  0.51391515521E+02  0.00000000000E+00 0.  1.
         21    1    1    2  505  503 -0.77024007418E+02  0.15650088862E+01 -0.24291141470E+03  0.25483544174E+03  0.00000000000E+00 0.  1.
         -2    1    1    2    0  502  0.10180402165E+03  0.50194266420E+02  0.11379723729E+03  0.16072751607E+03  0.00000000000E+00 0.  1.
<scales pt_clust_3="43.66499" pt_clust_4="35.03839" pt_clust_5="43.66499" pt_clust_6="131.91473"></scales>
<clustering>
<clus scale="   35.038">  1  4  2 -1</clus>
<clus scale="   43.665">  3  5 -1 -1</clus>
<clus scale="  131.915">  1  6  2 -1</clus>
<clus scale="  140.601">  2  3  1 -1</clus>
</clustering>
</event>
<event>
 6    0  0.4081161E+002  0.6609149E+02  0.7546771E-02  0.1373912E+00
         21   -1    0    0  505  502  0.00000000000E+00  0.00000000000E+00  0.14261728061E+04  0.14261728061E+04  0.00000000000E+00 0.  1.
          2   -1    0    0  503    0 -0.00000000000E+00 -0.00000000000E+00 -0.25049519712E+04  0.25049519712E+04  0.00000000000E+00 0.  1.
         21    1    1    2  503  504 -0.86878722386E+01  0.45370187285E+02 -0.96787746131E+03  0.96897921192E+03  0.00000000000E+00 0.  1.
         21    1    1    2  504  502 -0.10414509528E+03 -0.54334587190E+02  0.61987924891E+02  0.13281924208E+03  0.00000000000E+00 0. -1.
         21    1    1    2  505  501  0.65005272411E+02  0.43157215477E+01  0.13270344723E+04  0.13286326812E+04  0.00000000000E+00 0.  1.
          2    1    1    2  501    0  0.47827695106E+02  0.46486783572E+01 -0.14999241010E+04  0.15006936421E+04  0.00000000000E+00 0.  1.
<scales pt_clust_3="46.19451" pt_clust_4="14000.00000" pt_clust_5="66.09149" pt_clust_6="62.80169"></scales>
<clustering>
<clus scale="   46.195">  2  3  1 -1</clus>
<clus scale="   62.802">  2  6  1 -1</clus>
<clus scale="   66.091">  1  5  2 -1</clus>
<clus scale="   66.091">  1  3  2 -1</clus>
</clustering>
</event>
<event>
 6    0  0.4081161E+002  0.8826202E+02  0.7546771E-02  0.1307116E+00
         21   -1    0    0  505  502  0.00000000000E+00  0.00000000000E+00  0.41904097478E+03  0.41904097478E+03  0.00000000000E+00 0.  1.
          2   -1    0    0  502    0 -0.00000000000E+00 -0.00000000000E+00 -0.14428729542E+04  0.14428729542E+04  0.00000000000E+00 0. -1.
         21    1    1    2  503  504  0.62651581337E+02  0.34593517242E+02  0.81932221683E+02  0.10878796362E+03  0.00000000000E+00 0.  1.
         21    1    1    2  504  501 -0.10080889189E+03 -0.36858112784E+02 -0.56255232373E+03  0.57270068107E+03  0.00000000000E+00 0.  1.
         21    1    1    2  505  503 -0.45678105903E+01  0.33241457627E+02  0.31691231492E+03  0.31868365936E+03  0.00000000000E+00 0.  1.
          2    1    1    2  501    0  0.42725121139E+02 -0.30976862085E+02 -0.86012419229E+03  0.86174162492E+03  0.00000000000E+00 0. -1.
<scales pt_clust_3="14000.00000" pt_clust_4="88.26202" pt_clust_5="33.55383" pt_clust_6="52.58807"></scales>
<clustering>
<clus scale="   33.554">  1  5  2 -1</clus>
<clus scale="   52.588">  2  6  1 -1</clus>
<clus scale="   88.262">  2  4  1 -1</clus>
<clus scale="   33.554">  1  3  2 -1</clus>
</clustering>
</event>
<event>
 6    0  0.4081161E+002  0.1094783E+03  0.7546771E-02  0.1261539E+00
          2   -1    0    0  504    0 -0.00000000000E+00  0.00000000000E+00  0.14829058221E+03  0.14829058221E+03  0.00000000000E+00 0. -1.
         21   -1    0    0  503  502  0.00000000000E+00 -0.00000000000E+00 -0.18458187893E+03  0.18458187893E+03  0.00000000000E+00 0. -1.
         21    1    1    2  503  505 -0.36458673911E+02 -0.21029438362E+02 -0.51951121361E+02  0.66860984078E+02  0.00000000000E+00 0. -1.
         21    1    1    2  504  502  0.29522495762E+02 -0.22094209800E+02 -0.16563410754E+02  0.40423736078E+02  0.00000000000E+00 0. -1.
         21    1    1    2  505  501  0.11032224159E+03  0.45610541938E+02  0.24631314053E+02  0.12189347873E+03  0.00000000000E+00 0. -1.
          2    1    1    2  501    0 -0.10338606344E+03 -0.24868937754E+01  0.75919213388E+01  0.10369426225E+03  0.00000000000E+00 0. -1.
<scales pt_clust_3="38.76592" pt_clust_4="36.87454" pt_clust_5="14000.00000" pt_clust_6="109.47832"></scales>
<clustering>
<clus scale="   36.875">  2  4  1 -1</clus>
<clus scale="   38.766">  2  3  1 -1</clus>
<clus scale="  109.478">  1  6  2 -1</clus>
<clus scale="   36.875">  2  3  1 -1</clus>
</clustering>
</event>
<event>
 6    0  0.4081161E+002  0.1235972E+03  0.7546771E-02  0.1237278E+00
         21   -1    0    0  504  502  0.00000000000E+00  0.00000000000E+00  0.97062342516E+02  0.97062342516E+02  0.00000000000E+00 0. -1.
          1   -1    0    0  503    0 -0.00000000000E+00 -0.00000000000E+00 -0.93565787895E+03  0.93565787895E+03  0.00000000000E+00 0. -1.
         21    1    1    2  503  505  0.33501901524E+02 -0.33452531010E+02 -0.59884813387E+02  0.76338981596E+02  0.00000000000E+00 0. -1.
         21    1    1    2  504  501  0.94801087116E+02  0.10241719002E+03 -0.13366207759E+03  0.19324098405E+03  0.00000000000E+00 0. -1.
         21    1    1    2  505  502 -0.33112639777E+02  0.58044680583E+01  0.48553278401E+02  0.59055563717E+02  0.00000000000E+00 0. -1.
          1    1    1    2  501    0 -0.95190348863E+02 -0.74769127068E+02 -0.69360192385E+03  0.70408469210E+03  0.00000000000E+00 0. -1.
<scales pt_clust_3="42.26709" pt_clust_4="123.59715" pt_clust_5="33.61754" pt_clust_6="14000.00000"></scales>
<clustering>
<clus scale="   33.618">  1  5  2 -1</clus>
<clus scale="   42.267">  1  3  2 -1</clus>
<clus scale="  123.597">  1  4  2 -1</clus>
<clus scale="   33.618">  1  3  2 -1</clus>
</clustering>
</event>
<event>
 6    0  0.4081161E+002  0.1078652E+03  0.7546771E-02  0.1264575E+00
         21   -1    0    0  503  502  0.00000000000E+00  0.00000000000E+00  0.35294212694E+02  0.35294212694E+02  0.00000000000E+00 0.  1.
          2   -1    0    0  505    0 -0.00000000000E+00 -0.00000000000E+00 -0.17180375785E+04  0.17180375785E+04  0.00000000000E+00 0.  1.
         21    1    1    2  503  504 -0.53518415412E+02 -0.27115728985E+02 -0.32362455744E+01  0.60082916308E+02  0.00000000000E+00 0.  1.
         21    1    1    2  504  501  0.66682294046E+02  0.41425595494E+02 -0.77271725324E+03  0.77669463869E+03  0.00000000000E+00 0.  1.
         21    1    1    2  505  502 -0.22198405741E+02 -0.62253806228E+02 -0.27289202531E+03  0.28078170005E+03  0.00000000000E+00 0.  1.
          2    1    1    2  501    0  0.90345271073E+01  0.47943939719E+02 -0.63389784171E+03  0.63577253618E+03  0.00000000000E+00 0.  1.
<scales pt_clust_3="59.99570" pt_clust_4="41.54748" pt_clust_5="94.11356" pt_clust_6="41.54748"></scales>
<clustering>
<clus scale="   41.547">  4  6 -1 -1</clus>
<clus scale="   59.996">  1  3  2 -1</clus>
<clus scale="   94.114">  1  5  2 -1</clus>
<clus scale="   59.996">  1  3  2 -1</clus>
</clustering>
</event>
<event>
 6    0  0.4081161E+002  0.2733853E+03  0.7546771E-02  0.1099358E+00
         21   -1    0    0  504  502  0.00000000000E+00  0.00000000000E+00  0.24046227441E+03  0.24046227441E+03  0.00000000000E+00 0.  1.
          1   -1    0    0  505    0 -0.00000000000E+00 -0.00000000000E+00 -0.84553111961E+03  0.84553111961E+03  0.00000000000E+00 0.  1.
         21    1    1    2  503  502 -0.22707673309E+02 -0.25012203373E+02  0.62313107905E+02  0.70881395031E+02  0.00000000000E+00 0.  1.
         21    1    1    2  504  501  0.36211824266E+02  0.75498388206E+02 -0.17795753694E+03  0.19667279373E+03  0.00000000000E+00 0. -1.
         21    1    1    2  505  503 -0.39956118924E+02 -0.24078852733E+03  0.47070355945E+02  0.24857840763E+03  0.00000000000E+00 0.  1.
          1    1    1    2  501    0  0.26451967968E+02  0.19030234249E+03 -0.53649477211E+03  0.56986079763E+03  0.00000000000E+00 0.  1.
<scales pt_clust_3="33.78237" pt_clust_4="33.36829" pt_clust_5="268.67201" pt_clust_6="33.36829"></scales>
<clustering>
<clus scale="   33.368">  4  6 -1 -1</clus>
<clus scale="   33.782">  1  3  2 -1</clus>
<clus scale="  268.672">  1  5  2 -1</clus>
<clus scale="   33.782">  1  3  2 -1</clus>
</clustering>
</event>
<event>
 6    0  0.4081161E+002  0.1217692E+03  0.7546771E-02  0.1240207E+00
         -1   -1    0    0    0  501 -0.00000000000E+00  0.00000000000E+00  0.31629439653E+04  0.31629439653E+04  0.00000000000E+00 0.  1.
         21   -1    0    0  503  502  0.00000000000E+00 -0.00000000000E+00 -0.57258079788E+02  0.57258079788E+02  0.00000000000E+00 0. -1.
         21    1    1    2  503  504  0.97642433044E+02 -0.37269626714E+02 -0.12791775402E+01  0.10452131888E+03  0.00000000000E+00 0. -1.
         21    1    1    2  504  501 -0.20260438304E+02  0.38563896607E+02  0.50342299820E+03  0.50530423964E+03  0.00000000000E+00 0. -1.
         21    1    1    2  505  502  0.73820289467E+01 -0.30097852813E+02  0.88995792855E+02  0.94237074664E+02  0.00000000000E+00 0. -1.
         -1    1    1    2    0  505 -0.84764023687E+02  0.28803582920E+02  0.25145462720E+04  0.25161394119E+04  0.00000000000E+00 0.  1.
<scales pt_clust_3="121.76918" pt_clust_4="43.04452" pt_clust_5="30.98992" pt_clust_6="14000.00000"></scales>
<clustering>
<clus scale="   30.990">  2  5  1 -1</clus>
<clus scale="   43.045">  1  4  2 -1</clus>
<clus scale="  121.769">  2  3  1 -1</clus>
<clus scale="   30.990">  2  3  1 -1</clus>
</clustering>
</event>
<event>
 6    0  0.4081161E+002  0.6379327E+02  0.7546771E-02  0.1382569E+00
         21   -1    0    0  501  502  0.00000000000E+00  0.00000000000E+00  0.69489821730E+02  0.69489821730E+02  0.00000000000E+00 0.  1.
          2   -1    0    0  504    0 -0.00000000000E+00 -0.00000000000E+00 -0.29232190456E+04  0.29232190456E+04  0.00000000000E+00 0. -1.
         21    1    1    2  503  502 -0.19546288559E+02  0.46865810395E+02 -0.14194877463E+02  0.52725289251E+02  0.00000000000E+00 0.  1.
         21    1    1    2  504  505  0.15592998775E+02 -0.31187791040E+02 -0.10626301103E+04  0.10632020369E+04  0.00000000000E+00 0.  1.
         21    1    1    2  505  503 -0.27097374694E+02 -0.89249295599E+02  0.46981039136E+01  0.93390452727E+02  0.00000000000E+00 0.  1.
          2    1    1    2  501    0  0.31050664478E+02  0.73571276244E+02 -0.17816023400E+04  0.17833910884E+04  0.00000000000E+00 0. -1.
<scales pt_clust_3="50.15288" pt_clust_4="34.86861" pt_clust_5="63.79327" pt_clust_6="14000.00000"></scales>
<clustering>
<clus scale="   34.869">  2  4  1 -1</clus>
<clus scale="   50.153">  1  3  2 -1</clus>
<clus scale="   63.793">  1  5  2 -1</clus>
<clus scale="   50.153">  1  3  2 -1</clus>
</clustering>
</event>
<event>
 6    0  0.4081161E+002  0.8998044E+02  0.7546771E-02  0.1302899E+00
         21   -1    0    0  505  502  0.00000000000E+00  0.00000000000E+00  0.16381304697E+02  0.16381304697E+02  0.00000000000E+00 0. -1.
          2   -1    0    0  504    0 -0.00000000000E+00 -0.00000000000E+00 -0.15394635493E+04  0.15394635493E+04  0.00000000000E+00 0. -1.
         21    1    1    2  503  502 -0.36768773912E+01 -0.35434705976E+02 -0.79882094852E+02  0.87465918465E+02  0.00000000000E+00 0. -1.
         21    1    1    2  504  503  0.44328478345E+02 -0.26692986844E+02 -0.58723917844E+03  0.58951453098E+03  0.00000000000E+00 0.  1.
         21    1    1    2  505  501 -0.10604354816E+03  0.32872219225E+02 -0.33300260003E+03  0.35102214821E+03  0.00000000000E+00 0. -1.
          2    1    1    2  501    0  0.65391947209E+02  0.29255473594E+02 -0.52295837129E+03  0.52784225636E+03  0.00000000000E+00 0. -1.
<scales pt_clust_3="35.62496" pt_clust_4="53.19197" pt_clust_5="89.98044" pt_clust_6="14000.00000"></scales>
<clustering>
<clus scale="   35.625">  1  3  2 -1</clus>
<clus scale="   53.192">  2  4  1 -1</clus>
<clus scale="   89.980">  1  5  2 -1</clus>
<clus scale="   35.625">  1  3  2 -1</clus>
</clustering>
</event>
<event>
 6    0  0.4081161E+002  0.1026062E+03  0.7546771E-02  0.1274909E+00
         21   -1    0    0  501  502  0.00000000000E+00  0.00000000000E+00  0.77076239546E+02  0.77076239546E+02  0.00000000000E+00 0. -1.
          2   -1    0    0  505    0 -0.00000000000E+00 -0.00000000000E+00 -0.17108585929E+04  0.17108585929E+04  0.00000000000E+00 0.  1.
         21    1    1    2  503  504 -0.39245956698E+02  0.24539435303E+02  0.50549348037E+02  0.68539518448E+02  0.00000000000E+00 0. -1.
         21    1    1    2  504  502  0.56702302356E+01 -0.39021345776E+02 -0.33443922278E+02  0.51704089533E+02  0.00000000000E+00 0. -1.
         21    1    1    2  505  503 -0.42535356541E+02  0.88129259488E+02 -0.37998918078E+03  0.39238730923E+03  0.00000000000E+00 0. -1.
          2    1    1    2  501    0  0.76111083004E+02 -0.73647349016E+02 -0.12708985984E+04  0.12753039153E+04  0.00000000000E+00 0.  1.
<scales pt_clust_3="35.61120" pt_clust_4="39.43117" pt_clust_5="14000.00000" pt_clust_6="102.60618"></scales>
<clustering>
<clus scale="   39.431">  1  4  2 -1</clus>
<clus scale="   35.611">  1  3  2 -1</clus>
<clus scale="  102.606">  2  6  1 -1</clus>
<clus scale="   39.431">  1  3  2 -1</clus>
</clustering>
</event>
<event>
 6    0  0.4081161E+002  0.1174460E+03  0.7546771E-02  0.1247371E+00
         21   -1    0    0  503  502  0.00000000000E+00  0.00000000000E+00  0.81246626796E+02  0.81246626796E+02  0.00000000000E+00 0.  1.
          2   -1    0    0  504    0 -0.00000000000E+00 -0.00000000000E+00 -0.58966180528E+03  0.58966180528E+03  0.00000000000E+00 0. -1.
         21    1    1    2  503  501  0.14542394795E+02 -0.30755276291E+02 -0.22057454454E+03  0.22318265606E+03  0.00000000000E+00 0. -1.
         21    1    1    2  504  505  0.42225027760E+02  0.12609452795E+03 -0.23178252914E+01  0.13299682425E+03  0.00000000000E+00 0.  1.
         21    1    1    2  505  502 -0.37276770425E+02 -0.22355711045E+02 -0.44754998439E+02  0.62388663353E+02  0.00000000000E+00 0. -1.
          2    1    1    2  501    0 -0.19490652130E+02 -0.72983540611E+02 -0.24076781021E+03  0.25234028841E+03  0.00000000000E+00 0. -1.
<scales pt_clust_3="33.54791" pt_clust_4="106.27558" pt_clust_5="43.46649" pt_clust_6="33.54791"></scales>
<clustering>
<clus scale="   33.548">  3  6 -1 -1</clus>
<clus scale="   43.466">  1  5  2 -1</clus>
<clus scale="  106.276">  1  4  2 -1</clus>
<clus scale="   43.466">  1  3  2 -1</clus>
</clustering>
</event>
<event>
 6    0  0.4081161E+002  0.1327918E+03  0.7546771E-02  0.1223371E+00
         21   -1    0    0  504  502  0.00000000000E+00  0.00000000000E+00  0.14070993057E+03  0.14070993057E+03  0.00000000000E+00 0. -1.
          1   -1    0    0  503    0 -0.00000000000E+00 -0.00000000000E+00 -0.26571761969E+03  0.26571761969E+03  0.00000000000E+00 0. -1.
         21    1    1    2  503  505 -0.18484193960E+02 -0.10423528433E+03  0.67545048037E+02  0.12557465286E+03  0.00000000000E+00 0. -1.
         21    1    1    2  504  501  0.47859299405E+02  0.59288105594E+02 -0.86530547888E+02  0.11529582699E+03  0.00000000000E+00 0. -1.
         21    1    1    2  505  502 -0.42336162343E+02 -0.13712196359E+02 -0.93564394987E+00  0.44511239036E+02  0.00000000000E+00 0. -1.
          1    1    1    2  501    0  0.12961056898E+02  0.58659375100E+02 -0.10508654532E+03  0.12104583136E+03  0.00000000000E+00 0. -1.
<scales pt_clust_3="126.90204" pt_clust_4="34.72670" pt_clust_5="44.50140" pt_clust_6="34.72670"></scales>
<clustering>
<clus scale="   34.727">  4  6 -1 -1</clus>
<clus scale="   44.501">  1  5  2 -1</clus>
<clus scale="  126.902">  1  3  2 -1</clus>
<clus scale="   44.501">  1  3  2 -1</clus>
</clustering>
</event>
<event>
 6    0  0.4081161E+002  0.1380084E+03  0.7546771E-02  0.1216034E+00
         -2   -1    0    0    0  501 -0.00000000000E+00  0.00000000000E+00  0.32477597475E+03  0.32477597475E+03  0.00000000000E+00 0.  1.
         21   -1    0    0  503  502  0.00000000000E+00 -0.00000000000E+00 -0.84581553926E+02  0.84581553926E+02  0.00000000000E+00 0.  1.
         21    1    1    2  503  504  0.73566676629E+01 -0.59118889729E+02 -0.82803436946E+01  0.60147550021E+02  0.00000000000E+00 0.  1.
         21    1    1    2  504  501 -0.50568668695E+02 -0.58289612232E+02  0.10498656786E+02  0.77878693762E+02  0.00000000000E+00 0.  1.
         21    1    1    2  505  502  0.25216515059E+02  0.47369993729E+02  0.13697423778E+03  0.14711128696E+03  0.00000000000E+00 0.  1.
         -2    1    1    2    0  505  0.17995485973E+02  0.70038508231E+02  0.10100186995E+03  0.12421999793E+03  0.00000000000E+00 0.  1.
<scales pt_clust_3="51.19033" pt_clust_4="51.19033" pt_clust_5="31.48725" pt_clust_6="130.33817"></scales>
<clustering>
<clus scale="   31.487">  5  6 -1 -1</clus>
<clus scale="   51.190">  3  4 -1 -1</clus>
<clus scale="  130.338">  1  5  2 -1</clus>
<clus scale="  138.008">  2  3  1 -1</clus>
</clustering>
</event>
<event>
 6    0  0.4081161E+002  0.7695394E+02  0.7546771E-02  0.1337925E+00
          4   -1    0    0  504    0 -0.00000000000E+00  0.00000000000E+00  0.60515469133E+03  0.60515469133E+03  0.00000000000E+00 0. -1.
         21   -1    0    0  501  502  0.00000000000E+00 -0.00000000000E+00 -0.40008327226E+02  0.40008327226E+02  0.00000000000E+00 0. -1.
         21    1    1    2  503  502 -0.11919420662E+02 -0.69272270671E+02  0.43564406377E+02  0.82695692608E+02  0.00000000000E+00 0. -1.
         21    1    1    2  504  505  0.33763746897E+02  0.86117820982E+01  0.23883909175E+03  0.24136748982E+03  0.00000000000E+00 0. -1.
         21    1    1    2  505  503 -0.40384938534E+02 -0.35720545192E+02  0.94080705873E+02  0.10843468000E+03  0.00000000000E+00 0. -1.
          4    1    1    2  501    0  0.18540612299E+02  0.96381033765E+02  0.18866216010E+03  0.21266515612E+03  0.00000000000E+00 0. -1.
<scales pt_clust_3="14000.00000" pt_clust_4="34.84470" pt_clust_5="45.53267" pt_clust_6="76.95394"></scales>
<clustering>
<clus scale="   34.845">  1  4  2 -1</clus>
<clus scale="   45.533">  1  5  2 -1</clus>
<clus scale="   76.954">  1  6  2 -1</clus>
<clus scale="   76.954">  2  3  1 -1</clus>
</clustering>
</event>
<event>
 6    0  0.4081161E+002  0.6608059E+02  0.7546771E-02  0.1373952E+00
          2   -1    0    0  503    0 -0.00000000000E+00  0.00000000000E+00  0.71163090763E+03  0.71163090763E+03  0.00000000000E+00 0.  1.
         21   -1    0    0  504  502  0.00000000000E+00 -0.00000000000E+00 -0.51125178921E+03  0.51125178921E+03  0.00000000000E+00 0.  1.
         21    1    1    2  503  505 -0.32317340124E+02  0.48879008923E+02  0.89013740084E+02  0.10656929159E+03  0.00000000000E+00 0.  1.
         21    1    1    2  504  501 -0.58920328792E+02 -0.63008078245E+02 -0.37694018195E+03  0.38668530337E+03  0.00000000000E+00 0.  1.
         21    1    1    2  505  502  0.30025865651E+02  0.46316418381E+02 -0.11225862738E+03  0.12509501445E+03  0.00000000000E+00 0.  1.
          2    1    1    2  501    0  0.61211803265E+02 -0.32187349059E+02  0.60056418767E+03  0.60453308744E+03  0.00000000000E+00 0.  1.
<scales pt_clust_3="66.08059" pt_clust_4="34.72388" pt_clust_5="55.19749" pt_clust_6="14000.00000"></scales>
<clustering>
<clus scale="   55.197">  2  5  1 -1</clus>
<clus scale="   34.724">  2  4  1 -1</clus>
<clus scale="   66.081">  2  3  1 -1</clus>
<clus scale="   55.197">  2  3  1 -1</clus>
</clustering>
</event>
<event>
 6    0  0.4081161E+002  0.1123860E+03  0.7546771E-02  0.1256214E+00
         21   -1    0    0  504  502  0.00000000000E+00  0.00000000000E+00  0.12353530849E+04  0.12353530849E+04  0.00000000000E+00 0. -1.
          1   -1    0    0  505    0 -0.00000000000E+00 -0.00000000000E+00 -0.99508049369E+02  0.99508049369E+02  0.00000000000E+00 0. -1.
         21    1    1    2  503  502  0.96102131268E+02 -0.13790468610E+02  0.91279376895E+03  0.91794240630E+03  0.00000000000E+00 0. -1.
         21    1    1    2  504  501 -0.18536261132E+00 -0.54917762628E+02  0.24998011064E+03  0.25594149864E+03  0.00000000000E+00 0. -1.
         21    1    1    2  505  503 -0.54785055977E+02 -0.22039756908E+02 -0.11327573932E+02  0.60128754969E+02  0.00000000000E+00 0. -1.
          1    1    1    2  501    0 -0.41131712680E+02  0.90747988147E+02 -0.15601270166E+02  0.10084847431E+03  0.00000000000E+00 0. -1.
<scales pt_clust_3="14000.00000" pt_clust_4="54.91808" pt_clust_5="59.57889" pt_clust_6="112.38601"></scales>
<clustering>
<clus scale="   54.918">  1  4  2 -1</clus>
<clus scale="   59.579">  2  5  1 -1</clus>
<clus scale="  112.386">  2  6  1 -1</clus>
<clus scale="   54.918">  1  3  2 -1</clus>
</clustering>
</event>
<event>
 6    0  0.4081161E+002  0.2038499E+03  0.7546771E-02  0.1146531E+00
         21   -1    0    0  501  502  0.00000000000E+00  0.00000000000E+00  0.26136675388E+02  0.26136675388E+02  0.00000000000E+00 0.  1.
          1   -1    0    0  503    0 -0.00000000000E+00 -0.00000000000E+00 -0.20216080718E+04  0.20216080718E+04  0.00000000000E+00 0.  1.
         21    1    1    2  503  504  0.34817965723E+02 -0.62788029621E+02 -0.35860301062E+03  0.36571949173E+03  0.00000000000E+00 0.  1.
         21    1    1    2  504  505 -0.45929375631E+02 -0.13273945276E+03 -0.75425411888E+03  0.76722131469E+03  0.00000000000E+00 0.  1.
         21    1    1    2  505  502  0.51791957511E+02  0.19681055779E+02 -0.13986455321E+03  0.15043883828E+03  0.00000000000E+00 0.  1.
          1    1    1    2  501    0 -0.40680547603E+02  0.17584642660E+03 -0.74274971368E+03  0.76436510247E+03  0.00000000000E+00 0.  1.
<scales pt_clust_3="61.85518" pt_clust_4="61.85518" pt_clust_5="55.40533" pt_clust_6="186.56199"></scales>
<clustering>
<clus scale="   55.405">  1  5  2 -1</clus>
<clus scale="   61.855">  3  4 -1 -1</clus>
<clus scale="  186.562">  1  6  2 -1</clus>
<clus scale="   55.405">  1  3  2 -1</clus>
</clustering>
</event>
<event>
 6    0  0.4081161E+002  0.7698570E+02  0.7546771E-02  0.1337830E+00
         21   -1    0    0  504  502  0.00000000000E+00  0.00000000000E+00  0.13301626720E+04  0.13301626720E+04  0.00000000000E+00 0.  1.
         -1   -1    0    0    0  501 -0.00000000000E+00 -0.00000000000E+00 -0.24161032859E+03  0.24161032859E+03  0.00000000000E+00 0.  1.
         21    1    1    2  503  505 -0.32866733114E+02 -0.45248943060E+02 -0.15580128687E+02  0.58055399434E+02  0.00000000000E+00 0.  1.
         21    1    1    2  504  501  0.72599515386E+02  0.87492755434E+02 -0.85842685527E+02  0.14245925223E+03  0.00000000000E+00 0.  1.
         21    1    1    2  505  502  0.90958764463E+01 -0.31156651350E+02  0.12734791205E+04  0.12738926729E+04  0.00000000000E+00 0.  1.
         -1    1    1    2    0  503 -0.48828658718E+02 -0.11087161024E+02 -0.83503962844E+02  0.97365675997E+02  0.00000000000E+00 0.  1.
<scales pt_clust_3="76.98570" pt_clust_4="14000.00000" pt_clust_5="32.45723" pt_clust_6="49.98803"></scales>
<clustering>
<clus scale="   32.457">  1  5  2 -1</clus>
<clus scale="   49.988">  2  6  1 -1</clus>
<clus scale="   76.986">  1  3  2 -1</clus>
<clus scale="   32.457">  1  3  2 -1</clus>
</clustering>
</event>
<event>
 6    0  0.4081161E+002  0.1033681E+03  0.7546771E-02  0.1273369E+00
         21   -1    0    0  504  502  0.00000000000E+00  0.00000000000E+00  0.10148156000E+03  0.10148156000E+03  0.00000000000E+00 0.  1.
          1   -1    0    0  505    0 -0.00000000000E+00 -0.00000000000E+00 -0.21715015362E+04  0.21715015362E+04  0.00000000000E+00 0. -1.
         21    1    1    2  503  502 -0.26776846864E+02 -0.51629793400E+02  0.47850908370E+02  0.75314968807E+02  0.00000000000E+00 0.  1.
         21    1    1    2  504  501  0.91562862951E+02  0.27707910981E+02 -0.25690755039E+03  0.27414043053E+03  0.00000000000E+00 0. -1.
         21    1    1    2  505  503 -0.59634073696E+02 -0.50966539237E+02 -0.19895063987E+02  0.80929750021E+02  0.00000000000E+00 0.  1.
          1    1    1    2  501    0 -0.51519423912E+01  0.74888421656E+02 -0.18410682702E+04  0.18425979468E+04  0.00000000000E+00 0. -1.
<scales pt_clust_3="58.16043" pt_clust_4="14000.00000" pt_clust_5="103.36810" pt_clust_6="74.11554"></scales>
<clustering>
<clus scale="   58.160">  1  3  2 -1</clus>
<clus scale="   74.116">  2  6  1 -1</clus>
<clus scale="  103.368">  1  5  2 -1</clus>
<clus scale="   58.160">  1  3  2 -1</clus>
</clustering>
</event>
