<event>
 3    0  0.4591805E-005  0.9118800E+02  0.7546771E-02  0.1235069E+00
         25   -1    0    0    0    0  0.00000000000E+00  0.00000000000E+00  0.99999998245E-14  0.12500000000E+03  0.12500000000E+03 0.  0.
          5    1    1    0  501    0 -0.35053390229E+02 -0.95106307949E+01  0.50645510515E+02  0.62500000000E+02  0.47000000000E+01 0. -1.
         -5    1    1    0    0  501  0.35053390229E+02  0.95106307949E+01 -0.50645510515E+02  0.62500000000E+02  0.47000000000E+01 0. -1.
</event>
<event>
 3    0  0.4591805E-005  0.9118800E+02  0.7546771E-02  0.1235069E+00
         25   -1    0    0    0    0  0.00000000000E+00  0.00000000000E+00  0.99999998245E-14  0.12500000000E+03  0.12500000000E+03 0.  0.
          5    1    1    0  501    0  0.37076161851E+01  0.46536693902E+02  0.41288614688E+02  0.62500000000E+02  0.47000000000E+01 0.  1.
         -5    1    1    0    0  501 -0.37076161851E+01 -0.46536693902E+02 -0.41288614688E+02  0.62500000000E+02  0.47000000000E+01 0.  1.
</event>
<event>
 3    0  0.4591805E-005  0.9118800E+02  0.7546771E-02  0.1235069E+00
         25   -1    0    0    0    0  0.00000000000E+00  0.00000000000E+00  0.99999998245E-14  0.12500000000E+03  0.12500000000E+03 0.  0.
          5    1    1    0  501    0 -0.30323760025E+02 -0.43278476430E+02  0.33039416699E+02  0.62500000000E+02  0.47000000000E+01 0. -1.
         -5    1    1    0    0  501  0.30323760025E+02  0.43278476430E+02 -0.33039416699E+02  0.62500000000E+02  0.47000000000E+01 0. -1.
</event>
<event>
 3    0  0.4591805E-005  0.9118800E+02  0.7546771E-02  0.1235069E+00
         25   -1    0    0    0    0  0.00000000000E+00  0.00000000000E+00  0.99999998245E-14  0.12500000000E+03  0.12500000000E+03 0.  0.
          5    1    1    0  501    0 -0.11129606694E+02 -0.37726746981E+02  0.48342366688E+02  0.62500000000E+02  0.47000000000E+01 0.  1.
         -5    1    1    0    0  501  0.11129606694E+02  0.37726746981E+02 -0.48342366688E+02  0.62500000000E+02  0.47000000000E+01 0.  1.
</event>
<event>
 3    0  0.4591805E-005  0.9118800E+02  0.7546771E-02  0.1235069E+00
         25   -1    0    0    0    0  0.00000000000E+00  0.00000000000E+00  0.99999998245E-14  0.12500000000E+03  0.12500000000E+03 0.  0.
          5    1    1    0  501    0 -0.19356533152E+02 -0.58712135260E+02  0.78974551285E+01  0.62500000000E+02  0.47000000000E+01 0. -1.
         -5    1    1    0    0  501  0.19356533152E+02  0.58712135260E+02 -0.78974551285E+01  0.62500000000E+02  0.47000000000E+01 0. -1.
</event>
<event>
 3    0  0.4591805E-005  0.9118800E+02  0.7546771E-02  0.1235069E+00
         25   -1    0    0    0    0  0.00000000000E+00  0.00000000000E+00  0.99999998245E-14  0.12500000000E+03  0.12500000000E+03 0.  0.
          5    1    1    0  501    0 -0.77965011321E+01  0.21075698414E+02  0.58130796541E+02  0.62500000000E+02  0.47000000000E+01 0.  1.
         -5    1    1    0    0  501  0.77965011321E+01 -0.21075698414E+02 -0.58130796541E+02  0.62500000000E+02  0.47000000000E+01 0.  1.
</event>
<event>
 3    0  0.4591805E-005  0.9118800E+02  0.7546771E-02  0.1235069E+00
         25   -1    0    0    0    0  0.00000000000E+00  0.00000000000E+00  0.99999998245E-14  0.12500000000E+03  0.12500000000E+03 0.  0.
          5    1    1    0  501    0 -0.57693212853E+02 -0.13862455808E+01 -0.23531500459E+02  0.62500000000E+02  0.47000000000E+01 0. -1.
         -5    1    1    0    0  501  0.57693212853E+02  0.13862455808E+01  0.23531500459E+02  0.62500000000E+02  0.47000000000E+01 0. -1.
</event>
<event>
 3    0  0.4591805E-005  0.9118800E+02  0.7546771E-02  0.1235069E+00
         25   -1    0    0    0    0  0.00000000000E+00  0.00000000000E+00  0.99999998245E-14  0.12500000000E+03  0.12500000000E+03 0.  0.
          5    1    1    0  501    0 -0.21320953840E+02 -0.32884684476E+02 -0.48457965849E+02  0.62500000000E+02  0.47000000000E+01 0.  1.
         -5    1    1    0    0  501  0.21320953840E+02  0.32884684476E+02  0.48457965849E+02  0.62500000000E+02  0.47000000000E+01 0.  1.
</event>
<event>
 3    0  0.4591805E-005  0.9118800E+02  0.7546771E-02  0.1235069E+00
         25   -1    0    0    0    0  0.00000000000E+00  0.00000000000E+00  0.99999998245E-14  0.12500000000E+03  0.12500000000E+03 0.  0.
          5    1    1    0  501    0 -0.43928566767E+02  0.20645189676E+02 -0.39092418255E+02  0.62500000000E+02  0.47000000000E+01 0. -1.
         -5    1    1    0    0  501  0.43928566767E+02 -0.20645189676E+02  0.39092418255E+02  0.62500000000E+02  0.47000000000E+01 0. -1.
</event>
<event>
 3    0  0.4591805E-005  0.9118800E+02  0.7546771E-02  0.1235069E+00
         25   -1    0    0    0    0  0.00000000000E+00  0.00000000000E+00  0.99999998245E-14  0.12500000000E+03  0.12500000000E+03 0.  0.
          5    1    1    0  501    0  0.25773545159E+02 -0.32973591507E+02  0.46180370647E+02  0.62500000000E+02  0.47000000000E+01 0. -1.
         -5    1    1    0    0  501 -0.25773545159E+02  0.32973591507E+02 -0.46180370647E+02  0.62500000000E+02  0.47000000000E+01 0. -1.
</event>
<event>
 3    0  0.4591805E-005  0.9118800E+02  0.7546771E-02  0.1235069E+00
         25   -1    0    0    0    0  0.00000000000E+00  0.00000000000E+00  0.99999998245E-14  0.12500000000E+03  0.12500000000E+03 0.  0.
          5    1    1    0  501    0 -0.34702348047E+02  0.36822670841E+02  0.36386782658E+02  0.62500000000E+02  0.47000000000E+01 0.  1.
         -5    1    1    0    0  501  0.34702348047E+02 -0.36822670841E+02 -0.36386782658E+02  0.62500000000E+02  0.47000000000E+01 0.  1.
</event>
<event>
 3    0  0.4591805E-005  0.9118800E+02  0.7546771E-02  0.1235069E+00
         25   -1    0    0    0    0  0.00000000000E+00  0.00000000000E+00  0.99999998245E-14  0.12500000000E+03  0.12500000000E+03 0.  0.
          5    1    1    0  501    0  0.16394709582E+02 -0.49356484261E+02 -0.34341097232E+02  0.62500000000E+02  0.47000000000E+01 0. -1.
         -5    1    1    0    0  501 -0.16394709582E+02  0.49356484261E+02  0.34341097232E+02  0.62500000000E+02  0.47000000000E+01 0. -1.
</event>
<event>
 3    0  0.4591805E-005  0.9118800E+02  0.7546771E-02  0.1235069E+00
         25   -1    0    0    0    0  0.00000000000E+00  0.00000000000E+00  0.99999998245E-14  0.12500000000E+03  0.12500000000E+03 0.  0.
          5    1    1    0  501    0  0.36280091876E+02 -0.21721738618E+02 -0.45782977239E+02  0.62500000000E+02  0.47000000000E+01 0. -1.
         -5    1    1    0    0  501 -0.36280091876E+02  0.21721738618E+02  0.45782977239E+02  0.62500000000E+02  0.47000000000E+01 0. -1.
</event>
<event>
 3    0  0.4591805E-005  0.9118800E+02  0.7546771E-02  0.1235069E+00
         25   -1    0    0    0    0  0.00000000000E+00  0.00000000000E+00  0.99999998245E-14  0.12500000000E+03  0.12500000000E+03 0.  0.
          5    1    1    0  501    0 -0.11184897315E+02 -0.17937561511E+02  0.58628508075E+02  0.62500000000E+02  0.47000000000E+01 0. -1.
         -5    1    1    0    0  501  0.11184897315E+02  0.17937561511E+02 -0.58628508075E+02  0.62500000000E+02  0.47000000000E+01 0. -1.
</event>
<event>
 3    0  0.4591805E-005  0.9118800E+02  0.7546771E-02  0.1235069E+00
         25   -1    0    0    0    0  0.00000000000E+00  0.00000000000E+00  0.99999998245E-14  0.12500000000E+03  0.12500000000E+03 0.  0.
          5    1    1    0  501    0 -0.48821509160E+00 -0.17176316671E+02 -0.59907393464E+02  0.62500000000E+02  0.47000000000E+01 0.  1.
         -5    1    1    0    0  501  0.48821509160E+00  0.17176316671E+02  0.59907393464E+02  0.62500000000E+02  0.47000000000E+01 0.  1.
</event>
<event>
 3    0  0.4591805E-005  0.9118800E+02  0.7546771E-02  0.1235069E+00
         25   -1    0    0    0    0  0.00000000000E+00  0.00000000000E+00  0.99999998245E-14  0.12500000000E+03  0.12500000000E+03 0.  0.
          5    1    1    0  501    0  0.40762913206E+02  0.40604761852E+02 -0.23954085704E+02  0.62500000000E+02  0.47000000000E+01 0.  1.
         -5    1    1    0    0  501 -0.40762913206E+02 -0.40604761852E+02  0.23954085704E+02  0.62500000000E+02  0.47000000000E+01 0.  1.
</event>
<event>
 3    0  0.4591805E-005  0.9118800E+02  0.7546771E-02  0.1235069E+00
         25   -1    0    0    0    0  0.00000000000E+00  0.00000000000E+00  0.99999998245E-14  0.12500000000E+03  0.12500000000E+03 0.  0.
          5    1    1    0  501    0 -0.36521370184E+02 -0.31054500153E+02  0.39824207966E+02  0.62500000000E+02  0.47000000000E+01 0.  1.
         -5    1    1    0    0  501  0.36521370184E+02  0.31054500153E+02 -0.39824207966E+02  0.62500000000E+02  0.47000000000E+01 0.  1.
</event>
<event>
 3    0  0.4591805E-005  0.9118800E+02  0.7546771E-02  0.1235069E+00
         25   -1    0    0    0    0  0.00000000000E+00  0.00000000000E+00  0.99999998245E-14  0.12500000000E+03  0.12500000000E+03 0.  0.
          5    1    1    0  501    0  0.33480647891E+01  0.42643959993E+02  0.45325965388E+02  0.62500000000E+02  0.47000000000E+01 0.  1.
         -5    1    1    0    0  501 -0.33480647891E+01 -0.42643959993E+02 -0.45325965388E+02  0.62500000000E+02  0.47000000000E+01 0.  1.
</event>
<event>
 3    0  0.4591805E-005  0.9118800E+02  0.7546771E-02  0.1235069E+00
         25   -1    0    0    0    0  0.00000000000E+00  0.00000000000E+00  0.99999998245E-14  0.12500000000E+03  0.12500000000E+03 0.  0.
          5    1    1    0  501    0 -0.45686908864E+02 -0.41733306814E+02  0.74294993664E+01  0.62500000000E+02  0.47000000000E+01 0. -1.
         -5    1    1    0    0  501  0.45686908864E+02  0.41733306814E+02 -0.74294993664E+01  0.62500000000E+02  0.47000000000E+01 0. -1.
</event>
<event>
 3    0  0.4591805E-005  0.9118800E+02  0.7546771E-02  0.1235069E+00
         25   -1    0    0    0    0  0.00000000000E+00  0.00000000000E+00  0.99999998245E-14  0.12500000000E+03  0.12500000000E+03 0.  0.
          5    1    1    0  501    0  0.37818593069E+02 -0.45331025307E+02 -0.19975288806E+02  0.62500000000E+02  0.47000000000E+01 0.  1.
         -5    1    1    0    0  501 -0.37818593069E+02  0.45331025307E+02  0.19975288806E+02  0.62500000000E+02  0.47000000000E+01 0.  1.
</event>
<event>
 3    0  0.4591805E-005  0.9118800E+02  0.7546771E-02  0.1235069E+00
         25   -1    0    0    0    0  0.00000000000E+00  0.00000000000E+00  0.99999998245E-14  0.12500000000E+03  0.12500000000E+03 0.  0.
          5    1    1    0  501    0  0.22446659993E+02  0.17794883589E+02  0.55350244563E+02  0.62500000000E+02  0.47000000000E+01 0.  1.
         -5    1    1    0    0  501 -0.22446659993E+02 -0.17794883589E+02 -0.55350244563E+02  0.62500000000E+02  0.47000000000E+01 0.  1.
</event>
<event>
 3    0  0.4591805E-005  0.9118800E+02  0.7546771E-02  0.1235069E+00
         25   -1    0    0    0    0  0.00000000000E+00  0.00000000000E+00  0.99999998245E-14  0.12500000000E+03  0.12500000000E+03 0.  0.
          5    1    1    0  501    0  0.43983906051E+02 -0.34995972892E+02  0.26923184987E+02  0.62500000000E+02  0.47000000000E+01 0. -1.
         -5    1    1    0    0  501 -0.43983906051E+02  0.34995972892E+02 -0.26923184987E+02  0.62500000000E+02  0.47000000000E+01 0. -1.
</event>
<event>
 3    0  0.4591805E-005  0.9118800E+02  0.7546771E-02  0.1235069E+00
         25   -1    0    0    0    0  0.00000000000E+00  0.00000000000E+00  0.99999998245E-14  0.12500000000E+03  0.12500000000E+03 0.  0.
          5    1    1    0  501    0  0.87245215051E+01  0.51346063703E+02  0.34229000375E+02  0.62500000000E+02  0.47000000000E+01 0. -1.
         -5    1    1    0    0  501 -0.87245215051E+01 -0.51346063703E+02 -0.34229000375E+02  0.62500000000E+02  0.47000000000E+01 0. -1.
</event>
<event>
 3    0  0.4591805E-005  0.9118800E+02  0.7546771E-02  0.1235069E+00
         25   -1    0    0    0    0  0.00000000000E+00  0.00000000000E+00  0.99999998245E-14  0.12500000000E+03  0.12500000000E+03 0.  0.
          5    1    1    0  501    0 -0.53024011283E+02  0.25636338856E+02 -0.20381176548E+02  0.62500000000E+02  0.47000000000E+01 0. -1.
         -5    1    1    0    0  501  0.53024011283E+02 -0.25636338856E+02  0.20381176548E+02  0.62500000000E+02  0.47000000000E+01 0. -1.
</event>
<event>
 3    0  0.4591805E-005  0.9118800E+02  0.7546771E-02  0.1235069E+00
         25   -1    0    0    0    0  0.00000000000E+00  0.00000000000E+00  0.99999998245E-14  0.12500000000E+03  0.12500000000E+03 0.  0.
          5    1    1    0  501    0 -0.40036296346E+02 -0.27697426758E+02  0.38911534612E+02  0.62500000000E+02  0.47000000000E+01 0. -1.
         -5    1    1    0    0  501  0.40036296346E+02  0.27697426758E+02 -0.38911534612E+02  0.62500000000E+02  0.47000000000E+01 0. -1.
</event>
<event>
 3    0  0.4591805E-005  0.9118800E+02  0.7546771E-02  0.1235069E+00
         25   -1    0    0    0    0  0.00000000000E+00  0.00000000000E+00  0.99999998245E-14  0.12500000000E+03  0.12500000000E+03 0.  0.
          5    1    1    0  501    0  0.44122096647E+02 -0.15769832353E+02 -0.41093953022E+02  0.62500000000E+02  0.47000000000E+01 0. -1.
         -5    1    1    0    0  501 -0.44122096647E+02  0.15769832353E+02  0.41093953022E+02  0.62500000000E+02  0.47000000000E+01 0. -1.
</event>
<event>
 3    0  0.4591805E-005  0.9118800E+02  0.7546771E-02  0.1235069E+00
         25   -1    0    0    0    0  0.00000000000E+00  0.00000000000E+00  0.99999998245E-14  0.12500000000E+03  0.12500000000E+03 0.  0.
          5    1    1    0  501    0  0.28250840967E+02  0.49196619723E+02  0.25801988151E+02  0.62500000000E+02  0.47000000000E+01 0.  1.
         -5    1    1    0    0  501 -0.28250840967E+02 -0.49196619723E+02 -0.25801988151E+02  0.62500000000E+02  0.47000000000E+01 0.  1.
</event>
<event>
 3    0  0.4591805E-005  0.9118800E+02  0.7546771E-02  0.1235069E+00
         25   -1    0    0    0    0  0.00000000000E+00  0.00000000000E+00  0.99999998245E-14  0.12500000000E+03  0.12500000000E+03 0.  0.
          5    1    1    0  501    0 -0.38076762034E+02 -0.47984943570E+02  0.11478910380E+02  0.62500000000E+02  0.47000000000E+01 0.  1.
         -5    1    1    0    0  501  0.38076762034E+02  0.47984943570E+02 -0.11478910380E+02  0.62500000000E+02  0.47000000000E+01 0.  1.
</event>
<event>
 3    0  0.4591805E-005  0.9118800E+02  0.7546771E-02  0.1235069E+00
         25   -1    0    0    0    0  0.00000000000E+00  0.00000000000E+00  0.99999998245E-14  0.12500000000E+03  0.12500000000E+03 0.  0.
          5    1    1    0  501    0 -0.44222084830E+02  0.25801667755E+02  0.35536476393E+02  0.62500000000E+02  0.47000000000E+01 0. -1.
         -5    1    1    0    0  501  0.44222084830E+02 -0.25801667755E+02 -0.35536476393E+02  0.62500000000E+02  0.47000000000E+01 0. -1.
</event>
<event>
 3    0  0.4591805E-005  0.9118800E+02  0.7546771E-02  0.1235069E+00
         25   -1    0    0    0    0  0.00000000000E+00  0.00000000000E+00  0.99999998245E-14  0.12500000000E+03  0.12500000000E+03 0.  0.
          5    1    1    0  501    0 -0.57233374686E+02  0.69180226075E+01  0.23677875438E+02  0.62500000000E+02  0.47000000000E+01 0. -1.
         -5    1    1    0    0  501  0.57233374686E+02 -0.69180226075E+01 -0.23677875438E+02  0.62500000000E+02  0.47000000000E+01 0. -1.
</event>
<event>
 3    0  0.4591805E-005  0.9118800E+02  0.7546771E-02  0.1235069E+00
         25   -1    0    0    0    0  0.00000000000E+00  0.00000000000E+00  0.99999998245E-14  0.12500000000E+03  0.12500000000E+03 0.  0.
          5    1    1    0  501    0 -0.23860891441E+02  0.37718210766E+02  0.43498901552E+02  0.62500000000E+02  0.47000000000E+01 0.  1.
         -5    1    1    0    0  501  0.23860891441E+02 -0.37718210766E+02 -0.43498901552E+02  0.62500000000E+02  0.47000000000E+01 0.  1.
</event>
<event>
 3    0  0.4591805E-005  0.9118800E+02  0.7546771E-02  0.1235069E+00
         25   -1    0    0    0    0  0.00000000000E+00  0.00000000000E+00  0.99999998245E-14  0.12500000000E+03  0.12500000000E+03 0.  0.
          5    1    1    0  501    0 -0.54488882632E+02  0.30230016084E+02  0.11259649526E+01  0.62500000000E+02  0.47000000000E+01 0. -1.
         -5    1    1    0    0  501  0.54488882632E+02 -0.30230016084E+02 -0.11259649526E+01  0.62500000000E+02  0.47000000000E+01 0. -1.
</event>
<event>
 3    0  0.4591805E-005  0.9118800E+02  0.7546771E-02  0.1235069E+00
         25   -1    0    0    0    0  0.00000000000E+00  0.00000000000E+00  0.99999998245E-14  0.12500000000E+03  0.12500000000E+03 0.  0.
          5    1    1    0  501    0 -0.88876057605E+01  0.59674779574E+02  0.15623416612E+02  0.62500000000E+02  0.47000000000E+01 0.  1.
         -5    1    1    0    0  501  0.88876057605E+01 -0.59674779574E+02 -0.15623416612E+02  0.62500000000E+02  0.47000000000E+01 0.  1.
</event>
<event>
 3    0  0.4591805E-005  0.9118800E+02  0.7546771E-02  0.1235069E+00
         25   -1    0    0    0    0  0.00000000000E+00  0.00000000000E+00  0.99999998245E-14  0.12500000000E+03  0.12500000000E+03 0.  0.
          5    1    1    0  501    0 -0.34926630554E+02 -0.16928783580E+02 -0.48761734635E+02  0.62500000000E+02  0.47000000000E+01 0.  1.
         -5    1    1    0    0  501  0.34926630554E+02  0.16928783580E+02  0.48761734635E+02  0.62500000000E+02  0.47000000000E+01 0.  1.
</event>
<event>
 3    0  0.4591805E-005  0.9118800E+02  0.7546771E-02  0.1235069E+00
         25   -1    0    0    0    0  0.00000000000E+00  0.00000000000E+00  0.99999998245E-14  0.12500000000E+03  0.12500000000E+03 0.  0.
          5    1    1    0  501    0  0.60592445648E+02  0.50076122214E+01 -0.13698151346E+02  0.62500000000E+02  0.47000000000E+01 0. -1.
         -5    1    1    0    0  501 -0.60592445648E+02 -0.50076122214E+01  0.13698151346E+02  0.62500000000E+02  0.47000000000E+01 0. -1.
</event>
<event>
 3    0  0.4591805E-005  0.9118800E+02  0.7546771E-02  0.1235069E+00
         25   -1    0    0    0    0  0.00000000000E+00  0.00000000000E+00  0.99999998245E-14  0.12500000000E+03  0.12500000000E+03 0.  0.
          5    1    1    0  501    0  0.25414934449E+02 -0.56312155852E+02 -0.81964754782E+01  0.62500000000E+02  0.47000000000E+01 0.  1.
         -5    1    1    0    0  501 -0.25414934449E+02  0.56312155852E+02  0.81964754782E+01  0.62500000000E+02  0.47000000000E+01 0.  1.
</event>
<event>
 3    0  0.4591805E-005  0.9118800E+02  0.7546771E-02  0.1235069E+00
         25   -1    0    0    0    0  0.00000000000E+00  0.00000000000E+00  0.99999998245E-14  0.12500000000E+03  0.12500000000E+03 0.  0.
          5    1    1    0  501    0 -0.47524728825E+02 -0.13045836192E+02  0.38149263534E+02  0.62500000000E+02  0.47000000000E+01 0.  1.
         -5    1    1    0    0  501  0.47524728825E+02  0.13045836192E+02 -0.38149263534E+02  0.62500000000E+02  0.47000000000E+01 0.  1.
</event>
<event>
 3    0  0.4591805E-005  0.9118800E+02  0.7546771E-02  0.1235069E+00
         25   -1    0    0    0    0  0.00000000000E+00  0.00000000000E+00  0.99999998245E-14  0.12500000000E+03  0.12500000000E+03 0.  0.
          5    1    1    0  501    0 -0.98670653554E+01  0.28814560886E+01  0.61469490254E+02  0.62500000000E+02  0.47000000000E+01 0. -1.
         -5    1    1    0    0  501  0.98670653554E+01 -0.28814560886E+01 -0.61469490254E+02  0.62500000000E+02  0.47000000000E+01 0. -1.
</event>
<event>
 3    0  0.4591805E-005  0.9118800E+02  0.7546771E-02  0.1235069E+00
         25   -1    0    0    0    0  0.00000000000E+00  0.00000000000E+00  0.99999998245E-14  0.12500000000E+03  0.12500000000E+03 0.  0.
          5    1    1    0  501    0  0.51791018353E+01  0.59930307649E+02 -0.16300157339E+02  0.62500000000E+02  0.47000000000E+01 0. -1.
         -5    1    1    0    0  501 -0.51791018353E+01 -0.59930307649E+02  0.16300157339E+02  0.62500000000E+02  0.47000000000E+01 0. -1.
</event>
<event>
 3    0  0.4591805E-005  0.9118800E+02  0.7546771E-02  0.1235069E+00
         25   -1    0    0    0    0  0.00000000000E+00  0.00000000000E+00  0.99999998245E-14  0.12500000000E+03  0.12500000000E+03 0.  0.
          5    1    1    0  501    0 -0.46967713092E+02  0.40872738971E+02  0.27591911751E+01  0.62500000000E+02  0.47000000000E+01 0. -1.
         -5    1    1    0    0  501  0.46967713092E+02 -0.40872738971E+02 -0.27591911751E+01  0.62500000000E+02  0.47000000000E+01 0. -1.
</event>
<event>
 3    0  0.4591805E-005  0.9118800E+02  0.7546771E-02  0.1235069E+00
         25   -1    0    0    0    0  0.00000000000E+00  0.00000000000E+00  0.99999998245E-14  0.12500000000E+03  0.12500000000E+03 0.  0.
          5    1    1    0  501    0 -0.24341720545E+02 -0.11625543018E+02 -0.56182625343E+02  0.62500000000E+02  0.47000000000E+01 0.  1.
         -5    1    1    0    0  501  0.24341720545E+02  0.11625543018E+02  0.56182625343E+02  0.62500000000E+02  0.47000000000E+01 0.  1.
</event>
<event>
 3    0  0.4591805E-005  0.9118800E+02  0.7546771E-02  0.1235069E+00
         25   -1    0    0    0    0  0.00000000000E+00  0.00000000000E+00  0.99999998245E-14  0.12500000000E+03  0.12500000000E+03 0.  0.
          5    1    1    0  501    0  0.18669265216E+01 -0.55972937131E+02 -0.27344193062E+02  0.62500000000E+02  0.47000000000E+01 0.  1.
         -5    1    1    0    0  501 -0.18669265216E+01  0.55972937131E+02  0.27344193062E+02  0.62500000000E+02  0.47000000000E+01 0.  1.
</event>
<event>
 3    0  0.4591805E-005  0.9118800E+02  0.7546771E-02  0.1235069E+00
         25   -1    0    0    0    0  0.00000000000E+00  0.00000000000E+00  0.99999998245E-14  0.12500000000E+03  0.12500000000E+03 0.  0.
          5    1    1    0  501    0  0.37163788232E+01  0.39086800090E+02 -0.48400109371E+02  0.62500000000E+02  0.47000000000E+01 0. -1.
         -5    1    1    0    0  501 -0.37163788232E+01 -0.39086800090E+02  0.48400109371E+02  0.62500000000E+02  0.47000000000E+01 0. -1.
</event>
<event>
 3    0  0.4591805E-005  0.9118800E+02  0.7546771E-02  0.1235069E+00
         25   -1    0    0    0    0  0.00000000000E+00  0.00000000000E+00  0.99999998245E-14  0.12500000000E+03  0.12500000000E+03 0.  0.
          5    1    1    0  501    0  0.18471541548E+02  0.46595323954E+02 -0.37038330665E+02  0.62500000000E+02  0.47000000000E+01 0.  1.
         -5    1    1    0    0  501 -0.18471541548E+02 -0.46595323954E+02  0.37038330665E+02  0.62500000000E+02  0.47000000000E+01 0.  1.
</event>
<event>
 3    0  0.4591805E-005  0.9118800E+02  0.7546771E-02  0.1235069E+00
         25   -1    0    0    0    0  0.00000000000E+00  0.00000000000E+00  0.99999998245E-14  0.12500000000E+03  0.12500000000E+03 0.  0.
          5    1    1    0  501    0 -0.21835582874E+02  0.12531620392E+02 -0.57011628734E+02  0.62500000000E+02  0.47000000000E+01 0.  1.
         -5    1    1    0    0  501  0.21835582874E+02 -0.12531620392E+02  0.57011628734E+02  0.62500000000E+02  0.47000000000E+01 0.  1.
</event>
<event>
 3    0  0.4591805E-005  0.9118800E+02  0.7546771E-02  0.1235069E+00
         25   -1    0    0    0    0  0.00000000000E+00  0.00000000000E+00  0.99999998245E-14  0.12500000000E+03  0.12500000000E+03 0.  0.
          5    1    1    0  501    0  0.38367982623E+02 -0.46235176975E+02  0.16564006747E+02  0.62500000000E+02  0.47000000000E+01 0.  1.
         -5    1    1    0    0  501 -0.38367982623E+02  0.46235176975E+02 -0.16564006747E+02  0.62500000000E+02  0.47000000000E+01 0.  1.
</event>
<event>
 3    0  0.4591805E-005  0.9118800E+02  0.7546771E-02  0.1235069E+00
         25   -1    0    0    0    0  0.00000000000E+00  0.00000000000E+00  0.99999998245E-14  0.12500000000E+03  0.12500000000E+03 0.  0.
          5    1    1    0  501    0  0.60241953244E+02 -0.91292975748E+01  0.13104312082E+02  0.62500000000E+02  0.47000000000E+01 0. -1.
         -5    1    1    0    0  501 -0.60241953244E+02  0.91292975748E+01 -0.13104312082E+02  0.62500000000E+02  0.47000000000E+01 0. -1.
</event>
<event>
 3    0  0.4591805E-005  0.9118800E+02  0.7546771E-02  0.1235069E+00
         25   -1    0    0    0    0  0.00000000000E+00  0.00000000000E+00  0.99999998245E-14  0.12500000000E+03  0.12500000000E+03 0.  0.
          5    1    1    0  501    0 -0.22940932171E+02  0.38240208691E+02  0.43538030162E+02  0.62500000000E+02  0.47000000000E+01 0. -1.
         -5    1    1    0    0  501  0.22940932171E+02 -0.38240208691E+02 -0.43538030162E+02  0.62500000000E+02  0.47000000000E+01 0. -1.
</event>
<event>
 3    0  0.4591805E-005  0.9118800E+02  0.7546771E-02  0.1235069E+00
         25   -1    0    0    0    0  0.00000000000E+00  0.00000000000E+00  0.99999998245E-14  0.12500000000E+03  0.12500000000E+03 0.  0.
          5    1    1    0  501    0 -0.47697056836E+02  0.24295302008E+02  0.31920041816E+02  0.62500000000E+02  0.47000000000E+01 0.  1.
         -5    1    1    0    0  501  0.47697056836E+02 -0.24295302008E+02 -0.31920041816E+02  0.62500000000E+02  0.47000000000E+01 0.  1.
</event>
<event>
 3    0  0.4591805E-005  0.9118800E+02  0.7546771E-02  0.1235069E+00
         25   -1    0    0    0    0  0.00000000000E+00  0.00000000000E+00  0.99999998245E-14  0.12500000000E+03  0.12500000000E+03 0.  0.
          5    1    1    0  501    0 -0.80897412689E+00 -0.61328387598E+02 -0.11060489841E+02  0.62500000000E+02  0.47000000000E+01 0.  1.
         -5    1    1    0    0  501  0.80897412689E+00  0.61328387598E+02  0.11060489841E+02  0.62500000000E+02  0.47000000000E+01 0.  1.
</event>
<event>
 3    0  0.4591805E-005  0.9118800E+02  0.7546771E-02  0.1235069E+00
         25   -1    0    0    0    0  0.00000000000E+00  0.00000000000E+00  0.99999998245E-14  0.12500000000E+03  0.12500000000E+03 0.  0.
          5    1    1    0  501    0 -0.44273203761E+02 -0.36765867518E+02 -0.23923093746E+02  0.62500000000E+02  0.47000000000E+01 0. -1.
         -5    1    1    0    0  501  0.44273203761E+02  0.36765867518E+02  0.23923093746E+02  0.62500000000E+02  0.47000000000E+01 0. -1.
</event>
<event>
 3    0  0.4591805E-005  0.9118800E+02  0.7546771E-02  0.1235069E+00
         25   -1    0    0    0    0  0.00000000000E+00  0.00000000000E+00  0.99999998245E-14  0.12500000000E+03  0.12500000000E+03 0.  0.
          5    1    1    0  501    0 -0.30347420272E+02  0.15383614609E+02  0.52216266473E+02  0.62500000000E+02  0.47000000000E+01 0. -1.
         -5    1    1    0    0  501  0.30347420272E+02 -0.15383614609E+02 -0.52216266473E+02  0.62500000000E+02  0.47000000000E+01 0. -1.
</event>
<event>
 3    0  0.4591805E-005  0.9118800E+02  0.7546771E-02  0.1235069E+00
         25   -1    0    0    0    0  0.00000000000E+00  0.00000000000E+00  0.99999998245E-14  0.12500000000E+03  0.12500000000E+03 0.  0.
          5    1    1    0  501    0  0.43828104600E+01  0.51266203249E+02  0.35167134898E+02  0.62500000000E+02  0.47000000000E+01 0. -1.
         -5    1    1    0    0  501 -0.43828104600E+01 -0.51266203249E+02 -0.35167134898E+02  0.62500000000E+02  0.47000000000E+01 0. -1.
</event>
<event>
 3    0  0.4591805E-005  0.9118800E+02  0.7546771E-02  0.1235069E+00
         25   -1    0    0    0    0  0.00000000000E+00  0.00000000000E+00  0.99999998245E-14  0.12500000000E+03  0.12500000000E+03 0.  0.
          5    1    1    0  501    0 -0.43376424847E+01 -0.61645482840E+02 -0.80733699995E+01  0.62500000000E+02  0.47000000000E+01 0.  1.
         -5    1    1    0    0  501  0.43376424847E+01  0.61645482840E+02  0.80733699995E+01  0.62500000000E+02  0.47000000000E+01 0.  1.
</event>
<event>
 3    0  0.4591805E-005  0.9118800E+02  0.7546771E-02  0.1235069E+00
         25   -1    0    0    0    0  0.00000000000E+00  0.00000000000E+00  0.99999998245E-14  0.12500000000E+03  0.12500000000E+03 0.  0.
          5    1    1    0  501    0 -0.31484838414E+02 -0.18799843290E+02 -0.50392765774E+02  0.62500000000E+02  0.47000000000E+01 0. -1.
         -5    1    1    0    0  501  0.31484838414E+02  0.18799843290E+02  0.50392765774E+02  0.62500000000E+02  0.47000000000E+01 0. -1.
</event>
<event>
 3    0  0.4591805E-005  0.9118800E+02  0.7546771E-02  0.1235069E+00
         25   -1    0    0    0    0  0.00000000000E+00  0.00000000000E+00  0.99999998245E-14  0.12500000000E+03  0.12500000000E+03 0.  0.
          5    1    1    0  501    0  0.46103648392E+01 -0.62111917760E+02 -0.22392427775E+01  0.62500000000E+02  0.47000000000E+01 0. -1.
         -5    1    1    0    0  501 -0.46103648392E+01  0.62111917760E+02  0.22392427775E+01  0.62500000000E+02  0.47000000000E+01 0. -1.
</event>
<event>
 3    0  0.4591805E-005  0.9118800E+02  0.7546771E-02  0.1235069E+00
         25   -1    0    0    0    0  0.00000000000E+00  0.00000000000E+00  0.99999998245E-14  0.12500000000E+03  0.12500000000E+03 0.  0.
          5    1    1    0  501    0 -0.41918107891E+01 -0.58003326535E+02 -0.22409882488E+02  0.62500000000E+02  0.47000000000E+01 0.  1.
         -5    1    1    0    0  501  0.41918107891E+01  0.58003326535E+02  0.22409882488E+02  0.62500000000E+02  0.47000000000E+01 0.  1.
</event>
<event>
 3    0  0.4591805E-005  0.9118800E+02  0.7546771E-02  0.1235069E+00
         25   -1    0    0    0    0  0.00000000000E+00  0.00000000000E+00  0.99999998245E-14  0.12500000000E+03  0.12500000000E+03 0.  0.
          5    1    1    0  501    0  0.61838872857E+02 -0.33685331624E+01  0.69833221382E+01  0.62500000000E+02  0.47000000000E+01 0. -1.
         -5    1    1    0    0  501 -0.61838872857E+02  0.33685331624E+01 -0.69833221382E+01  0.62500000000E+02  0.47000000000E+01 0. -1.
</event>
<event>
 3    0  0.4591805E-005  0.9118800E+02  0.7546771E-02  0.1235069E+00
         25   -1    0    0    0    0  0.00000000000E+00  0.00000000000E+00  0.99999998245E-14  0.12500000000E+03  0.12500000000E+03 0.  0.
          5    1    1    0  501    0 -0.87361895593E+01  0.13459559799E+01  0.61693009284E+02  0.62500000000E+02  0.47000000000E+01 0.  1.
         -5    1    1    0    0  501  0.87361895593E+01 -0.13459559799E+01 -0.61693009284E+02  0.62500000000E+02  0.47000000000E+01 0.  1.
</event>
<event>
 3    0  0.4591805E-005  0.9118800E+02  0.7546771E-02  0.1235069E+00
         25   -1    0    0    0    0  0.00000000000E+00  0.00000000000E+00  0.99999998245E-14  0.12500000000E+03  0.12500000000E+03 0.  0.
          5    1    1    0  501    0 -0.11586589942E+02  0.61132210354E+02  0.35726447758E+01  0.62500000000E+02  0.47000000000E+01 0. -1.
         -5    1    1    0    0  501  0.11586589942E+02 -0.61132210354E+02 -0.35726447758E+01  0.62500000000E+02  0.47000000000E+01 0. -1.
</event>
<event>
 3    0  0.4591805E-005  0.9118800E+02  0.7546771E-02  0.1235069E+00
         25   -1    0    0    0    0  0.00000000000E+00  0.00000000000E+00  0.99999998245E-14  0.12500000000E+03  0.12500000000E+03 0.  0.
          5    1    1    0  501    0  0.61090657740E+02  0.50489016069E+01 -0.11251672296E+02  0.62500000000E+02  0.47000000000E+01 0.  1.
         -5    1    1    0    0  501 -0.61090657740E+02 -0.50489016069E+01  0.11251672296E+02  0.62500000000E+02  0.47000000000E+01 0.  1.
</event>
<event>
 3    0  0.4591805E-005  0.9118800E+02  0.7546771E-02  0.1235069E+00
         25   -1    0    0    0    0  0.00000000000E+00  0.00000000000E+00  0.99999998245E-14  0.12500000000E+03  0.12500000000E+03 0.  0.
          5    1    1    0  501    0 -0.40049957192E+02  0.14287919388E+02 -0.45563321746E+02  0.62500000000E+02  0.47000000000E+01 0. -1.
         -5    1    1    0    0  501  0.40049957192E+02 -0.14287919388E+02  0.45563321746E+02  0.62500000000E+02  0.47000000000E+01 0. -1.
</event>
<event>
 3    0  0.4591805E-005  0.9118800E+02  0.7546771E-02  0.1235069E+00
         25   -1    0    0    0    0  0.00000000000E+00  0.00000000000E+00  0.99999998245E-14  0.12500000000E+03  0.12500000000E+03 0.  0.
          5    1    1    0  501    0 -0.32806418306E+02 -0.52763569908E+02  0.48892339395E+01  0.62500000000E+02  0.47000000000E+01 0.  1.
         -5    1    1    0    0  501  0.32806418306E+02  0.52763569908E+02 -0.48892339395E+01  0.62500000000E+02  0.47000000000E+01 0.  1.
</event>
<event>
 3    0  0.4591805E-005  0.9118800E+02  0.7546771E-02  0.1235069E+00
         25   -1    0    0    0    0  0.00000000000E+00  0.00000000000E+00  0.99999998245E-14  0.12500000000E+03  0.12500000000E+03 0.  0.
          5    1    1    0  501    0 -0.52836424252E+02  0.30933887624E+02 -0.11643318629E+02  0.62500000000E+02  0.47000000000E+01 0. -1.
         -5    1    1    0    0  501  0.52836424252E+02 -0.30933887624E+02  0.11643318629E+02  0.62500000000E+02  0.47000000000E+01 0. -1.
</event>
<event>
 3    0  0.4591805E-005  0.9118800E+02  0.7546771E-02  0.1235069E+00
         25   -1    0    0    0    0  0.00000000000E+00  0.00000000000E+00  0.99999998245E-14  0.12500000000E+03  0.12500000000E+03 0.  0.
          5    1    1    0  501    0  0.46383281637E+02  0.34415726214E+02  0.23415998244E+02  0.62500000000E+02  0.47000000000E+01 0.  1.
         -5    1    1    0    0  501 -0.46383281637E+02 -0.34415726214E+02 -0.23415998244E+02  0.62500000000E+02  0.47000000000E+01 0.  1.
</event>
<event>
 3    0  0.4591805E-005  0.9118800E+02  0.7546771E-02  0.1235069E+00
         25   -1    0    0    0    0  0.00000000000E+00  0.00000000000E+00  0.99999998245E-14  0.12500000000E+03  0.12500000000E+03 0.  0.
          5    1    1    0  501    0  0.40519405392E+02  0.21457295142E+02  0.42212821179E+02  0.62500000000E+02  0.47000000000E+01 0. -1.
         -5    1    1    0    0  501 -0.40519405392E+02 -0.21457295142E+02 -0.42212821179E+02  0.62500000000E+02  0.47000000000E+01 0. -1.
</event>
<event>
 3    0  0.4591805E-005  0.9118800E+02  0.7546771E-02  0.1235069E+00
         25   -1    0    0    0    0  0.00000000000E+00  0.00000000000E+00  0.99999998245E-14  0.12500000000E+03  0.12500000000E+03 0.  0.
          5    1    1    0  501    0 -0.37979981859E+02  0.45521815949E+02  0.19220958632E+02  0.62500000000E+02  0.47000000000E+01 0. -1.
         -5    1    1    0    0  501  0.37979981859E+02 -0.45521815949E+02 -0.19220958632E+02  0.62500000000E+02  0.47000000000E+01 0. -1.
</event>
<event>
 3    0  0.4591805E-005  0.9118800E+02  0.7546771E-02  0.1235069E+00
         25   -1    0    0    0    0  0.00000000000E+00  0.00000000000E+00  0.99999998245E-14  0.12500000000E+03  0.12500000000E+03 0.  0.
          5    1    1    0  501    0  0.21522882040E+01 -0.58687029293E+02 -0.20865288117E+02  0.62500000000E+02  0.47000000000E+01 0.  1.
         -5    1    1    0    0  501 -0.21522882040E+01  0.58687029293E+02  0.20865288117E+02  0.62500000000E+02  0.47000000000E+01 0.  1.
</event>
<event>
 3    0  0.4591805E-005  0.9118800E+02  0.7546771E-02  0.1235069E+00
         25   -1    0    0    0    0  0.00000000000E+00  0.00000000000E+00  0.99999998245E-14  0.12500000000E+03  0.12500000000E+03 0.  0.
          5    1    1    0  501    0  0.42378138038E+02  0.55325319439E+01 -0.45361266591E+02  0.62500000000E+02  0.47000000000E+01 0. -1.
         -5    1    1    0    0  501 -0.42378138038E+02 -0.55325319439E+01  0.45361266591E+02  0.62500000000E+02  0.47000000000E+01 0. -1.
</event>
<event>
 3    0  0.4591805E-005  0.9118800E+02  0.7546771E-02  0.1235069E+00
         25   -1    0    0    0    0  0.00000000000E+00  0.00000000000E+00  0.99999998245E-14  0.12500000000E+03  0.12500000000E+03 0.  0.
          5    1    1    0  501    0 -0.21844833234E+01 -0.60581253671E+02 -0.14467195175E+02  0.62500000000E+02  0.47000000000E+01 0.  1.
         -5    1    1    0    0  501  0.21844833234E+01  0.60581253671E+02  0.14467195175E+02  0.62500000000E+02  0.47000000000E+01 0.  1.
</event>
<event>
 3    0  0.4591805E-005  0.9118800E+02  0.7546771E-02  0.1235069E+00
         25   -1    0    0    0    0  0.00000000000E+00  0.00000000000E+00  0.99999998245E-14  0.12500000000E+03  0.12500000000E+03 0.  0.
          5    1    1    0  501    0 -0.54650840736E+01 -0.49946647688E+02  0.36873096437E+02  0.62500000000E+02  0.47000000000E+01 0. -1.
         -5    1    1    0    0  501  0.54650840736E+01  0.49946647688E+02 -0.36873096437E+02  0.62500000000E+02  0.47000000000E+01 0. -1.
</event>
<event>
 3    0  0.4591805E-005  0.9118800E+02  0.7546771E-02  0.1235069E+00
         25   -1    0    0    0    0  0.00000000000E+00  0.00000000000E+00  0.99999998245E-14  0.12500000000E+03  0.12500000000E+03 0.  0.
          5    1    1    0  501    0 -0.62255379706E+02 -0.62233207233E-01 -0.29023825908E+01  0.62500000000E+02  0.47000000000E+01 0.  1.
         -5    1    1    0    0  501  0.62255379706E+02  0.62233207233E-01  0.29023825908E+01  0.62500000000E+02  0.47000000000E+01 0.  1.
</event>
<event>
 3    0  0.4591805E-005  0.9118800E+02  0.7546771E-02  0.1235069E+00
         25   -1    0    0    0    0  0.00000000000E+00  0.00000000000E+00  0.99999998245E-14  0.12500000000E+03  0.12500000000E+03 0.  0.
          5    1    1    0  501    0 -0.10241948107E+02 -0.55471237866E+02 -0.26499137129E+02  0.62500000000E+02  0.47000000000E+01 0.  1.
         -5    1    1    0    0  501  0.10241948107E+02  0.55471237866E+02  0.26499137129E+02  0.62500000000E+02  0.47000000000E+01 0.  1.
</event>
<event>
 3    0  0.4591805E-005  0.9118800E+02  0.7546771E-02  0.1235069E+00
         25   -1    0    0    0    0  0.00000000000E+00  0.00000000000E+00  0.99999998245E-14  0.12500000000E+03  0.12500000000E+03 0.  0.
          5    1    1    0  501    0 -0.21818154071E+02  0.25513977221E+02 -0.52508714699E+02  0.62500000000E+02  0.47000000000E+01 0. -1.
         -5    1    1    0    0  501  0.21818154071E+02 -0.25513977221E+02  0.52508714699E+02  0.62500000000E+02  0.47000000000E+01 0. -1.
</event>
<event>
 3    0  0.4591805E-005  0.9118800E+02  0.7546771E-02  0.1235069E+00
         25   -1    0    0    0    0  0.00000000000E+00  0.00000000000E+00  0.99999998245E-14  0.12500000000E+03  0.12500000000E+03 0.  0.
          5    1    1    0  501    0  0.53311593799E+02  0.55109728078E+01  0.31806652533E+02  0.62500000000E+02  0.47000000000E+01 0. -1.
         -5    1    1    0    0  501 -0.53311593799E+02 -0.55109728078E+01 -0.31806652533E+02  0.62500000000E+02  0.47000000000E+01 0. -1.
</event>
<event>
 3    0  0.4591805E-005  0.9118800E+02  0.7546771E-02  0.1235069E+00
         25   -1    0    0    0    0  0.00000000000E+00  0.00000000000E+00  0.99999998245E-14  0.12500000000E+03  0.12500000000E+03 0.  0.
          5    1    1    0  501    0 -0.49037989471E+02  0.64960340809E+01  0.37910910433E+02  0.62500000000E+02  0.47000000000E+01 0. -1.
         -5    1    1    0    0  501  0.49037989471E+02 -0.64960340809E+01 -0.37910910433E+02  0.62500000000E+02  0.47000000000E+01 0. -1.
</event>
<event>
 3    0  0.4591805E-005  0.9118800E+02  0.7546771E-02  0.1235069E+00
         25   -1    0    0    0    0  0.00000000000E+00  0.00000000000E+00  0.99999998245E-14  0.12500000000E+03  0.12500000000E+03 0.  0.
          5    1    1    0  501    0  0.37549005267E+02 -0.30170993903E+02  0.39546723383E+02  0.62500000000E+02  0.47000000000E+01 0. -1.
         -5    1    1    0    0  501 -0.37549005267E+02  0.30170993903E+02 -0.39546723383E+02  0.62500000000E+02  0.47000000000E+01 0. -1.
</event>
<event>
 3    0  0.4591805E-005  0.9118800E+02  0.7546771E-02  0.1235069E+00
         25   -1    0    0    0    0  0.00000000000E+00  0.00000000000E+00  0.99999998245E-14  0.12500000000E+03  0.12500000000E+03 0.  0.
          5    1    1    0  501    0 -0.30417541315E+02  0.47834417243E+02 -0.25899839910E+02  0.62500000000E+02  0.47000000000E+01 0.  1.
         -5    1    1    0    0  501  0.30417541315E+02 -0.47834417243E+02  0.25899839910E+02  0.62500000000E+02  0.47000000000E+01 0.  1.
</event>
<event>
 3    0  0.4591805E-005  0.9118800E+02  0.7546771E-02  0.1235069E+00
         25   -1    0    0    0    0  0.00000000000E+00  0.00000000000E+00  0.99999998245E-14  0.12500000000E+03  0.12500000000E+03 0.  0.
          5    1    1    0  501    0 -0.66714591803E-01  0.31524778779E+02  0.53761918419E+02  0.62500000000E+02  0.47000000000E+01 0. -1.
         -5    1    1    0    0  501  0.66714591803E-01 -0.31524778779E+02 -0.53761918419E+02  0.62500000000E+02  0.47000000000E+01 0. -1.
</event>
<event>
 3    0  0.4591805E-005  0.9118800E+02  0.7546771E-02  0.1235069E+00
         25   -1    0    0    0    0  0.00000000000E+00  0.00000000000E+00  0.99999998245E-14  0.12500000000E+03  0.12500000000E+03 0.  0.
          5    1    1    0  501    0  0.61745515128E+02  0.36625126515E+01  0.76313408125E+01  0.62500000000E+02  0.47000000000E+01 0. -1.
         -5    1    1    0    0  501 -0.61745515128E+02 -0.36625126515E+01 -0.76313408125E+01  0.62500000000E+02  0.47000000000E+01 0. -1.
</event>
<event>
 3    0  0.4591805E-005  0.9118800E+02  0.7546771E-02  0.1235069E+00
         25   -1    0    0    0    0  0.00000000000E+00  0.00000000000E+00  0.99999998245E-14  0.12500000000E+03  0.12500000000E+03 0.  0.
          5    1    1    0  501    0 -0.58518404512E+02  0.85850831455E+01  0.19648223347E+02  0.62500000000E+02  0.47000000000E+01 0.  1.
         -5    1    1    0    0  501  0.58518404512E+02 -0.85850831455E+01 -0.19648223347E+02  0.62500000000E+02  0.47000000000E+01 0.  1.
</event>
<event>
 3    0  0.4591805E-005  0.9118800E+02  0.7546771E-02  0.1235069E+00
         25   -1    0    0    0    0  0.00000000000E+00  0.00000000000E+00  0.99999998245E-14  0.12500000000E+03  0.12500000000E+03 0.  0.
          5    1    1    0  501    0 -0.60741862163E+02 -0.11082099179E+02 -0.84719099800E+01  0.62500000000E+02  0.47000000000E+01 0.  1.
         -5    1    1    0    0  501  0.60741862163E+02  0.11082099179E+02  0.84719099800E+01  0.62500000000E+02  0.47000000000E+01 0.  1.
</event>
<event>
 3    0  0.4591805E-005  0.9118800E+02  0.7546771E-02  0.1235069E+00
         25   -1    0    0    0    0  0.00000000000E+00  0.00000000000E+00  0.99999998245E-14  0.12500000000E+03  0.12500000000E+03 0.  0.
          5    1    1    0  501    0  0.50367260142E+02  0.21749414314E+02  0.29567923207E+02  0.62500000000E+02  0.47000000000E+01 0. -1.
         -5    1    1    0    0  501 -0.50367260142E+02 -0.21749414314E+02 -0.29567923207E+02  0.62500000000E+02  0.47000000000E+01 0. -1.
</event>
<event>
 3    0  0.4591805E-005  0.9118800E+02  0.7546771E-02  0.1235069E+00
         25   -1    0    0    0    0  0.00000000000E+00  0.00000000000E+00  0.99999998245E-14  0.12500000000E+03  0.12500000000E+03 0.  0.
          5    1    1    0  501    0 -0.44723664266E+01  0.40079090804E+02 -0.47516569940E+02  0.62500000000E+02  0.47000000000E+01 0.  1.
         -5    1    1    0    0  501  0.44723664266E+01 -0.40079090804E+02  0.47516569940E+02  0.62500000000E+02  0.47000000000E+01 0.  1.
</event>
<event>
 3    0  0.4591805E-005  0.9118800E+02  0.7546771E-02  0.1235069E+00
         25   -1    0    0    0    0  0.00000000000E+00  0.00000000000E+00  0.99999998245E-14  0.12500000000E+03  0.12500000000E+03 0.  0.
          5    1    1    0  501    0  0.24635868457E+02 -0.23034734427E+02  0.52408348526E+02  0.62500000000E+02  0.47000000000E+01 0. -1.
         -5    1    1    0    0  501 -0.24635868457E+02  0.23034734427E+02 -0.52408348526E+02  0.62500000000E+02  0.47000000000E+01 0. -1.
</event>
<event>
 3    0  0.4591805E-005  0.9118800E+02  0.7546771E-02  0.1235069E+00
         25   -1    0    0    0    0  0.00000000000E+00  0.00000000000E+00  0.99999998245E-14  0.12500000000E+03  0.12500000000E+03 0.  0.
          5    1    1    0  501    0 -0.16613856525E+01 -0.39212253263E+01 -0.62177357532E+02  0.62500000000E+02  0.47000000000E+01 0.  1.
         -5    1    1    0    0  501  0.16613856525E+01  0.39212253263E+01  0.62177357532E+02  0.62500000000E+02  0.47000000000E+01 0.  1.
</event>
<event>
 3    0  0.4591805E-005  0.9118800E+02  0.7546771E-02  0.1235069E+00
         25   -1    0    0    0    0  0.00000000000E+00  0.00000000000E+00  0.99999998245E-14  0.12500000000E+03  0.12500000000E+03 0.  0.
          5    1    1    0  501    0  0.34431987349E+02 -0.51942849450E+02  0.73391977293E+00  0.62500000000E+02  0.47000000000E+01 0.  1.
         -5    1    1    0    0  501 -0.34431987349E+02  0.51942849450E+02 -0.73391977293E+00  0.62500000000E+02  0.47000000000E+01 0.  1.
</event>
<event>
 3    0  0.4591805E-005  0.9118800E+02  0.7546771E-02  0.1235069E+00
         25   -1    0    0    0    0  0.00000000000E+00  0.00000000000E+00  0.99999998245E-14  0.12500000000E+03  0.12500000000E+03 0.  0.
          5    1    1    0  501    0 -0.60344399412E+02  0.15272243279E+02 -0.30776687309E+01  0.62500000000E+02  0.47000000000E+01 0.  1.
         -5    1    1    0    0  501  0.60344399412E+02 -0.15272243279E+02  0.30776687309E+01  0.62500000000E+02  0.47000000000E+01 0.  1.
</event>
<event>
 3    0  0.4591805E-005  0.9118800E+02  0.7546771E-02  0.1235069E+00
         25   -1    0    0    0    0  0.00000000000E+00  0.00000000000E+00  0.99999998245E-14  0.12500000000E+03  0.12500000000E+03 0.  0.
          5    1    1    0  501    0 -0.11402634329E+02 -0.48320471910E+02  0.37673225569E+02  0.62500000000E+02  0.47000000000E+01 0.  1.
         -5    1    1    0    0  501  0.11402634329E+02  0.48320471910E+02 -0.37673225569E+02  0.62500000000E+02  0.47000000000E+01 0.  1.
</event>
<event>
 3    0  0.4591805E-005  0.9118800E+02  0.7546771E-02  0.1235069E+00
         25   -1    0    0    0    0  0.00000000000E+00  0.00000000000E+00  0.99999998245E-14  0.12500000000E+03  0.12500000000E+03 0.  0.
          5    1    1    0  501    0  0.13722753595E+02 -0.40108231848E+02 -0.45685618872E+02  0.62500000000E+02  0.47000000000E+01 0.  1.
         -5    1    1    0    0  501 -0.13722753595E+02  0.40108231848E+02  0.45685618872E+02  0.62500000000E+02  0.47000000000E+01 0.  1.
</event>
<event>
 3    0  0.4591805E-005  0.9118800E+02  0.7546771E-02  0.1235069E+00
         25   -1    0    0    0    0  0.00000000000E+00  0.00000000000E+00  0.99999998245E-14  0.12500000000E+03  0.12500000000E+03 0.  0.
          5    1    1    0  501    0  0.42334293422E+02  0.40950958708E+02 -0.20371219438E+02  0.62500000000E+02  0.47000000000E+01 0. -1.
         -5    1    1    0    0  501 -0.42334293422E+02 -0.40950958708E+02  0.20371219438E+02  0.62500000000E+02  0.47000000000E+01 0. -1.
</event>
<event>
 3    0  0.4591805E-005  0.9118800E+02  0.7546771E-02  0.1235069E+00
         25   -1    0    0    0    0  0.00000000000E+00  0.00000000000E+00  0.99999998245E-14  0.12500000000E+03  0.12500000000E+03 0.  0.
          5    1    1    0  501    0 -0.29015156548E+02  0.45255879444E+01 -0.54970899067E+02  0.62500000000E+02  0.47000000000E+01 0.  1.
         -5    1    1    0    0  501  0.29015156548E+02 -0.45255879444E+01  0.54970899067E+02  0.62500000000E+02  0.47000000000E+01 0.  1.
</event>
<event>
 3    0  0.4591805E-005  0.9118800E+02  0.7546771E-02  0.1235069E+00
         25   -1    0    0    0    0  0.00000000000E+00  0.00000000000E+00  0.99999998245E-14  0.12500000000E+03  0.12500000000E+03 0.  0.
          5    1    1    0  501    0 -0.58927453916E+02 -0.13429516707E+02 -0.15210629703E+02  0.62500000000E+02  0.47000000000E+01 0. -1.
         -5    1    1    0    0  501  0.58927453916E+02  0.13429516707E+02  0.15210629703E+02  0.62500000000E+02  0.47000000000E+01 0. -1.
</event>
<event>
 3    0  0.4591805E-005  0.9118800E+02  0.7546771E-02  0.1235069E+00
         25   -1    0    0    0    0  0.00000000000E+00  0.00000000000E+00  0.99999998245E-14  0.12500000000E+03  0.12500000000E+03 0.  0.
          5    1    1    0  501    0 -0.24098761559E+02  0.56777609305E+02 -0.89282009910E+01  0.62500000000E+02  0.47000000000E+01 0. -1.
         -5    1    1    0    0  501  0.24098761559E+02 -0.56777609305E+02  0.89282009910E+01  0.62500000000E+02  0.47000000000E+01 0. -1.
</event>
<event>
 3    0  0.4591805E-005  0.9118800E+02  0.7546771E-02  0.1235069E+00
         25   -1    0    0    0    0  0.00000000000E+00  0.00000000000E+00  0.99999998245E-14  0.12500000000E+03  0.12500000000E+03 0.  0.
          5    1    1    0  501    0 -0.42122193540E+02 -0.12737882696E+02  0.44131928983E+02  0.62500000000E+02  0.47000000000E+01 0.  1.
         -5    1    1    0    0  501  0.42122193540E+02  0.12737882696E+02 -0.44131928983E+02  0.62500000000E+02  0.47000000000E+01 0.  1.
</event>
<event>
 3    0  0.4591805E-005  0.9118800E+02  0.7546771E-02  0.1235069E+00
         25   -1    0    0    0    0  0.00000000000E+00  0.00000000000E+00  0.99999998245E-14  0.12500000000E+03  0.12500000000E+03 0.  0.
          5    1    1    0  501    0  0.34564444069E+01  0.23153781417E+02  0.57759115282E+02  0.62500000000E+02  0.47000000000E+01 0.  1.
         -5    1    1    0    0  501 -0.34564444069E+01 -0.23153781417E+02 -0.57759115282E+02  0.62500000000E+02  0.47000000000E+01 0.  1.
</event>
<event>
 3    0  0.4591805E-005  0.9118800E+02  0.7546771E-02  0.1235069E+00
         25   -1    0    0    0    0  0.00000000000E+00  0.00000000000E+00  0.99999998245E-14  0.12500000000E+03  0.12500000000E+03 0.  0.
          5    1    1    0  501    0 -0.11980926133E+01  0.50103254274E+02 -0.37045762042E+02  0.62500000000E+02  0.47000000000E+01 0.  1.
         -5    1    1    0    0  501  0.11980926133E+01 -0.50103254274E+02  0.37045762042E+02  0.62500000000E+02  0.47000000000E+01 0.  1.
</event>
<event>
 3    0  0.4591805E-005  0.9118800E+02  0.7546771E-02  0.1235069E+00
         25   -1    0    0    0    0  0.00000000000E+00  0.00000000000E+00  0.99999998245E-14  0.12500000000E+03  0.12500000000E+03 0.  0.
          5    1    1    0  501    0 -0.26908887592E+02  0.20855718921E+02 -0.52202593392E+02  0.62500000000E+02  0.47000000000E+01 0. -1.
         -5    1    1    0    0  501  0.26908887592E+02 -0.20855718921E+02  0.52202593392E+02  0.62500000000E+02  0.47000000000E+01 0. -1.
</event>
<event>
 3    0  0.4591805E-005  0.9118800E+02  0.7546771E-02  0.1235069E+00
         25   -1    0    0    0    0  0.00000000000E+00  0.00000000000E+00  0.99999998245E-14  0.12500000000E+03  0.12500000000E+03 0.  0.
          5    1    1    0  501    0  0.23047017366E+02  0.56627377378E+02 -0.12096905464E+02  0.62500000000E+02  0.47000000000E+01 0. -1.
         -5    1    1    0    0  501 -0.23047017366E+02 -0.56627377378E+02  0.12096905464E+02  0.62500000000E+02  0.47000000000E+01 0. -1.
</event>
<event>
 3    0  0.4591805E-005  0.9118800E+02  0.7546771E-02  0.1235069E+00
         25   -1    0    0    0    0  0.00000000000E+00  0.00000000000E+00  0.99999998245E-14  0.12500000000E+03  0.12500000000E+03 0.  0.
          5    1    1    0  501    0 -0.41434030378E+01  0.59977823105E+02 -0.16421112838E+02  0.62500000000E+02  0.47000000000E+01 0.  1.
         -5    1    1    0    0  501  0.41434030378E+01 -0.59977823105E+02  0.16421112838E+02  0.62500000000E+02  0.47000000000E+01 0.  1.
</event>
<event>
 3    0  0.4591805E-005  0.9118800E+02  0.7546771E-02  0.1235069E+00
         25   -1    0    0    0    0  0.00000000000E+00  0.00000000000E+00  0.99999998245E-14  0.12500000000E+03  0.12500000000E+03 0.  0.
          5    1    1    0  501    0  0.40265117556E+02 -0.15092681429E+02 -0.45111985941E+02  0.62500000000E+02  0.47000000000E+01 0.  1.
         -5    1    1    0    0  501 -0.40265117556E+02  0.15092681429E+02  0.45111985941E+02  0.62500000000E+02  0.47000000000E+01 0.  1.
</event>
<event>
 3    0  0.4591805E-005  0.9118800E+02  0.7546771E-02  0.1235069E+00
         25   -1    0    0    0    0  0.00000000000E+00  0.00000000000E+00  0.99999998245E-14  0.12500000000E+03  0.12500000000E+03 0.  0.
          5    1    1    0  501    0  0.39650780443E+02  0.43747171994E+02  0.19953960829E+02  0.62500000000E+02  0.47000000000E+01 0.  1.
         -5    1    1    0    0  501 -0.39650780443E+02 -0.43747171994E+02 -0.19953960829E+02  0.62500000000E+02  0.47000000000E+01 0.  1.
</event>
<event>
 3    0  0.4591805E-005  0.9118800E+02  0.7546771E-02  0.1235069E+00
         25   -1    0    0    0    0  0.00000000000E+00  0.00000000000E+00  0.99999998245E-14  0.12500000000E+03  0.12500000000E+03 0.  0.
          5    1    1    0  501    0 -0.73175259386E+01 -0.18214667824E+02  0.59150990610E+02  0.62500000000E+02  0.47000000000E+01 0.  1.
         -5    1    1    0    0  501  0.73175259386E+01  0.18214667824E+02 -0.59150990610E+02  0.62500000000E+02  0.47000000000E+01 0.  1.
</event>
<event>
 3    0  0.4591805E-005  0.9118800E+02  0.7546771E-02  0.1235069E+00
         25   -1    0    0    0    0  0.00000000000E+00  0.00000000000E+00  0.99999998245E-14  0.12500000000E+03  0.12500000000E+03 0.  0.
          5    1    1    0  501    0 -0.55182307769E+02 -0.21143367775E+02  0.19799770414E+02  0.62500000000E+02  0.47000000000E+01 0. -1.
         -5    1    1    0    0  501  0.55182307769E+02  0.21143367775E+02 -0.19799770414E+02  0.62500000000E+02  0.47000000000E+01 0. -1.
</event>
<event>
 3    0  0.4591805E-005  0.9118800E+02  0.7546771E-02  0.1235069E+00
         25   -1    0    0    0    0  0.00000000000E+00  0.00000000000E+00  0.99999998245E-14  0.12500000000E+03  0.12500000000E+03 0.  0.
          5    1    1    0  501    0 -0.23768858512E+01 -0.12968083439E+02  0.60912553924E+02  0.62500000000E+02  0.47000000000E+01 0.  1.
         -5    1    1    0    0  501  0.23768858512E+01  0.12968083439E+02 -0.60912553924E+02  0.62500000000E+02  0.47000000000E+01 0.  1.
</event>
<event>
 3    0  0.4591805E-005  0.9118800E+02  0.7546771E-02  0.1235069E+00
         25   -1    0    0    0    0  0.00000000000E+00  0.00000000000E+00  0.99999998245E-14  0.12500000000E+03  0.12500000000E+03 0.  0.
          5    1    1    0  501    0 -0.53786149241E+02  0.11761851103E+02  0.29203921115E+02  0.62500000000E+02  0.47000000000E+01 0.  1.
         -5    1    1    0    0  501  0.53786149241E+02 -0.11761851103E+02 -0.29203921115E+02  0.62500000000E+02  0.47000000000E+01 0.  1.
</event>
<event>
 3    0  0.4591805E-005  0.9118800E+02  0.7546771E-02  0.1235069E+00
         25   -1    0    0    0    0  0.00000000000E+00  0.00000000000E+00  0.99999998245E-14  0.12500000000E+03  0.12500000000E+03 0.  0.
          5    1    1    0  501    0 -0.37752107939E+02  0.47649115148E+02  0.13729536473E+02  0.62500000000E+02  0.47000000000E+01 0. -1.
         -5    1    1    0    0  501  0.37752107939E+02 -0.47649115148E+02 -0.13729536473E+02  0.62500000000E+02  0.47000000000E+01 0. -1.
</event>
<event>
 3    0  0.4591805E-005  0.9118800E+02  0.7546771E-02  0.1235069E+00
         25   -1    0    0    0    0  0.00000000000E+00  0.00000000000E+00  0.99999998245E-14  0.12500000000E+03  0.12500000000E+03 0.  0.
          5    1    1    0  501    0 -0.13864120339E+02  0.58501292624E+02 -0.16417823502E+02  0.62500000000E+02  0.47000000000E+01 0.  1.
         -5    1    1    0    0  501  0.13864120339E+02 -0.58501292624E+02  0.16417823502E+02  0.62500000000E+02  0.47000000000E+01 0.  1.
</event>
<event>
 3    0  0.4591805E-005  0.9118800E+02  0.7546771E-02  0.1235069E+00
         25   -1    0    0    0    0  0.00000000000E+00  0.00000000000E+00  0.99999998245E-14  0.12500000000E+03  0.12500000000E+03 0.  0.
          5    1    1    0  501    0 -0.22679128188E+02 -0.44782347335E+02  0.36937223932E+02  0.62500000000E+02  0.47000000000E+01 0. -1.
         -5    1    1    0    0  501  0.22679128188E+02  0.44782347335E+02 -0.36937223932E+02  0.62500000000E+02  0.47000000000E+01 0. -1.
</event>
<event>
 3    0  0.4591805E-005  0.9118800E+02  0.7546771E-02  0.1235069E+00
         25   -1    0    0    0    0  0.00000000000E+00  0.00000000000E+00  0.99999998245E-14  0.12500000000E+03  0.12500000000E+03 0.  0.
          5    1    1    0  501    0  0.12514682819E+02 -0.24357672583E+02 -0.55984341563E+02  0.62500000000E+02  0.47000000000E+01 0.  1.
         -5    1    1    0    0  501 -0.12514682819E+02  0.24357672583E+02  0.55984341563E+02  0.62500000000E+02  0.47000000000E+01 0.  1.
</event>
<event>
 3    0  0.4591805E-005  0.9118800E+02  0.7546771E-02  0.1235069E+00
         25   -1    0    0    0    0  0.00000000000E+00  0.00000000000E+00  0.99999998245E-14  0.12500000000E+03  0.12500000000E+03 0.  0.
          5    1    1    0  501    0  0.28431563947E+02 -0.13726385170E+02  0.53734463072E+02  0.62500000000E+02  0.47000000000E+01 0. -1.
         -5    1    1    0    0  501 -0.28431563947E+02  0.13726385170E+02 -0.53734463072E+02  0.62500000000E+02  0.47000000000E+01 0. -1.
</event>
<event>
 3    0  0.4591805E-005  0.9118800E+02  0.7546771E-02  0.1235069E+00
         25   -1    0    0    0    0  0.00000000000E+00  0.00000000000E+00  0.99999998245E-14  0.12500000000E+03  0.12500000000E+03 0.  0.
          5    1    1    0  501    0 -0.28759950632E+02 -0.47356555431E+02 -0.28537377198E+02  0.62500000000E+02  0.47000000000E+01 0.  1.
         -5    1    1    0    0  501  0.28759950632E+02  0.47356555431E+02  0.28537377198E+02  0.62500000000E+02  0.47000000000E+01 0.  1.
</event>
<event>
 3    0  0.4591805E-005  0.9118800E+02  0.7546771E-02  0.1235069E+00
         25   -1    0    0    0    0  0.00000000000E+00  0.00000000000E+00  0.99999998245E-14  0.12500000000E+03  0.12500000000E+03 0.  0.
          5    1    1    0  501    0  0.11908000118E+02 -0.37622012047E+02 -0.48238405267E+02  0.62500000000E+02  0.47000000000E+01 0. -1.
         -5    1    1    0    0  501 -0.11908000118E+02  0.37622012047E+02  0.48238405267E+02  0.62500000000E+02  0.47000000000E+01 0. -1.
</event>
<event>
 3    0  0.4591805E-005  0.9118800E+02  0.7546771E-02  0.1235069E+00
         25   -1    0    0    0    0  0.00000000000E+00  0.00000000000E+00  0.99999998245E-14  0.12500000000E+03  0.12500000000E+03 0.  0.
          5    1    1    0  501    0  0.23211410221E+02 -0.50373536249E+02  0.28423533935E+02  0.62500000000E+02  0.47000000000E+01 0.  1.
         -5    1    1    0    0  501 -0.23211410221E+02  0.50373536249E+02 -0.28423533935E+02  0.62500000000E+02  0.47000000000E+01 0.  1.
</event>
<event>
 3    0  0.4591805E-005  0.9118800E+02  0.7546771E-02  0.1235069E+00
         25   -1    0    0    0    0  0.00000000000E+00  0.00000000000E+00  0.99999998245E-14  0.12500000000E+03  0.12500000000E+03 0.  0.
          5    1    1    0  501    0  0.24402102787E+02  0.51319579146E+02  0.25592932147E+02  0.62500000000E+02  0.47000000000E+01 0.  1.
         -5    1    1    0    0  501 -0.24402102787E+02 -0.51319579146E+02 -0.25592932147E+02  0.62500000000E+02  0.47000000000E+01 0.  1.
</event>
<event>
 3    0  0.4591805E-005  0.9118800E+02  0.7546771E-02  0.1235069E+00
         25   -1    0    0    0    0  0.00000000000E+00  0.00000000000E+00  0.99999998245E-14  0.12500000000E+03  0.12500000000E+03 0.  0.
          5    1    1    0  501    0 -0.52769496131E+02  0.21287464261E+02 -0.25424085892E+02  0.62500000000E+02  0.47000000000E+01 0.  1.
         -5    1    1    0    0  501  0.52769496131E+02 -0.21287464261E+02  0.25424085892E+02  0.62500000000E+02  0.47000000000E+01 0.  1.
</event>
<event>
 3    0  0.4591805E-005  0.9118800E+02  0.7546771E-02  0.1235069E+00
         25   -1    0    0    0    0  0.00000000000E+00  0.00000000000E+00  0.99999998245E-14  0.12500000000E+03  0.12500000000E+03 0.  0.
          5    1    1    0  501    0 -0.29901875626E+02  0.13921867614E+02 -0.52879291184E+02  0.62500000000E+02  0.47000000000E+01 0. -1.
         -5    1    1    0    0  501  0.29901875626E+02 -0.13921867614E+02  0.52879291184E+02  0.62500000000E+02  0.47000000000E+01 0. -1.
</event>
<event>
 3    0  0.4591805E-005  0.9118800E+02  0.7546771E-02  0.1235069E+00
         25   -1    0    0    0    0  0.00000000000E+00  0.00000000000E+00  0.99999998245E-14  0.12500000000E+03  0.12500000000E+03 0.  0.
          5    1    1    0  501    0 -0.60231981151E+02  0.11098060607E+02  0.11536962223E+02  0.62500000000E+02  0.47000000000E+01 0. -1.
         -5    1    1    0    0  501  0.60231981151E+02 -0.11098060607E+02 -0.11536962223E+02  0.62500000000E+02  0.47000000000E+01 0. -1.
</event>
<event>
 3    0  0.4591805E-005  0.9118800E+02  0.7546771E-02  0.1235069E+00
         25   -1    0    0    0    0  0.00000000000E+00  0.00000000000E+00  0.99999998245E-14  0.12500000000E+03  0.12500000000E+03 0.  0.
          5    1    1    0  501    0  0.60900808748E+01  0.26737928102E+02 -0.55965651213E+02  0.62500000000E+02  0.47000000000E+01 0.  1.
         -5    1    1    0    0  501 -0.60900808748E+01 -0.26737928102E+02  0.55965651213E+02  0.62500000000E+02  0.47000000000E+01 0.  1.
</event>
<event>
 3    0  0.4591805E-005  0.9118800E+02  0.7546771E-02  0.1235069E+00
         25   -1    0    0    0    0  0.00000000000E+00  0.00000000000E+00  0.99999998245E-14  0.12500000000E+03  0.12500000000E+03 0.  0.
          5    1    1    0  501    0  0.54832210506E+02  0.14401450303E+02  0.25887968638E+02  0.62500000000E+02  0.47000000000E+01 0.  1.
         -5    1    1    0    0  501 -0.54832210506E+02 -0.14401450303E+02 -0.25887968638E+02  0.62500000000E+02  0.47000000000E+01 0.  1.
</event>
<event>
 3    0  0.4591805E-005  0.9118800E+02  0.7546771E-02  0.1235069E+00
         25   -1    0    0    0    0  0.00000000000E+00  0.00000000000E+00  0.99999998245E-14  0.12500000000E+03  0.12500000000E+03 0.  0.
          5    1    1    0  501    0  0.55274965569E+02 -0.61982434942E+01  0.28114408387E+02  0.62500000000E+02  0.47000000000E+01 0.  1.
         -5    1    1    0    0  501 -0.55274965569E+02  0.61982434942E+01 -0.28114408387E+02  0.62500000000E+02  0.47000000000E+01 0.  1.
</event>
<event>
 3    0  0.4591805E-005  0.9118800E+02  0.7546771E-02  0.1235069E+00
         25   -1    0    0    0    0  0.00000000000E+00  0.00000000000E+00  0.99999998245E-14  0.12500000000E+03  0.12500000000E+03 0.  0.
          5    1    1    0  501    0 -0.35461018895E+02 -0.50110185852E+02  0.10753855718E+02  0.62500000000E+02  0.47000000000E+01 0.  1.
         -5    1    1    0    0  501  0.35461018895E+02  0.50110185852E+02 -0.10753855718E+02  0.62500000000E+02  0.47000000000E+01 0.  1.
</event>
<event>
 3    0  0.4591805E-005  0.9118800E+02  0.7546771E-02  0.1235069E+00
         25   -1    0    0    0    0  0.00000000000E+00  0.00000000000E+00  0.99999998245E-14  0.12500000000E+03  0.12500000000E+03 0.  0.
          5    1    1    0  501    0 -0.19447343027E+02 -0.32517226785E+02 -0.49483237681E+02  0.62500000000E+02  0.47000000000E+01 0. -1.
         -5    1    1    0    0  501  0.19447343027E+02  0.32517226785E+02  0.49483237681E+02  0.62500000000E+02  0.47000000000E+01 0. -1.
</event>
<event>
 3    0  0.4591805E-005  0.9118800E+02  0.7546771E-02  0.1235069E+00
         25   -1    0    0    0    0  0.00000000000E+00  0.00000000000E+00  0.99999998245E-14  0.12500000000E+03  0.12500000000E+03 0.  0.
          5    1    1    0  501    0  0.27336063342E+02 -0.34396414818E+02 -0.44201654818E+02  0.62500000000E+02  0.47000000000E+01 0.  1.
         -5    1    1    0    0  501 -0.27336063342E+02  0.34396414818E+02  0.44201654818E+02  0.62500000000E+02  0.47000000000E+01 0.  1.
</event>
<event>
 3    0  0.4591805E-005  0.9118800E+02  0.7546771E-02  0.1235069E+00
         25   -1    0    0    0    0  0.00000000000E+00  0.00000000000E+00  0.99999998245E-14  0.12500000000E+03  0.12500000000E+03 0.  0.
          5    1    1    0  501    0 -0.33174205483E+02  0.52070913226E+02  0.85001227300E+01  0.62500000000E+02  0.47000000000E+01 0.  1.
         -5    1    1    0    0  501  0.33174205483E+02 -0.52070913226E+02 -0.85001227300E+01  0.62500000000E+02  0.47000000000E+01 0.  1.
</event>
<event>
 3    0  0.4591805E-005  0.9118800E+02  0.7546771E-02  0.1235069E+00
         25   -1    0    0    0    0  0.00000000000E+00  0.00000000000E+00  0.99999998245E-14  0.12500000000E+03  0.12500000000E+03 0.  0.
          5    1    1    0  501    0  0.46885146384E+02  0.71127438881E+01  0.40439484701E+02  0.62500000000E+02  0.47000000000E+01 0. -1.
         -5    1    1    0    0  501 -0.46885146384E+02 -0.71127438881E+01 -0.40439484701E+02  0.62500000000E+02  0.47000000000E+01 0. -1.
</event>
<event>
 3    0  0.4591805E-005  0.9118800E+02  0.7546771E-02  0.1235069E+00
         25   -1    0    0    0    0  0.00000000000E+00  0.00000000000E+00  0.99999998245E-14  0.12500000000E+03  0.12500000000E+03 0.  0.
          5    1    1    0  501    0 -0.62164003419E+02 -0.38483122452E+01  0.22331976730E+01  0.62500000000E+02  0.47000000000E+01 0. -1.
         -5    1    1    0    0  501  0.62164003419E+02  0.38483122452E+01 -0.22331976730E+01  0.62500000000E+02  0.47000000000E+01 0. -1.
</event>
<event>
 3    0  0.4591805E-005  0.9118800E+02  0.7546771E-02  0.1235069E+00
         25   -1    0    0    0    0  0.00000000000E+00  0.00000000000E+00  0.99999998245E-14  0.12500000000E+03  0.12500000000E+03 0.  0.
          5    1    1    0  501    0  0.42188280961E+02  0.45860339321E+02  0.10668771410E+01  0.62500000000E+02  0.47000000000E+01 0. -1.
         -5    1    1    0    0  501 -0.42188280961E+02 -0.45860339321E+02 -0.10668771410E+01  0.62500000000E+02  0.47000000000E+01 0. -1.
</event>
<event>
 3    0  0.4591805E-005  0.9118800E+02  0.7546771E-02  0.1235069E+00
         25   -1    0    0    0    0  0.00000000000E+00  0.00000000000E+00  0.99999998245E-14  0.12500000000E+03  0.12500000000E+03 0.  0.
          5    1    1    0  501    0  0.58670071575E+02 -0.17380655002E+02 -0.11827744208E+02  0.62500000000E+02  0.47000000000E+01 0.  1.
         -5    1    1    0    0  501 -0.58670071575E+02  0.17380655002E+02  0.11827744208E+02  0.62500000000E+02  0.47000000000E+01 0.  1.
</event>
<event>
 3    0  0.4591805E-005  0.9118800E+02  0.7546771E-02  0.1235069E+00
         25   -1    0    0    0    0  0.00000000000E+00  0.00000000000E+00  0.99999998245E-14  0.12500000000E+03  0.12500000000E+03 0.  0.
          5    1    1    0  501    0 -0.45742315404E+02 -0.31137580291E+02 -0.28674931125E+02  0.62500000000E+02  0.47000000000E+01 0.  1.
         -5    1    1    0    0  501  0.45742315404E+02  0.31137580291E+02  0.28674931125E+02  0.62500000000E+02  0.47000000000E+01 0.  1.
</event>
<event>
 3    0  0.4591805E-005  0.9118800E+02  0.7546771E-02  0.1235069E+00
         25   -1    0    0    0    0  0.00000000000E+00  0.00000000000E+00  0.99999998245E-14  0.12500000000E+03  0.12500000000E+03 0.  0.
          5    1    1    0  501    0  0.53296341504E+02  0.22720292136E+02  0.22966242783E+02  0.62500000000E+02  0.47000000000E+01 0. -1.
         -5    1    1    0    0  501 -0.53296341504E+02 -0.22720292136E+02 -0.22966242783E+02  0.62500000000E+02  0.47000000000E+01 0. -1.
</event>
<event>
 3    0  0.4591805E-005  0.9118800E+02  0.7546771E-02  0.1235069E+00
         25   -1    0    0    0    0  0.00000000000E+00  0.00000000000E+00  0.99999998245E-14  0.12500000000E+03  0.12500000000E+03 0.  0.
          5    1    1    0  501    0 -0.57855956604E+02 -0.24651301084E+01 -0.23038476924E+02  0.62500000000E+02  0.47000000000E+01 0.  1.
         -5    1    1    0    0  501  0.57855956604E+02  0.24651301084E+01  0.23038476924E+02  0.62500000000E+02  0.47000000000E+01 0.  1.
</event>
<event>
 3    0  0.4591805E-005  0.9118800E+02  0.7546771E-02  0.1235069E+00
         25   -1    0    0    0    0  0.00000000000E+00  0.00000000000E+00  0.99999998245E-14  0.12500000000E+03  0.12500000000E+03 0.  0.
          5    1    1    0  501    0 -0.53065496279E+02  0.30539243139E+02 -0.11643355754E+02  0.62500000000E+02  0.47000000000E+01 0. -1.
         -5    1    1    0    0  501  0.53065496279E+02 -0.30539243139E+02  0.11643355754E+02  0.62500000000E+02  0.47000000000E+01 0. -1.
</event>
<event>
 3    0  0.4591805E-005  0.9118800E+02  0.7546771E-02  0.1235069E+00
         25   -1    0    0    0    0  0.00000000000E+00  0.00000000000E+00  0.99999998245E-14  0.12500000000E+03  0.12500000000E+03 0.  0.
          5    1    1    0  501    0 -0.54691337252E+02 -0.29812922237E+02 -0.20511697164E+01  0.62500000000E+02  0.47000000000E+01 0.  1.
         -5    1    1    0    0  501  0.54691337252E+02  0.29812922237E+02  0.20511697164E+01  0.62500000000E+02  0.47000000000E+01 0.  1.
</event>
<event>
 3    0  0.4591805E-005  0.9118800E+02  0.7546771E-02  0.1235069E+00
         25   -1    0    0    0    0  0.00000000000E+00  0.00000000000E+00  0.99999998245E-14  0.12500000000E+03  0.12500000000E+03 0.  0.
          5    1    1    0  501    0  0.44814713201E+02 -0.39339636720E+02 -0.18116138204E+02  0.62500000000E+02  0.47000000000E+01 0.  1.
         -5    1    1    0    0  501 -0.44814713201E+02  0.39339636720E+02  0.18116138204E+02  0.62500000000E+02  0.47000000000E+01 0.  1.
</event>
<event>
 3    0  0.4591805E-005  0.9118800E+02  0.7546771E-02  0.1235069E+00
         25   -1    0    0    0    0  0.00000000000E+00  0.00000000000E+00  0.99999998245E-14  0.12500000000E+03  0.12500000000E+03 0.  0.
          5    1    1    0  501    0 -0.53813750605E+02 -0.81529961958E+00 -0.31425714508E+02  0.62500000000E+02  0.47000000000E+01 0. -1.
         -5    1    1    0    0  501  0.53813750605E+02  0.81529961958E+00  0.31425714508E+02  0.62500000000E+02  0.47000000000E+01 0. -1.
</event>
<event>
 3    0  0.4591805E-005  0.9118800E+02  0.7546771E-02  0.1235069E+00
         25   -1    0    0    0    0  0.00000000000E+00  0.00000000000E+00  0.99999998245E-14  0.12500000000E+03  0.12500000000E+03 0.  0.
          5    1    1    0  501    0 -0.24396820668E+02 -0.37827888585E+02  0.43104593566E+02  0.62500000000E+02  0.47000000000E+01 0. -1.
         -5    1    1    0    0  501  0.24396820668E+02  0.37827888585E+02 -0.43104593566E+02  0.62500000000E+02  0.47000000000E+01 0. -1.
</event>
<event>
 3    0  0.4591805E-005  0.9118800E+02  0.7546771E-02  0.1235069E+00
         25   -1    0    0    0    0  0.00000000000E+00  0.00000000000E+00  0.99999998245E-14  0.12500000000E+03  0.12500000000E+03 0.  0.
          5    1    1    0  501    0 -0.53702502200E+02  0.24900899849E+02  0.19497344543E+02  0.62500000000E+02  0.47000000000E+01 0.  1.
         -5    1    1    0    0  501  0.53702502200E+02 -0.24900899849E+02 -0.19497344543E+02  0.62500000000E+02  0.47000000000E+01 0.  1.
</event>
<event>
 3    0  0.4591805E-005  0.9118800E+02  0.7546771E-02  0.1235069E+00
         25   -1    0    0    0    0  0.00000000000E+00  0.00000000000E+00  0.99999998245E-14  0.12500000000E+03  0.12500000000E+03 0.  0.
          5    1    1    0  501    0 -0.53314781315E+02  0.32254954771E+02 -0.11454195870E+01  0.62500000000E+02  0.47000000000E+01 0.  1.
         -5    1    1    0    0  501  0.53314781315E+02 -0.32254954771E+02  0.11454195870E+01  0.62500000000E+02  0.47000000000E+01 0.  1.
</event>
<event>
 3    0  0.4591805E-005  0.9118800E+02  0.7546771E-02  0.1235069E+00
         25   -1    0    0    0    0  0.00000000000E+00  0.00000000000E+00  0.99999998245E-14  0.12500000000E+03  0.12500000000E+03 0.  0.
          5    1    1    0  501    0  0.40026293450E+01 -0.35162003787E+02  0.51300803581E+02  0.62500000000E+02  0.47000000000E+01 0. -1.
         -5    1    1    0    0  501 -0.40026293450E+01  0.35162003787E+02 -0.51300803581E+02  0.62500000000E+02  0.47000000000E+01 0. -1.
</event>
<event>
 3    0  0.4591805E-005  0.9118800E+02  0.7546771E-02  0.1235069E+00
         25   -1    0    0    0    0  0.00000000000E+00  0.00000000000E+00  0.99999998245E-14  0.12500000000E+03  0.12500000000E+03 0.  0.
          5    1    1    0  501    0  0.30549451435E+02 -0.43914296622E+02 -0.31975390055E+02  0.62500000000E+02  0.47000000000E+01 0.  1.
         -5    1    1    0    0  501 -0.30549451435E+02  0.43914296622E+02  0.31975390055E+02  0.62500000000E+02  0.47000000000E+01 0.  1.
</event>
<event>
 3    0  0.4591805E-005  0.9118800E+02  0.7546771E-02  0.1235069E+00
         25   -1    0    0    0    0  0.00000000000E+00  0.00000000000E+00  0.99999998245E-14  0.12500000000E+03  0.12500000000E+03 0.  0.
          5    1    1    0  501    0 -0.52046888740E+02  0.25066161281E+02  0.23387366912E+02  0.62500000000E+02  0.47000000000E+01 0. -1.
         -5    1    1    0    0  501  0.52046888740E+02 -0.25066161281E+02 -0.23387366912E+02  0.62500000000E+02  0.47000000000E+01 0. -1.
</event>
<event>
 3    0  0.4591805E-005  0.9118800E+02  0.7546771E-02  0.1235069E+00
         25   -1    0    0    0    0  0.00000000000E+00  0.00000000000E+00  0.99999998245E-14  0.12500000000E+03  0.12500000000E+03 0.  0.
          5    1    1    0  501    0  0.55486578252E+02  0.12477220368E+02  0.25489578376E+02  0.62500000000E+02  0.47000000000E+01 0.  1.
         -5    1    1    0    0  501 -0.55486578252E+02 -0.12477220368E+02 -0.25489578376E+02  0.62500000000E+02  0.47000000000E+01 0.  1.
</event>
<event>
 3    0  0.4591805E-005  0.9118800E+02  0.7546771E-02  0.1235069E+00
         25   -1    0    0    0    0  0.00000000000E+00  0.00000000000E+00  0.99999998245E-14  0.12500000000E+03  0.12500000000E+03 0.  0.
          5    1    1    0  501    0  0.21375488116E+02 -0.58437627757E+02 -0.35060191046E+01  0.62500000000E+02  0.47000000000E+01 0. -1.
         -5    1    1    0    0  501 -0.21375488116E+02  0.58437627757E+02  0.35060191046E+01  0.62500000000E+02  0.47000000000E+01 0. -1.
</event>
<event>
 3    0  0.4591805E-005  0.9118800E+02  0.7546771E-02  0.1235069E+00
         25   -1    0    0    0    0  0.00000000000E+00  0.00000000000E+00  0.99999998245E-14  0.12500000000E+03  0.12500000000E+03 0.  0.
          5    1    1    0  501    0  0.12082009409E+02 -0.53612896540E+02 -0.29391195505E+02  0.62500000000E+02  0.47000000000E+01 0.  1.
         -5    1    1    0    0  501 -0.12082009409E+02  0.53612896540E+02  0.29391195505E+02  0.62500000000E+02  0.47000000000E+01 0.  1.
</event>
<event>
 3    0  0.4591805E-005  0.9118800E+02  0.7546771E-02  0.1235069E+00
         25   -1    0    0    0    0  0.00000000000E+00  0.00000000000E+00  0.99999998245E-14  0.12500000000E+03  0.12500000000E+03 0.  0.
          5    1    1    0  501    0 -0.47760761242E+02  0.29774938357E+02  0.26767942234E+02  0.62500000000E+02  0.47000000000E+01 0. -1.
         -5    1    1    0    0  501  0.47760761242E+02 -0.29774938357E+02 -0.26767942234E+02  0.62500000000E+02  0.47000000000E+01 0. -1.
</event>
<event>
 3    0  0.4591805E-005  0.9118800E+02  0.7546771E-02  0.1235069E+00
         25   -1    0    0    0    0  0.00000000000E+00  0.00000000000E+00  0.99999998245E-14  0.12500000000E+03  0.12500000000E+03 0.  0.
          5    1    1    0  501    0 -0.38867042578E+02 -0.36267783464E+02 -0.32529384928E+02  0.62500000000E+02  0.47000000000E+01 0. -1.
         -5    1    1    0    0  501  0.38867042578E+02  0.36267783464E+02  0.32529384928E+02  0.62500000000E+02  0.47000000000E+01 0. -1.
</event>
<event>
 3    0  0.4591805E-005  0.9118800E+02  0.7546771E-02  0.1235069E+00
         25   -1    0    0    0    0  0.00000000000E+00  0.00000000000E+00  0.99999998245E-14  0.12500000000E+03  0.12500000000E+03 0.  0.
          5    1    1    0  501    0  0.14067730497E+02  0.49838293879E+02 -0.34675689205E+02  0.62500000000E+02  0.47000000000E+01 0. -1.
         -5    1    1    0    0  501 -0.14067730497E+02 -0.49838293879E+02  0.34675689205E+02  0.62500000000E+02  0.47000000000E+01 0. -1.
</event>
<event>
 3    0  0.4591805E-005  0.9118800E+02  0.7546771E-02  0.1235069E+00
         25   -1    0    0    0    0  0.00000000000E+00  0.00000000000E+00  0.99999998245E-14  0.12500000000E+03  0.12500000000E+03 0.  0.
          5    1    1    0  501    0 -0.41710768352E+02 -0.22307480601E+02 -0.40580144316E+02  0.62500000000E+02  0.47000000000E+01 0.  1.
         -5    1    1    0    0  501  0.41710768352E+02  0.22307480601E+02  0.40580144316E+02  0.62500000000E+02  0.47000000000E+01 0.  1.
</event>
<event>
 3    0  0.4591805E-005  0.9118800E+02  0.7546771E-02  0.1235069E+00
         25   -1    0    0    0    0  0.00000000000E+00  0.00000000000E+00  0.99999998245E-14  0.12500000000E+03  0.12500000000E+03 0.  0.
          5    1    1    0  501    0 -0.39026600187E+02 -0.31743529726E+02 -0.36789030952E+02  0.62500000000E+02  0.47000000000E+01 0. -1.
         -5    1    1    0    0  501  0.39026600187E+02  0.31743529726E+02  0.36789030952E+02  0.62500000000E+02  0.47000000000E+01 0. -1.
</event>
<event>
 3    0  0.4591805E-005  0.9118800E+02  0.7546771E-02  0.1235069E+00
         25   -1    0    0    0    0  0.00000000000E+00  0.00000000000E+00  0.99999998245E-14  0.12500000000E+03  0.12500000000E+03 0.  0.
          5    1    1    0  501    0 -0.25943768572E+02 -0.92178479810E+01  0.55911645933E+02  0.62500000000E+02  0.47000000000E+01 0. -1.
         -5    1    1    0    0  501  0.25943768572E+02  0.92178479810E+01 -0.55911645933E+02  0.62500000000E+02  0.47000000000E+01 0. -1.
</event>
<event>
 3    0  0.4591805E-005  0.9118800E+02  0.7546771E-02  0.1235069E+00
         25   -1    0    0    0    0  0.00000000000E+00  0.00000000000E+00  0.99999998245E-14  0.12500000000E+03  0.12500000000E+03 0.  0.
          5    1    1    0  501    0  0.21150810963E+02 -0.29175684247E+02  0.50848624803E+02  0.62500000000E+02  0.47000000000E+01 0.  1.
         -5    1    1    0    0  501 -0.21150810963E+02  0.29175684247E+02 -0.50848624803E+02  0.62500000000E+02  0.47000000000E+01 0.  1.
</event>
<event>
 3    0  0.4591805E-005  0.9118800E+02  0.7546771E-02  0.1235069E+00
         25   -1    0    0    0    0  0.00000000000E+00  0.00000000000E+00  0.99999998245E-14  0.12500000000E+03  0.12500000000E+03 0.  0.
          5    1    1    0  501    0 -0.31889081390E+02  0.28091490273E+02  0.45586342937E+02  0.62500000000E+02  0.47000000000E+01 0. -1.
         -5    1    1    0    0  501  0.31889081390E+02 -0.28091490273E+02 -0.45586342937E+02  0.62500000000E+02  0.47000000000E+01 0. -1.
</event>
<event>
 3    0  0.4591805E-005  0.9118800E+02  0.7546771E-02  0.1235069E+00
         25   -1    0    0    0    0  0.00000000000E+00  0.00000000000E+00  0.99999998245E-14  0.12500000000E+03  0.12500000000E+03 0.  0.
          5    1    1    0  501    0  0.59893445396E+01  0.60271798485E+02  0.14683257792E+02  0.62500000000E+02  0.47000000000E+01 0. -1.
         -5    1    1    0    0  501 -0.59893445396E+01 -0.60271798485E+02 -0.14683257792E+02  0.62500000000E+02  0.47000000000E+01 0. -1.
</event>
<event>
 3    0  0.4591805E-005  0.9118800E+02  0.7546771E-02  0.1235069E+00
         25   -1    0    0    0    0  0.00000000000E+00  0.00000000000E+00  0.99999998245E-14  0.12500000000E+03  0.12500000000E+03 0.  0.
          5    1    1    0  501    0  0.45889542704E+02  0.36080608029E+02 -0.21828870670E+02  0.62500000000E+02  0.47000000000E+01 0. -1.
         -5    1    1    0    0  501 -0.45889542704E+02 -0.36080608029E+02  0.21828870670E+02  0.62500000000E+02  0.47000000000E+01 0. -1.
</event>
<event>
 3    0  0.4591805E-005  0.9118800E+02  0.7546771E-02  0.1235069E+00
         25   -1    0    0    0    0  0.00000000000E+00  0.00000000000E+00  0.99999998245E-14  0.12500000000E+03  0.12500000000E+03 0.  0.
          5    1    1    0  501    0  0.35550342857E+02  0.14481609827E+02 -0.49098025414E+02  0.62500000000E+02  0.47000000000E+01 0. -1.
         -5    1    1    0    0  501 -0.35550342857E+02 -0.14481609827E+02  0.49098025414E+02  0.62500000000E+02  0.47000000000E+01 0. -1.
</event>
<event>
 3    0  0.4591805E-005  0.9118800E+02  0.7546771E-02  0.1235069E+00
         25   -1    0    0    0    0  0.00000000000E+00  0.00000000000E+00  0.99999998245E-14  0.12500000000E+03  0.12500000000E+03 0.  0.
          5    1    1    0  501    0 -0.26179376202E+02 -0.39990276089E+02  0.39994725652E+02  0.62500000000E+02  0.47000000000E+01 0.  1.
         -5    1    1    0    0  501  0.26179376202E+02  0.39990276089E+02 -0.39994725652E+02  0.62500000000E+02  0.47000000000E+01 0.  1.
</event>
<event>
 3    0  0.4591805E-005  0.9118800E+02  0.7546771E-02  0.1235069E+00
         25   -1    0    0    0    0  0.00000000000E+00  0.00000000000E+00  0.99999998245E-14  0.12500000000E+03  0.12500000000E+03 0.  0.
          5    1    1    0  501    0 -0.40830815353E+02  0.13896504345E+02 -0.44987683699E+02  0.62500000000E+02  0.47000000000E+01 0.  1.
         -5    1    1    0    0  501  0.40830815353E+02 -0.13896504345E+02  0.44987683699E+02  0.62500000000E+02  0.47000000000E+01 0.  1.
</event>
<event>
 3    0  0.4591805E-005  0.9118800E+02  0.7546771E-02  0.1235069E+00
         25   -1    0    0    0    0  0.00000000000E+00  0.00000000000E+00  0.99999998245E-14  0.12500000000E+03  0.12500000000E+03 0.  0.
          5    1    1    0  501    0  0.51607142387E+02 -0.23595713705E+02 -0.25770237666E+02  0.62500000000E+02  0.47000000000E+01 0.  1.
         -5    1    1    0    0  501 -0.51607142387E+02  0.23595713705E+02  0.25770237666E+02  0.62500000000E+02  0.47000000000E+01 0.  1.
</event>
<event>
 3    0  0.4591805E-005  0.9118800E+02  0.7546771E-02  0.1235069E+00
         25   -1    0    0    0    0  0.00000000000E+00  0.00000000000E+00  0.99999998245E-14  0.12500000000E+03  0.12500000000E+03 0.  0.
          5    1    1    0  501    0  0.39495370749E+02 -0.45168109386E+02 -0.16855787846E+02  0.62500000000E+02  0.47000000000E+01 0.  1.
         -5    1    1    0    0  501 -0.39495370749E+02  0.45168109386E+02  0.16855787846E+02  0.62500000000E+02  0.47000000000E+01 0.  1.
</event>
<event>
 3    0  0.4591805E-005  0.9118800E+02  0.7546771E-02  0.1235069E+00
         25   -1    0    0    0    0  0.00000000000E+00  0.00000000000E+00  0.99999998245E-14  0.12500000000E+03  0.12500000000E+03 0.  0.
          5    1    1    0  501    0 -0.96412637779E+00 -0.24774129020E+02 -0.57179305624E+02  0.62500000000E+02  0.47000000000E+01 0.  1.
         -5    1    1    0    0  501  0.96412637779E+00  0.24774129020E+02  0.57179305624E+02  0.62500000000E+02  0.47000000000E+01 0.  1.
</event>
<event>
 3    0  0.4591805E-005  0.9118800E+02  0.7546771E-02  0.1235069E+00
         25   -1    0    0    0    0  0.00000000000E+00  0.00000000000E+00  0.99999998245E-14  0.12500000000E+03  0.12500000000E+03 0.  0.
          5    1    1    0  501    0 -0.53066417745E+02 -0.28397605265E+02  0.16176876178E+02  0.62500000000E+02  0.47000000000E+01 0. -1.
         -5    1    1    0    0  501  0.53066417745E+02  0.28397605265E+02 -0.16176876178E+02  0.62500000000E+02  0.47000000000E+01 0. -1.
</event>
<event>
 3    0  0.4591805E-005  0.9118800E+02  0.7546771E-02  0.1235069E+00
         25   -1    0    0    0    0  0.00000000000E+00  0.00000000000E+00  0.99999998245E-14  0.12500000000E+03  0.12500000000E+03 0.  0.
          5    1    1    0  501    0 -0.45731162008E+02  0.42073143893E+02 -0.47614477132E+01  0.62500000000E+02  0.47000000000E+01 0.  1.
         -5    1    1    0    0  501  0.45731162008E+02 -0.42073143893E+02  0.47614477132E+01  0.62500000000E+02  0.47000000000E+01 0.  1.
</event>
<event>
 3    0  0.4591805E-005  0.9118800E+02  0.7546771E-02  0.1235069E+00
         25   -1    0    0    0    0  0.00000000000E+00  0.00000000000E+00  0.99999998245E-14  0.12500000000E+03  0.12500000000E+03 0.  0.
          5    1    1    0  501    0 -0.52474510279E+02 -0.15990004460E+02  0.29578802010E+02  0.62500000000E+02  0.47000000000E+01 0.  1.
         -5    1    1    0    0  501  0.52474510279E+02  0.15990004460E+02 -0.29578802010E+02  0.62500000000E+02  0.47000000000E+01 0.  1.
</event>
<event>
 3    0  0.4591805E-005  0.9118800E+02  0.7546771E-02  0.1235069E+00
         25   -1    0    0    0    0  0.00000000000E+00  0.00000000000E+00  0.99999998245E-14  0.12500000000E+03  0.12500000000E+03 0.  0.
          5    1    1    0  501    0 -0.39002304753E+02 -0.32281944798E+00  0.48609423074E+02  0.62500000000E+02  0.47000000000E+01 0.  1.
         -5    1    1    0    0  501  0.39002304753E+02  0.32281944798E+00 -0.48609423074E+02  0.62500000000E+02  0.47000000000E+01 0.  1.
</event>
<event>
 3    0  0.4591805E-005  0.9118800E+02  0.7546771E-02  0.1235069E+00
         25   -1    0    0    0    0  0.00000000000E+00  0.00000000000E+00  0.99999998245E-14  0.12500000000E+03  0.12500000000E+03 0.  0.
          5    1    1    0  501    0  0.31353024630E+01 -0.10171502308E+02 -0.61407413390E+02  0.62500000000E+02  0.47000000000E+01 0.  1.
         -5    1    1    0    0  501 -0.31353024630E+01  0.10171502308E+02  0.61407413390E+02  0.62500000000E+02  0.47000000000E+01 0.  1.
</event>
<event>
 3    0  0.4591805E-005  0.9118800E+02  0.7546771E-02  0.1235069E+00
         25   -1    0    0    0    0  0.00000000000E+00  0.00000000000E+00  0.99999998245E-14  0.12500000000E+03  0.12500000000E+03 0.  0.
          5    1    1    0  501    0  0.60626745579E+02  0.15972856910E+01  0.14352923009E+02  0.62500000000E+02  0.47000000000E+01 0. -1.
         -5    1    1    0    0  501 -0.60626745579E+02 -0.15972856910E+01 -0.14352923009E+02  0.62500000000E+02  0.47000000000E+01 0. -1.
</event>
<event>
 3    0  0.4591805E-005  0.9118800E+02  0.7546771E-02  0.1235069E+00
         25   -1    0    0    0    0  0.00000000000E+00  0.00000000000E+00  0.99999998245E-14  0.12500000000E+03  0.12500000000E+03 0.  0.
          5    1    1    0  501    0 -0.45698536813E+02 -0.42041451569E+02 -0.53216616850E+01  0.62500000000E+02  0.47000000000E+01 0. -1.
         -5    1    1    0    0  501  0.45698536813E+02  0.42041451569E+02  0.53216616850E+01  0.62500000000E+02  0.47000000000E+01 0. -1.
</event>
<event>
 3    0  0.4591805E-005  0.9118800E+02  0.7546771E-02  0.1235069E+00
         25   -1    0    0    0    0  0.00000000000E+00  0.00000000000E+00  0.99999998245E-14  0.12500000000E+03  0.12500000000E+03 0.  0.
          5    1    1    0  501    0  0.10013800420E+02 -0.32958649534E+02  0.51938533114E+02  0.62500000000E+02  0.47000000000E+01 0. -1.
         -5    1    1    0    0  501 -0.10013800420E+02  0.32958649534E+02 -0.51938533114E+02  0.62500000000E+02  0.47000000000E+01 0. -1.
</event>
<event>
 3    0  0.4591805E-005  0.9118800E+02  0.7546771E-02  0.1235069E+00
         25   -1    0    0    0    0  0.00000000000E+00  0.00000000000E+00  0.99999998245E-14  0.12500000000E+03  0.12500000000E+03 0.  0.
          5    1    1    0  501    0 -0.39751663170E+02 -0.30662258105E+02  0.36929543771E+02  0.62500000000E+02  0.47000000000E+01 0.  1.
         -5    1    1    0    0  501  0.39751663170E+02  0.30662258105E+02 -0.36929543771E+02  0.62500000000E+02  0.47000000000E+01 0.  1.
</event>
<event>
 3    0  0.4591805E-005  0.9118800E+02  0.7546771E-02  0.1235069E+00
         25   -1    0    0    0    0  0.00000000000E+00  0.00000000000E+00  0.99999998245E-14  0.12500000000E+03  0.12500000000E+03 0.  0.
          5    1    1    0  501    0 -0.43991601000E+02  0.59978670334E+01 -0.43736993867E+02  0.62500000000E+02  0.47000000000E+01 0. -1.
         -5    1    1    0    0  501  0.43991601000E+02 -0.59978670334E+01  0.43736993867E+02  0.62500000000E+02  0.47000000000E+01 0. -1.
</event>
<event>
 3    0  0.4591805E-005  0.9118800E+02  0.7546771E-02  0.1235069E+00
         25   -1    0    0    0    0  0.00000000000E+00  0.00000000000E+00  0.99999998245E-14  0.12500000000E+03  0.12500000000E+03 0.  0.
          5    1    1    0  501    0 -0.13513352283E+02  0.60289744617E+02 -0.81667621539E+01  0.62500000000E+02  0.47000000000E+01 0. -1.
         -5    1    1    0    0  501  0.13513352283E+02 -0.60289744617E+02  0.81667621539E+01  0.62500000000E+02  0.47000000000E+01 0. -1.
</event>
<event>
 3    0  0.4591805E-005  0.9118800E+02  0.7546771E-02  0.1235069E+00
         25   -1    0    0    0    0  0.00000000000E+00  0.00000000000E+00  0.99999998245E-14  0.12500000000E+03  0.12500000000E+03 0.  0.
          5    1    1    0  501    0  0.26687711799E+02  0.55703968231E+02 -0.83062604232E+01  0.62500000000E+02  0.47000000000E+01 0.  1.
         -5    1    1    0    0  501 -0.26687711799E+02 -0.55703968231E+02  0.83062604232E+01  0.62500000000E+02  0.47000000000E+01 0.  1.
</event>
<event>
 3    0  0.4591805E-005  0.9118800E+02  0.7546771E-02  0.1235069E+00
         25   -1    0    0    0    0  0.00000000000E+00  0.00000000000E+00  0.99999998245E-14  0.12500000000E+03  0.12500000000E+03 0.  0.
          5    1    1    0  501    0  0.24682249448E+02 -0.55823925898E+02 -0.12595072828E+02  0.62500000000E+02  0.47000000000E+01 0.  1.
         -5    1    1    0    0  501 -0.24682249448E+02  0.55823925898E+02  0.12595072828E+02  0.62500000000E+02  0.47000000000E+01 0.  1.
</event>
<event>
 3    0  0.4591805E-005  0.9118800E+02  0.7546771E-02  0.1235069E+00
         25   -1    0    0    0    0  0.00000000000E+00  0.00000000000E+00  0.99999998245E-14  0.12500000000E+03  0.12500000000E+03 0.  0.
          5    1    1    0  501    0  0.60676295372E+02 -0.24965908126E+01 -0.14011217444E+02  0.62500000000E+02  0.47000000000E+01 0.  1.
         -5    1    1    0    0  501 -0.60676295372E+02  0.24965908126E+01  0.14011217444E+02  0.62500000000E+02  0.47000000000E+01 0.  1.
</event>
<event>
 3    0  0.4591805E-005  0.9118800E+02  0.7546771E-02  0.1235069E+00
         25   -1    0    0    0    0  0.00000000000E+00  0.00000000000E+00  0.99999998245E-14  0.12500000000E+03  0.12500000000E+03 0.  0.
          5    1    1    0  501    0 -0.48371711824E+02  0.36389845453E+02 -0.14836328491E+02  0.62500000000E+02  0.47000000000E+01 0.  1.
         -5    1    1    0    0  501  0.48371711824E+02 -0.36389845453E+02  0.14836328491E+02  0.62500000000E+02  0.47000000000E+01 0.  1.
</event>
<event>
 3    0  0.4591805E-005  0.9118800E+02  0.7546771E-02  0.1235069E+00
         25   -1    0    0    0    0  0.00000000000E+00  0.00000000000E+00  0.99999998245E-14  0.12500000000E+03  0.12500000000E+03 0.  0.
          5    1    1    0  501    0  0.24106352095E+02 -0.52665323417E+02 -0.23008856948E+02  0.62500000000E+02  0.47000000000E+01 0.  1.
         -5    1    1    0    0  501 -0.24106352095E+02  0.52665323417E+02  0.23008856948E+02  0.62500000000E+02  0.47000000000E+01 0.  1.
</event>
<event>
 3    0  0.4591805E-005  0.9118800E+02  0.7546771E-02  0.1235069E+00
         25   -1    0    0    0    0  0.00000000000E+00  0.00000000000E+00  0.99999998245E-14  0.12500000000E+03  0.12500000000E+03 0.  0.
          5    1    1    0  501    0  0.19005953073E+02 -0.77474834451E+01  0.58846497330E+02  0.62500000000E+02  0.47000000000E+01 0. -1.
         -5    1    1    0    0  501 -0.19005953073E+02  0.77474834451E+01 -0.58846497330E+02  0.62500000000E+02  0.47000000000E+01 0. -1.
</event>
<event>
 3    0  0.4591805E-005  0.9118800E+02  0.7546771E-02  0.1235069E+00
         25   -1    0    0    0    0  0.00000000000E+00  0.00000000000E+00  0.99999998245E-14  0.12500000000E+03  0.12500000000E+03 0.  0.
          5    1    1    0  501    0 -0.54984148263E+02  0.26896953764E+02  0.11724219293E+02  0.62500000000E+02  0.47000000000E+01 0.  1.
         -5    1    1    0    0  501  0.54984148263E+02 -0.26896953764E+02 -0.11724219293E+02  0.62500000000E+02  0.47000000000E+01 0.  1.
</event>
<event>
 3    0  0.4591805E-005  0.9118800E+02  0.7546771E-02  0.1235069E+00
         25   -1    0    0    0    0  0.00000000000E+00  0.00000000000E+00  0.99999998245E-14  0.12500000000E+03  0.12500000000E+03 0.  0.
          5    1    1    0  501    0  0.41262560052E+02  0.31963834739E+02  0.34056928909E+02  0.62500000000E+02  0.47000000000E+01 0. -1.
         -5    1    1    0    0  501 -0.41262560052E+02 -0.31963834739E+02 -0.34056928909E+02  0.62500000000E+02  0.47000000000E+01 0. -1.
</event>
<event>
 3    0  0.4591805E-005  0.9118800E+02  0.7546771E-02  0.1235069E+00
         25   -1    0    0    0    0  0.00000000000E+00  0.00000000000E+00  0.99999998245E-14  0.12500000000E+03  0.12500000000E+03 0.  0.
          5    1    1    0  501    0 -0.45364038963E+02 -0.41212029835E+02 -0.11306306462E+02  0.62500000000E+02  0.47000000000E+01 0.  1.
         -5    1    1    0    0  501  0.45364038963E+02  0.41212029835E+02  0.11306306462E+02  0.62500000000E+02  0.47000000000E+01 0.  1.
</event>
<event>
 3    0  0.4591805E-005  0.9118800E+02  0.7546771E-02  0.1235069E+00
         25   -1    0    0    0    0  0.00000000000E+00  0.00000000000E+00  0.99999998245E-14  0.12500000000E+03  0.12500000000E+03 0.  0.
          5    1    1    0  501    0  0.47442156568E+02 -0.24762045303E+02 -0.31941241250E+02  0.62500000000E+02  0.47000000000E+01 0.  1.
         -5    1    1    0    0  501 -0.47442156568E+02  0.24762045303E+02  0.31941241250E+02  0.62500000000E+02  0.47000000000E+01 0.  1.
</event>
<event>
 3    0  0.4591805E-005  0.9118800E+02  0.7546771E-02  0.1235069E+00
         25   -1    0    0    0    0  0.00000000000E+00  0.00000000000E+00  0.99999998245E-14  0.12500000000E+03  0.12500000000E+03 0.  0.
          5    1    1    0  501    0  0.12019620040E+02 -0.80433727306E+01 -0.60621719616E+02  0.62500000000E+02  0.47000000000E+01 0.  1.
         -5    1    1    0    0  501 -0.12019620040E+02  0.80433727306E+01  0.60621719616E+02  0.62500000000E+02  0.47000000000E+01 0.  1.
</event>
<event>
 3    0  0.4591805E-005  0.9118800E+02  0.7546771E-02  0.1235069E+00
         25   -1    0    0    0    0  0.00000000000E+00  0.00000000000E+00  0.99999998245E-14  0.12500000000E+03  0.12500000000E+03 0.  0.
          5    1    1    0  501    0  0.42963511518E+02 -0.60944307577E+01 -0.44734266416E+02  0.62500000000E+02  0.47000000000E+01 0. -1.
         -5    1    1    0    0  501 -0.42963511518E+02  0.60944307577E+01  0.44734266416E+02  0.62500000000E+02  0.47000000000E+01 0. -1.
</event>
<event>
 3    0  0.4591805E-005  0.9118800E+02  0.7546771E-02  0.1235069E+00
         25   -1    0    0    0    0  0.00000000000E+00  0.00000000000E+00  0.99999998245E-14  0.12500000000E+03  0.12500000000E+03 0.  0.
          5    1    1    0  501    0 -0.56343902379E+02 -0.86867356363E+01  0.25180653064E+02  0.62500000000E+02  0.47000000000E+01 0. -1.
         -5    1    1    0    0  501  0.56343902379E+02  0.86867356363E+01 -0.25180653064E+02  0.62500000000E+02  0.47000000000E+01 0. -1.
</event>
<event>
 3    0  0.4591805E-005  0.9118800E+02  0.7546771E-02  0.1235069E+00
         25   -1    0    0    0    0  0.00000000000E+00  0.00000000000E+00  0.99999998245E-14  0.12500000000E+03  0.12500000000E+03 0.  0.
          5    1    1    0  501    0  0.12413222722E+02 -0.28650762933E+02 -0.53937052988E+02  0.62500000000E+02  0.47000000000E+01 0. -1.
         -5    1    1    0    0  501 -0.12413222722E+02  0.28650762933E+02  0.53937052988E+02  0.62500000000E+02  0.47000000000E+01 0. -1.
</event>
<event>
 3    0  0.4591805E-005  0.9118800E+02  0.7546771E-02  0.1235069E+00
         25   -1    0    0    0    0  0.00000000000E+00  0.00000000000E+00  0.99999998245E-14  0.12500000000E+03  0.12500000000E+03 0.  0.
          5    1    1    0  501    0 -0.18660841959E+01  0.52253805149E+02 -0.33914857765E+02  0.62500000000E+02  0.47000000000E+01 0.  1.
         -5    1    1    0    0  501  0.18660841959E+01 -0.52253805149E+02  0.33914857765E+02  0.62500000000E+02  0.47000000000E+01 0.  1.
</event>
<event>
 3    0  0.4591805E-005  0.9118800E+02  0.7546771E-02  0.1235069E+00
         25   -1    0    0    0    0  0.00000000000E+00  0.00000000000E+00  0.99999998245E-14  0.12500000000E+03  0.12500000000E+03 0.  0.
          5    1    1    0  501    0 -0.87169257267E+00  0.58850044148E+02  0.20495669196E+02  0.62500000000E+02  0.47000000000E+01 0.  1.
         -5    1    1    0    0  501  0.87169257267E+00 -0.58850044148E+02 -0.20495669196E+02  0.62500000000E+02  0.47000000000E+01 0.  1.
</event>
<event>
 3    0  0.4591805E-005  0.9118800E+02  0.7546771E-02  0.1235069E+00
         25   -1    0    0    0    0  0.00000000000E+00  0.00000000000E+00  0.99999998245E-14  0.12500000000E+03  0.12500000000E+03 0.  0.
          5    1    1    0  501    0  0.20384236215E+02 -0.53835200606E+02 -0.23883343353E+02  0.62500000000E+02  0.47000000000E+01 0.  1.
         -5    1    1    0    0  501 -0.20384236215E+02  0.53835200606E+02  0.23883343353E+02  0.62500000000E+02  0.47000000000E+01 0.  1.
</event>
<event>
 3    0  0.4591805E-005  0.9118800E+02  0.7546771E-02  0.1235069E+00
         25   -1    0    0    0    0  0.00000000000E+00  0.00000000000E+00  0.99999998245E-14  0.12500000000E+03  0.12500000000E+03 0.  0.
          5    1    1    0  501    0 -0.17484376912E+02 -0.29225655804E+01 -0.59748767137E+02  0.62500000000E+02  0.47000000000E+01 0.  1.
         -5    1    1    0    0  501  0.17484376912E+02  0.29225655804E+01  0.59748767137E+02  0.62500000000E+02  0.47000000000E+01 0.  1.
</event>
<event>
 3    0  0.4591805E-005  0.9118800E+02  0.7546771E-02  0.1235069E+00
         25   -1    0    0    0    0  0.00000000000E+00  0.00000000000E+00  0.99999998245E-14  0.12500000000E+03  0.12500000000E+03 0.  0.
          5    1    1    0  501    0  0.43853031538E+01 -0.20040124991E+02  0.58850000056E+02  0.62500000000E+02  0.47000000000E+01 0. -1.
         -5    1    1    0    0  501 -0.43853031538E+01  0.20040124991E+02 -0.58850000056E+02  0.62500000000E+02  0.47000000000E+01 0. -1.
</event>
<event>
 3    0  0.4591805E-005  0.9118800E+02  0.7546771E-02  0.1235069E+00
         25   -1    0    0    0    0  0.00000000000E+00  0.00000000000E+00  0.99999998245E-14  0.12500000000E+03  0.12500000000E+03 0.  0.
          5    1    1    0  501    0  0.72621531478E+01 -0.17982887670E+02 -0.59228682939E+02  0.62500000000E+02  0.47000000000E+01 0.  1.
         -5    1    1    0    0  501 -0.72621531478E+01  0.17982887670E+02  0.59228682939E+02  0.62500000000E+02  0.47000000000E+01 0.  1.
</event>
<event>
 3    0  0.4591805E-005  0.9118800E+02  0.7546771E-02  0.1235069E+00
         25   -1    0    0    0    0  0.00000000000E+00  0.00000000000E+00  0.99999998245E-14  0.12500000000E+03  0.12500000000E+03 0.  0.
          5    1    1    0  501    0 -0.50292070318E+02  0.36737838250E+02 -0.22801104892E+01  0.62500000000E+02  0.47000000000E+01 0.  1.
         -5    1    1    0    0  501  0.50292070318E+02 -0.36737838250E+02  0.22801104892E+01  0.62500000000E+02  0.47000000000E+01 0.  1.
</event>
<event>
 3    0  0.4591805E-005  0.9118800E+02  0.7546771E-02  0.1235069E+00
         25   -1    0    0    0    0  0.00000000000E+00  0.00000000000E+00  0.99999998245E-14  0.12500000000E+03  0.12500000000E+03 0.  0.
          5    1    1    0  501    0  0.32347782173E+02  0.97631334815E+01  0.52368523114E+02  0.62500000000E+02  0.47000000000E+01 0. -1.
         -5    1    1    0    0  501 -0.32347782173E+02 -0.97631334815E+01 -0.52368523114E+02  0.62500000000E+02  0.47000000000E+01 0. -1.
</event>
<event>
 3    0  0.4591805E-005  0.9118800E+02  0.7546771E-02  0.1235069E+00
         25   -1    0    0    0    0  0.00000000000E+00  0.00000000000E+00  0.99999998245E-14  0.12500000000E+03  0.12500000000E+03 0.  0.
          5    1    1    0  501    0  0.50711499408E+02 -0.62458128740E+01  0.35686042780E+02  0.62500000000E+02  0.47000000000E+01 0.  1.
         -5    1    1    0    0  501 -0.50711499408E+02  0.62458128740E+01 -0.35686042780E+02  0.62500000000E+02  0.47000000000E+01 0.  1.
</event>
<event>
 3    0  0.4591805E-005  0.9118800E+02  0.7546771E-02  0.1235069E+00
         25   -1    0    0    0    0  0.00000000000E+00  0.00000000000E+00  0.99999998245E-14  0.12500000000E+03  0.12500000000E+03 0.  0.
          5    1    1    0  501    0 -0.60989867278E+02  0.12821367952E+02  0.92807684555E-01  0.62500000000E+02  0.47000000000E+01 0.  1.
         -5    1    1    0    0  501  0.60989867278E+02 -0.12821367952E+02 -0.92807684555E-01  0.62500000000E+02  0.47000000000E+01 0.  1.
</event>
<event>
 3    0  0.4591805E-005  0.9118800E+02  0.7546771E-02  0.1235069E+00
         25   -1    0    0    0    0  0.00000000000E+00  0.00000000000E+00  0.99999998245E-14  0.12500000000E+03  0.12500000000E+03 0.  0.
          5    1    1    0  501    0 -0.84495186756E+01  0.53875391115E+02 -0.30169651412E+02  0.62500000000E+02  0.47000000000E+01 0.  1.
         -5    1    1    0    0  501  0.84495186756E+01 -0.53875391115E+02  0.30169651412E+02  0.62500000000E+02  0.47000000000E+01 0.  1.
</event>
<event>
 3    0  0.4591805E-005  0.9118800E+02  0.7546771E-02  0.1235069E+00
         25   -1    0    0    0    0  0.00000000000E+00  0.00000000000E+00  0.99999998245E-14  0.12500000000E+03  0.12500000000E+03 0.  0.
          5    1    1    0  501    0  0.68451727072E+01 -0.43107044991E+02 -0.44486922604E+02  0.62500000000E+02  0.47000000000E+01 0.  1.
         -5    1    1    0    0  501 -0.68451727072E+01  0.43107044991E+02  0.44486922604E+02  0.62500000000E+02  0.47000000000E+01 0.  1.
</event>
<event>
 3    0  0.4591805E-005  0.9118800E+02  0.7546771E-02  0.1235069E+00
         25   -1    0    0    0    0  0.00000000000E+00  0.00000000000E+00  0.99999998245E-14  0.12500000000E+03  0.12500000000E+03 0.  0.
          5    1    1    0  501    0 -0.30879945852E+02 -0.36540823300E+01 -0.54011449032E+02  0.62500000000E+02  0.47000000000E+01 0.  1.
         -5    1    1    0    0  501  0.30879945852E+02  0.36540823300E+01  0.54011449032E+02  0.62500000000E+02  0.47000000000E+01 0.  1.
</event>
<event>
 3    0  0.4591805E-005  0.9118800E+02  0.7546771E-02  0.1235069E+00
         25   -1    0    0    0    0  0.00000000000E+00  0.00000000000E+00  0.99999998245E-14  0.12500000000E+03  0.12500000000E+03 0.  0.
          5    1    1    0  501    0 -0.33978978545E+01 -0.33249146244E+02 -0.52603313244E+02  0.62500000000E+02  0.47000000000E+01 0.  1.
         -5    1    1    0    0  501  0.33978978545E+01  0.33249146244E+02  0.52603313244E+02  0.62500000000E+02  0.47000000000E+01 0.  1.
</event>
<event>
 3    0  0.4591805E-005  0.9118800E+02  0.7546771E-02  0.1235069E+00
         25   -1    0    0    0    0  0.00000000000E+00  0.00000000000E+00  0.99999998245E-14  0.12500000000E+03  0.12500000000E+03 0.  0.
          5    1    1    0  501    0 -0.47600401052E+01 -0.60249772604E+02  0.15214036920E+02  0.62500000000E+02  0.47000000000E+01 0. -1.
         -5    1    1    0    0  501  0.47600401052E+01  0.60249772604E+02 -0.15214036920E+02  0.62500000000E+02  0.47000000000E+01 0. -1.
</event>
<event>
 3    0  0.4591805E-005  0.9118800E+02  0.7546771E-02  0.1235069E+00
         25   -1    0    0    0    0  0.00000000000E+00  0.00000000000E+00  0.99999998245E-14  0.12500000000E+03  0.12500000000E+03 0.  0.
          5    1    1    0  501    0 -0.18516096212E+01  0.37121695798E+02 -0.50027105082E+02  0.62500000000E+02  0.47000000000E+01 0. -1.
         -5    1    1    0    0  501  0.18516096212E+01 -0.37121695798E+02  0.50027105082E+02  0.62500000000E+02  0.47000000000E+01 0. -1.
</event>
<event>
 3    0  0.4591805E-005  0.9118800E+02  0.7546771E-02  0.1235069E+00
         25   -1    0    0    0    0  0.00000000000E+00  0.00000000000E+00  0.99999998245E-14  0.12500000000E+03  0.12500000000E+03 0.  0.
          5    1    1    0  501    0  0.53299980564E+02 -0.31977528693E+02 -0.45507945024E+01  0.62500000000E+02  0.47000000000E+01 0.  1.
         -5    1    1    0    0  501 -0.53299980564E+02  0.31977528693E+02  0.45507945024E+01  0.62500000000E+02  0.47000000000E+01 0.  1.
</event>
<event>
 3    0  0.4591805E-005  0.9118800E+02  0.7546771E-02  0.1235069E+00
         25   -1    0    0    0    0  0.00000000000E+00  0.00000000000E+00  0.99999998245E-14  0.12500000000E+03  0.12500000000E+03 0.  0.
          5    1    1    0  501    0 -0.46772777423E+02  0.39482854933E+02  0.11729086003E+02  0.62500000000E+02  0.47000000000E+01 0.  1.
         -5    1    1    0    0  501  0.46772777423E+02 -0.39482854933E+02 -0.11729086003E+02  0.62500000000E+02  0.47000000000E+01 0.  1.
</event>
<event>
 3    0  0.4591805E-005  0.9118800E+02  0.7546771E-02  0.1235069E+00
         25   -1    0    0    0    0  0.00000000000E+00  0.00000000000E+00  0.99999998245E-14  0.12500000000E+03  0.12500000000E+03 0.  0.
          5    1    1    0  501    0 -0.57673349706E+02  0.17439186261E+02  0.15931714166E+02  0.62500000000E+02  0.47000000000E+01 0. -1.
         -5    1    1    0    0  501  0.57673349706E+02 -0.17439186261E+02 -0.15931714166E+02  0.62500000000E+02  0.47000000000E+01 0. -1.
</event>
<event>
 3    0  0.4591805E-005  0.9118800E+02  0.7546771E-02  0.1235069E+00
         25   -1    0    0    0    0  0.00000000000E+00  0.00000000000E+00  0.99999998245E-14  0.12500000000E+03  0.12500000000E+03 0.  0.
          5    1    1    0  501    0 -0.27169195961E+02 -0.26683556318E+02  0.49335409323E+02  0.62500000000E+02  0.47000000000E+01 0. -1.
         -5    1    1    0    0  501  0.27169195961E+02  0.26683556318E+02 -0.49335409323E+02  0.62500000000E+02  0.47000000000E+01 0. -1.
</event>
<event>
 3    0  0.4591805E-005  0.9118800E+02  0.7546771E-02  0.1235069E+00
         25   -1    0    0    0    0  0.00000000000E+00  0.00000000000E+00  0.99999998245E-14  0.12500000000E+03  0.12500000000E+03 0.  0.
          5    1    1    0  501    0 -0.25872687417E+01  0.59934509530E+02 -0.16891435934E+02  0.62500000000E+02  0.47000000000E+01 0.  1.
         -5    1    1    0    0  501  0.25872687417E+01 -0.59934509530E+02  0.16891435934E+02  0.62500000000E+02  0.47000000000E+01 0.  1.
</event>
<event>
 3    0  0.4591805E-005  0.9118800E+02  0.7546771E-02  0.1235069E+00
         25   -1    0    0    0    0  0.00000000000E+00  0.00000000000E+00  0.99999998245E-14  0.12500000000E+03  0.12500000000E+03 0.  0.
          5    1    1    0  501    0 -0.55847037087E+02  0.27497525192E+02  0.30256498256E+01  0.62500000000E+02  0.47000000000E+01 0.  1.
         -5    1    1    0    0  501  0.55847037087E+02 -0.27497525192E+02 -0.30256498256E+01  0.62500000000E+02  0.47000000000E+01 0.  1.
</event>
<event>
 3    0  0.4591805E-005  0.9118800E+02  0.7546771E-02  0.1235069E+00
         25   -1    0    0    0    0  0.00000000000E+00  0.00000000000E+00  0.99999998245E-14  0.12500000000E+03  0.12500000000E+03 0.  0.
          5    1    1    0  501    0 -0.10610789781E+02 -0.61173256099E+02 -0.54225343186E+01  0.62500000000E+02  0.47000000000E+01 0. -1.
         -5    1    1    0    0  501  0.10610789781E+02  0.61173256099E+02  0.54225343186E+01  0.62500000000E+02  0.47000000000E+01 0. -1.
</event>
<event>
 3    0  0.4591805E-005  0.9118800E+02  0.7546771E-02  0.1235069E+00
         25   -1    0    0    0    0  0.00000000000E+00  0.00000000000E+00  0.99999998245E-14  0.12500000000E+03  0.12500000000E+03 0.  0.
          5    1    1    0  501    0 -0.26345645464E+02  0.43515146436E+02 -0.36006929830E+02  0.62500000000E+02  0.47000000000E+01 0. -1.
         -5    1    1    0    0  501  0.26345645464E+02 -0.43515146436E+02  0.36006929830E+02  0.62500000000E+02  0.47000000000E+01 0. -1.
</event>
<event>
 3    0  0.4591805E-005  0.9118800E+02  0.7546771E-02  0.1235069E+00
         25   -1    0    0    0    0  0.00000000000E+00  0.00000000000E+00  0.99999998245E-14  0.12500000000E+03  0.12500000000E+03 0.  0.
          5    1    1    0  501    0 -0.46547177779E+02  0.18181552760E+02  0.37241796145E+02  0.62500000000E+02  0.47000000000E+01 0.  1.
         -5    1    1    0    0  501  0.46547177779E+02 -0.18181552760E+02 -0.37241796145E+02  0.62500000000E+02  0.47000000000E+01 0.  1.
</event>
<event>
 3    0  0.4591805E-005  0.9118800E+02  0.7546771E-02  0.1235069E+00
         25   -1    0    0    0    0  0.00000000000E+00  0.00000000000E+00  0.99999998245E-14  0.12500000000E+03  0.12500000000E+03 0.  0.
          5    1    1    0  501    0  0.35225313374E+02  0.43317828289E+02 -0.27693014464E+02  0.62500000000E+02  0.47000000000E+01 0. -1.
         -5    1    1    0    0  501 -0.35225313374E+02 -0.43317828289E+02  0.27693014464E+02  0.62500000000E+02  0.47000000000E+01 0. -1.
</event>
<event>
 3    0  0.4591805E-005  0.9118800E+02  0.7546771E-02  0.1235069E+00
         25   -1    0    0    0    0  0.00000000000E+00  0.00000000000E+00  0.99999998245E-14  0.12500000000E+03  0.12500000000E+03 0.  0.
          5    1    1    0  501    0  0.12836796006E+02  0.13056825749E+02  0.59572610902E+02  0.62500000000E+02  0.47000000000E+01 0. -1.
         -5    1    1    0    0  501 -0.12836796006E+02 -0.13056825749E+02 -0.59572610902E+02  0.62500000000E+02  0.47000000000E+01 0. -1.
</event>
<event>
 3    0  0.4591805E-005  0.9118800E+02  0.7546771E-02  0.1235069E+00
         25   -1    0    0    0    0  0.00000000000E+00  0.00000000000E+00  0.99999998245E-14  0.12500000000E+03  0.12500000000E+03 0.  0.
          5    1    1    0  501    0 -0.22376679692E+01  0.39146911713E+02 -0.48442462214E+02  0.62500000000E+02  0.47000000000E+01 0.  1.
         -5    1    1    0    0  501  0.22376679692E+01 -0.39146911713E+02  0.48442462214E+02  0.62500000000E+02  0.47000000000E+01 0.  1.
</event>
<event>
 3    0  0.4591805E-005  0.9118800E+02  0.7546771E-02  0.1235069E+00
         25   -1    0    0    0    0  0.00000000000E+00  0.00000000000E+00  0.99999998245E-14  0.12500000000E+03  0.12500000000E+03 0.  0.
          5    1    1    0  501    0 -0.60171338707E+02  0.10622013254E+02 -0.12277737276E+02  0.62500000000E+02  0.47000000000E+01 0. -1.
         -5    1    1    0    0  501  0.60171338707E+02 -0.10622013254E+02  0.12277737276E+02  0.62500000000E+02  0.47000000000E+01 0. -1.
</event>
<event>
 3    0  0.4591805E-005  0.9118800E+02  0.7546771E-02  0.1235069E+00
         25   -1    0    0    0    0  0.00000000000E+00  0.00000000000E+00  0.99999998245E-14  0.12500000000E+03  0.12500000000E+03 0.  0.
          5    1    1    0  501    0 -0.43110910901E+02 -0.32898172211E+02  0.30713508859E+02  0.62500000000E+02  0.47000000000E+01 0. -1.
         -5    1    1    0    0  501  0.43110910901E+02  0.32898172211E+02 -0.30713508859E+02  0.62500000000E+02  0.47000000000E+01 0. -1.
</event>
<event>
 3    0  0.4591805E-005  0.9118800E+02  0.7546771E-02  0.1235069E+00
         25   -1    0    0    0    0  0.00000000000E+00  0.00000000000E+00  0.99999998245E-14  0.12500000000E+03  0.12500000000E+03 0.  0.
          5    1    1    0  501    0  0.14056083919E+02  0.40285692631E+02 -0.45427408842E+02  0.62500000000E+02  0.47000000000E+01 0.  1.
         -5    1    1    0    0  501 -0.14056083919E+02 -0.40285692631E+02  0.45427408842E+02  0.62500000000E+02  0.47000000000E+01 0.  1.
</event>
<event>
 3    0  0.4591805E-005  0.9118800E+02  0.7546771E-02  0.1235069E+00
         25   -1    0    0    0    0  0.00000000000E+00  0.00000000000E+00  0.99999998245E-14  0.12500000000E+03  0.12500000000E+03 0.  0.
          5    1    1    0  501    0 -0.20934954402E+02  0.48933015789E+02  0.32426033522E+02  0.62500000000E+02  0.47000000000E+01 0.  1.
         -5    1    1    0    0  501  0.20934954402E+02 -0.48933015789E+02 -0.32426033522E+02  0.62500000000E+02  0.47000000000E+01 0.  1.
</event>
<event>
 3    0  0.4591805E-005  0.9118800E+02  0.7546771E-02  0.1235069E+00
         25   -1    0    0    0    0  0.00000000000E+00  0.00000000000E+00  0.99999998245E-14  0.12500000000E+03  0.12500000000E+03 0.  0.
          5    1    1    0  501    0 -0.31073869633E+02 -0.34361838842E+02  0.41687392069E+02  0.62500000000E+02  0.47000000000E+01 0.  1.
         -5    1    1    0    0  501  0.31073869633E+02  0.34361838842E+02 -0.41687392069E+02  0.62500000000E+02  0.47000000000E+01 0.  1.
</event>
<event>
 3    0  0.4591805E-005  0.9118800E+02  0.7546771E-02  0.1235069E+00
         25   -1    0    0    0    0  0.00000000000E+00  0.00000000000E+00  0.99999998245E-14  0.12500000000E+03  0.12500000000E+03 0.  0.
          5    1    1    0  501    0  0.48660618848E+02  0.36160979658E+02  0.14446027949E+02  0.62500000000E+02  0.47000000000E+01 0.  1.
         -5    1    1    0    0  501 -0.48660618848E+02 -0.36160979658E+02 -0.14446027949E+02  0.62500000000E+02  0.47000000000E+01 0.  1.
</event>
<event>
 3    0  0.4591805E-005  0.9118800E+02  0.7546771E-02  0.1235069E+00
         25   -1    0    0    0    0  0.00000000000E+00  0.00000000000E+00  0.99999998245E-14  0.12500000000E+03  0.12500000000E+03 0.  0.
          5    1    1    0  501    0 -0.40827481699E+02 -0.42354613947E+02 -0.20575796839E+02  0.62500000000E+02  0.47000000000E+01 0.  1.
         -5    1    1    0    0  501  0.40827481699E+02  0.42354613947E+02  0.20575796839E+02  0.62500000000E+02  0.47000000000E+01 0.  1.
</event>
<event>
 3    0  0.4591805E-005  0.9118800E+02  0.7546771E-02  0.1235069E+00
         25   -1    0    0    0    0  0.00000000000E+00  0.00000000000E+00  0.99999998245E-14  0.12500000000E+03  0.12500000000E+03 0.  0.
          5    1    1    0  501    0 -0.19198661304E+02  0.25327097911E+02 -0.53610722020E+02  0.62500000000E+02  0.47000000000E+01 0. -1.
         -5    1    1    0    0  501  0.19198661304E+02 -0.25327097911E+02  0.53610722020E+02  0.62500000000E+02  0.47000000000E+01 0. -1.
</event>
<event>
 3    0  0.4591805E-005  0.9118800E+02  0.7546771E-02  0.1235069E+00
         25   -1    0    0    0    0  0.00000000000E+00  0.00000000000E+00  0.99999998245E-14  0.12500000000E+03  0.12500000000E+03 0.  0.
          5    1    1    0  501    0 -0.10631534109E+02  0.59887587922E+02 -0.13587026729E+02  0.62500000000E+02  0.47000000000E+01 0.  1.
         -5    1    1    0    0  501  0.10631534109E+02 -0.59887587922E+02  0.13587026729E+02  0.62500000000E+02  0.47000000000E+01 0.  1.
</event>
<event>
 3    0  0.4591805E-005  0.9118800E+02  0.7546771E-02  0.1235069E+00
         25   -1    0    0    0    0  0.00000000000E+00  0.00000000000E+00  0.99999998245E-14  0.12500000000E+03  0.12500000000E+03 0.  0.
          5    1    1    0  501    0 -0.21055016028E+02 -0.12754598178E+02  0.57255275088E+02  0.62500000000E+02  0.47000000000E+01 0.  1.
         -5    1    1    0    0  501  0.21055016028E+02  0.12754598178E+02 -0.57255275088E+02  0.62500000000E+02  0.47000000000E+01 0.  1.
</event>
<event>
 3    0  0.4591805E-005  0.9118800E+02  0.7546771E-02  0.1235069E+00
         25   -1    0    0    0    0  0.00000000000E+00  0.00000000000E+00  0.99999998245E-14  0.12500000000E+03  0.12500000000E+03 0.  0.
          5    1    1    0  501    0  0.24234716261E+02 -0.35223342412E+02  0.45344841791E+02  0.62500000000E+02  0.47000000000E+01 0. -1.
         -5    1    1    0    0  501 -0.24234716261E+02  0.35223342412E+02 -0.45344841791E+02  0.62500000000E+02  0.47000000000E+01 0. -1.
</event>
<event>
 3    0  0.4591805E-005  0.9118800E+02  0.7546771E-02  0.1235069E+00
         25   -1    0    0    0    0  0.00000000000E+00  0.00000000000E+00  0.99999998245E-14  0.12500000000E+03  0.12500000000E+03 0.  0.
          5    1    1    0  501    0  0.33527442378E+02 -0.50894715748E+02 -0.13030675981E+02  0.62500000000E+02  0.47000000000E+01 0. -1.
         -5    1    1    0    0  501 -0.33527442378E+02  0.50894715748E+02  0.13030675981E+02  0.62500000000E+02  0.47000000000E+01 0. -1.
</event>
<event>
 3    0  0.4591805E-005  0.9118800E+02  0.7546771E-02  0.1235069E+00
         25   -1    0    0    0    0  0.00000000000E+00  0.00000000000E+00  0.99999998245E-14  0.12500000000E+03  0.12500000000E+03 0.  0.
          5    1    1    0  501    0  0.11650733463E+01  0.43670313601E+01 -0.62158922458E+02  0.62500000000E+02  0.47000000000E+01 0.  1.
         -5    1    1    0    0  501 -0.11650733463E+01 -0.43670313601E+01  0.62158922458E+02  0.62500000000E+02  0.47000000000E+01 0.  1.
</event>
<event>
 3    0  0.4591805E-005  0.9118800E+02  0.7546771E-02  0.1235069E+00
         25   -1    0    0    0    0  0.00000000000E+00  0.00000000000E+00  0.99999998245E-14  0.12500000000E+03  0.12500000000E+03 0.  0.
          5    1    1    0  501    0  0.43445613285E+02 -0.21564089107E+02 -0.39136028763E+02  0.62500000000E+02  0.47000000000E+01 0.  1.
         -5    1    1    0    0  501 -0.43445613285E+02  0.21564089107E+02  0.39136028763E+02  0.62500000000E+02  0.47000000000E+01 0.  1.
</event>
<event>
 3    0  0.4591805E-005  0.9118800E+02  0.7546771E-02  0.1235069E+00
         25   -1    0    0    0    0  0.00000000000E+00  0.00000000000E+00  0.99999998245E-14  0.12500000000E+03  0.12500000000E+03 0.  0.
          5    1    1    0  501    0  0.50837824941E+02  0.14489739744E+01  0.36021882651E+02  0.62500000000E+02  0.47000000000E+01 0.  1.
         -5    1    1    0    0  501 -0.50837824941E+02 -0.14489739744E+01 -0.36021882651E+02  0.62500000000E+02  0.47000000000E+01 0.  1.
</event>
<event>
 3    0  0.4591805E-005  0.9118800E+02  0.7546771E-02  0.1235069E+00
         25   -1    0    0    0    0  0.00000000000E+00  0.00000000000E+00  0.99999998245E-14  0.12500000000E+03  0.12500000000E+03 0.  0.
          5    1    1    0  501    0 -0.11562620759E+01  0.62067858671E+02  0.55139802324E+01  0.62500000000E+02  0.47000000000E+01 0.  1.
         -5    1    1    0    0  501  0.11562620759E+01 -0.62067858671E+02 -0.55139802324E+01  0.62500000000E+02  0.47000000000E+01 0.  1.
</event>
<event>
 3    0  0.4591805E-005  0.9118800E+02  0.7546771E-02  0.1235069E+00
         25   -1    0    0    0    0  0.00000000000E+00  0.00000000000E+00  0.99999998245E-14  0.12500000000E+03  0.12500000000E+03 0.  0.
          5    1    1    0  501    0 -0.15957106393E+02  0.12881542628E+02 -0.58852328884E+02  0.62500000000E+02  0.47000000000E+01 0. -1.
         -5    1    1    0    0  501  0.15957106393E+02 -0.12881542628E+02  0.58852328884E+02  0.62500000000E+02  0.47000000000E+01 0. -1.
</event>
<event>
 3    0  0.4591805E-005  0.9118800E+02  0.7546771E-02  0.1235069E+00
         25   -1    0    0    0    0  0.00000000000E+00  0.00000000000E+00  0.99999998245E-14  0.12500000000E+03  0.12500000000E+03 0.  0.
          5    1    1    0  501    0 -0.31031688723E+02 -0.54044182348E+02  0.64857486682E+00  0.62500000000E+02  0.47000000000E+01 0.  1.
         -5    1    1    0    0  501  0.31031688723E+02  0.54044182348E+02 -0.64857486682E+00  0.62500000000E+02  0.47000000000E+01 0.  1.
</event>
<event>
 3    0  0.4591805E-005  0.9118800E+02  0.7546771E-02  0.1235069E+00
         25   -1    0    0    0    0  0.00000000000E+00  0.00000000000E+00  0.99999998245E-14  0.12500000000E+03  0.12500000000E+03 0.  0.
          5    1    1    0  501    0  0.53802023650E+02 -0.14593984676E+02 -0.27866070093E+02  0.62500000000E+02  0.47000000000E+01 0. -1.
         -5    1    1    0    0  501 -0.53802023650E+02  0.14593984676E+02  0.27866070093E+02  0.62500000000E+02  0.47000000000E+01 0. -1.
</event>
<event>
 3    0  0.4591805E-005  0.9118800E+02  0.7546771E-02  0.1235069E+00
         25   -1    0    0    0    0  0.00000000000E+00  0.00000000000E+00  0.99999998245E-14  0.12500000000E+03  0.12500000000E+03 0.  0.
          5    1    1    0  501    0 -0.29047723903E+01  0.57100307525E+02 -0.24804781351E+02  0.62500000000E+02  0.47000000000E+01 0. -1.
         -5    1    1    0    0  501  0.29047723903E+01 -0.57100307525E+02  0.24804781351E+02  0.62500000000E+02  0.47000000000E+01 0. -1.
</event>
<event>
 3    0  0.4591805E-005  0.9118800E+02  0.7546771E-02  0.1235069E+00
         25   -1    0    0    0    0  0.00000000000E+00  0.00000000000E+00  0.99999998245E-14  0.12500000000E+03  0.12500000000E+03 0.  0.
          5    1    1    0  501    0 -0.14621442343E+02 -0.22251224794E+02  0.56349413653E+02  0.62500000000E+02  0.47000000000E+01 0.  1.
         -5    1    1    0    0  501  0.14621442343E+02  0.22251224794E+02 -0.56349413653E+02  0.62500000000E+02  0.47000000000E+01 0.  1.
</event>
<event>
 3    0  0.4591805E-005  0.9118800E+02  0.7546771E-02  0.1235069E+00
         25   -1    0    0    0    0  0.00000000000E+00  0.00000000000E+00  0.99999998245E-14  0.12500000000E+03  0.12500000000E+03 0.  0.
          5    1    1    0  501    0  0.83356615090E+01 -0.43627844875E+02 -0.43718278772E+02  0.62500000000E+02  0.47000000000E+01 0.  1.
         -5    1    1    0    0  501 -0.83356615090E+01  0.43627844875E+02  0.43718278772E+02  0.62500000000E+02  0.47000000000E+01 0.  1.
</event>
<event>
 3    0  0.4591805E-005  0.9118800E+02  0.7546771E-02  0.1235069E+00
         25   -1    0    0    0    0  0.00000000000E+00  0.00000000000E+00  0.99999998245E-14  0.12500000000E+03  0.12500000000E+03 0.  0.
          5    1    1    0  501    0 -0.55528464921E+02  0.15946822426E+02 -0.23376236609E+02  0.62500000000E+02  0.47000000000E+01 0.  1.
         -5    1    1    0    0  501  0.55528464921E+02 -0.15946822426E+02  0.23376236609E+02  0.62500000000E+02  0.47000000000E+01 0.  1.
</event>
<event>
 3    0  0.4591805E-005  0.9118800E+02  0.7546771E-02  0.1235069E+00
         25   -1    0    0    0    0  0.00000000000E+00  0.00000000000E+00  0.99999998245E-14  0.12500000000E+03  0.12500000000E+03 0.  0.
          5    1    1    0  501    0 -0.53142027052E+02  0.11129826952E+02  0.30597580179E+02  0.62500000000E+02  0.47000000000E+01 0. -1.
         -5    1    1    0    0  501  0.53142027052E+02 -0.11129826952E+02 -0.30597580179E+02  0.62500000000E+02  0.47000000000E+01 0. -1.
</event>
<event>
 3    0  0.4591805E-005  0.9118800E+02  0.7546771E-02  0.1235069E+00
         25   -1    0    0    0    0  0.00000000000E+00  0.00000000000E+00  0.99999998245E-14  0.12500000000E+03  0.12500000000E+03 0.  0.
          5    1    1    0  501    0 -0.50002242616E+02  0.29165618765E+02 -0.23093341366E+02  0.62500000000E+02  0.47000000000E+01 0. -1.
         -5    1    1    0    0  501  0.50002242616E+02 -0.29165618765E+02  0.23093341366E+02  0.62500000000E+02  0.47000000000E+01 0. -1.
</event>
<event>
 3    0  0.4591805E-005  0.9118800E+02  0.7546771E-02  0.1235069E+00
         25   -1    0    0    0    0  0.00000000000E+00  0.00000000000E+00  0.99999998245E-14  0.12500000000E+03  0.12500000000E+03 0.  0.
          5    1    1    0  501    0 -0.35706639776E+02 -0.29940223198E+02  0.41385733179E+02  0.62500000000E+02  0.47000000000E+01 0. -1.
         -5    1    1    0    0  501  0.35706639776E+02  0.29940223198E+02 -0.41385733179E+02  0.62500000000E+02  0.47000000000E+01 0. -1.
</event>
<event>
 3    0  0.4591805E-005  0.9118800E+02  0.7546771E-02  0.1235069E+00
         25   -1    0    0    0    0  0.00000000000E+00  0.00000000000E+00  0.99999998245E-14  0.12500000000E+03  0.12500000000E+03 0.  0.
          5    1    1    0  501    0 -0.59976151836E+02 -0.34862938272E+01 -0.16579112351E+02  0.62500000000E+02  0.47000000000E+01 0. -1.
         -5    1    1    0    0  501  0.59976151836E+02  0.34862938272E+01  0.16579112351E+02  0.62500000000E+02  0.47000000000E+01 0. -1.
</event>
<event>
 3    0  0.4591805E-005  0.9118800E+02  0.7546771E-02  0.1235069E+00
         25   -1    0    0    0    0  0.00000000000E+00  0.00000000000E+00  0.99999998245E-14  0.12500000000E+03  0.12500000000E+03 0.  0.
          5    1    1    0  501    0 -0.37284003802E+01  0.34089660831E+02 -0.52039927508E+02  0.62500000000E+02  0.47000000000E+01 0. -1.
         -5    1    1    0    0  501  0.37284003802E+01 -0.34089660831E+02  0.52039927508E+02  0.62500000000E+02  0.47000000000E+01 0. -1.
</event>
<event>
 3    0  0.4591805E-005  0.9118800E+02  0.7546771E-02  0.1235069E+00
         25   -1    0    0    0    0  0.00000000000E+00  0.00000000000E+00  0.99999998245E-14  0.12500000000E+03  0.12500000000E+03 0.  0.
          5    1    1    0  501    0 -0.66847835820E+00  0.42949891308E+02 -0.45155508781E+02  0.62500000000E+02  0.47000000000E+01 0. -1.
         -5    1    1    0    0  501  0.66847835820E+00 -0.42949891308E+02  0.45155508781E+02  0.62500000000E+02  0.47000000000E+01 0. -1.
</event>
<event>
 3    0  0.4591805E-005  0.9118800E+02  0.7546771E-02  0.1235069E+00
         25   -1    0    0    0    0  0.00000000000E+00  0.00000000000E+00  0.99999998245E-14  0.12500000000E+03  0.12500000000E+03 0.  0.
          5    1    1    0  501    0 -0.23244775427E+00 -0.57740984777E+02 -0.23453883366E+02  0.62500000000E+02  0.47000000000E+01 0. -1.
         -5    1    1    0    0  501  0.23244775427E+00  0.57740984777E+02  0.23453883366E+02  0.62500000000E+02  0.47000000000E+01 0. -1.
</event>
<event>
 3    0  0.4591805E-005  0.9118800E+02  0.7546771E-02  0.1235069E+00
         25   -1    0    0    0    0  0.00000000000E+00  0.00000000000E+00  0.99999998245E-14  0.12500000000E+03  0.12500000000E+03 0.  0.
          5    1    1    0  501    0 -0.11100055916E+01  0.19027209041E+02 -0.59337114892E+02  0.62500000000E+02  0.47000000000E+01 0.  1.
         -5    1    1    0    0  501  0.11100055916E+01 -0.19027209041E+02  0.59337114892E+02  0.62500000000E+02  0.47000000000E+01 0.  1.
</event>
<event>
 3    0  0.4591805E-005  0.9118800E+02  0.7546771E-02  0.1235069E+00
         25   -1    0    0    0    0  0.00000000000E+00  0.00000000000E+00  0.99999998245E-14  0.12500000000E+03  0.12500000000E+03 0.  0.
          5    1    1    0  501    0  0.21773685038E+02 -0.20180983766E+01 -0.58360893746E+02  0.62500000000E+02  0.47000000000E+01 0. -1.
         -5    1    1    0    0  501 -0.21773685038E+02  0.20180983766E+01  0.58360893746E+02  0.62500000000E+02  0.47000000000E+01 0. -1.
</event>
<event>
 3    0  0.4591805E-005  0.9118800E+02  0.7546771E-02  0.1235069E+00
         25   -1    0    0    0    0  0.00000000000E+00  0.00000000000E+00  0.99999998245E-14  0.12500000000E+03  0.12500000000E+03 0.  0.
          5    1    1    0  501    0 -0.65108155977E+01  0.54148754155E+02  0.30160930088E+02  0.62500000000E+02  0.47000000000E+01 0. -1.
         -5    1    1    0    0  501  0.65108155977E+01 -0.54148754155E+02 -0.30160930088E+02  0.62500000000E+02  0.47000000000E+01 0. -1.
</event>
<event>
 3    0  0.4591805E-005  0.9118800E+02  0.7546771E-02  0.1235069E+00
         25   -1    0    0    0    0  0.00000000000E+00  0.00000000000E+00  0.99999998245E-14  0.12500000000E+03  0.12500000000E+03 0.  0.
          5    1    1    0  501    0  0.10415241173E+01 -0.52138219696E+02  0.34127427011E+02  0.62500000000E+02  0.47000000000E+01 0.  1.
         -5    1    1    0    0  501 -0.10415241173E+01  0.52138219696E+02 -0.34127427011E+02  0.62500000000E+02  0.47000000000E+01 0.  1.
</event>
<event>
 3    0  0.4591805E-005  0.9118800E+02  0.7546771E-02  0.1235069E+00
         25   -1    0    0    0    0  0.00000000000E+00  0.00000000000E+00  0.99999998245E-14  0.12500000000E+03  0.12500000000E+03 0.  0.
          5    1    1    0  501    0  0.19936680743E+02 -0.57631913196E+02  0.12855012339E+02  0.62500000000E+02  0.47000000000E+01 0.  1.
         -5    1    1    0    0  501 -0.19936680743E+02  0.57631913196E+02 -0.12855012339E+02  0.62500000000E+02  0.47000000000E+01 0.  1.
</event>
<event>
 3    0  0.4591805E-005  0.9118800E+02  0.7546771E-02  0.1235069E+00
         25   -1    0    0    0    0  0.00000000000E+00  0.00000000000E+00  0.99999998245E-14  0.12500000000E+03  0.12500000000E+03 0.  0.
          5    1    1    0  501    0 -0.34810378546E+02  0.59828054080E+01 -0.51347868358E+02  0.62500000000E+02  0.47000000000E+01 0. -1.
         -5    1    1    0    0  501  0.34810378546E+02 -0.59828054080E+01  0.51347868358E+02  0.62500000000E+02  0.47000000000E+01 0. -1.
</event>
<event>
 3    0  0.4591805E-005  0.9118800E+02  0.7546771E-02  0.1235069E+00
         25   -1    0    0    0    0  0.00000000000E+00  0.00000000000E+00  0.99999998245E-14  0.12500000000E+03  0.12500000000E+03 0.  0.
          5    1    1    0  501    0  0.92840954125E+01 -0.58892351990E+02  0.18156443746E+02  0.62500000000E+02  0.47000000000E+01 0.  1.
         -5    1    1    0    0  501 -0.92840954125E+01  0.58892351990E+02 -0.18156443746E+02  0.62500000000E+02  0.47000000000E+01 0.  1.
</event>
<event>
 3    0  0.4591805E-005  0.9118800E+02  0.7546771E-02  0.1235069E+00
         25   -1    0    0    0    0  0.00000000000E+00  0.00000000000E+00  0.99999998245E-14  0.12500000000E+03  0.12500000000E+03 0.  0.
          5    1    1    0  501    0  0.26802800361E+02  0.54556326650E+02 -0.13761435798E+02  0.62500000000E+02  0.47000000000E+01 0. -1.
         -5    1    1    0    0  501 -0.26802800361E+02 -0.54556326650E+02  0.13761435798E+02  0.62500000000E+02  0.47000000000E+01 0. -1.
</event>
<event>
 3    0  0.4591805E-005  0.9118800E+02  0.7546771E-02  0.1235069E+00
         25   -1    0    0    0    0  0.00000000000E+00  0.00000000000E+00  0.99999998245E-14  0.12500000000E+03  0.12500000000E+03 0.  0.
          5    1    1    0  501    0 -0.44061262396E+02  0.29792492049E+02 -0.32483419980E+02  0.62500000000E+02  0.47000000000E+01 0.  1.
         -5    1    1    0    0  501  0.44061262396E+02 -0.29792492049E+02  0.32483419980E+02  0.62500000000E+02  0.47000000000E+01 0.  1.
</event>
<event>
 3    0  0.4591805E-005  0.9118800E+02  0.7546771E-02  0.1235069E+00
         25   -1    0    0    0    0  0.00000000000E+00  0.00000000000E+00  0.99999998245E-14  0.12500000000E+03  0.12500000000E+03 0.  0.
          5    1    1    0  501    0  0.47299507203E+02  0.36323678201E+02  0.18097155032E+02  0.62500000000E+02  0.47000000000E+01 0. -1.
         -5    1    1    0    0  501 -0.47299507203E+02 -0.36323678201E+02 -0.18097155032E+02  0.62500000000E+02  0.47000000000E+01 0. -1.
</event>
<event>
 3    0  0.4591805E-005  0.9118800E+02  0.7546771E-02  0.1235069E+00
         25   -1    0    0    0    0  0.00000000000E+00  0.00000000000E+00  0.99999998245E-14  0.12500000000E+03  0.12500000000E+03 0.  0.
          5    1    1    0  501    0 -0.59529853943E+02 -0.17251558748E+02 -0.65375997343E+01  0.62500000000E+02  0.47000000000E+01 0.  1.
         -5    1    1    0    0  501  0.59529853943E+02  0.17251558748E+02  0.65375997343E+01  0.62500000000E+02  0.47000000000E+01 0.  1.
</event>
<event>
 3    0  0.4591805E-005  0.9118800E+02  0.7546771E-02  0.1235069E+00
         25   -1    0    0    0    0  0.00000000000E+00  0.00000000000E+00  0.99999998245E-14  0.12500000000E+03  0.12500000000E+03 0.  0.
          5    1    1    0  501    0 -0.33600852817E+02  0.14551689585E+02  0.50432043586E+02  0.62500000000E+02  0.47000000000E+01 0.  1.
         -5    1    1    0    0  501  0.33600852817E+02 -0.14551689585E+02 -0.50432043586E+02  0.62500000000E+02  0.47000000000E+01 0.  1.
</event>
<event>
 3    0  0.4591805E-005  0.9118800E+02  0.7546771E-02  0.1235069E+00
         25   -1    0    0    0    0  0.00000000000E+00  0.00000000000E+00  0.99999998245E-14  0.12500000000E+03  0.12500000000E+03 0.  0.
          5    1    1    0  501    0 -0.23250198219E+02  0.43092316491E+02  0.38556977867E+02  0.62500000000E+02  0.47000000000E+01 0.  1.
         -5    1    1    0    0  501  0.23250198219E+02 -0.43092316491E+02 -0.38556977867E+02  0.62500000000E+02  0.47000000000E+01 0.  1.
</event>
<event>
 3    0  0.4591805E-005  0.9118800E+02  0.7546771E-02  0.1235069E+00
         25   -1    0    0    0    0  0.00000000000E+00  0.00000000000E+00  0.99999998245E-14  0.12500000000E+03  0.12500000000E+03 0.  0.
          5    1    1    0  501    0 -0.55639629118E+02 -0.10117736519E+02 -0.26192042290E+02  0.62500000000E+02  0.47000000000E+01 0.  1.
         -5    1    1    0    0  501  0.55639629118E+02  0.10117736519E+02  0.26192042290E+02  0.62500000000E+02  0.47000000000E+01 0.  1.
</event>
<event>
 3    0  0.4591805E-005  0.9118800E+02  0.7546771E-02  0.1235069E+00
         25   -1    0    0    0    0  0.00000000000E+00  0.00000000000E+00  0.99999998245E-14  0.12500000000E+03  0.12500000000E+03 0.  0.
          5    1    1    0  501    0  0.61029190548E+02 -0.35669813407E+01 -0.12119180878E+02  0.62500000000E+02  0.47000000000E+01 0. -1.
         -5    1    1    0    0  501 -0.61029190548E+02  0.35669813407E+01  0.12119180878E+02  0.62500000000E+02  0.47000000000E+01 0. -1.
</event>
<event>
 3    0  0.4591805E-005  0.9118800E+02  0.7546771E-02  0.1235069E+00
         25   -1    0    0    0    0  0.00000000000E+00  0.00000000000E+00  0.99999998245E-14  0.12500000000E+03  0.12500000000E+03 0.  0.
          5    1    1    0  501    0  0.64552363171E+01 -0.52639924797E+02 -0.32734205984E+02  0.62500000000E+02  0.47000000000E+01 0. -1.
         -5    1    1    0    0  501 -0.64552363171E+01  0.52639924797E+02  0.32734205984E+02  0.62500000000E+02  0.47000000000E+01 0. -1.
</event>
<event>
 3    0  0.4591805E-005  0.9118800E+02  0.7546771E-02  0.1235069E+00
         25   -1    0    0    0    0  0.00000000000E+00  0.00000000000E+00  0.99999998245E-14  0.12500000000E+03  0.12500000000E+03 0.  0.
          5    1    1    0  501    0 -0.13296902501E+01  0.58630603404E+02 -0.21091331591E+02  0.62500000000E+02  0.47000000000E+01 0.  1.
         -5    1    1    0    0  501  0.13296902501E+01 -0.58630603404E+02  0.21091331591E+02  0.62500000000E+02  0.47000000000E+01 0.  1.
</event>
<event>
 3    0  0.4591805E-005  0.9118800E+02  0.7546771E-02  0.1235069E+00
         25   -1    0    0    0    0  0.00000000000E+00  0.00000000000E+00  0.99999998245E-14  0.12500000000E+03  0.12500000000E+03 0.  0.
          5    1    1    0  501    0 -0.39883781888E+02 -0.15883355093E+02 -0.45179231659E+02  0.62500000000E+02  0.47000000000E+01 0. -1.
         -5    1    1    0    0  501  0.39883781888E+02  0.15883355093E+02  0.45179231659E+02  0.62500000000E+02  0.47000000000E+01 0. -1.
</event>
<event>
 3    0  0.4591805E-005  0.9118800E+02  0.7546771E-02  0.1235069E+00
         25   -1    0    0    0    0  0.00000000000E+00  0.00000000000E+00  0.99999998245E-14  0.12500000000E+03  0.12500000000E+03 0.  0.
          5    1    1    0  501    0 -0.43711085328E+02  0.39915126461E+02  0.19500864059E+02  0.62500000000E+02  0.47000000000E+01 0.  1.
         -5    1    1    0    0  501  0.43711085328E+02 -0.39915126461E+02 -0.19500864059E+02  0.62500000000E+02  0.47000000000E+01 0.  1.
</event>
<event>
 3    0  0.4591805E-005  0.9118800E+02  0.7546771E-02  0.1235069E+00
         25   -1    0    0    0    0  0.00000000000E+00  0.00000000000E+00  0.99999998245E-14  0.12500000000E+03  0.12500000000E+03 0.  0.
          5    1    1    0  501    0  0.63137930545E+01 -0.50443841931E+02 -0.36051557920E+02  0.62500000000E+02  0.47000000000E+01 0.  1.
         -5    1    1    0    0  501 -0.63137930545E+01  0.50443841931E+02  0.36051557920E+02  0.62500000000E+02  0.47000000000E+01 0.  1.
</event>
<event>
 3    0  0.4591805E-005  0.9118800E+02  0.7546771E-02  0.1235069E+00
         25   -1    0    0    0    0  0.00000000000E+00  0.00000000000E+00  0.99999998245E-14  0.12500000000E+03  0.12500000000E+03 0.  0.
          5    1    1    0  501    0 -0.41708506314E+02  0.25915094961E+02 -0.38379269850E+02  0.62500000000E+02  0.47000000000E+01 0.  1.
         -5    1    1    0    0  501  0.41708506314E+02 -0.25915094961E+02  0.38379269850E+02  0.62500000000E+02  0.47000000000E+01 0.  1.
</event>
<event>
 3    0  0.4591805E-005  0.9118800E+02  0.7546771E-02  0.1235069E+00
         25   -1    0    0    0    0  0.00000000000E+00  0.00000000000E+00  0.99999998245E-14  0.12500000000E+03  0.12500000000E+03 0.  0.
          5    1    1    0  501    0 -0.44172720046E+01 -0.45892507030E+02  0.41934776815E+02  0.62500000000E+02  0.47000000000E+01 0. -1.
         -5    1    1    0    0  501  0.44172720046E+01  0.45892507030E+02 -0.41934776815E+02  0.62500000000E+02  0.47000000000E+01 0. -1.
</event>
<event>
 3    0  0.4591805E-005  0.9118800E+02  0.7546771E-02  0.1235069E+00
         25   -1    0    0    0    0  0.00000000000E+00  0.00000000000E+00  0.99999998245E-14  0.12500000000E+03  0.12500000000E+03 0.  0.
          5    1    1    0  501    0  0.31715643369E+02  0.50208193240E+02  0.18905430365E+02  0.62500000000E+02  0.47000000000E+01 0. -1.
         -5    1    1    0    0  501 -0.31715643369E+02 -0.50208193240E+02 -0.18905430365E+02  0.62500000000E+02  0.47000000000E+01 0. -1.
</event>
<event>
 3    0  0.4591805E-005  0.9118800E+02  0.7546771E-02  0.1235069E+00
         25   -1    0    0    0    0  0.00000000000E+00  0.00000000000E+00  0.99999998245E-14  0.12500000000E+03  0.12500000000E+03 0.  0.
          5    1    1    0  501    0 -0.64361723088E+01 -0.37349923520E+02  0.49474426718E+02  0.62500000000E+02  0.47000000000E+01 0.  1.
         -5    1    1    0    0  501  0.64361723088E+01  0.37349923520E+02 -0.49474426718E+02  0.62500000000E+02  0.47000000000E+01 0.  1.
</event>
<event>
 3    0  0.4591805E-005  0.9118800E+02  0.7546771E-02  0.1235069E+00
         25   -1    0    0    0    0  0.00000000000E+00  0.00000000000E+00  0.99999998245E-14  0.12500000000E+03  0.12500000000E+03 0.  0.
          5    1    1    0  501    0  0.82120409853E+01 -0.45811281815E+02 -0.41449352724E+02  0.62500000000E+02  0.47000000000E+01 0.  1.
         -5    1    1    0    0  501 -0.82120409853E+01  0.45811281815E+02  0.41449352724E+02  0.62500000000E+02  0.47000000000E+01 0.  1.
</event>
<event>
 3    0  0.4591805E-005  0.9118800E+02  0.7546771E-02  0.1235069E+00
         25   -1    0    0    0    0  0.00000000000E+00  0.00000000000E+00  0.99999998245E-14  0.12500000000E+03  0.12500000000E+03 0.  0.
          5    1    1    0  501    0 -0.30976297152E+02 -0.23036572727E+02 -0.48927960633E+02  0.62500000000E+02  0.47000000000E+01 0.  1.
         -5    1    1    0    0  501  0.30976297152E+02  0.23036572727E+02  0.48927960633E+02  0.62500000000E+02  0.47000000000E+01 0.  1.
</event>
<event>
 3    0  0.4591805E-005  0.9118800E+02  0.7546771E-02  0.1235069E+00
         25   -1    0    0    0    0  0.00000000000E+00  0.00000000000E+00  0.99999998245E-14  0.12500000000E+03  0.12500000000E+03 0.  0.
          5    1    1    0  501    0  0.22888391939E+02  0.53334877786E+02  0.22708419716E+02  0.62500000000E+02  0.47000000000E+01 0. -1.
         -5    1    1    0    0  501 -0.22888391939E+02 -0.53334877786E+02 -0.22708419716E+02  0.62500000000E+02  0.47000000000E+01 0. -1.
</event>
<event>
 3    0  0.4591805E-005  0.9118800E+02  0.7546771E-02  0.1235069E+00
         25   -1    0    0    0    0  0.00000000000E+00  0.00000000000E+00  0.99999998245E-14  0.12500000000E+03  0.12500000000E+03 0.  0.
          5    1    1    0  501    0 -0.14005695871E+02  0.96496578034E+00  0.60721242776E+02  0.62500000000E+02  0.47000000000E+01 0.  1.
         -5    1    1    0    0  501  0.14005695871E+02 -0.96496578034E+00 -0.60721242776E+02  0.62500000000E+02  0.47000000000E+01 0.  1.
</event>
<event>
 3    0  0.4591805E-005  0.9118800E+02  0.7546771E-02  0.1235069E+00
         25   -1    0    0    0    0  0.00000000000E+00  0.00000000000E+00  0.99999998245E-14  0.12500000000E+03  0.12500000000E+03 0.  0.
          5    1    1    0  501    0 -0.36907686374E+02 -0.46460888617E+02  0.19062227453E+02  0.62500000000E+02  0.47000000000E+01 0.  1.
         -5    1    1    0    0  501  0.36907686374E+02  0.46460888617E+02 -0.19062227453E+02  0.62500000000E+02  0.47000000000E+01 0.  1.
</event>
<event>
 3    0  0.4591805E-005  0.9118800E+02  0.7546771E-02  0.1235069E+00
         25   -1    0    0    0    0  0.00000000000E+00  0.00000000000E+00  0.99999998245E-14  0.12500000000E+03  0.12500000000E+03 0.  0.
          5    1    1    0  501    0  0.47747823649E+02 -0.36373464600E+02 -0.16771297200E+02  0.62500000000E+02  0.47000000000E+01 0.  1.
         -5    1    1    0    0  501 -0.47747823649E+02  0.36373464600E+02  0.16771297200E+02  0.62500000000E+02  0.47000000000E+01 0.  1.
</event>
<event>
 3    0  0.4591805E-005  0.9118800E+02  0.7546771E-02  0.1235069E+00
         25   -1    0    0    0    0  0.00000000000E+00  0.00000000000E+00  0.99999998245E-14  0.12500000000E+03  0.12500000000E+03 0.  0.
          5    1    1    0  501    0 -0.57390537570E+02  0.14046643590E+02 -0.19828716582E+02  0.62500000000E+02  0.47000000000E+01 0. -1.
         -5    1    1    0    0  501  0.57390537570E+02 -0.14046643590E+02  0.19828716582E+02  0.62500000000E+02  0.47000000000E+01 0. -1.
</event>
<event>
 3    0  0.4591805E-005  0.9118800E+02  0.7546771E-02  0.1235069E+00
         25   -1    0    0    0    0  0.00000000000E+00  0.00000000000E+00  0.99999998245E-14  0.12500000000E+03  0.12500000000E+03 0.  0.
          5    1    1    0  501    0 -0.38431757047E+02  0.41613646600E+02 -0.25989699247E+02  0.62500000000E+02  0.47000000000E+01 0.  1.
         -5    1    1    0    0  501  0.38431757047E+02 -0.41613646600E+02  0.25989699247E+02  0.62500000000E+02  0.47000000000E+01 0.  1.
</event>
<event>
 3    0  0.4591805E-005  0.9118800E+02  0.7546771E-02  0.1235069E+00
         25   -1    0    0    0    0  0.00000000000E+00  0.00000000000E+00  0.99999998245E-14  0.12500000000E+03  0.12500000000E+03 0.  0.
          5    1    1    0  501    0 -0.54842726717E+02  0.28677696712E+02 -0.73501726201E+01  0.62500000000E+02  0.47000000000E+01 0.  1.
         -5    1    1    0    0  501  0.54842726717E+02 -0.28677696712E+02  0.73501726201E+01  0.62500000000E+02  0.47000000000E+01 0.  1.
</event>
<event>
 3    0  0.4591805E-005  0.9118800E+02  0.7546771E-02  0.1235069E+00
         25   -1    0    0    0    0  0.00000000000E+00  0.00000000000E+00  0.99999998245E-14  0.12500000000E+03  0.12500000000E+03 0.  0.
          5    1    1    0  501    0  0.51238067125E+02 -0.20988671747E+02 -0.28605875893E+02  0.62500000000E+02  0.47000000000E+01 0. -1.
         -5    1    1    0    0  501 -0.51238067125E+02  0.20988671747E+02  0.28605875893E+02  0.62500000000E+02  0.47000000000E+01 0. -1.
</event>
<event>
 3    0  0.4591805E-005  0.9118800E+02  0.7546771E-02  0.1235069E+00
         25   -1    0    0    0    0  0.00000000000E+00  0.00000000000E+00  0.99999998245E-14  0.12500000000E+03  0.12500000000E+03 0.  0.
          5    1    1    0  501    0 -0.48326065792E+02 -0.13842581626E+02  0.36839303725E+02  0.62500000000E+02  0.47000000000E+01 0. -1.
         -5    1    1    0    0  501  0.48326065792E+02  0.13842581626E+02 -0.36839303725E+02  0.62500000000E+02  0.47000000000E+01 0. -1.
</event>
<event>
 3    0  0.4591805E-005  0.9118800E+02  0.7546771E-02  0.1235069E+00
         25   -1    0    0    0    0  0.00000000000E+00  0.00000000000E+00  0.99999998245E-14  0.12500000000E+03  0.12500000000E+03 0.  0.
          5    1    1    0  501    0  0.26025371641E+02 -0.28915238440E+02  0.48690338024E+02  0.62500000000E+02  0.47000000000E+01 0.  1.
         -5    1    1    0    0  501 -0.26025371641E+02  0.28915238440E+02 -0.48690338024E+02  0.62500000000E+02  0.47000000000E+01 0.  1.
</event>
<event>
 3    0  0.4591805E-005  0.9118800E+02  0.7546771E-02  0.1235069E+00
         25   -1    0    0    0    0  0.00000000000E+00  0.00000000000E+00  0.99999998245E-14  0.12500000000E+03  0.12500000000E+03 0.  0.
          5    1    1    0  501    0  0.19076906320E+02 -0.18941851406E+02  0.56226665476E+02  0.62500000000E+02  0.47000000000E+01 0. -1.
         -5    1    1    0    0  501 -0.19076906320E+02  0.18941851406E+02 -0.56226665476E+02  0.62500000000E+02  0.47000000000E+01 0. -1.
</event>
<event>
 3    0  0.4591805E-005  0.9118800E+02  0.7546771E-02  0.1235069E+00
         25   -1    0    0    0    0  0.00000000000E+00  0.00000000000E+00  0.99999998245E-14  0.12500000000E+03  0.12500000000E+03 0.  0.
          5    1    1    0  501    0  0.20159154483E+01  0.45424394521E+02  0.42623003969E+02  0.62500000000E+02  0.47000000000E+01 0. -1.
         -5    1    1    0    0  501 -0.20159154483E+01 -0.45424394521E+02 -0.42623003969E+02  0.62500000000E+02  0.47000000000E+01 0. -1.
</event>
<event>
 3    0  0.4591805E-005  0.9118800E+02  0.7546771E-02  0.1235069E+00
         25   -1    0    0    0    0  0.00000000000E+00  0.00000000000E+00  0.99999998245E-14  0.12500000000E+03  0.12500000000E+03 0.  0.
          5    1    1    0  501    0 -0.58323198511E+02  0.11541973307E+02 -0.18690836460E+02  0.62500000000E+02  0.47000000000E+01 0. -1.
         -5    1    1    0    0  501  0.58323198511E+02 -0.11541973307E+02  0.18690836460E+02  0.62500000000E+02  0.47000000000E+01 0. -1.
</event>
<event>
 3    0  0.4591805E-005  0.9118800E+02  0.7546771E-02  0.1235069E+00
         25   -1    0    0    0    0  0.00000000000E+00  0.00000000000E+00  0.99999998245E-14  0.12500000000E+03  0.12500000000E+03 0.  0.
          5    1    1    0  501    0 -0.18387905431E+02  0.41159432467E+02 -0.43034242794E+02  0.62500000000E+02  0.47000000000E+01 0. -1.
         -5    1    1    0    0  501  0.18387905431E+02 -0.41159432467E+02  0.43034242794E+02  0.62500000000E+02  0.47000000000E+01 0. -1.
</event>
<event>
 3    0  0.4591805E-005  0.9118800E+02  0.7546771E-02  0.1235069E+00
         25   -1    0    0    0    0  0.00000000000E+00  0.00000000000E+00  0.99999998245E-14  0.12500000000E+03  0.12500000000E+03 0.  0.
          5    1    1    0  501    0 -0.11075808785E+02 -0.17137185091E+02 -0.58888057761E+02  0.62500000000E+02  0.47000000000E+01 0. -1.
         -5    1    1    0    0  501  0.11075808785E+02  0.17137185091E+02  0.58888057761E+02  0.62500000000E+02  0.47000000000E+01 0. -1.
</event>
<event>
 3    0  0.4591805E-005  0.9118800E+02  0.7546771E-02  0.1235069E+00
         25   -1    0    0    0    0  0.00000000000E+00  0.00000000000E+00  0.99999998245E-14  0.12500000000E+03  0.12500000000E+03 0.  0.
          5    1    1    0  501    0  0.19305885079E+02 -0.51813729483E+02  0.28753786506E+02  0.62500000000E+02  0.47000000000E+01 0. -1.
         -5    1    1    0    0  501 -0.19305885079E+02  0.51813729483E+02 -0.28753786506E+02  0.62500000000E+02  0.47000000000E+01 0. -1.
</event>
<event>
 3    0  0.4591805E-005  0.9118800E+02  0.7546771E-02  0.1235069E+00
         25   -1    0    0    0    0  0.00000000000E+00  0.00000000000E+00  0.99999998245E-14  0.12500000000E+03  0.12500000000E+03 0.  0.
          5    1    1    0  501    0 -0.45268179377E+01 -0.90539267422E+01 -0.61495482191E+02  0.62500000000E+02  0.47000000000E+01 0.  1.
         -5    1    1    0    0  501  0.45268179377E+01  0.90539267422E+01  0.61495482191E+02  0.62500000000E+02  0.47000000000E+01 0.  1.
</event>
<event>
 3    0  0.4591805E-005  0.9118800E+02  0.7546771E-02  0.1235069E+00
         25   -1    0    0    0    0  0.00000000000E+00  0.00000000000E+00  0.99999998245E-14  0.12500000000E+03  0.12500000000E+03 0.  0.
          5    1    1    0  501    0  0.39548072718E+02 -0.43703100224E+02 -0.20252135075E+02  0.62500000000E+02  0.47000000000E+01 0.  1.
         -5    1    1    0    0  501 -0.39548072718E+02  0.43703100224E+02  0.20252135075E+02  0.62500000000E+02  0.47000000000E+01 0.  1.
</event>
<event>
 3    0  0.4591805E-005  0.9118800E+02  0.7546771E-02  0.1235069E+00
         25   -1    0    0    0    0  0.00000000000E+00  0.00000000000E+00  0.99999998245E-14  0.12500000000E+03  0.12500000000E+03 0.  0.
          5    1    1    0  501    0 -0.26861897725E+02  0.38448336857E+02 -0.41040514660E+02  0.62500000000E+02  0.47000000000E+01 0.  1.
         -5    1    1    0    0  501  0.26861897725E+02 -0.38448336857E+02  0.41040514660E+02  0.62500000000E+02  0.47000000000E+01 0.  1.
</event>
<event>
 3    0  0.4591805E-005  0.9118800E+02  0.7546771E-02  0.1235069E+00
         25   -1    0    0    0    0  0.00000000000E+00  0.00000000000E+00  0.99999998245E-14  0.12500000000E+03  0.12500000000E+03 0.  0.
          5    1    1    0  501    0  0.47785335315E+02  0.35268258233E+02 -0.18891047881E+02  0.62500000000E+02  0.47000000000E+01 0. -1.
         -5    1    1    0    0  501 -0.47785335315E+02 -0.35268258233E+02  0.18891047881E+02  0.62500000000E+02  0.47000000000E+01 0. -1.
</event>
<event>
 3    0  0.4591805E-005  0.9118800E+02  0.7546771E-02  0.1235069E+00
         25   -1    0    0    0    0  0.00000000000E+00  0.00000000000E+00  0.99999998245E-14  0.12500000000E+03  0.12500000000E+03 0.  0.
          5    1    1    0  501    0  0.21494256391E+02 -0.30335282707E+02  0.50019271939E+02  0.62500000000E+02  0.47000000000E+01 0. -1.
         -5    1    1    0    0  501 -0.21494256391E+02  0.30335282707E+02 -0.50019271939E+02  0.62500000000E+02  0.47000000000E+01 0. -1.
</event>
<event>
 3    0  0.4591805E-005  0.9118800E+02  0.7546771E-02  0.1235069E+00
         25   -1    0    0    0    0  0.00000000000E+00  0.00000000000E+00  0.99999998245E-14  0.12500000000E+03  0.12500000000E+03 0.  0.
          5    1    1    0  501    0  0.85022161675E-01 -0.41089084355E+02  0.46859789992E+02  0.62500000000E+02  0.47000000000E+01 0. -1.
         -5    1    1    0    0  501 -0.85022161675E-01  0.41089084355E+02 -0.46859789992E+02  0.62500000000E+02  0.47000000000E+01 0. -1.
</event>
<event>
 3    0  0.4591805E-005  0.9118800E+02  0.7546771E-02  0.1235069E+00
         25   -1    0    0    0    0  0.00000000000E+00  0.00000000000E+00  0.99999998245E-14  0.12500000000E+03  0.12500000000E+03 0.  0.
          5    1    1    0  501    0  0.53271539459E+01 -0.58567278599E+02  0.20631415569E+02  0.62500000000E+02  0.47000000000E+01 0.  1.
         -5    1    1    0    0  501 -0.53271539459E+01  0.58567278599E+02 -0.20631415569E+02  0.62500000000E+02  0.47000000000E+01 0.  1.
</event>
<event>
 3    0  0.4591805E-005  0.9118800E+02  0.7546771E-02  0.1235069E+00
         25   -1    0    0    0    0  0.00000000000E+00  0.00000000000E+00  0.99999998245E-14  0.12500000000E+03  0.12500000000E+03 0.  0.
          5    1    1    0  501    0 -0.54498441572E+02  0.22716329182E+02  0.19951146702E+02  0.62500000000E+02  0.47000000000E+01 0. -1.
         -5    1    1    0    0  501  0.54498441572E+02 -0.22716329182E+02 -0.19951146702E+02  0.62500000000E+02  0.47000000000E+01 0. -1.
</event>
<event>
 3    0  0.4591805E-005  0.9118800E+02  0.7546771E-02  0.1235069E+00
         25   -1    0    0    0    0  0.00000000000E+00  0.00000000000E+00  0.99999998245E-14  0.12500000000E+03  0.12500000000E+03 0.  0.
          5    1    1    0  501    0 -0.11192033587E+02  0.14329343789E+02  0.59611813349E+02  0.62500000000E+02  0.47000000000E+01 0. -1.
         -5    1    1    0    0  501  0.11192033587E+02 -0.14329343789E+02 -0.59611813349E+02  0.62500000000E+02  0.47000000000E+01 0. -1.
</event>
<event>
 3    0  0.4591805E-005  0.9118800E+02  0.7546771E-02  0.1235069E+00
         25   -1    0    0    0    0  0.00000000000E+00  0.00000000000E+00  0.99999998245E-14  0.12500000000E+03  0.12500000000E+03 0.  0.
          5    1    1    0  501    0  0.46668434706E+02  0.11423108302E+02 -0.39695463202E+02  0.62500000000E+02  0.47000000000E+01 0. -1.
         -5    1    1    0    0  501 -0.46668434706E+02 -0.11423108302E+02  0.39695463202E+02  0.62500000000E+02  0.47000000000E+01 0. -1.
</event>
<event>
 3    0  0.4591805E-005  0.9118800E+02  0.7546771E-02  0.1235069E+00
         25   -1    0    0    0    0  0.00000000000E+00  0.00000000000E+00  0.99999998245E-14  0.12500000000E+03  0.12500000000E+03 0.  0.
          5    1    1    0  501    0  0.19017808630E+02  0.29753134695E+02 -0.51354005985E+02  0.62500000000E+02  0.47000000000E+01 0.  1.
         -5    1    1    0    0  501 -0.19017808630E+02 -0.29753134695E+02  0.51354005985E+02  0.62500000000E+02  0.47000000000E+01 0.  1.
</event>
<event>
 3    0  0.4591805E-005  0.9118800E+02  0.7546771E-02  0.1235069E+00
         25   -1    0    0    0    0  0.00000000000E+00  0.00000000000E+00  0.99999998245E-14  0.12500000000E+03  0.12500000000E+03 0.  0.
          5    1    1    0  501    0  0.90204116372E+01  0.55805209559E+02  0.26240631851E+02  0.62500000000E+02  0.47000000000E+01 0. -1.
         -5    1    1    0    0  501 -0.90204116372E+01 -0.55805209559E+02 -0.26240631851E+02  0.62500000000E+02  0.47000000000E+01 0. -1.
</event>
<event>
 3    0  0.4591805E-005  0.9118800E+02  0.7546771E-02  0.1235069E+00
         25   -1    0    0    0    0  0.00000000000E+00  0.00000000000E+00  0.99999998245E-14  0.12500000000E+03  0.12500000000E+03 0.  0.
          5    1    1    0  501    0 -0.39208356913E+02  0.48444427842E+02 -0.46467891751E-01  0.62500000000E+02  0.47000000000E+01 0.  1.
         -5    1    1    0    0  501  0.39208356913E+02 -0.48444427842E+02  0.46467891751E-01  0.62500000000E+02  0.47000000000E+01 0.  1.
</event>
<event>
 3    0  0.4591805E-005  0.9118800E+02  0.7546771E-02  0.1235069E+00
         25   -1    0    0    0    0  0.00000000000E+00  0.00000000000E+00  0.99999998245E-14  0.12500000000E+03  0.12500000000E+03 0.  0.
          5    1    1    0  501    0 -0.56748909796E+01 -0.59926816296E+02  0.16147207221E+02  0.62500000000E+02  0.47000000000E+01 0.  1.
         -5    1    1    0    0  501  0.56748909796E+01  0.59926816296E+02 -0.16147207221E+02  0.62500000000E+02  0.47000000000E+01 0.  1.
</event>
<event>
 3    0  0.4591805E-005  0.9118800E+02  0.7546771E-02  0.1235069E+00
         25   -1    0    0    0    0  0.00000000000E+00  0.00000000000E+00  0.99999998245E-14  0.12500000000E+03  0.12500000000E+03 0.  0.
          5    1    1    0  501    0  0.20176486139E+02 -0.58230729795E+02 -0.92871693559E+01  0.62500000000E+02  0.47000000000E+01 0.  1.
         -5    1    1    0    0  501 -0.20176486139E+02  0.58230729795E+02  0.92871693559E+01  0.62500000000E+02  0.47000000000E+01 0.  1.
</event>
<event>
 3    0  0.4591805E-005  0.9118800E+02  0.7546771E-02  0.1235069E+00
         25   -1    0    0    0    0  0.00000000000E+00  0.00000000000E+00  0.99999998245E-14  0.12500000000E+03  0.12500000000E+03 0.  0.
          5    1    1    0  501    0 -0.46226467089E+02  0.41181109454E+02 -0.71686794202E+01  0.62500000000E+02  0.47000000000E+01 0. -1.
         -5    1    1    0    0  501  0.46226467089E+02 -0.41181109454E+02  0.71686794202E+01  0.62500000000E+02  0.47000000000E+01 0. -1.
</event>
<event>
 3    0  0.4591805E-005  0.9118800E+02  0.7546771E-02  0.1235069E+00
         25   -1    0    0    0    0  0.00000000000E+00  0.00000000000E+00  0.99999998245E-14  0.12500000000E+03  0.12500000000E+03 0.  0.
          5    1    1    0  501    0  0.23169082688E+02  0.29423457639E+02 -0.49815798177E+02  0.62500000000E+02  0.47000000000E+01 0.  1.
         -5    1    1    0    0  501 -0.23169082688E+02 -0.29423457639E+02  0.49815798177E+02  0.62500000000E+02  0.47000000000E+01 0.  1.
</event>
<event>
 3    0  0.4591805E-005  0.9118800E+02  0.7546771E-02  0.1235069E+00
         25   -1    0    0    0    0  0.00000000000E+00  0.00000000000E+00  0.99999998245E-14  0.12500000000E+03  0.12500000000E+03 0.  0.
          5    1    1    0  501    0  0.55910701131E+02 -0.20613585515E+02  0.18254686828E+02  0.62500000000E+02  0.47000000000E+01 0.  1.
         -5    1    1    0    0  501 -0.55910701131E+02  0.20613585515E+02 -0.18254686828E+02  0.62500000000E+02  0.47000000000E+01 0.  1.
</event>
<event>
 3    0  0.4591805E-005  0.9118800E+02  0.7546771E-02  0.1235069E+00
         25   -1    0    0    0    0  0.00000000000E+00  0.00000000000E+00  0.99999998245E-14  0.12500000000E+03  0.12500000000E+03 0.  0.
          5    1    1    0  501    0  0.36466110090E+02  0.50537469735E+02 -0.58903960881E+00  0.62500000000E+02  0.47000000000E+01 0. -1.
         -5    1    1    0    0  501 -0.36466110090E+02 -0.50537469735E+02  0.58903960881E+00  0.62500000000E+02  0.47000000000E+01 0. -1.
</event>
<event>
 3    0  0.4591805E-005  0.9118800E+02  0.7546771E-02  0.1235069E+00
         25   -1    0    0    0    0  0.00000000000E+00  0.00000000000E+00  0.99999998245E-14  0.12500000000E+03  0.12500000000E+03 0.  0.
          5    1    1    0  501    0  0.30906579428E+02 -0.20289504561E+02  0.50172495979E+02  0.62500000000E+02  0.47000000000E+01 0.  1.
         -5    1    1    0    0  501 -0.30906579428E+02  0.20289504561E+02 -0.50172495979E+02  0.62500000000E+02  0.47000000000E+01 0.  1.
</event>
<event>
 3    0  0.4591805E-005  0.9118800E+02  0.7546771E-02  0.1235069E+00
         25   -1    0    0    0    0  0.00000000000E+00  0.00000000000E+00  0.99999998245E-14  0.12500000000E+03  0.12500000000E+03 0.  0.
          5    1    1    0  501    0  0.55117364226E+02 -0.65406311617E+01 -0.28345304810E+02  0.62500000000E+02  0.47000000000E+01 0.  1.
         -5    1    1    0    0  501 -0.55117364226E+02  0.65406311617E+01  0.28345304810E+02  0.62500000000E+02  0.47000000000E+01 0.  1.
</event>
<event>
 3    0  0.4591805E-005  0.9118800E+02  0.7546771E-02  0.1235069E+00
         25   -1    0    0    0    0  0.00000000000E+00  0.00000000000E+00  0.99999998245E-14  0.12500000000E+03  0.12500000000E+03 0.  0.
          5    1    1    0  501    0  0.31404936689E+00  0.18036177290E+02  0.59655324002E+02  0.62500000000E+02  0.47000000000E+01 0.  1.
         -5    1    1    0    0  501 -0.31404936689E+00 -0.18036177290E+02 -0.59655324002E+02  0.62500000000E+02  0.47000000000E+01 0.  1.
</event>
<event>
 3    0  0.4591805E-005  0.9118800E+02  0.7546771E-02  0.1235069E+00
         25   -1    0    0    0    0  0.00000000000E+00  0.00000000000E+00  0.99999998245E-14  0.12500000000E+03  0.12500000000E+03 0.  0.
          5    1    1    0  501    0  0.24995387926E+02  0.24329774815E+02 -0.51647387542E+02  0.62500000000E+02  0.47000000000E+01 0.  1.
         -5    1    1    0    0  501 -0.24995387926E+02 -0.24329774815E+02  0.51647387542E+02  0.62500000000E+02  0.47000000000E+01 0.  1.
</event>
<event>
 3    0  0.4591805E-005  0.9118800E+02  0.7546771E-02  0.1235069E+00
         25   -1    0    0    0    0  0.00000000000E+00  0.00000000000E+00  0.99999998245E-14  0.12500000000E+03  0.12500000000E+03 0.  0.
          5    1    1    0  501    0 -0.37439268506E+01 -0.62209839374E+02 -0.28088581333E+00  0.62500000000E+02  0.47000000000E+01 0. -1.
         -5    1    1    0    0  501  0.37439268506E+01  0.62209839374E+02  0.28088581333E+00  0.62500000000E+02  0.47000000000E+01 0. -1.
</event>
<event>
 3    0  0.4591805E-005  0.9118800E+02  0.7546771E-02  0.1235069E+00
         25   -1    0    0    0    0  0.00000000000E+00  0.00000000000E+00  0.99999998245E-14  0.12500000000E+03  0.12500000000E+03 0.  0.
          5    1    1    0  501    0 -0.19033580817E+02  0.79764097090E+01  0.58806969735E+02  0.62500000000E+02  0.47000000000E+01 0. -1.
         -5    1    1    0    0  501  0.19033580817E+02 -0.79764097090E+01 -0.58806969735E+02  0.62500000000E+02  0.47000000000E+01 0. -1.
</event>
<event>
 3    0  0.4591805E-005  0.9118800E+02  0.7546771E-02  0.1235069E+00
         25   -1    0    0    0    0  0.00000000000E+00  0.00000000000E+00  0.99999998245E-14  0.12500000000E+03  0.12500000000E+03 0.  0.
          5    1    1    0  501    0 -0.49252552392E+02 -0.38158756207E+02  0.15018014502E+01  0.62500000000E+02  0.47000000000E+01 0. -1.
         -5    1    1    0    0  501  0.49252552392E+02  0.38158756207E+02 -0.15018014502E+01  0.62500000000E+02  0.47000000000E+01 0. -1.
</event>
<event>
 3    0  0.4591805E-005  0.9118800E+02  0.7546771E-02  0.1235069E+00
         25   -1    0    0    0    0  0.00000000000E+00  0.00000000000E+00  0.99999998245E-14  0.12500000000E+03  0.12500000000E+03 0.  0.
          5    1    1    0  501    0 -0.23781893739E+02 -0.52130893959E+02 -0.24514310621E+02  0.62500000000E+02  0.47000000000E+01 0. -1.
         -5    1    1    0    0  501  0.23781893739E+02  0.52130893959E+02  0.24514310621E+02  0.62500000000E+02  0.47000000000E+01 0. -1.
</event>
<event>
 3    0  0.4591805E-005  0.9118800E+02  0.7546771E-02  0.1235069E+00
         25   -1    0    0    0    0  0.00000000000E+00  0.00000000000E+00  0.99999998245E-14  0.12500000000E+03  0.12500000000E+03 0.  0.
          5    1    1    0  501    0 -0.25038462446E+02 -0.52316692764E+02 -0.22807872689E+02  0.62500000000E+02  0.47000000000E+01 0. -1.
         -5    1    1    0    0  501  0.25038462446E+02  0.52316692764E+02  0.22807872689E+02  0.62500000000E+02  0.47000000000E+01 0. -1.
</event>
<event>
 3    0  0.4591805E-005  0.9118800E+02  0.7546771E-02  0.1235069E+00
         25   -1    0    0    0    0  0.00000000000E+00  0.00000000000E+00  0.99999998245E-14  0.12500000000E+03  0.12500000000E+03 0.  0.
          5    1    1    0  501    0 -0.24873018049E+02 -0.54555183351E+02 -0.17006614676E+02  0.62500000000E+02  0.47000000000E+01 0.  1.
         -5    1    1    0    0  501  0.24873018049E+02  0.54555183351E+02  0.17006614676E+02  0.62500000000E+02  0.47000000000E+01 0.  1.
</event>
<event>
 3    0  0.4591805E-005  0.9118800E+02  0.7546771E-02  0.1235069E+00
         25   -1    0    0    0    0  0.00000000000E+00  0.00000000000E+00  0.99999998245E-14  0.12500000000E+03  0.12500000000E+03 0.  0.
          5    1    1    0  501    0 -0.13729777094E+01 -0.16732555511E+01 -0.62285432872E+02  0.62500000000E+02  0.47000000000E+01 0.  1.
         -5    1    1    0    0  501  0.13729777094E+01  0.16732555511E+01  0.62285432872E+02  0.62500000000E+02  0.47000000000E+01 0.  1.
</event>
<event>
 3    0  0.4591805E-005  0.9118800E+02  0.7546771E-02  0.1235069E+00
         25   -1    0    0    0    0  0.00000000000E+00  0.00000000000E+00  0.99999998245E-14  0.12500000000E+03  0.12500000000E+03 0.  0.
          5    1    1    0  501    0 -0.24076816544E+02  0.46246940875E+01 -0.57298159741E+02  0.62500000000E+02  0.47000000000E+01 0.  1.
         -5    1    1    0    0  501  0.24076816544E+02 -0.46246940875E+01  0.57298159741E+02  0.62500000000E+02  0.47000000000E+01 0.  1.
</event>
<event>
 3    0  0.4591805E-005  0.9118800E+02  0.7546771E-02  0.1235069E+00
         25   -1    0    0    0    0  0.00000000000E+00  0.00000000000E+00  0.99999998245E-14  0.12500000000E+03  0.12500000000E+03 0.  0.
          5    1    1    0  501    0 -0.24973456777E+02 -0.26104089367E+02 -0.50784475728E+02  0.62500000000E+02  0.47000000000E+01 0. -1.
         -5    1    1    0    0  501  0.24973456777E+02  0.26104089367E+02  0.50784475728E+02  0.62500000000E+02  0.47000000000E+01 0. -1.
</event>
<event>
 3    0  0.4591805E-005  0.9118800E+02  0.7546771E-02  0.1235069E+00
         25   -1    0    0    0    0  0.00000000000E+00  0.00000000000E+00  0.99999998245E-14  0.12500000000E+03  0.12500000000E+03 0.  0.
          5    1    1    0  501    0  0.30665883723E+01 -0.73146660749E+01  0.61816273715E+02  0.62500000000E+02  0.47000000000E+01 0.  1.
         -5    1    1    0    0  501 -0.30665883723E+01  0.73146660749E+01 -0.61816273715E+02  0.62500000000E+02  0.47000000000E+01 0.  1.
</event>
<event>
 3    0  0.4591805E-005  0.9118800E+02  0.7546771E-02  0.1235069E+00
         25   -1    0    0    0    0  0.00000000000E+00  0.00000000000E+00  0.99999998245E-14  0.12500000000E+03  0.12500000000E+03 0.  0.
          5    1    1    0  501    0  0.16715335273E+02  0.15394827479E+02  0.58032377632E+02  0.62500000000E+02  0.47000000000E+01 0. -1.
         -5    1    1    0    0  501 -0.16715335273E+02 -0.15394827479E+02 -0.58032377632E+02  0.62500000000E+02  0.47000000000E+01 0. -1.
</event>
<event>
 3    0  0.4591805E-005  0.9118800E+02  0.7546771E-02  0.1235069E+00
         25   -1    0    0    0    0  0.00000000000E+00  0.00000000000E+00  0.99999998245E-14  0.12500000000E+03  0.12500000000E+03 0.  0.
          5    1    1    0  501    0 -0.22069556158E+02 -0.52746853215E+02  0.24796454725E+02  0.62500000000E+02  0.47000000000E+01 0. -1.
         -5    1    1    0    0  501  0.22069556158E+02  0.52746853215E+02 -0.24796454725E+02  0.62500000000E+02  0.47000000000E+01 0. -1.
</event>
<event>
 3    0  0.4591805E-005  0.9118800E+02  0.7546771E-02  0.1235069E+00
         25   -1    0    0    0    0  0.00000000000E+00  0.00000000000E+00  0.99999998245E-14  0.12500000000E+03  0.12500000000E+03 0.  0.
          5    1    1    0  501    0  0.31601549129E+02  0.22896354265E+02  0.48592788086E+02  0.62500000000E+02  0.47000000000E+01 0.  1.
         -5    1    1    0    0  501 -0.31601549129E+02 -0.22896354265E+02 -0.48592788086E+02  0.62500000000E+02  0.47000000000E+01 0.  1.
</event>
<event>
 3    0  0.4591805E-005  0.9118800E+02  0.7546771E-02  0.1235069E+00
         25   -1    0    0    0    0  0.00000000000E+00  0.00000000000E+00  0.99999998245E-14  0.12500000000E+03  0.12500000000E+03 0.  0.
          5    1    1    0  501    0  0.61397956523E+02 -0.10168754125E+02  0.33237590678E+01  0.62500000000E+02  0.47000000000E+01 0.  1.
         -5    1    1    0    0  501 -0.61397956523E+02  0.10168754125E+02 -0.33237590678E+01  0.62500000000E+02  0.47000000000E+01 0.  1.
</event>
<event>
 3    0  0.4591805E-005  0.9118800E+02  0.7546771E-02  0.1235069E+00
         25   -1    0    0    0    0  0.00000000000E+00  0.00000000000E+00  0.99999998245E-14  0.12500000000E+03  0.12500000000E+03 0.  0.
          5    1    1    0  501    0 -0.46390975982E+02 -0.98045983164E+01  0.40446349641E+02  0.62500000000E+02  0.47000000000E+01 0.  1.
         -5    1    1    0    0  501  0.46390975982E+02  0.98045983164E+01 -0.40446349641E+02  0.62500000000E+02  0.47000000000E+01 0.  1.
</event>
<event>
 3    0  0.4591805E-005  0.9118800E+02  0.7546771E-02  0.1235069E+00
         25   -1    0    0    0    0  0.00000000000E+00  0.00000000000E+00  0.99999998245E-14  0.12500000000E+03  0.12500000000E+03 0.  0.
          5    1    1    0  501    0 -0.13916023766E+02 -0.16977914401E+02  0.58328849681E+02  0.62500000000E+02  0.47000000000E+01 0. -1.
         -5    1    1    0    0  501  0.13916023766E+02  0.16977914401E+02 -0.58328849681E+02  0.62500000000E+02  0.47000000000E+01 0. -1.
</event>
<event>
 3    0  0.4591805E-005  0.9118800E+02  0.7546771E-02  0.1235069E+00
         25   -1    0    0    0    0  0.00000000000E+00  0.00000000000E+00  0.99999998245E-14  0.12500000000E+03  0.12500000000E+03 0.  0.
          5    1    1    0  501    0  0.59096781621E+02  0.17894746589E+02 -0.84562667013E+01  0.62500000000E+02  0.47000000000E+01 0. -1.
         -5    1    1    0    0  501 -0.59096781621E+02 -0.17894746589E+02  0.84562667013E+01  0.62500000000E+02  0.47000000000E+01 0. -1.
</event>
<event>
 3    0  0.4591805E-005  0.9118800E+02  0.7546771E-02  0.1235069E+00
         25   -1    0    0    0    0  0.00000000000E+00  0.00000000000E+00  0.99999998245E-14  0.12500000000E+03  0.12500000000E+03 0.  0.
          5    1    1    0  501    0  0.54090456767E+02  0.55133855018E+01 -0.30462847324E+02  0.62500000000E+02  0.47000000000E+01 0. -1.
         -5    1    1    0    0  501 -0.54090456767E+02 -0.55133855018E+01  0.30462847324E+02  0.62500000000E+02  0.47000000000E+01 0. -1.
</event>
<event>
 3    0  0.4591805E-005  0.9118800E+02  0.7546771E-02  0.1235069E+00
         25   -1    0    0    0    0  0.00000000000E+00  0.00000000000E+00  0.99999998245E-14  0.12500000000E+03  0.12500000000E+03 0.  0.
          5    1    1    0  501    0 -0.30003061794E+02 -0.24016180237E+01  0.54572965045E+02  0.62500000000E+02  0.47000000000E+01 0. -1.
         -5    1    1    0    0  501  0.30003061794E+02  0.24016180237E+01 -0.54572965045E+02  0.62500000000E+02  0.47000000000E+01 0. -1.
</event>
<event>
 3    0  0.4591805E-005  0.9118800E+02  0.7546771E-02  0.1235069E+00
         25   -1    0    0    0    0  0.00000000000E+00  0.00000000000E+00  0.99999998245E-14  0.12500000000E+03  0.12500000000E+03 0.  0.
          5    1    1    0  501    0  0.44674110444E+02  0.35176072480E+02  0.25515246048E+02  0.62500000000E+02  0.47000000000E+01 0. -1.
         -5    1    1    0    0  501 -0.44674110444E+02 -0.35176072480E+02 -0.25515246048E+02  0.62500000000E+02  0.47000000000E+01 0. -1.
</event>
<event>
 3    0  0.4591805E-005  0.9118800E+02  0.7546771E-02  0.1235069E+00
         25   -1    0    0    0    0  0.00000000000E+00  0.00000000000E+00  0.99999998245E-14  0.12500000000E+03  0.12500000000E+03 0.  0.
          5    1    1    0  501    0 -0.45110385295E+02  0.36701693376E+02 -0.22409793437E+02  0.62500000000E+02  0.47000000000E+01 0.  1.
         -5    1    1    0    0  501  0.45110385295E+02 -0.36701693376E+02  0.22409793437E+02  0.62500000000E+02  0.47000000000E+01 0.  1.
</event>
<event>
 3    0  0.4591805E-005  0.9118800E+02  0.7546771E-02  0.1235069E+00
         25   -1    0    0    0    0  0.00000000000E+00  0.00000000000E+00  0.99999998245E-14  0.12500000000E+03  0.12500000000E+03 0.  0.
          5    1    1    0  501    0  0.43182396736E+02 -0.38082725860E+02 -0.23856793650E+02  0.62500000000E+02  0.47000000000E+01 0. -1.
         -5    1    1    0    0  501 -0.43182396736E+02  0.38082725860E+02  0.23856793650E+02  0.62500000000E+02  0.47000000000E+01 0. -1.
</event>
<event>
 3    0  0.4591805E-005  0.9118800E+02  0.7546771E-02  0.1235069E+00
         25   -1    0    0    0    0  0.00000000000E+00  0.00000000000E+00  0.99999998245E-14  0.12500000000E+03  0.12500000000E+03 0.  0.
          5    1    1    0  501    0  0.23296963049E+02 -0.55184957870E+02 -0.17205578675E+02  0.62500000000E+02  0.47000000000E+01 0.  1.
         -5    1    1    0    0  501 -0.23296963049E+02  0.55184957870E+02  0.17205578675E+02  0.62500000000E+02  0.47000000000E+01 0.  1.
</event>
<event>
 3    0  0.4591805E-005  0.9118800E+02  0.7546771E-02  0.1235069E+00
         25   -1    0    0    0    0  0.00000000000E+00  0.00000000000E+00  0.99999998245E-14  0.12500000000E+03  0.12500000000E+03 0.  0.
          5    1    1    0  501    0  0.49031427894E+02  0.12458809892E+02 -0.36398586988E+02  0.62500000000E+02  0.47000000000E+01 0.  1.
         -5    1    1    0    0  501 -0.49031427894E+02 -0.12458809892E+02  0.36398586988E+02  0.62500000000E+02  0.47000000000E+01 0.  1.
</event>
<event>
 3    0  0.4591805E-005  0.9118800E+02  0.7546771E-02  0.1235069E+00
         25   -1    0    0    0    0  0.00000000000E+00  0.00000000000E+00  0.99999998245E-14  0.12500000000E+03  0.12500000000E+03 0.  0.
          5    1    1    0  501    0 -0.33063792126E+02 -0.52762618309E+02 -0.26555149107E+01  0.62500000000E+02  0.47000000000E+01 0.  1.
         -5    1    1    0    0  501  0.33063792126E+02  0.52762618309E+02  0.26555149107E+01  0.62500000000E+02  0.47000000000E+01 0.  1.
</event>
<event>
 3    0  0.4591805E-005  0.9118800E+02  0.7546771E-02  0.1235069E+00
         25   -1    0    0    0    0  0.00000000000E+00  0.00000000000E+00  0.99999998245E-14  0.12500000000E+03  0.12500000000E+03 0.  0.
          5    1    1    0  501    0  0.34406873872E+02  0.16130389349E+02 -0.49397748631E+02  0.62500000000E+02  0.47000000000E+01 0.  1.
         -5    1    1    0    0  501 -0.34406873872E+02 -0.16130389349E+02  0.49397748631E+02  0.62500000000E+02  0.47000000000E+01 0.  1.
</event>
<event>
 3    0  0.4591805E-005  0.9118800E+02  0.7546771E-02  0.1235069E+00
         25   -1    0    0    0    0  0.00000000000E+00  0.00000000000E+00  0.99999998245E-14  0.12500000000E+03  0.12500000000E+03 0.  0.
          5    1    1    0  501    0 -0.15294827188E+01 -0.61671148126E+02 -0.88594678972E+01  0.62500000000E+02  0.47000000000E+01 0. -1.
         -5    1    1    0    0  501  0.15294827188E+01  0.61671148126E+02  0.88594678972E+01  0.62500000000E+02  0.47000000000E+01 0. -1.
</event>
<event>
 3    0  0.4591805E-005  0.9118800E+02  0.7546771E-02  0.1235069E+00
         25   -1    0    0    0    0  0.00000000000E+00  0.00000000000E+00  0.99999998245E-14  0.12500000000E+03  0.12500000000E+03 0.  0.
          5    1    1    0  501    0  0.44457697356E+02  0.33948184538E+02 -0.27480791699E+02  0.62500000000E+02  0.47000000000E+01 0. -1.
         -5    1    1    0    0  501 -0.44457697356E+02 -0.33948184538E+02  0.27480791699E+02  0.62500000000E+02  0.47000000000E+01 0. -1.
</event>
<event>
 3    0  0.4591805E-005  0.9118800E+02  0.7546771E-02  0.1235069E+00
         25   -1    0    0    0    0  0.00000000000E+00  0.00000000000E+00  0.99999998245E-14  0.12500000000E+03  0.12500000000E+03 0.  0.
          5    1    1    0  501    0 -0.61549816035E+02  0.88667875893E+01 -0.41424900651E+01  0.62500000000E+02  0.47000000000E+01 0.  1.
         -5    1    1    0    0  501  0.61549816035E+02 -0.88667875893E+01  0.41424900651E+01  0.62500000000E+02  0.47000000000E+01 0.  1.
</event>
<event>
 3    0  0.4591805E-005  0.9118800E+02  0.7546771E-02  0.1235069E+00
         25   -1    0    0    0    0  0.00000000000E+00  0.00000000000E+00  0.99999998245E-14  0.12500000000E+03  0.12500000000E+03 0.  0.
          5    1    1    0  501    0 -0.60772018006E+01  0.55312019323E+02 -0.28067920064E+02  0.62500000000E+02  0.47000000000E+01 0.  1.
         -5    1    1    0    0  501  0.60772018006E+01 -0.55312019323E+02  0.28067920064E+02  0.62500000000E+02  0.47000000000E+01 0.  1.
</event>
<event>
 3    0  0.4591805E-005  0.9118800E+02  0.7546771E-02  0.1235069E+00
         25   -1    0    0    0    0  0.00000000000E+00  0.00000000000E+00  0.99999998245E-14  0.12500000000E+03  0.12500000000E+03 0.  0.
          5    1    1    0  501    0 -0.54548645134E+02 -0.24641567827E+02 -0.17360830887E+02  0.62500000000E+02  0.47000000000E+01 0. -1.
         -5    1    1    0    0  501  0.54548645134E+02  0.24641567827E+02  0.17360830887E+02  0.62500000000E+02  0.47000000000E+01 0. -1.
</event>
<event>
 3    0  0.4591805E-005  0.9118800E+02  0.7546771E-02  0.1235069E+00
         25   -1    0    0    0    0  0.00000000000E+00  0.00000000000E+00  0.99999998245E-14  0.12500000000E+03  0.12500000000E+03 0.  0.
          5    1    1    0  501    0  0.95332240189E+01  0.30520469672E+02 -0.53495593939E+02  0.62500000000E+02  0.47000000000E+01 0.  1.
         -5    1    1    0    0  501 -0.95332240189E+01 -0.30520469672E+02  0.53495593939E+02  0.62500000000E+02  0.47000000000E+01 0.  1.
</event>
<event>
 3    0  0.4591805E-005  0.9118800E+02  0.7546771E-02  0.1235069E+00
         25   -1    0    0    0    0  0.00000000000E+00  0.00000000000E+00  0.99999998245E-14  0.12500000000E+03  0.12500000000E+03 0.  0.
          5    1    1    0  501    0  0.32984658055E+02 -0.11389200385E+02  0.51637761837E+02  0.62500000000E+02  0.47000000000E+01 0.  1.
         -5    1    1    0    0  501 -0.32984658055E+02  0.11389200385E+02 -0.51637761837E+02  0.62500000000E+02  0.47000000000E+01 0.  1.
</event>
<event>
 3    0  0.4591805E-005  0.9118800E+02  0.7546771E-02  0.1235069E+00
         25   -1    0    0    0    0  0.00000000000E+00  0.00000000000E+00  0.99999998245E-14  0.12500000000E+03  0.12500000000E+03 0.  0.
          5    1    1    0  501    0  0.17899590969E+02  0.70185719860E+01 -0.59283254722E+02  0.62500000000E+02  0.47000000000E+01 0. -1.
         -5    1    1    0    0  501 -0.17899590969E+02 -0.70185719860E+01  0.59283254722E+02  0.62500000000E+02  0.47000000000E+01 0. -1.
</event>
<event>
 3    0  0.4591805E-005  0.9118800E+02  0.7546771E-02  0.1235069E+00
         25   -1    0    0    0    0  0.00000000000E+00  0.00000000000E+00  0.99999998245E-14  0.12500000000E+03  0.12500000000E+03 0.  0.
          5    1    1    0  501    0 -0.52487444783E+01 -0.63058410500E+01 -0.61780636530E+02  0.62500000000E+02  0.47000000000E+01 0.  1.
         -5    1    1    0    0  501  0.52487444783E+01  0.63058410500E+01  0.61780636530E+02  0.62500000000E+02  0.47000000000E+01 0.  1.
</event>
<event>
 3    0  0.4591805E-005  0.9118800E+02  0.7546771E-02  0.1235069E+00
         25   -1    0    0    0    0  0.00000000000E+00  0.00000000000E+00  0.99999998245E-14  0.12500000000E+03  0.12500000000E+03 0.  0.
          5    1    1    0  501    0 -0.56787015987E+02  0.11451694669E+02  0.22983766108E+02  0.62500000000E+02  0.47000000000E+01 0. -1.
         -5    1    1    0    0  501  0.56787015987E+02 -0.11451694669E+02 -0.22983766108E+02  0.62500000000E+02  0.47000000000E+01 0. -1.
</event>
<event>
 3    0  0.4591805E-005  0.9118800E+02  0.7546771E-02  0.1235069E+00
         25   -1    0    0    0    0  0.00000000000E+00  0.00000000000E+00  0.99999998245E-14  0.12500000000E+03  0.12500000000E+03 0.  0.
          5    1    1    0  501    0  0.62291429108E+02 -0.19200721851E+01 -0.50118110099E+00  0.62500000000E+02  0.47000000000E+01 0.  1.
         -5    1    1    0    0  501 -0.62291429108E+02  0.19200721851E+01  0.50118110099E+00  0.62500000000E+02  0.47000000000E+01 0.  1.
</event>
<event>
 3    0  0.4591805E-005  0.9118800E+02  0.7546771E-02  0.1235069E+00
         25   -1    0    0    0    0  0.00000000000E+00  0.00000000000E+00  0.99999998245E-14  0.12500000000E+03  0.12500000000E+03 0.  0.
          5    1    1    0  501    0  0.56211959442E+02  0.21483723668E+02  0.16211885548E+02  0.62500000000E+02  0.47000000000E+01 0. -1.
         -5    1    1    0    0  501 -0.56211959442E+02 -0.21483723668E+02 -0.16211885548E+02  0.62500000000E+02  0.47000000000E+01 0. -1.
</event>
<event>
 3    0  0.4591805E-005  0.9118800E+02  0.7546771E-02  0.1235069E+00
         25   -1    0    0    0    0  0.00000000000E+00  0.00000000000E+00  0.99999998245E-14  0.12500000000E+03  0.12500000000E+03 0.  0.
          5    1    1    0  501    0 -0.94808351888E+01 -0.61420268352E+02  0.46716592006E+01  0.62500000000E+02  0.47000000000E+01 0.  1.
         -5    1    1    0    0  501  0.94808351888E+01  0.61420268352E+02 -0.46716592006E+01  0.62500000000E+02  0.47000000000E+01 0.  1.
</event>
<event>
 3    0  0.4591805E-005  0.9118800E+02  0.7546771E-02  0.1235069E+00
         25   -1    0    0    0    0  0.00000000000E+00  0.00000000000E+00  0.99999998245E-14  0.12500000000E+03  0.12500000000E+03 0.  0.
          5    1    1    0  501    0 -0.20209453921E+02 -0.25103990257E+02  0.53343487376E+02  0.62500000000E+02  0.47000000000E+01 0. -1.
         -5    1    1    0    0  501  0.20209453921E+02  0.25103990257E+02 -0.53343487376E+02  0.62500000000E+02  0.47000000000E+01 0. -1.
</event>
<event>
 3    0  0.4591805E-005  0.9118800E+02  0.7546771E-02  0.1235069E+00
         25   -1    0    0    0    0  0.00000000000E+00  0.00000000000E+00  0.99999998245E-14  0.12500000000E+03  0.12500000000E+03 0.  0.
          5    1    1    0  501    0  0.59571049934E+01 -0.48844349621E+02 -0.38247907265E+02  0.62500000000E+02  0.47000000000E+01 0. -1.
         -5    1    1    0    0  501 -0.59571049934E+01  0.48844349621E+02  0.38247907265E+02  0.62500000000E+02  0.47000000000E+01 0. -1.
</event>
<event>
 3    0  0.4591805E-005  0.9118800E+02  0.7546771E-02  0.1235069E+00
         25   -1    0    0    0    0  0.00000000000E+00  0.00000000000E+00  0.99999998245E-14  0.12500000000E+03  0.12500000000E+03 0.  0.
          5    1    1    0  501    0  0.33904787853E+02  0.45537280558E+02  0.25709559312E+02  0.62500000000E+02  0.47000000000E+01 0.  1.
         -5    1    1    0    0  501 -0.33904787853E+02 -0.45537280558E+02 -0.25709559312E+02  0.62500000000E+02  0.47000000000E+01 0.  1.
</event>
<event>
 3    0  0.4591805E-005  0.9118800E+02  0.7546771E-02  0.1235069E+00
         25   -1    0    0    0    0  0.00000000000E+00  0.00000000000E+00  0.99999998245E-14  0.12500000000E+03  0.12500000000E+03 0.  0.
          5    1    1    0  501    0 -0.60633550377E+02 -0.13215939622E+02  0.57507833002E+01  0.62500000000E+02  0.47000000000E+01 0.  1.
         -5    1    1    0    0  501  0.60633550377E+02  0.13215939622E+02 -0.57507833002E+01  0.62500000000E+02  0.47000000000E+01 0.  1.
</event>
<event>
 3    0  0.4591805E-005  0.9118800E+02  0.7546771E-02  0.1235069E+00
         25   -1    0    0    0    0  0.00000000000E+00  0.00000000000E+00  0.99999998245E-14  0.12500000000E+03  0.12500000000E+03 0.  0.
          5    1    1    0  501    0 -0.49138458491E+02  0.32366346029E+02  0.20542432715E+02  0.62500000000E+02  0.47000000000E+01 0. -1.
         -5    1    1    0    0  501  0.49138458491E+02 -0.32366346029E+02 -0.20542432715E+02  0.62500000000E+02  0.47000000000E+01 0. -1.
</event>
<event>
 3    0  0.4591805E-005  0.9118800E+02  0.7546771E-02  0.1235069E+00
         25   -1    0    0    0    0  0.00000000000E+00  0.00000000000E+00  0.99999998245E-14  0.12500000000E+03  0.12500000000E+03 0.  0.
          5    1    1    0  501    0 -0.18377877114E+02 -0.13311149863E+02  0.58045042184E+02  0.62500000000E+02  0.47000000000E+01 0. -1.
         -5    1    1    0    0  501  0.18377877114E+02  0.13311149863E+02 -0.58045042184E+02  0.62500000000E+02  0.47000000000E+01 0. -1.
</event>
<event>
 3    0  0.4591805E-005  0.9118800E+02  0.7546771E-02  0.1235069E+00
         25   -1    0    0    0    0  0.00000000000E+00  0.00000000000E+00  0.99999998245E-14  0.12500000000E+03  0.12500000000E+03 0.  0.
          5    1    1    0  501    0 -0.80945936786E+01 -0.42725523418E+02  0.44644901186E+02  0.62500000000E+02  0.47000000000E+01 0. -1.
         -5    1    1    0    0  501  0.80945936786E+01  0.42725523418E+02 -0.44644901186E+02  0.62500000000E+02  0.47000000000E+01 0. -1.
</event>
<event>
 3    0  0.4591805E-005  0.9118800E+02  0.7546771E-02  0.1235069E+00
         25   -1    0    0    0    0  0.00000000000E+00  0.00000000000E+00  0.99999998245E-14  0.12500000000E+03  0.12500000000E+03 0.  0.
          5    1    1    0  501    0 -0.32165437777E+02 -0.17005015006E+02 -0.50600139103E+02  0.62500000000E+02  0.47000000000E+01 0. -1.
         -5    1    1    0    0  501  0.32165437777E+02  0.17005015006E+02  0.50600139103E+02  0.62500000000E+02  0.47000000000E+01 0. -1.
</event>
<event>
 3    0  0.4591805E-005  0.9118800E+02  0.7546771E-02  0.1235069E+00
         25   -1    0    0    0    0  0.00000000000E+00  0.00000000000E+00  0.99999998245E-14  0.12500000000E+03  0.12500000000E+03 0.  0.
          5    1    1    0  501    0  0.27098457339E+02  0.23774572460E+02  0.50838994032E+02  0.62500000000E+02  0.47000000000E+01 0.  1.
         -5    1    1    0    0  501 -0.27098457339E+02 -0.23774572460E+02 -0.50838994032E+02  0.62500000000E+02  0.47000000000E+01 0.  1.
</event>
<event>
 3    0  0.4591805E-005  0.9118800E+02  0.7546771E-02  0.1235069E+00
         25   -1    0    0    0    0  0.00000000000E+00  0.00000000000E+00  0.99999998245E-14  0.12500000000E+03  0.12500000000E+03 0.  0.
          5    1    1    0  501    0 -0.14416386759E+01 -0.35511229643E+02  0.51196037417E+02  0.62500000000E+02  0.47000000000E+01 0.  1.
         -5    1    1    0    0  501  0.14416386759E+01  0.35511229643E+02 -0.51196037417E+02  0.62500000000E+02  0.47000000000E+01 0.  1.
</event>
<event>
 3    0  0.4591805E-005  0.9118800E+02  0.7546771E-02  0.1235069E+00
         25   -1    0    0    0    0  0.00000000000E+00  0.00000000000E+00  0.99999998245E-14  0.12500000000E+03  0.12500000000E+03 0.  0.
          5    1    1    0  501    0  0.11459149742E+01  0.54586034512E+02  0.30053480916E+02  0.62500000000E+02  0.47000000000E+01 0. -1.
         -5    1    1    0    0  501 -0.11459149742E+01 -0.54586034512E+02 -0.30053480916E+02  0.62500000000E+02  0.47000000000E+01 0. -1.
</event>
<event>
 3    0  0.4591805E-005  0.9118800E+02  0.7546771E-02  0.1235069E+00
         25   -1    0    0    0    0  0.00000000000E+00  0.00000000000E+00  0.99999998245E-14  0.12500000000E+03  0.12500000000E+03 0.  0.
          5    1    1    0  501    0  0.22969918149E+02 -0.57853853630E+02  0.30780643928E+01  0.62500000000E+02  0.47000000000E+01 0.  1.
         -5    1    1    0    0  501 -0.22969918149E+02  0.57853853630E+02 -0.30780643928E+01  0.62500000000E+02  0.47000000000E+01 0.  1.
</event>
<event>
 3    0  0.4591805E-005  0.9118800E+02  0.7546771E-02  0.1235069E+00
         25   -1    0    0    0    0  0.00000000000E+00  0.00000000000E+00  0.99999998245E-14  0.12500000000E+03  0.12500000000E+03 0.  0.
          5    1    1    0  501    0  0.59164878102E+02 -0.13059127074E+02  0.14599191734E+02  0.62500000000E+02  0.47000000000E+01 0. -1.
         -5    1    1    0    0  501 -0.59164878102E+02  0.13059127074E+02 -0.14599191734E+02  0.62500000000E+02  0.47000000000E+01 0. -1.
</event>
<event>
 3    0  0.4591805E-005  0.9118800E+02  0.7546771E-02  0.1235069E+00
         25   -1    0    0    0    0  0.00000000000E+00  0.00000000000E+00  0.99999998245E-14  0.12500000000E+03  0.12500000000E+03 0.  0.
          5    1    1    0  501    0 -0.35054102097E+02 -0.36442660733E+02 -0.36432161683E+02  0.62500000000E+02  0.47000000000E+01 0.  1.
         -5    1    1    0    0  501  0.35054102097E+02  0.36442660733E+02  0.36432161683E+02  0.62500000000E+02  0.47000000000E+01 0.  1.
</event>
<event>
 3    0  0.4591805E-005  0.9118800E+02  0.7546771E-02  0.1235069E+00
         25   -1    0    0    0    0  0.00000000000E+00  0.00000000000E+00  0.99999998245E-14  0.12500000000E+03  0.12500000000E+03 0.  0.
          5    1    1    0  501    0 -0.55731088179E+02 -0.19665679403E+02  0.19785521574E+02  0.62500000000E+02  0.47000000000E+01 0. -1.
         -5    1    1    0    0  501  0.55731088179E+02  0.19665679403E+02 -0.19785521574E+02  0.62500000000E+02  0.47000000000E+01 0. -1.
</event>
<event>
 3    0  0.4591805E-005  0.9118800E+02  0.7546771E-02  0.1235069E+00
         25   -1    0    0    0    0  0.00000000000E+00  0.00000000000E+00  0.99999998245E-14  0.12500000000E+03  0.12500000000E+03 0.  0.
          5    1    1    0  501    0 -0.52939767703E+02  0.15789794485E+02  0.28848282197E+02  0.62500000000E+02  0.47000000000E+01 0.  1.
         -5    1    1    0    0  501  0.52939767703E+02 -0.15789794485E+02 -0.28848282197E+02  0.62500000000E+02  0.47000000000E+01 0.  1.
</event>
<event>
 3    0  0.4591805E-005  0.9118800E+02  0.7546771E-02  0.1235069E+00
         25   -1    0    0    0    0  0.00000000000E+00  0.00000000000E+00  0.99999998245E-14  0.12500000000E+03  0.12500000000E+03 0.  0.
          5    1    1    0  501    0 -0.57605568215E+02 -0.20564198786E+02  0.11952917589E+02  0.62500000000E+02  0.47000000000E+01 0.  1.
         -5    1    1    0    0  501  0.57605568215E+02  0.20564198786E+02 -0.11952917589E+02  0.62500000000E+02  0.47000000000E+01 0.  1.
</event>
<event>
 3    0  0.4591805E-005  0.9118800E+02  0.7546771E-02  0.1235069E+00
         25   -1    0    0    0    0  0.00000000000E+00  0.00000000000E+00  0.99999998245E-14  0.12500000000E+03  0.12500000000E+03 0.  0.
          5    1    1    0  501    0 -0.14569537892E+02  0.13688589134E+02  0.59029747527E+02  0.62500000000E+02  0.47000000000E+01 0. -1.
         -5    1    1    0    0  501  0.14569537892E+02 -0.13688589134E+02 -0.59029747527E+02  0.62500000000E+02  0.47000000000E+01 0. -1.
</event>
<event>
 3    0  0.4591805E-005  0.9118800E+02  0.7546771E-02  0.1235069E+00
         25   -1    0    0    0    0  0.00000000000E+00  0.00000000000E+00  0.99999998245E-14  0.12500000000E+03  0.12500000000E+03 0.  0.
          5    1    1    0  501    0  0.42768894616E+02  0.43813221601E+02  0.11635431503E+02  0.62500000000E+02  0.47000000000E+01 0.  1.
         -5    1    1    0    0  501 -0.42768894616E+02 -0.43813221601E+02 -0.11635431503E+02  0.62500000000E+02  0.47000000000E+01 0.  1.
</event>
<event>
 3    0  0.4591805E-005  0.9118800E+02  0.7546771E-02  0.1235069E+00
         25   -1    0    0    0    0  0.00000000000E+00  0.00000000000E+00  0.99999998245E-14  0.12500000000E+03  0.12500000000E+03 0.  0.
          5    1    1    0  501    0  0.61437765936E+02 -0.40700340616E+01  0.96434298616E+01  0.62500000000E+02  0.47000000000E+01 0.  1.
         -5    1    1    0    0  501 -0.61437765936E+02  0.40700340616E+01 -0.96434298616E+01  0.62500000000E+02  0.47000000000E+01 0.  1.
</event>
<event>
 3    0  0.4591805E-005  0.9118800E+02  0.7546771E-02  0.1235069E+00
         25   -1    0    0    0    0  0.00000000000E+00  0.00000000000E+00  0.99999998245E-14  0.12500000000E+03  0.12500000000E+03 0.  0.
          5    1    1    0  501    0 -0.46191096967E+02 -0.23322378584E+02  0.34736281007E+02  0.62500000000E+02  0.47000000000E+01 0. -1.
         -5    1    1    0    0  501  0.46191096967E+02  0.23322378584E+02 -0.34736281007E+02  0.62500000000E+02  0.47000000000E+01 0. -1.
</event>
<event>
 3    0  0.4591805E-005  0.9118800E+02  0.7546771E-02  0.1235069E+00
         25   -1    0    0    0    0  0.00000000000E+00  0.00000000000E+00  0.99999998245E-14  0.12500000000E+03  0.12500000000E+03 0.  0.
          5    1    1    0  501    0 -0.54152769787E+01  0.52766718359E+02  0.32718621745E+02  0.62500000000E+02  0.47000000000E+01 0. -1.
         -5    1    1    0    0  501  0.54152769787E+01 -0.52766718359E+02 -0.32718621745E+02  0.62500000000E+02  0.47000000000E+01 0. -1.
</event>
<event>
 3    0  0.4591805E-005  0.9118800E+02  0.7546771E-02  0.1235069E+00
         25   -1    0    0    0    0  0.00000000000E+00  0.00000000000E+00  0.99999998245E-14  0.12500000000E+03  0.12500000000E+03 0.  0.
          5    1    1    0  501    0  0.48157712413E+01  0.88111360441E+01  0.61508797980E+02  0.62500000000E+02  0.47000000000E+01 0. -1.
         -5    1    1    0    0  501 -0.48157712413E+01 -0.88111360441E+01 -0.61508797980E+02  0.62500000000E+02  0.47000000000E+01 0. -1.
</event>
<event>
 3    0  0.4591805E-005  0.9118800E+02  0.7546771E-02  0.1235069E+00
         25   -1    0    0    0    0  0.00000000000E+00  0.00000000000E+00  0.99999998245E-14  0.12500000000E+03  0.12500000000E+03 0.  0.
          5    1    1    0  501    0 -0.47252286346E+02  0.50394577895E+01  0.40323508035E+02  0.62500000000E+02  0.47000000000E+01 0. -1.
         -5    1    1    0    0  501  0.47252286346E+02 -0.50394577895E+01 -0.40323508035E+02  0.62500000000E+02  0.47000000000E+01 0. -1.
</event>
<event>
 3    0  0.4591805E-005  0.9118800E+02  0.7546771E-02  0.1235069E+00
         25   -1    0    0    0    0  0.00000000000E+00  0.00000000000E+00  0.99999998245E-14  0.12500000000E+03  0.12500000000E+03 0.  0.
          5    1    1    0  501    0  0.34942810045E+02  0.20361938174E+01  0.51565627514E+02  0.62500000000E+02  0.47000000000E+01 0. -1.
         -5    1    1    0    0  501 -0.34942810045E+02 -0.20361938174E+01 -0.51565627514E+02  0.62500000000E+02  0.47000000000E+01 0. -1.
</event>
<event>
 3    0  0.4591805E-005  0.9118800E+02  0.7546771E-02  0.1235069E+00
         25   -1    0    0    0    0  0.00000000000E+00  0.00000000000E+00  0.99999998245E-14  0.12500000000E+03  0.12500000000E+03 0.  0.
          5    1    1    0  501    0 -0.46273606597E+02 -0.37595375238E+02 -0.18152164973E+02  0.62500000000E+02  0.47000000000E+01 0. -1.
         -5    1    1    0    0  501  0.46273606597E+02  0.37595375238E+02  0.18152164973E+02  0.62500000000E+02  0.47000000000E+01 0. -1.
</event>
<event>
 3    0  0.4591805E-005  0.9118800E+02  0.7546771E-02  0.1235069E+00
         25   -1    0    0    0    0  0.00000000000E+00  0.00000000000E+00  0.99999998245E-14  0.12500000000E+03  0.12500000000E+03 0.  0.
          5    1    1    0  501    0  0.45463982608E+02 -0.38740835323E+02  0.17785779823E+02  0.62500000000E+02  0.47000000000E+01 0.  1.
         -5    1    1    0    0  501 -0.45463982608E+02  0.38740835323E+02 -0.17785779823E+02  0.62500000000E+02  0.47000000000E+01 0.  1.
</event>
<event>
 3    0  0.4591805E-005  0.9118800E+02  0.7546771E-02  0.1235069E+00
         25   -1    0    0    0    0  0.00000000000E+00  0.00000000000E+00  0.99999998245E-14  0.12500000000E+03  0.12500000000E+03 0.  0.
          5    1    1    0  501    0  0.16452676893E+02  0.50423541422E+02 -0.32725156890E+02  0.62500000000E+02  0.47000000000E+01 0. -1.
         -5    1    1    0    0  501 -0.16452676893E+02 -0.50423541422E+02  0.32725156890E+02  0.62500000000E+02  0.47000000000E+01 0. -1.
</event>
<event>
 3    0  0.4591805E-005  0.9118800E+02  0.7546771E-02  0.1235069E+00
         25   -1    0    0    0    0  0.00000000000E+00  0.00000000000E+00  0.99999998245E-14  0.12500000000E+03  0.12500000000E+03 0.  0.
          5    1    1    0  501    0 -0.23621665794E+02  0.36629579274E+02 -0.44547175302E+02  0.62500000000E+02  0.47000000000E+01 0. -1.
         -5    1    1    0    0  501  0.23621665794E+02 -0.36629579274E+02  0.44547175302E+02  0.62500000000E+02  0.47000000000E+01 0. -1.
</event>
<event>
 3    0  0.4591805E-005  0.9118800E+02  0.7546771E-02  0.1235069E+00
         25   -1    0    0    0    0  0.00000000000E+00  0.00000000000E+00  0.99999998245E-14  0.12500000000E+03  0.12500000000E+03 0.  0.
          5    1    1    0  501    0  0.22385173259E+02  0.41549094294E+02  0.40703031601E+02  0.62500000000E+02  0.47000000000E+01 0.  1.
         -5    1    1    0    0  501 -0.22385173259E+02 -0.41549094294E+02 -0.40703031601E+02  0.62500000000E+02  0.47000000000E+01 0.  1.
</event>
<event>
 3    0  0.4591805E-005  0.9118800E+02  0.7546771E-02  0.1235069E+00
         25   -1    0    0    0    0  0.00000000000E+00  0.00000000000E+00  0.99999998245E-14  0.12500000000E+03  0.12500000000E+03 0.  0.
          5    1    1    0  501    0 -0.56638579530E+02  0.19086430171E+02 -0.17661808859E+02  0.62500000000E+02  0.47000000000E+01 0.  1.
         -5    1    1    0    0  501  0.56638579530E+02 -0.19086430171E+02  0.17661808859E+02  0.62500000000E+02  0.47000000000E+01 0.  1.
</event>
<event>
 3    0  0.4591805E-005  0.9118800E+02  0.7546771E-02  0.1235069E+00
         25   -1    0    0    0    0  0.00000000000E+00  0.00000000000E+00  0.99999998245E-14  0.12500000000E+03  0.12500000000E+03 0.  0.
          5    1    1    0  501    0 -0.19597786281E+02 -0.58175702291E+02  0.10755205059E+02  0.62500000000E+02  0.47000000000E+01 0.  1.
         -5    1    1    0    0  501  0.19597786281E+02  0.58175702291E+02 -0.10755205059E+02  0.62500000000E+02  0.47000000000E+01 0.  1.
</event>
<event>
 3    0  0.4591805E-005  0.9118800E+02  0.7546771E-02  0.1235069E+00
         25   -1    0    0    0    0  0.00000000000E+00  0.00000000000E+00  0.99999998245E-14  0.12500000000E+03  0.12500000000E+03 0.  0.
          5    1    1    0  501    0 -0.20043722499E+02 -0.48563965080E+02 -0.33525370752E+02  0.62500000000E+02  0.47000000000E+01 0.  1.
         -5    1    1    0    0  501  0.20043722499E+02  0.48563965080E+02  0.33525370752E+02  0.62500000000E+02  0.47000000000E+01 0.  1.
</event>
<event>
 3    0  0.4591805E-005  0.9118800E+02  0.7546771E-02  0.1235069E+00
         25   -1    0    0    0    0  0.00000000000E+00  0.00000000000E+00  0.99999998245E-14  0.12500000000E+03  0.12500000000E+03 0.  0.
          5    1    1    0  501    0  0.61715713749E+02 -0.86042897906E+01 -0.11388036162E+01  0.62500000000E+02  0.47000000000E+01 0.  1.
         -5    1    1    0    0  501 -0.61715713749E+02  0.86042897906E+01  0.11388036162E+01  0.62500000000E+02  0.47000000000E+01 0.  1.
</event>
<event>
 3    0  0.4591805E-005  0.9118800E+02  0.7546771E-02  0.1235069E+00
         25   -1    0    0    0    0  0.00000000000E+00  0.00000000000E+00  0.99999998245E-14  0.12500000000E+03  0.12500000000E+03 0.  0.
          5    1    1    0  501    0 -0.54399518926E+02 -0.23397729629E+02 -0.19426749312E+02  0.62500000000E+02  0.47000000000E+01 0.  1.
         -5    1    1    0    0  501  0.54399518926E+02  0.23397729629E+02  0.19426749312E+02  0.62500000000E+02  0.47000000000E+01 0.  1.
</event>
<event>
 3    0  0.4591805E-005  0.9118800E+02  0.7546771E-02  0.1235069E+00
         25   -1    0    0    0    0  0.00000000000E+00  0.00000000000E+00  0.99999998245E-14  0.12500000000E+03  0.12500000000E+03 0.  0.
          5    1    1    0  501    0 -0.40133234820E+02  0.44279903762E+02  0.17685406008E+02  0.62500000000E+02  0.47000000000E+01 0. -1.
         -5    1    1    0    0  501  0.40133234820E+02 -0.44279903762E+02 -0.17685406008E+02  0.62500000000E+02  0.47000000000E+01 0. -1.
</event>
<event>
 3    0  0.4591805E-005  0.9118800E+02  0.7546771E-02  0.1235069E+00
         25   -1    0    0    0    0  0.00000000000E+00  0.00000000000E+00  0.99999998245E-14  0.12500000000E+03  0.12500000000E+03 0.  0.
          5    1    1    0  501    0 -0.51329652315E+02  0.34605556347E+02 -0.72029343415E+01  0.62500000000E+02  0.47000000000E+01 0.  1.
         -5    1    1    0    0  501  0.51329652315E+02 -0.34605556347E+02  0.72029343415E+01  0.62500000000E+02  0.47000000000E+01 0.  1.
</event>
<event>
 3    0  0.4591805E-005  0.9118800E+02  0.7546771E-02  0.1235069E+00
         25   -1    0    0    0    0  0.00000000000E+00  0.00000000000E+00  0.99999998245E-14  0.12500000000E+03  0.12500000000E+03 0.  0.
          5    1    1    0  501    0 -0.52608703758E+02  0.33036589734E+02 -0.50067981432E+01  0.62500000000E+02  0.47000000000E+01 0.  1.
         -5    1    1    0    0  501  0.52608703758E+02 -0.33036589734E+02  0.50067981432E+01  0.62500000000E+02  0.47000000000E+01 0.  1.
</event>
<event>
 3    0  0.4591805E-005  0.9118800E+02  0.7546771E-02  0.1235069E+00
         25   -1    0    0    0    0  0.00000000000E+00  0.00000000000E+00  0.99999998245E-14  0.12500000000E+03  0.12500000000E+03 0.  0.
          5    1    1    0  501    0  0.27381981928E+02  0.27843862787E+02  0.48570632802E+02  0.62500000000E+02  0.47000000000E+01 0. -1.
         -5    1    1    0    0  501 -0.27381981928E+02 -0.27843862787E+02 -0.48570632802E+02  0.62500000000E+02  0.47000000000E+01 0. -1.
</event>
<event>
 3    0  0.4591805E-005  0.9118800E+02  0.7546771E-02  0.1235069E+00
         25   -1    0    0    0    0  0.00000000000E+00  0.00000000000E+00  0.99999998245E-14  0.12500000000E+03  0.12500000000E+03 0.  0.
          5    1    1    0  501    0  0.59950626555E+02 -0.40984993690E+01 -0.16531324163E+02  0.62500000000E+02  0.47000000000E+01 0.  1.
         -5    1    1    0    0  501 -0.59950626555E+02  0.40984993690E+01  0.16531324163E+02  0.62500000000E+02  0.47000000000E+01 0.  1.
</event>
<event>
 3    0  0.4591805E-005  0.9118800E+02  0.7546771E-02  0.1235069E+00
         25   -1    0    0    0    0  0.00000000000E+00  0.00000000000E+00  0.99999998245E-14  0.12500000000E+03  0.12500000000E+03 0.  0.
          5    1    1    0  501    0  0.43911990362E+02 -0.38468693104E+02  0.21818724832E+02  0.62500000000E+02  0.47000000000E+01 0.  1.
         -5    1    1    0    0  501 -0.43911990362E+02  0.38468693104E+02 -0.21818724832E+02  0.62500000000E+02  0.47000000000E+01 0.  1.
</event>
<event>
 3    0  0.4591805E-005  0.9118800E+02  0.7546771E-02  0.1235069E+00
         25   -1    0    0    0    0  0.00000000000E+00  0.00000000000E+00  0.99999998245E-14  0.12500000000E+03  0.12500000000E+03 0.  0.
          5    1    1    0  501    0 -0.29812523944E+00  0.28970127387E+02  0.55179732154E+02  0.62500000000E+02  0.47000000000E+01 0. -1.
         -5    1    1    0    0  501  0.29812523944E+00 -0.28970127387E+02 -0.55179732154E+02  0.62500000000E+02  0.47000000000E+01 0. -1.
</event>
<event>
 3    0  0.4591805E-005  0.9118800E+02  0.7546771E-02  0.1235069E+00
         25   -1    0    0    0    0  0.00000000000E+00  0.00000000000E+00  0.99999998245E-14  0.12500000000E+03  0.12500000000E+03 0.  0.
          5    1    1    0  501    0 -0.54328463717E+01 -0.52495414986E+02 -0.33149292388E+02  0.62500000000E+02  0.47000000000E+01 0.  1.
         -5    1    1    0    0  501  0.54328463717E+01  0.52495414986E+02  0.33149292388E+02  0.62500000000E+02  0.47000000000E+01 0.  1.
</event>
<event>
 3    0  0.4591805E-005  0.9118800E+02  0.7546771E-02  0.1235069E+00
         25   -1    0    0    0    0  0.00000000000E+00  0.00000000000E+00  0.99999998245E-14  0.12500000000E+03  0.12500000000E+03 0.  0.
          5    1    1    0  501    0 -0.32224196089E+02  0.38225693297E+02  0.37209643351E+02  0.62500000000E+02  0.47000000000E+01 0. -1.
         -5    1    1    0    0  501  0.32224196089E+02 -0.38225693297E+02 -0.37209643351E+02  0.62500000000E+02  0.47000000000E+01 0. -1.
</event>
<event>
 3    0  0.4591805E-005  0.9118800E+02  0.7546771E-02  0.1235069E+00
         25   -1    0    0    0    0  0.00000000000E+00  0.00000000000E+00  0.99999998245E-14  0.12500000000E+03  0.12500000000E+03 0.  0.
          5    1    1    0  501    0  0.17735937617E+02 -0.37528568122E+02  0.46488741557E+02  0.62500000000E+02  0.47000000000E+01 0.  1.
         -5    1    1    0    0  501 -0.17735937617E+02  0.37528568122E+02 -0.46488741557E+02  0.62500000000E+02  0.47000000000E+01 0.  1.
</event>
<event>
 3    0  0.4591805E-005  0.9118800E+02  0.7546771E-02  0.1235069E+00
         25   -1    0    0    0    0  0.00000000000E+00  0.00000000000E+00  0.99999998245E-14  0.12500000000E+03  0.12500000000E+03 0.  0.
          5    1    1    0  501    0 -0.61202636891E+02  0.42581580116E+01  0.10966554973E+02  0.62500000000E+02  0.47000000000E+01 0. -1.
         -5    1    1    0    0  501  0.61202636891E+02 -0.42581580116E+01 -0.10966554973E+02  0.62500000000E+02  0.47000000000E+01 0. -1.
</event>
<event>
 3    0  0.4591805E-005  0.9118800E+02  0.7546771E-02  0.1235069E+00
         25   -1    0    0    0    0  0.00000000000E+00  0.00000000000E+00  0.99999998245E-14  0.12500000000E+03  0.12500000000E+03 0.  0.
          5    1    1    0  501    0  0.64716547967E+00  0.61645786212E+02 -0.91399244619E+01  0.62500000000E+02  0.47000000000E+01 0. -1.
         -5    1    1    0    0  501 -0.64716547967E+00 -0.61645786212E+02  0.91399244619E+01  0.62500000000E+02  0.47000000000E+01 0. -1.
</event>
<event>
 3    0  0.4591805E-005  0.9118800E+02  0.7546771E-02  0.1235069E+00
         25   -1    0    0    0    0  0.00000000000E+00  0.00000000000E+00  0.99999998245E-14  0.12500000000E+03  0.12500000000E+03 0.  0.
          5    1    1    0  501    0  0.41231743790E+02  0.43372950708E+02 -0.17403748185E+02  0.62500000000E+02  0.47000000000E+01 0. -1.
         -5    1    1    0    0  501 -0.41231743790E+02 -0.43372950708E+02  0.17403748185E+02  0.62500000000E+02  0.47000000000E+01 0. -1.
</event>
<event>
 3    0  0.4591805E-005  0.9118800E+02  0.7546771E-02  0.1235069E+00
         25   -1    0    0    0    0  0.00000000000E+00  0.00000000000E+00  0.99999998245E-14  0.12500000000E+03  0.12500000000E+03 0.  0.
          5    1    1    0  501    0  0.81496617028E+01 -0.59255702682E+02  0.17507276026E+02  0.62500000000E+02  0.47000000000E+01 0. -1.
         -5    1    1    0    0  501 -0.81496617028E+01  0.59255702682E+02 -0.17507276026E+02  0.62500000000E+02  0.47000000000E+01 0. -1.
</event>
<event>
 3    0  0.4591805E-005  0.9118800E+02  0.7546771E-02  0.1235069E+00
         25   -1    0    0    0    0  0.00000000000E+00  0.00000000000E+00  0.99999998245E-14  0.12500000000E+03  0.12500000000E+03 0.  0.
          5    1    1    0  501    0 -0.10556210474E+02  0.32995254649E+02  0.51807717486E+02  0.62500000000E+02  0.47000000000E+01 0.  1.
         -5    1    1    0    0  501  0.10556210474E+02 -0.32995254649E+02 -0.51807717486E+02  0.62500000000E+02  0.47000000000E+01 0.  1.
</event>
<event>
 3    0  0.4591805E-005  0.9118800E+02  0.7546771E-02  0.1235069E+00
         25   -1    0    0    0    0  0.00000000000E+00  0.00000000000E+00  0.99999998245E-14  0.12500000000E+03  0.12500000000E+03 0.  0.
          5    1    1    0  501    0 -0.55446865767E+02 -0.20508224757E+02 -0.19728603446E+02  0.62500000000E+02  0.47000000000E+01 0. -1.
         -5    1    1    0    0  501  0.55446865767E+02  0.20508224757E+02  0.19728603446E+02  0.62500000000E+02  0.47000000000E+01 0. -1.
</event>
<event>
 3    0  0.4591805E-005  0.9118800E+02  0.7546771E-02  0.1235069E+00
         25   -1    0    0    0    0  0.00000000000E+00  0.00000000000E+00  0.99999998245E-14  0.12500000000E+03  0.12500000000E+03 0.  0.
          5    1    1    0  501    0  0.39440964669E+02 -0.41498315430E+01 -0.48076493259E+02  0.62500000000E+02  0.47000000000E+01 0. -1.
         -5    1    1    0    0  501 -0.39440964669E+02  0.41498315430E+01  0.48076493259E+02  0.62500000000E+02  0.47000000000E+01 0. -1.
</event>
<event>
 3    0  0.4591805E-005  0.9118800E+02  0.7546771E-02  0.1235069E+00
         25   -1    0    0    0    0  0.00000000000E+00  0.00000000000E+00  0.99999998245E-14  0.12500000000E+03  0.12500000000E+03 0.  0.
          5    1    1    0  501    0 -0.33457191088E+02 -0.19263989242E+02  0.48925198855E+02  0.62500000000E+02  0.47000000000E+01 0.  1.
         -5    1    1    0    0  501  0.33457191088E+02  0.19263989242E+02 -0.48925198855E+02  0.62500000000E+02  0.47000000000E+01 0.  1.
</event>
<event>
 3    0  0.4591805E-005  0.9118800E+02  0.7546771E-02  0.1235069E+00
         25   -1    0    0    0    0  0.00000000000E+00  0.00000000000E+00  0.99999998245E-14  0.12500000000E+03  0.12500000000E+03 0.  0.
          5    1    1    0  501    0  0.10941017603E+02 -0.57378962321E+02 -0.21728065187E+02  0.62500000000E+02  0.47000000000E+01 0.  1.
         -5    1    1    0    0  501 -0.10941017603E+02  0.57378962321E+02  0.21728065187E+02  0.62500000000E+02  0.47000000000E+01 0.  1.
</event>
<event>
 3    0  0.4591805E-005  0.9118800E+02  0.7546771E-02  0.1235069E+00
         25   -1    0    0    0    0  0.00000000000E+00  0.00000000000E+00  0.99999998245E-14  0.12500000000E+03  0.12500000000E+03 0.  0.
          5    1    1    0  501    0  0.23984468034E+02  0.15378090117E+02  0.55429411304E+02  0.62500000000E+02  0.47000000000E+01 0. -1.
         -5    1    1    0    0  501 -0.23984468034E+02 -0.15378090117E+02 -0.55429411304E+02  0.62500000000E+02  0.47000000000E+01 0. -1.
</event>
<event>
 3    0  0.4591805E-005  0.9118800E+02  0.7546771E-02  0.1235069E+00
         25   -1    0    0    0    0  0.00000000000E+00  0.00000000000E+00  0.99999998245E-14  0.12500000000E+03  0.12500000000E+03 0.  0.
          5    1    1    0  501    0 -0.51088882428E+02 -0.35472527930E+02  0.39731416417E+01  0.62500000000E+02  0.47000000000E+01 0.  1.
         -5    1    1    0    0  501  0.51088882428E+02  0.35472527930E+02 -0.39731416417E+01  0.62500000000E+02  0.47000000000E+01 0.  1.
</event>
<event>
 3    0  0.4591805E-005  0.9118800E+02  0.7546771E-02  0.1235069E+00
         25   -1    0    0    0    0  0.00000000000E+00  0.00000000000E+00  0.99999998245E-14  0.12500000000E+03  0.12500000000E+03 0.  0.
          5    1    1    0  501    0  0.26956528869E+02  0.43450559137E+02  0.35630807766E+02  0.62500000000E+02  0.47000000000E+01 0.  1.
         -5    1    1    0    0  501 -0.26956528869E+02 -0.43450559137E+02 -0.35630807766E+02  0.62500000000E+02  0.47000000000E+01 0.  1.
</event>
<event>
 3    0  0.4591805E-005  0.9118800E+02  0.7546771E-02  0.1235069E+00
         25   -1    0    0    0    0  0.00000000000E+00  0.00000000000E+00  0.99999998245E-14  0.12500000000E+03  0.12500000000E+03 0.  0.
          5    1    1    0  501    0  0.28692517282E+02 -0.48554295323E+02  0.26521309502E+02  0.62500000000E+02  0.47000000000E+01 0. -1.
         -5    1    1    0    0  501 -0.28692517282E+02  0.48554295323E+02 -0.26521309502E+02  0.62500000000E+02  0.47000000000E+01 0. -1.
</event>
<event>
 3    0  0.4591805E-005  0.9118800E+02  0.7546771E-02  0.1235069E+00
         25   -1    0    0    0    0  0.00000000000E+00  0.00000000000E+00  0.99999998245E-14  0.12500000000E+03  0.12500000000E+03 0.  0.
          5    1    1    0  501    0  0.30544766314E+02 -0.37304842150E+02 -0.39490834417E+02  0.62500000000E+02  0.47000000000E+01 0.  1.
         -5    1    1    0    0  501 -0.30544766314E+02  0.37304842150E+02  0.39490834417E+02  0.62500000000E+02  0.47000000000E+01 0.  1.
</event>
<event>
 3    0  0.4591805E-005  0.9118800E+02  0.7546771E-02  0.1235069E+00
         25   -1    0    0    0    0  0.00000000000E+00  0.00000000000E+00  0.99999998245E-14  0.12500000000E+03  0.12500000000E+03 0.  0.
          5    1    1    0  501    0 -0.39847477644E+01  0.40562499324E+02  0.47148334369E+02  0.62500000000E+02  0.47000000000E+01 0.  1.
         -5    1    1    0    0  501  0.39847477644E+01 -0.40562499324E+02 -0.47148334369E+02  0.62500000000E+02  0.47000000000E+01 0.  1.
</event>
<event>
 3    0  0.4591805E-005  0.9118800E+02  0.7546771E-02  0.1235069E+00
         25   -1    0    0    0    0  0.00000000000E+00  0.00000000000E+00  0.99999998245E-14  0.12500000000E+03  0.12500000000E+03 0.  0.
          5    1    1    0  501    0  0.10003773368E+02 -0.24684222982E+02 -0.56345129818E+02  0.62500000000E+02  0.47000000000E+01 0. -1.
         -5    1    1    0    0  501 -0.10003773368E+02  0.24684222982E+02  0.56345129818E+02  0.62500000000E+02  0.47000000000E+01 0. -1.
</event>
<event>
 3    0  0.4591805E-005  0.9118800E+02  0.7546771E-02  0.1235069E+00
         25   -1    0    0    0    0  0.00000000000E+00  0.00000000000E+00  0.99999998245E-14  0.12500000000E+03  0.12500000000E+03 0.  0.
          5    1    1    0  501    0  0.40835117557E+02 -0.13755305038E+02  0.45027155778E+02  0.62500000000E+02  0.47000000000E+01 0.  1.
         -5    1    1    0    0  501 -0.40835117557E+02  0.13755305038E+02 -0.45027155778E+02  0.62500000000E+02  0.47000000000E+01 0.  1.
</event>
<event>
 3    0  0.4591805E-005  0.9118800E+02  0.7546771E-02  0.1235069E+00
         25   -1    0    0    0    0  0.00000000000E+00  0.00000000000E+00  0.99999998245E-14  0.12500000000E+03  0.12500000000E+03 0.  0.
          5    1    1    0  501    0  0.34462759442E+02 -0.21452728424E+02  0.47289096574E+02  0.62500000000E+02  0.47000000000E+01 0. -1.
         -5    1    1    0    0  501 -0.34462759442E+02  0.21452728424E+02 -0.47289096574E+02  0.62500000000E+02  0.47000000000E+01 0. -1.
</event>
<event>
 3    0  0.4591805E-005  0.9118800E+02  0.7546771E-02  0.1235069E+00
         25   -1    0    0    0    0  0.00000000000E+00  0.00000000000E+00  0.99999998245E-14  0.12500000000E+03  0.12500000000E+03 0.  0.
          5    1    1    0  501    0  0.17827356746E+02  0.59582414361E+02  0.40350031499E+01  0.62500000000E+02  0.47000000000E+01 0.  1.
         -5    1    1    0    0  501 -0.17827356746E+02 -0.59582414361E+02 -0.40350031499E+01  0.62500000000E+02  0.47000000000E+01 0.  1.
</event>
<event>
 3    0  0.4591805E-005  0.9118800E+02  0.7546771E-02  0.1235069E+00
         25   -1    0    0    0    0  0.00000000000E+00  0.00000000000E+00  0.99999998245E-14  0.12500000000E+03  0.12500000000E+03 0.  0.
          5    1    1    0  501    0 -0.17352859927E+02 -0.61482816625E+01  0.59541891849E+02  0.62500000000E+02  0.47000000000E+01 0. -1.
         -5    1    1    0    0  501  0.17352859927E+02  0.61482816625E+01 -0.59541891849E+02  0.62500000000E+02  0.47000000000E+01 0. -1.
</event>
<event>
 3    0  0.4591805E-005  0.9118800E+02  0.7546771E-02  0.1235069E+00
         25   -1    0    0    0    0  0.00000000000E+00  0.00000000000E+00  0.99999998245E-14  0.12500000000E+03  0.12500000000E+03 0.  0.
          5    1    1    0  501    0  0.13175156306E+02 -0.58521045979E+02 -0.16907466807E+02  0.62500000000E+02  0.47000000000E+01 0. -1.
         -5    1    1    0    0  501 -0.13175156306E+02  0.58521045979E+02  0.16907466807E+02  0.62500000000E+02  0.47000000000E+01 0. -1.
</event>
<event>
 3    0  0.4591805E-005  0.9118800E+02  0.7546771E-02  0.1235069E+00
         25   -1    0    0    0    0  0.00000000000E+00  0.00000000000E+00  0.99999998245E-14  0.12500000000E+03  0.12500000000E+03 0.  0.
          5    1    1    0  501    0 -0.53930939169E+02 -0.12974098750E+02  0.28412788705E+02  0.62500000000E+02  0.47000000000E+01 0. -1.
         -5    1    1    0    0  501  0.53930939169E+02  0.12974098750E+02 -0.28412788705E+02  0.62500000000E+02  0.47000000000E+01 0. -1.
</event>
<event>
 3    0  0.4591805E-005  0.9118800E+02  0.7546771E-02  0.1235069E+00
         25   -1    0    0    0    0  0.00000000000E+00  0.00000000000E+00  0.99999998245E-14  0.12500000000E+03  0.12500000000E+03 0.  0.
          5    1    1    0  501    0  0.24409906961E+02 -0.64324967265E+01  0.56981921940E+02  0.62500000000E+02  0.47000000000E+01 0.  1.
         -5    1    1    0    0  501 -0.24409906961E+02  0.64324967265E+01 -0.56981921940E+02  0.62500000000E+02  0.47000000000E+01 0.  1.
</event>
<event>
 3    0  0.4591805E-005  0.9118800E+02  0.7546771E-02  0.1235069E+00
         25   -1    0    0    0    0  0.00000000000E+00  0.00000000000E+00  0.99999998245E-14  0.12500000000E+03  0.12500000000E+03 0.  0.
          5    1    1    0  501    0  0.26696197380E+02 -0.24333657199E+02  0.50787263884E+02  0.62500000000E+02  0.47000000000E+01 0.  1.
         -5    1    1    0    0  501 -0.26696197380E+02  0.24333657199E+02 -0.50787263884E+02  0.62500000000E+02  0.47000000000E+01 0.  1.
</event>
<event>
 3    0  0.4591805E-005  0.9118800E+02  0.7546771E-02  0.1235069E+00
         25   -1    0    0    0    0  0.00000000000E+00  0.00000000000E+00  0.99999998245E-14  0.12500000000E+03  0.12500000000E+03 0.  0.
          5    1    1    0  501    0 -0.14821968536E+02 -0.15225710585E+02  0.58588795737E+02  0.62500000000E+02  0.47000000000E+01 0.  1.
         -5    1    1    0    0  501  0.14821968536E+02  0.15225710585E+02 -0.58588795737E+02  0.62500000000E+02  0.47000000000E+01 0.  1.
</event>
<event>
 3    0  0.4591805E-005  0.9118800E+02  0.7546771E-02  0.1235069E+00
         25   -1    0    0    0    0  0.00000000000E+00  0.00000000000E+00  0.99999998245E-14  0.12500000000E+03  0.12500000000E+03 0.  0.
          5    1    1    0  501    0 -0.55462663044E+02  0.25710201509E+02 -0.12125945179E+02  0.62500000000E+02  0.47000000000E+01 0. -1.
         -5    1    1    0    0  501  0.55462663044E+02 -0.25710201509E+02  0.12125945179E+02  0.62500000000E+02  0.47000000000E+01 0. -1.
</event>
<event>
 3    0  0.4591805E-005  0.9118800E+02  0.7546771E-02  0.1235069E+00
         25   -1    0    0    0    0  0.00000000000E+00  0.00000000000E+00  0.99999998245E-14  0.12500000000E+03  0.12500000000E+03 0.  0.
          5    1    1    0  501    0  0.13323493815E+02  0.76822404460E+01  0.60395593335E+02  0.62500000000E+02  0.47000000000E+01 0. -1.
         -5    1    1    0    0  501 -0.13323493815E+02 -0.76822404460E+01 -0.60395593335E+02  0.62500000000E+02  0.47000000000E+01 0. -1.
</event>
<event>
 3    0  0.4591805E-005  0.9118800E+02  0.7546771E-02  0.1235069E+00
         25   -1    0    0    0    0  0.00000000000E+00  0.00000000000E+00  0.99999998245E-14  0.12500000000E+03  0.12500000000E+03 0.  0.
          5    1    1    0  501    0 -0.19812183687E+02 -0.54173412805E+02  0.23598277958E+02  0.62500000000E+02  0.47000000000E+01 0. -1.
         -5    1    1    0    0  501  0.19812183687E+02  0.54173412805E+02 -0.23598277958E+02  0.62500000000E+02  0.47000000000E+01 0. -1.
</event>
<event>
 3    0  0.4591805E-005  0.9118800E+02  0.7546771E-02  0.1235069E+00
         25   -1    0    0    0    0  0.00000000000E+00  0.00000000000E+00  0.99999998245E-14  0.12500000000E+03  0.12500000000E+03 0.  0.
          5    1    1    0  501    0  0.44907425969E+02 -0.10810306165E+02  0.41840415550E+02  0.62500000000E+02  0.47000000000E+01 0. -1.
         -5    1    1    0    0  501 -0.44907425969E+02  0.10810306165E+02 -0.41840415550E+02  0.62500000000E+02  0.47000000000E+01 0. -1.
</event>
<event>
 3    0  0.4591805E-005  0.9118800E+02  0.7546771E-02  0.1235069E+00
         25   -1    0    0    0    0  0.00000000000E+00  0.00000000000E+00  0.99999998245E-14  0.12500000000E+03  0.12500000000E+03 0.  0.
          5    1    1    0  501    0  0.56122513204E+02  0.19023124223E+02 -0.19301405558E+02  0.62500000000E+02  0.47000000000E+01 0. -1.
         -5    1    1    0    0  501 -0.56122513204E+02 -0.19023124223E+02  0.19301405558E+02  0.62500000000E+02  0.47000000000E+01 0. -1.
</event>
<event>
 3    0  0.4591805E-005  0.9118800E+02  0.7546771E-02  0.1235069E+00
         25   -1    0    0    0    0  0.00000000000E+00  0.00000000000E+00  0.99999998245E-14  0.12500000000E+03  0.12500000000E+03 0.  0.
          5    1    1    0  501    0 -0.34572440240E+02 -0.45878460164E+02  0.24167607843E+02  0.62500000000E+02  0.47000000000E+01 0. -1.
         -5    1    1    0    0  501  0.34572440240E+02  0.45878460164E+02 -0.24167607843E+02  0.62500000000E+02  0.47000000000E+01 0. -1.
</event>
<event>
 3    0  0.4591805E-005  0.9118800E+02  0.7546771E-02  0.1235069E+00
         25   -1    0    0    0    0  0.00000000000E+00  0.00000000000E+00  0.99999998245E-14  0.12500000000E+03  0.12500000000E+03 0.  0.
          5    1    1    0  501    0  0.18450976067E+00  0.29364452571E+02  0.54971400577E+02  0.62500000000E+02  0.47000000000E+01 0.  1.
         -5    1    1    0    0  501 -0.18450976067E+00 -0.29364452571E+02 -0.54971400577E+02  0.62500000000E+02  0.47000000000E+01 0.  1.
</event>
<event>
 3    0  0.4591805E-005  0.9118800E+02  0.7546771E-02  0.1235069E+00
         25   -1    0    0    0    0  0.00000000000E+00  0.00000000000E+00  0.99999998245E-14  0.12500000000E+03  0.12500000000E+03 0.  0.
          5    1    1    0  501    0  0.33455672898E+02 -0.47335177632E+02 -0.22896700843E+02  0.62500000000E+02  0.47000000000E+01 0.  1.
         -5    1    1    0    0  501 -0.33455672898E+02  0.47335177632E+02  0.22896700843E+02  0.62500000000E+02  0.47000000000E+01 0.  1.
</event>
<event>
 3    0  0.4591805E-005  0.9118800E+02  0.7546771E-02  0.1235069E+00
         25   -1    0    0    0    0  0.00000000000E+00  0.00000000000E+00  0.99999998245E-14  0.12500000000E+03  0.12500000000E+03 0.  0.
          5    1    1    0  501    0  0.18068847686E+02 -0.69287947800E+01 -0.59242455606E+02  0.62500000000E+02  0.47000000000E+01 0.  1.
         -5    1    1    0    0  501 -0.18068847686E+02  0.69287947800E+01  0.59242455606E+02  0.62500000000E+02  0.47000000000E+01 0.  1.
</event>
<event>
 3    0  0.4591805E-005  0.9118800E+02  0.7546771E-02  0.1235069E+00
         25   -1    0    0    0    0  0.00000000000E+00  0.00000000000E+00  0.99999998245E-14  0.12500000000E+03  0.12500000000E+03 0.  0.
          5    1    1    0  501    0  0.28507797637E+02  0.46486534587E+02 -0.30173955260E+02  0.62500000000E+02  0.47000000000E+01 0.  1.
         -5    1    1    0    0  501 -0.28507797637E+02 -0.46486534587E+02  0.30173955260E+02  0.62500000000E+02  0.47000000000E+01 0.  1.
</event>
<event>
 3    0  0.4591805E-005  0.9118800E+02  0.7546771E-02  0.1235069E+00
         25   -1    0    0    0    0  0.00000000000E+00  0.00000000000E+00  0.99999998245E-14  0.12500000000E+03  0.12500000000E+03 0.  0.
          5    1    1    0  501    0 -0.38339433517E+02 -0.42404088953E+02  0.24822189220E+02  0.62500000000E+02  0.47000000000E+01 0.  1.
         -5    1    1    0    0  501  0.38339433517E+02  0.42404088953E+02 -0.24822189220E+02  0.62500000000E+02  0.47000000000E+01 0.  1.
</event>
<event>
 3    0  0.4591805E-005  0.9118800E+02  0.7546771E-02  0.1235069E+00
         25   -1    0    0    0    0  0.00000000000E+00  0.00000000000E+00  0.99999998245E-14  0.12500000000E+03  0.12500000000E+03 0.  0.
          5    1    1    0  501    0 -0.60030030114E+02  0.31459981844E+01  0.16451692314E+02  0.62500000000E+02  0.47000000000E+01 0. -1.
         -5    1    1    0    0  501  0.60030030114E+02 -0.31459981844E+01 -0.16451692314E+02  0.62500000000E+02  0.47000000000E+01 0. -1.
</event>
<event>
 3    0  0.4591805E-005  0.9118800E+02  0.7546771E-02  0.1235069E+00
         25   -1    0    0    0    0  0.00000000000E+00  0.00000000000E+00  0.99999998245E-14  0.12500000000E+03  0.12500000000E+03 0.  0.
          5    1    1    0  501    0  0.33699918470E+02 -0.48575140718E+02  0.19721338681E+02  0.62500000000E+02  0.47000000000E+01 0. -1.
         -5    1    1    0    0  501 -0.33699918470E+02  0.48575140718E+02 -0.19721338681E+02  0.62500000000E+02  0.47000000000E+01 0. -1.
</event>
<event>
 3    0  0.4591805E-005  0.9118800E+02  0.7546771E-02  0.1235069E+00
         25   -1    0    0    0    0  0.00000000000E+00  0.00000000000E+00  0.99999998245E-14  0.12500000000E+03  0.12500000000E+03 0.  0.
          5    1    1    0  501    0 -0.40364868287E+02  0.16045196615E+02  0.44692158974E+02  0.62500000000E+02  0.47000000000E+01 0.  1.
         -5    1    1    0    0  501  0.40364868287E+02 -0.16045196615E+02 -0.44692158974E+02  0.62500000000E+02  0.47000000000E+01 0.  1.
</event>
<event>
 3    0  0.4591805E-005  0.9118800E+02  0.7546771E-02  0.1235069E+00
         25   -1    0    0    0    0  0.00000000000E+00  0.00000000000E+00  0.99999998245E-14  0.12500000000E+03  0.12500000000E+03 0.  0.
          5    1    1    0  501    0  0.17089350541E+02  0.42411697496E+02 -0.42348105194E+02  0.62500000000E+02  0.47000000000E+01 0.  1.
         -5    1    1    0    0  501 -0.17089350541E+02 -0.42411697496E+02  0.42348105194E+02  0.62500000000E+02  0.47000000000E+01 0.  1.
</event>
<event>
 3    0  0.4591805E-005  0.9118800E+02  0.7546771E-02  0.1235069E+00
         25   -1    0    0    0    0  0.00000000000E+00  0.00000000000E+00  0.99999998245E-14  0.12500000000E+03  0.12500000000E+03 0.  0.
          5    1    1    0  501    0 -0.30312191783E+02 -0.52954791253E+02  0.12693349148E+02  0.62500000000E+02  0.47000000000E+01 0. -1.
         -5    1    1    0    0  501  0.30312191783E+02  0.52954791253E+02 -0.12693349148E+02  0.62500000000E+02  0.47000000000E+01 0. -1.
</event>
<event>
 3    0  0.4591805E-005  0.9118800E+02  0.7546771E-02  0.1235069E+00
         25   -1    0    0    0    0  0.00000000000E+00  0.00000000000E+00  0.99999998245E-14  0.12500000000E+03  0.12500000000E+03 0.  0.
          5    1    1    0  501    0  0.50279692448E+02  0.23842997555E+02  0.28064639583E+02  0.62500000000E+02  0.47000000000E+01 0.  1.
         -5    1    1    0    0  501 -0.50279692448E+02 -0.23842997555E+02 -0.28064639583E+02  0.62500000000E+02  0.47000000000E+01 0.  1.
</event>
<event>
 3    0  0.4591805E-005  0.9118800E+02  0.7546771E-02  0.1235069E+00
         25   -1    0    0    0    0  0.00000000000E+00  0.00000000000E+00  0.99999998245E-14  0.12500000000E+03  0.12500000000E+03 0.  0.
          5    1    1    0  501    0  0.30197981705E+02 -0.31299903655E+02 -0.44638077156E+02  0.62500000000E+02  0.47000000000E+01 0.  1.
         -5    1    1    0    0  501 -0.30197981705E+02  0.31299903655E+02  0.44638077156E+02  0.62500000000E+02  0.47000000000E+01 0.  1.
</event>
<event>
 3    0  0.4591805E-005  0.9118800E+02  0.7546771E-02  0.1235069E+00
         25   -1    0    0    0    0  0.00000000000E+00  0.00000000000E+00  0.99999998245E-14  0.12500000000E+03  0.12500000000E+03 0.  0.
          5    1    1    0  501    0 -0.32911319247E+02 -0.41884229925E+02  0.32352995982E+02  0.62500000000E+02  0.47000000000E+01 0.  1.
         -5    1    1    0    0  501  0.32911319247E+02  0.41884229925E+02 -0.32352995982E+02  0.62500000000E+02  0.47000000000E+01 0.  1.
</event>
<event>
 3    0  0.4591805E-005  0.9118800E+02  0.7546771E-02  0.1235069E+00
         25   -1    0    0    0    0  0.00000000000E+00  0.00000000000E+00  0.99999998245E-14  0.12500000000E+03  0.12500000000E+03 0.  0.
          5    1    1    0  501    0  0.53438365302E+02 -0.16562465438E+02 -0.27462444401E+02  0.62500000000E+02  0.47000000000E+01 0. -1.
         -5    1    1    0    0  501 -0.53438365302E+02  0.16562465438E+02  0.27462444401E+02  0.62500000000E+02  0.47000000000E+01 0. -1.
</event>
<event>
 3    0  0.4591805E-005  0.9118800E+02  0.7546771E-02  0.1235069E+00
         25   -1    0    0    0    0  0.00000000000E+00  0.00000000000E+00  0.99999998245E-14  0.12500000000E+03  0.12500000000E+03 0.  0.
          5    1    1    0  501    0 -0.69533928172E+01 -0.29587173312E+02  0.54409645319E+02  0.62500000000E+02  0.47000000000E+01 0.  1.
         -5    1    1    0    0  501  0.69533928172E+01  0.29587173312E+02 -0.54409645319E+02  0.62500000000E+02  0.47000000000E+01 0.  1.
</event>
<event>
 3    0  0.4591805E-005  0.9118800E+02  0.7546771E-02  0.1235069E+00
         25   -1    0    0    0    0  0.00000000000E+00  0.00000000000E+00  0.99999998245E-14  0.12500000000E+03  0.12500000000E+03 0.  0.
          5    1    1    0  501    0 -0.58047791598E+01 -0.10301510663E+02 -0.61191040332E+02  0.62500000000E+02  0.47000000000E+01 0. -1.
         -5    1    1    0    0  501  0.58047791598E+01  0.10301510663E+02  0.61191040332E+02  0.62500000000E+02  0.47000000000E+01 0. -1.
</event>
<event>
 3    0  0.4591805E-005  0.9118800E+02  0.7546771E-02  0.1235069E+00
         25   -1    0    0    0    0  0.00000000000E+00  0.00000000000E+00  0.99999998245E-14  0.12500000000E+03  0.12500000000E+03 0.  0.
          5    1    1    0  501    0 -0.23154530082E+02 -0.39973267563E+02 -0.41834980781E+02  0.62500000000E+02  0.47000000000E+01 0. -1.
         -5    1    1    0    0  501  0.23154530082E+02  0.39973267563E+02  0.41834980781E+02  0.62500000000E+02  0.47000000000E+01 0. -1.
</event>
<event>
 3    0  0.4591805E-005  0.9118800E+02  0.7546771E-02  0.1235069E+00
         25   -1    0    0    0    0  0.00000000000E+00  0.00000000000E+00  0.99999998245E-14  0.12500000000E+03  0.12500000000E+03 0.  0.
          5    1    1    0  501    0  0.24910683182E+02  0.51255645935E+02 -0.25228488325E+02  0.62500000000E+02  0.47000000000E+01 0.  1.
         -5    1    1    0    0  501 -0.24910683182E+02 -0.51255645935E+02  0.25228488325E+02  0.62500000000E+02  0.47000000000E+01 0.  1.
</event>
<event>
 3    0  0.4591805E-005  0.9118800E+02  0.7546771E-02  0.1235069E+00
         25   -1    0    0    0    0  0.00000000000E+00  0.00000000000E+00  0.99999998245E-14  0.12500000000E+03  0.12500000000E+03 0.  0.
          5    1    1    0  501    0  0.46716616898E+02  0.40852749375E+02 -0.57245588509E+01  0.62500000000E+02  0.47000000000E+01 0. -1.
         -5    1    1    0    0  501 -0.46716616898E+02 -0.40852749375E+02  0.57245588509E+01  0.62500000000E+02  0.47000000000E+01 0. -1.
</event>
<event>
 3    0  0.4591805E-005  0.9118800E+02  0.7546771E-02  0.1235069E+00
         25   -1    0    0    0    0  0.00000000000E+00  0.00000000000E+00  0.99999998245E-14  0.12500000000E+03  0.12500000000E+03 0.  0.
          5    1    1    0  501    0 -0.80191217755E+01 -0.41528239497E+02  0.45773999282E+02  0.62500000000E+02  0.47000000000E+01 0. -1.
         -5    1    1    0    0  501  0.80191217755E+01  0.41528239497E+02 -0.45773999282E+02  0.62500000000E+02  0.47000000000E+01 0. -1.
</event>
<event>
 3    0  0.4591805E-005  0.9118800E+02  0.7546771E-02  0.1235069E+00
         25   -1    0    0    0    0  0.00000000000E+00  0.00000000000E+00  0.99999998245E-14  0.12500000000E+03  0.12500000000E+03 0.  0.
          5    1    1    0  501    0  0.16451767076E+02 -0.59864296813E+02  0.54557609191E+01  0.62500000000E+02  0.47000000000E+01 0.  1.
         -5    1    1    0    0  501 -0.16451767076E+02  0.59864296813E+02 -0.54557609191E+01  0.62500000000E+02  0.47000000000E+01 0.  1.
</event>
<event>
 3    0  0.4591805E-005  0.9118800E+02  0.7546771E-02  0.1235069E+00
         25   -1    0    0    0    0  0.00000000000E+00  0.00000000000E+00  0.99999998245E-14  0.12500000000E+03  0.12500000000E+03 0.  0.
          5    1    1    0  501    0 -0.52209206562E+02 -0.23749774256E+02 -0.24378412026E+02  0.62500000000E+02  0.47000000000E+01 0.  1.
         -5    1    1    0    0  501  0.52209206562E+02  0.23749774256E+02  0.24378412026E+02  0.62500000000E+02  0.47000000000E+01 0.  1.
</event>
<event>
 3    0  0.4591805E-005  0.9118800E+02  0.7546771E-02  0.1235069E+00
         25   -1    0    0    0    0  0.00000000000E+00  0.00000000000E+00  0.99999998245E-14  0.12500000000E+03  0.12500000000E+03 0.  0.
          5    1    1    0  501    0  0.33243981579E+02 -0.29179566509E+02  0.43903878953E+02  0.62500000000E+02  0.47000000000E+01 0.  1.
         -5    1    1    0    0  501 -0.33243981579E+02  0.29179566509E+02 -0.43903878953E+02  0.62500000000E+02  0.47000000000E+01 0.  1.
</event>
<event>
 3    0  0.4591805E-005  0.9118800E+02  0.7546771E-02  0.1235069E+00
         25   -1    0    0    0    0  0.00000000000E+00  0.00000000000E+00  0.99999998245E-14  0.12500000000E+03  0.12500000000E+03 0.  0.
          5    1    1    0  501    0 -0.22391338975E+02 -0.28987965580E+02 -0.50423068039E+02  0.62500000000E+02  0.47000000000E+01 0. -1.
         -5    1    1    0    0  501  0.22391338975E+02  0.28987965580E+02  0.50423068039E+02  0.62500000000E+02  0.47000000000E+01 0. -1.
</event>
<event>
 3    0  0.4591805E-005  0.9118800E+02  0.7546771E-02  0.1235069E+00
         25   -1    0    0    0    0  0.00000000000E+00  0.00000000000E+00  0.99999998245E-14  0.12500000000E+03  0.12500000000E+03 0.  0.
          5    1    1    0  501    0 -0.13378674623E+02 -0.58404208947E+02  0.17149910862E+02  0.62500000000E+02  0.47000000000E+01 0. -1.
         -5    1    1    0    0  501  0.13378674623E+02  0.58404208947E+02 -0.17149910862E+02  0.62500000000E+02  0.47000000000E+01 0. -1.
</event>
<event>
 3    0  0.4591805E-005  0.9118800E+02  0.7546771E-02  0.1235069E+00
         25   -1    0    0    0    0  0.00000000000E+00  0.00000000000E+00  0.99999998245E-14  0.12500000000E+03  0.12500000000E+03 0.  0.
          5    1    1    0  501    0  0.37359956489E+02  0.26117286481E+02 -0.42500364681E+02  0.62500000000E+02  0.47000000000E+01 0.  1.
         -5    1    1    0    0  501 -0.37359956489E+02 -0.26117286481E+02  0.42500364681E+02  0.62500000000E+02  0.47000000000E+01 0.  1.
</event>
<event>
 3    0  0.4591805E-005  0.9118800E+02  0.7546771E-02  0.1235069E+00
         25   -1    0    0    0    0  0.00000000000E+00  0.00000000000E+00  0.99999998245E-14  0.12500000000E+03  0.12500000000E+03 0.  0.
          5    1    1    0  501    0 -0.14111671700E+02 -0.44549942014E+02 -0.41234977730E+02  0.62500000000E+02  0.47000000000E+01 0.  1.
         -5    1    1    0    0  501  0.14111671700E+02  0.44549942014E+02  0.41234977730E+02  0.62500000000E+02  0.47000000000E+01 0.  1.
</event>
<event>
 3    0  0.4591805E-005  0.9118800E+02  0.7546771E-02  0.1235069E+00
         25   -1    0    0    0    0  0.00000000000E+00  0.00000000000E+00  0.99999998245E-14  0.12500000000E+03  0.12500000000E+03 0.  0.
          5    1    1    0  501    0 -0.47227772673E+02 -0.40081749535E+02  0.68666471088E+01  0.62500000000E+02  0.47000000000E+01 0.  1.
         -5    1    1    0    0  501  0.47227772673E+02  0.40081749535E+02 -0.68666471088E+01  0.62500000000E+02  0.47000000000E+01 0.  1.
</event>
<event>
 3    0  0.4591805E-005  0.9118800E+02  0.7546771E-02  0.1235069E+00
         25   -1    0    0    0    0  0.00000000000E+00  0.00000000000E+00  0.99999998245E-14  0.12500000000E+03  0.12500000000E+03 0.  0.
          5    1    1    0  501    0  0.24954214413E+01  0.41950693294E+02 -0.46022518445E+02  0.62500000000E+02  0.47000000000E+01 0. -1.
         -5    1    1    0    0  501 -0.24954214413E+01 -0.41950693294E+02  0.46022518445E+02  0.62500000000E+02  0.47000000000E+01 0. -1.
</event>
<event>
 3    0  0.4591805E-005  0.9118800E+02  0.7546771E-02  0.1235069E+00
         25   -1    0    0    0    0  0.00000000000E+00  0.00000000000E+00  0.99999998245E-14  0.12500000000E+03  0.12500000000E+03 0.  0.
          5    1    1    0  501    0 -0.55456724045E+02  0.26813441193E+02 -0.94737072749E+01  0.62500000000E+02  0.47000000000E+01 0. -1.
         -5    1    1    0    0  501  0.55456724045E+02 -0.26813441193E+02  0.94737072749E+01  0.62500000000E+02  0.47000000000E+01 0. -1.
</event>
<event>
 3    0  0.4591805E-005  0.9118800E+02  0.7546771E-02  0.1235069E+00
         25   -1    0    0    0    0  0.00000000000E+00  0.00000000000E+00  0.99999998245E-14  0.12500000000E+03  0.12500000000E+03 0.  0.
          5    1    1    0  501    0 -0.60317331185E+02 -0.13789092675E+01  0.15623001246E+02  0.62500000000E+02  0.47000000000E+01 0. -1.
         -5    1    1    0    0  501  0.60317331185E+02  0.13789092675E+01 -0.15623001246E+02  0.62500000000E+02  0.47000000000E+01 0. -1.
</event>
<event>
 3    0  0.4591805E-005  0.9118800E+02  0.7546771E-02  0.1235069E+00
         25   -1    0    0    0    0  0.00000000000E+00  0.00000000000E+00  0.99999998245E-14  0.12500000000E+03  0.12500000000E+03 0.  0.
          5    1    1    0  501    0 -0.54956381872E+02  0.21231933749E+02 -0.20326364180E+02  0.62500000000E+02  0.47000000000E+01 0.  1.
         -5    1    1    0    0  501  0.54956381872E+02 -0.21231933749E+02  0.20326364180E+02  0.62500000000E+02  0.47000000000E+01 0.  1.
</event>
<event>
 3    0  0.4591805E-005  0.9118800E+02  0.7546771E-02  0.1235069E+00
         25   -1    0    0    0    0  0.00000000000E+00  0.00000000000E+00  0.99999998245E-14  0.12500000000E+03  0.12500000000E+03 0.  0.
          5    1    1    0  501    0 -0.52841822616E+01 -0.31206813416E+02 -0.53687728712E+02  0.62500000000E+02  0.47000000000E+01 0. -1.
         -5    1    1    0    0  501  0.52841822616E+01  0.31206813416E+02  0.53687728712E+02  0.62500000000E+02  0.47000000000E+01 0. -1.
</event>
<event>
 3    0  0.4591805E-005  0.9118800E+02  0.7546771E-02  0.1235069E+00
         25   -1    0    0    0    0  0.00000000000E+00  0.00000000000E+00  0.99999998245E-14  0.12500000000E+03  0.12500000000E+03 0.  0.
          5    1    1    0  501    0  0.38230314928E+00 -0.41317005731E+02  0.46657463302E+02  0.62500000000E+02  0.47000000000E+01 0. -1.
         -5    1    1    0    0  501 -0.38230314928E+00  0.41317005731E+02 -0.46657463302E+02  0.62500000000E+02  0.47000000000E+01 0. -1.
</event>
<event>
 3    0  0.4591805E-005  0.9118800E+02  0.7546771E-02  0.1235069E+00
         25   -1    0    0    0    0  0.00000000000E+00  0.00000000000E+00  0.99999998245E-14  0.12500000000E+03  0.12500000000E+03 0.  0.
          5    1    1    0  501    0  0.40788817348E+02 -0.25734810016E+02 -0.39473433253E+02  0.62500000000E+02  0.47000000000E+01 0.  1.
         -5    1    1    0    0  501 -0.40788817348E+02  0.25734810016E+02  0.39473433253E+02  0.62500000000E+02  0.47000000000E+01 0.  1.
</event>
<event>
 3    0  0.4591805E-005  0.9118800E+02  0.7546771E-02  0.1235069E+00
         25   -1    0    0    0    0  0.00000000000E+00  0.00000000000E+00  0.99999998245E-14  0.12500000000E+03  0.12500000000E+03 0.  0.
          5    1    1    0  501    0  0.34760889446E+02 -0.39593618147E+02 -0.33289427254E+02  0.62500000000E+02  0.47000000000E+01 0.  1.
         -5    1    1    0    0  501 -0.34760889446E+02  0.39593618147E+02  0.33289427254E+02  0.62500000000E+02  0.47000000000E+01 0.  1.
</event>
<event>
 3    0  0.4591805E-005  0.9118800E+02  0.7546771E-02  0.1235069E+00
         25   -1    0    0    0    0  0.00000000000E+00  0.00000000000E+00  0.99999998245E-14  0.12500000000E+03  0.12500000000E+03 0.  0.
          5    1    1    0  501    0  0.49207997380E+02 -0.28771700583E+02  0.25197663372E+02  0.62500000000E+02  0.47000000000E+01 0.  1.
         -5    1    1    0    0  501 -0.49207997380E+02  0.28771700583E+02 -0.25197663372E+02  0.62500000000E+02  0.47000000000E+01 0.  1.
</event>
<event>
 3    0  0.4591805E-005  0.9118800E+02  0.7546771E-02  0.1235069E+00
         25   -1    0    0    0    0  0.00000000000E+00  0.00000000000E+00  0.99999998245E-14  0.12500000000E+03  0.12500000000E+03 0.  0.
          5    1    1    0  501    0  0.60305862918E+02 -0.42163842782E+01  0.15152062610E+02  0.62500000000E+02  0.47000000000E+01 0. -1.
         -5    1    1    0    0  501 -0.60305862918E+02  0.42163842782E+01 -0.15152062610E+02  0.62500000000E+02  0.47000000000E+01 0. -1.
</event>
<event>
 3    0  0.4591805E-005  0.9118800E+02  0.7546771E-02  0.1235069E+00
         25   -1    0    0    0    0  0.00000000000E+00  0.00000000000E+00  0.99999998245E-14  0.12500000000E+03  0.12500000000E+03 0.  0.
          5    1    1    0  501    0 -0.71357126210E+01 -0.44153692302E+02  0.43401532939E+02  0.62500000000E+02  0.47000000000E+01 0.  1.
         -5    1    1    0    0  501  0.71357126210E+01  0.44153692302E+02 -0.43401532939E+02  0.62500000000E+02  0.47000000000E+01 0.  1.
</event>
<event>
 3    0  0.4591805E-005  0.9118800E+02  0.7546771E-02  0.1235069E+00
         25   -1    0    0    0    0  0.00000000000E+00  0.00000000000E+00  0.99999998245E-14  0.12500000000E+03  0.12500000000E+03 0.  0.
          5    1    1    0  501    0 -0.15356043777E+02 -0.29925217735E+02  0.52467449557E+02  0.62500000000E+02  0.47000000000E+01 0.  1.
         -5    1    1    0    0  501  0.15356043777E+02  0.29925217735E+02 -0.52467449557E+02  0.62500000000E+02  0.47000000000E+01 0.  1.
</event>
<event>
 3    0  0.4591805E-005  0.9118800E+02  0.7546771E-02  0.1235069E+00
         25   -1    0    0    0    0  0.00000000000E+00  0.00000000000E+00  0.99999998245E-14  0.12500000000E+03  0.12500000000E+03 0.  0.
          5    1    1    0  501    0  0.31439254540E+02  0.49993829251E+02  0.19908548685E+02  0.62500000000E+02  0.47000000000E+01 0.  1.
         -5    1    1    0    0  501 -0.31439254540E+02 -0.49993829251E+02 -0.19908548685E+02  0.62500000000E+02  0.47000000000E+01 0.  1.
</event>
<event>
 3    0  0.4591805E-005  0.9118800E+02  0.7546771E-02  0.1235069E+00
         25   -1    0    0    0    0  0.00000000000E+00  0.00000000000E+00  0.99999998245E-14  0.12500000000E+03  0.12500000000E+03 0.  0.
          5    1    1    0  501    0 -0.40443846280E+02  0.23832569768E+02 -0.40993461873E+02  0.62500000000E+02  0.47000000000E+01 0. -1.
         -5    1    1    0    0  501  0.40443846280E+02 -0.23832569768E+02  0.40993461873E+02  0.62500000000E+02  0.47000000000E+01 0. -1.
</event>
<event>
 3    0  0.4591805E-005  0.9118800E+02  0.7546771E-02  0.1235069E+00
         25   -1    0    0    0    0  0.00000000000E+00  0.00000000000E+00  0.99999998245E-14  0.12500000000E+03  0.12500000000E+03 0.  0.
          5    1    1    0  501    0  0.45505764030E+02  0.41674114311E+02 -0.87552062462E+01  0.62500000000E+02  0.47000000000E+01 0.  1.
         -5    1    1    0    0  501 -0.45505764030E+02 -0.41674114311E+02  0.87552062462E+01  0.62500000000E+02  0.47000000000E+01 0.  1.
</event>
<event>
 3    0  0.4591805E-005  0.9118800E+02  0.7546771E-02  0.1235069E+00
         25   -1    0    0    0    0  0.00000000000E+00  0.00000000000E+00  0.99999998245E-14  0.12500000000E+03  0.12500000000E+03 0.  0.
          5    1    1    0  501    0 -0.16442846503E+02  0.33956900588E+02  0.49605661988E+02  0.62500000000E+02  0.47000000000E+01 0.  1.
         -5    1    1    0    0  501  0.16442846503E+02 -0.33956900588E+02 -0.49605661988E+02  0.62500000000E+02  0.47000000000E+01 0.  1.
</event>
<event>
 3    0  0.4591805E-005  0.9118800E+02  0.7546771E-02  0.1235069E+00
         25   -1    0    0    0    0  0.00000000000E+00  0.00000000000E+00  0.99999998245E-14  0.12500000000E+03  0.12500000000E+03 0.  0.
          5    1    1    0  501    0 -0.19532381431E+02 -0.38572415291E+02 -0.44886689055E+02  0.62500000000E+02  0.47000000000E+01 0.  1.
         -5    1    1    0    0  501  0.19532381431E+02  0.38572415291E+02  0.44886689055E+02  0.62500000000E+02  0.47000000000E+01 0.  1.
</event>
<event>
 3    0  0.4591805E-005  0.9118800E+02  0.7546771E-02  0.1235069E+00
         25   -1    0    0    0    0  0.00000000000E+00  0.00000000000E+00  0.99999998245E-14  0.12500000000E+03  0.12500000000E+03 0.  0.
          5    1    1    0  501    0 -0.56865070088E+02 -0.16228484932E+01  0.25453686700E+02  0.62500000000E+02  0.47000000000E+01 0.  1.
         -5    1    1    0    0  501  0.56865070088E+02  0.16228484932E+01 -0.25453686700E+02  0.62500000000E+02  0.47000000000E+01 0.  1.
</event>
<event>
 3    0  0.4591805E-005  0.9118800E+02  0.7546771E-02  0.1235069E+00
         25   -1    0    0    0    0  0.00000000000E+00  0.00000000000E+00  0.99999998245E-14  0.12500000000E+03  0.12500000000E+03 0.  0.
          5    1    1    0  501    0 -0.21802129525E+01  0.50041674475E+02 -0.37084194574E+02  0.62500000000E+02  0.47000000000E+01 0. -1.
         -5    1    1    0    0  501  0.21802129525E+01 -0.50041674475E+02  0.37084194574E+02  0.62500000000E+02  0.47000000000E+01 0. -1.
</event>
<event>
 3    0  0.4591805E-005  0.9118800E+02  0.7546771E-02  0.1235069E+00
         25   -1    0    0    0    0  0.00000000000E+00  0.00000000000E+00  0.99999998245E-14  0.12500000000E+03  0.12500000000E+03 0.  0.
          5    1    1    0  501    0  0.49293652063E+02  0.37546912686E+02 -0.66727216400E+01  0.62500000000E+02  0.47000000000E+01 0. -1.
         -5    1    1    0    0  501 -0.49293652063E+02 -0.37546912686E+02  0.66727216400E+01  0.62500000000E+02  0.47000000000E+01 0. -1.
</event>
<event>
 3    0  0.4591805E-005  0.9118800E+02  0.7546771E-02  0.1235069E+00
         25   -1    0    0    0    0  0.00000000000E+00  0.00000000000E+00  0.99999998245E-14  0.12500000000E+03  0.12500000000E+03 0.  0.
          5    1    1    0  501    0  0.38745553222E+02  0.14721103748E+01  0.48793185965E+02  0.62500000000E+02  0.47000000000E+01 0.  1.
         -5    1    1    0    0  501 -0.38745553222E+02 -0.14721103748E+01 -0.48793185965E+02  0.62500000000E+02  0.47000000000E+01 0.  1.
</event>
<event>
 3    0  0.4591805E-005  0.9118800E+02  0.7546771E-02  0.1235069E+00
         25   -1    0    0    0    0  0.00000000000E+00  0.00000000000E+00  0.99999998245E-14  0.12500000000E+03  0.12500000000E+03 0.  0.
          5    1    1    0  501    0  0.79096091953E+01 -0.61569909796E+02 -0.55447533816E+01  0.62500000000E+02  0.47000000000E+01 0. -1.
         -5    1    1    0    0  501 -0.79096091953E+01  0.61569909796E+02  0.55447533816E+01  0.62500000000E+02  0.47000000000E+01 0. -1.
</event>
<event>
 3    0  0.4591805E-005  0.9118800E+02  0.7546771E-02  0.1235069E+00
         25   -1    0    0    0    0  0.00000000000E+00  0.00000000000E+00  0.99999998245E-14  0.12500000000E+03  0.12500000000E+03 0.  0.
          5    1    1    0  501    0  0.43853840969E+02 -0.41485103337E+02  0.15491508427E+02  0.62500000000E+02  0.47000000000E+01 0. -1.
         -5    1    1    0    0  501 -0.43853840969E+02  0.41485103337E+02 -0.15491508427E+02  0.62500000000E+02  0.47000000000E+01 0. -1.
</event>
<event>
 3    0  0.4591805E-005  0.9118800E+02  0.7546771E-02  0.1235069E+00
         25   -1    0    0    0    0  0.00000000000E+00  0.00000000000E+00  0.99999998245E-14  0.12500000000E+03  0.12500000000E+03 0.  0.
          5    1    1    0  501    0  0.12179005562E+02  0.60164831173E+02  0.10771486127E+02  0.62500000000E+02  0.47000000000E+01 0.  1.
         -5    1    1    0    0  501 -0.12179005562E+02 -0.60164831173E+02 -0.10771486127E+02  0.62500000000E+02  0.47000000000E+01 0.  1.
</event>
<event>
 3    0  0.4591805E-005  0.9118800E+02  0.7546771E-02  0.1235069E+00
         25   -1    0    0    0    0  0.00000000000E+00  0.00000000000E+00  0.99999998245E-14  0.12500000000E+03  0.12500000000E+03 0.  0.
          5    1    1    0  501    0 -0.53564437627E+02  0.21442805323E+02  0.23563045678E+02  0.62500000000E+02  0.47000000000E+01 0. -1.
         -5    1    1    0    0  501  0.53564437627E+02 -0.21442805323E+02 -0.23563045678E+02  0.62500000000E+02  0.47000000000E+01 0. -1.
</event>
<event>
 3    0  0.4591805E-005  0.9118800E+02  0.7546771E-02  0.1235069E+00
         25   -1    0    0    0    0  0.00000000000E+00  0.00000000000E+00  0.99999998245E-14  0.12500000000E+03  0.12500000000E+03 0.  0.
          5    1    1    0  501    0  0.21141456998E+02 -0.41480044319E+02 -0.41431928742E+02  0.62500000000E+02  0.47000000000E+01 0.  1.
         -5    1    1    0    0  501 -0.21141456998E+02  0.41480044319E+02  0.41431928742E+02  0.62500000000E+02  0.47000000000E+01 0.  1.
</event>
<event>
 3    0  0.4591805E-005  0.9118800E+02  0.7546771E-02  0.1235069E+00
         25   -1    0    0    0    0  0.00000000000E+00  0.00000000000E+00  0.99999998245E-14  0.12500000000E+03  0.12500000000E+03 0.  0.
          5    1    1    0  501    0  0.11937327073E+02 -0.12768800403E+02  0.59821550955E+02  0.62500000000E+02  0.47000000000E+01 0. -1.
         -5    1    1    0    0  501 -0.11937327073E+02  0.12768800403E+02 -0.59821550955E+02  0.62500000000E+02  0.47000000000E+01 0. -1.
</event>
<event>
 3    0  0.4591805E-005  0.9118800E+02  0.7546771E-02  0.1235069E+00
         25   -1    0    0    0    0  0.00000000000E+00  0.00000000000E+00  0.99999998245E-14  0.12500000000E+03  0.12500000000E+03 0.  0.
          5    1    1    0  501    0  0.16584436411E+01 -0.34860800129E+00  0.62299984247E+02  0.62500000000E+02  0.47000000000E+01 0. -1.
         -5    1    1    0    0  501 -0.16584436411E+01  0.34860800129E+00 -0.62299984247E+02  0.62500000000E+02  0.47000000000E+01 0. -1.
</event>
<event>
 3    0  0.4591805E-005  0.9118800E+02  0.7546771E-02  0.1235069E+00
         25   -1    0    0    0    0  0.00000000000E+00  0.00000000000E+00  0.99999998245E-14  0.12500000000E+03  0.12500000000E+03 0.  0.
          5    1    1    0  501    0 -0.46296403894E+02  0.29831147164E+02 -0.29170287030E+02  0.62500000000E+02  0.47000000000E+01 0. -1.
         -5    1    1    0    0  501  0.46296403894E+02 -0.29831147164E+02  0.29170287030E+02  0.62500000000E+02  0.47000000000E+01 0. -1.
</event>
<event>
 3    0  0.4591805E-005  0.9118800E+02  0.7546771E-02  0.1235069E+00
         25   -1    0    0    0    0  0.00000000000E+00  0.00000000000E+00  0.99999998245E-14  0.12500000000E+03  0.12500000000E+03 0.  0.
          5    1    1    0  501    0  0.34046079772E+01  0.33706289830E+02  0.52311133332E+02  0.62500000000E+02  0.47000000000E+01 0. -1.
         -5    1    1    0    0  501 -0.34046079772E+01 -0.33706289830E+02 -0.52311133332E+02  0.62500000000E+02  0.47000000000E+01 0. -1.
</event>
<event>
 3    0  0.4591805E-005  0.9118800E+02  0.7546771E-02  0.1235069E+00
         25   -1    0    0    0    0  0.00000000000E+00  0.00000000000E+00  0.99999998245E-14  0.12500000000E+03  0.12500000000E+03 0.  0.
          5    1    1    0  501    0 -0.25184954745E+02  0.56515827048E+02  0.74725730225E+01  0.62500000000E+02  0.47000000000E+01 0. -1.
         -5    1    1    0    0  501  0.25184954745E+02 -0.56515827048E+02 -0.74725730225E+01  0.62500000000E+02  0.47000000000E+01 0. -1.
</event>
<event>
 3    0  0.4591805E-005  0.9118800E+02  0.7546771E-02  0.1235069E+00
         25   -1    0    0    0    0  0.00000000000E+00  0.00000000000E+00  0.99999998245E-14  0.12500000000E+03  0.12500000000E+03 0.  0.
          5    1    1    0  501    0  0.45858522179E+02  0.15564710228E+02  0.39228761631E+02  0.62500000000E+02  0.47000000000E+01 0.  1.
         -5    1    1    0    0  501 -0.45858522179E+02 -0.15564710228E+02 -0.39228761631E+02  0.62500000000E+02  0.47000000000E+01 0.  1.
</event>
<event>
 3    0  0.4591805E-005  0.9118800E+02  0.7546771E-02  0.1235069E+00
         25   -1    0    0    0    0  0.00000000000E+00  0.00000000000E+00  0.99999998245E-14  0.12500000000E+03  0.12500000000E+03 0.  0.
          5    1    1    0  501    0  0.51201178927E+02  0.28678105652E+02  0.20980122323E+02  0.62500000000E+02  0.47000000000E+01 0.  1.
         -5    1    1    0    0  501 -0.51201178927E+02 -0.28678105652E+02 -0.20980122323E+02  0.62500000000E+02  0.47000000000E+01 0.  1.
</event>
<event>
 3    0  0.4591805E-005  0.9118800E+02  0.7546771E-02  0.1235069E+00
         25   -1    0    0    0    0  0.00000000000E+00  0.00000000000E+00  0.99999998245E-14  0.12500000000E+03  0.12500000000E+03 0.  0.
          5    1    1    0  501    0  0.91071026871E+01 -0.24585337377E+02  0.56540090791E+02  0.62500000000E+02  0.47000000000E+01 0.  1.
         -5    1    1    0    0  501 -0.91071026871E+01  0.24585337377E+02 -0.56540090791E+02  0.62500000000E+02  0.47000000000E+01 0.  1.
</event>
<event>
 3    0  0.4591805E-005  0.9118800E+02  0.7546771E-02  0.1235069E+00
         25   -1    0    0    0    0  0.00000000000E+00  0.00000000000E+00  0.99999998245E-14  0.12500000000E+03  0.12500000000E+03 0.  0.
          5    1    1    0  501    0  0.88789386734E+01  0.58813088651E+02 -0.18610347964E+02  0.62500000000E+02  0.47000000000E+01 0. -1.
         -5    1    1    0    0  501 -0.88789386734E+01 -0.58813088651E+02  0.18610347964E+02  0.62500000000E+02  0.47000000000E+01 0. -1.
</event>
<event>
 3    0  0.4591805E-005  0.9118800E+02  0.7546771E-02  0.1235069E+00
         25   -1    0    0    0    0  0.00000000000E+00  0.00000000000E+00  0.99999998245E-14  0.12500000000E+03  0.12500000000E+03 0.  0.
          5    1    1    0  501    0  0.83818700892E+01  0.61724002817E+02  0.20128909731E+01  0.62500000000E+02  0.47000000000E+01 0. -1.
         -5    1    1    0    0  501 -0.83818700892E+01 -0.61724002817E+02 -0.20128909731E+01  0.62500000000E+02  0.47000000000E+01 0. -1.
</event>
<event>
 3    0  0.4591805E-005  0.9118800E+02  0.7546771E-02  0.1235069E+00
         25   -1    0    0    0    0  0.00000000000E+00  0.00000000000E+00  0.99999998245E-14  0.12500000000E+03  0.12500000000E+03 0.  0.
          5    1    1    0  501    0 -0.19215191092E+02 -0.19421811557E+02  0.56015441328E+02  0.62500000000E+02  0.47000000000E+01 0. -1.
         -5    1    1    0    0  501  0.19215191092E+02  0.19421811557E+02 -0.56015441328E+02  0.62500000000E+02  0.47000000000E+01 0. -1.
</event>
<event>
 3    0  0.4591805E-005  0.9118800E+02  0.7546771E-02  0.1235069E+00
         25   -1    0    0    0    0  0.00000000000E+00  0.00000000000E+00  0.99999998245E-14  0.12500000000E+03  0.12500000000E+03 0.  0.
          5    1    1    0  501    0 -0.34255896046E+02  0.20800264732E+02  0.47728844247E+02  0.62500000000E+02  0.47000000000E+01 0.  1.
         -5    1    1    0    0  501  0.34255896046E+02 -0.20800264732E+02 -0.47728844247E+02  0.62500000000E+02  0.47000000000E+01 0.  1.
</event>
<event>
 3    0  0.4591805E-005  0.9118800E+02  0.7546771E-02  0.1235069E+00
         25   -1    0    0    0    0  0.00000000000E+00  0.00000000000E+00  0.99999998245E-14  0.12500000000E+03  0.12500000000E+03 0.  0.
          5    1    1    0  501    0 -0.32619515459E+02  0.52244198918E+02  0.95221263714E+01  0.62500000000E+02  0.47000000000E+01 0. -1.
         -5    1    1    0    0  501  0.32619515459E+02 -0.52244198918E+02 -0.95221263714E+01  0.62500000000E+02  0.47000000000E+01 0. -1.
</event>
<event>
 3    0  0.4591805E-005  0.9118800E+02  0.7546771E-02  0.1235069E+00
         25   -1    0    0    0    0  0.00000000000E+00  0.00000000000E+00  0.99999998245E-14  0.12500000000E+03  0.12500000000E+03 0.  0.
          5    1    1    0  501    0  0.42787337802E+02  0.33234855484E+02 -0.30803378140E+02  0.62500000000E+02  0.47000000000E+01 0. -1.
         -5    1    1    0    0  501 -0.42787337802E+02 -0.33234855484E+02  0.30803378140E+02  0.62500000000E+02  0.47000000000E+01 0. -1.
</event>
<event>
 3    0  0.4591805E-005  0.9118800E+02  0.7546771E-02  0.1235069E+00
         25   -1    0    0    0    0  0.00000000000E+00  0.00000000000E+00  0.99999998245E-14  0.12500000000E+03  0.12500000000E+03 0.  0.
          5    1    1    0  501    0  0.32285109637E+02 -0.39014551418E+02  0.36327626861E+02  0.62500000000E+02  0.47000000000E+01 0. -1.
         -5    1    1    0    0  501 -0.32285109637E+02  0.39014551418E+02 -0.36327626861E+02  0.62500000000E+02  0.47000000000E+01 0. -1.
</event>
<event>
 3    0  0.4591805E-005  0.9118800E+02  0.7546771E-02  0.1235069E+00
         25   -1    0    0    0    0  0.00000000000E+00  0.00000000000E+00  0.99999998245E-14  0.12500000000E+03  0.12500000000E+03 0.  0.
          5    1    1    0  501    0  0.42184245679E+02  0.36227863713E+02  0.28145893258E+02  0.62500000000E+02  0.47000000000E+01 0.  1.
         -5    1    1    0    0  501 -0.42184245679E+02 -0.36227863713E+02 -0.28145893258E+02  0.62500000000E+02  0.47000000000E+01 0.  1.
</event>
<event>
 3    0  0.4591805E-005  0.9118800E+02  0.7546771E-02  0.1235069E+00
         25   -1    0    0    0    0  0.00000000000E+00  0.00000000000E+00  0.99999998245E-14  0.12500000000E+03  0.12500000000E+03 0.  0.
          5    1    1    0  501    0 -0.22967514204E+02 -0.20826638802E+02 -0.54063891901E+02  0.62500000000E+02  0.47000000000E+01 0. -1.
         -5    1    1    0    0  501  0.22967514204E+02  0.20826638802E+02  0.54063891901E+02  0.62500000000E+02  0.47000000000E+01 0. -1.
</event>
<event>
 3    0  0.4591805E-005  0.9118800E+02  0.7546771E-02  0.1235069E+00
         25   -1    0    0    0    0  0.00000000000E+00  0.00000000000E+00  0.99999998245E-14  0.12500000000E+03  0.12500000000E+03 0.  0.
          5    1    1    0  501    0  0.42680719665E+02  0.22404693440E+02  0.39503745149E+02  0.62500000000E+02  0.47000000000E+01 0. -1.
         -5    1    1    0    0  501 -0.42680719665E+02 -0.22404693440E+02 -0.39503745149E+02  0.62500000000E+02  0.47000000000E+01 0. -1.
</event>
<event>
 3    0  0.4591805E-005  0.9118800E+02  0.7546771E-02  0.1235069E+00
         25   -1    0    0    0    0  0.00000000000E+00  0.00000000000E+00  0.99999998245E-14  0.12500000000E+03  0.12500000000E+03 0.  0.
          5    1    1    0  501    0 -0.40989052373E+02  0.26878330506E+01  0.46870386590E+02  0.62500000000E+02  0.47000000000E+01 0. -1.
         -5    1    1    0    0  501  0.40989052373E+02 -0.26878330506E+01 -0.46870386590E+02  0.62500000000E+02  0.47000000000E+01 0. -1.
</event>
<event>
 3    0  0.4591805E-005  0.9118800E+02  0.7546771E-02  0.1235069E+00
         25   -1    0    0    0    0  0.00000000000E+00  0.00000000000E+00  0.99999998245E-14  0.12500000000E+03  0.12500000000E+03 0.  0.
          5    1    1    0  501    0  0.10600244389E+02  0.13393146415E+02 -0.59936787101E+02  0.62500000000E+02  0.47000000000E+01 0. -1.
         -5    1    1    0    0  501 -0.10600244389E+02 -0.13393146415E+02  0.59936787101E+02  0.62500000000E+02  0.47000000000E+01 0. -1.
</event>
<event>
 3    0  0.4591805E-005  0.9118800E+02  0.7546771E-02  0.1235069E+00
         25   -1    0    0    0    0  0.00000000000E+00  0.00000000000E+00  0.99999998245E-14  0.12500000000E+03  0.12500000000E+03 0.  0.
          5    1    1    0  501    0 -0.25404153146E+02  0.43644112293E+02  0.36523697309E+02  0.62500000000E+02  0.47000000000E+01 0.  1.
         -5    1    1    0    0  501  0.25404153146E+02 -0.43644112293E+02 -0.36523697309E+02  0.62500000000E+02  0.47000000000E+01 0.  1.
</event>
<event>
 3    0  0.4591805E-005  0.9118800E+02  0.7546771E-02  0.1235069E+00
         25   -1    0    0    0    0  0.00000000000E+00  0.00000000000E+00  0.99999998245E-14  0.12500000000E+03  0.12500000000E+03 0.  0.
          5    1    1    0  501    0  0.18852869737E+02  0.51925901666E+01  0.59175723993E+02  0.62500000000E+02  0.47000000000E+01 0.  1.
         -5    1    1    0    0  501 -0.18852869737E+02 -0.51925901666E+01 -0.59175723993E+02  0.62500000000E+02  0.47000000000E+01 0.  1.
</event>
<event>
 3    0  0.4591805E-005  0.9118800E+02  0.7546771E-02  0.1235069E+00
         25   -1    0    0    0    0  0.00000000000E+00  0.00000000000E+00  0.99999998245E-14  0.12500000000E+03  0.12500000000E+03 0.  0.
          5    1    1    0  501    0 -0.54359192149E+02  0.19269445912E+02  0.23620471695E+02  0.62500000000E+02  0.47000000000E+01 0.  1.
         -5    1    1    0    0  501  0.54359192149E+02 -0.19269445912E+02 -0.23620471695E+02  0.62500000000E+02  0.47000000000E+01 0.  1.
</event>
<event>
 3    0  0.4591805E-005  0.9118800E+02  0.7546771E-02  0.1235069E+00
         25   -1    0    0    0    0  0.00000000000E+00  0.00000000000E+00  0.99999998245E-14  0.12500000000E+03  0.12500000000E+03 0.  0.
          5    1    1    0  501    0  0.35366060133E+02  0.44537472748E+02 -0.25491475280E+02  0.62500000000E+02  0.47000000000E+01 0.  1.
         -5    1    1    0    0  501 -0.35366060133E+02 -0.44537472748E+02  0.25491475280E+02  0.62500000000E+02  0.47000000000E+01 0.  1.
</event>
<event>
 3    0  0.4591805E-005  0.9118800E+02  0.7546771E-02  0.1235069E+00
         25   -1    0    0    0    0  0.00000000000E+00  0.00000000000E+00  0.99999998245E-14  0.12500000000E+03  0.12500000000E+03 0.  0.
          5    1    1    0  501    0 -0.32214345774E+02 -0.17390671049E+02  0.50437689150E+02  0.62500000000E+02  0.47000000000E+01 0.  1.
         -5    1    1    0    0  501  0.32214345774E+02  0.17390671049E+02 -0.50437689150E+02  0.62500000000E+02  0.47000000000E+01 0.  1.
</event>
<event>
 3    0  0.4591805E-005  0.9118800E+02  0.7546771E-02  0.1235069E+00
         25   -1    0    0    0    0  0.00000000000E+00  0.00000000000E+00  0.99999998245E-14  0.12500000000E+03  0.12500000000E+03 0.  0.
          5    1    1    0  501    0 -0.57407151645E+02  0.85572537714E+01  0.22701373260E+02  0.62500000000E+02  0.47000000000E+01 0. -1.
         -5    1    1    0    0  501  0.57407151645E+02 -0.85572537714E+01 -0.22701373260E+02  0.62500000000E+02  0.47000000000E+01 0. -1.
</event>
<event>
 3    0  0.4591805E-005  0.9118800E+02  0.7546771E-02  0.1235069E+00
         25   -1    0    0    0    0  0.00000000000E+00  0.00000000000E+00  0.99999998245E-14  0.12500000000E+03  0.12500000000E+03 0.  0.
          5    1    1    0  501    0 -0.40082954324E+02 -0.32280515680E+02  0.35149467707E+02  0.62500000000E+02  0.47000000000E+01 0.  1.
         -5    1    1    0    0  501  0.40082954324E+02  0.32280515680E+02 -0.35149467707E+02  0.62500000000E+02  0.47000000000E+01 0.  1.
</event>
<event>
 3    0  0.4591805E-005  0.9118800E+02  0.7546771E-02  0.1235069E+00
         25   -1    0    0    0    0  0.00000000000E+00  0.00000000000E+00  0.99999998245E-14  0.12500000000E+03  0.12500000000E+03 0.  0.
          5    1    1    0  501    0  0.61086739218E+02 -0.10997113114E+02  0.56243928446E+01  0.62500000000E+02  0.47000000000E+01 0.  1.
         -5    1    1    0    0  501 -0.61086739218E+02  0.10997113114E+02 -0.56243928446E+01  0.62500000000E+02  0.47000000000E+01 0.  1.
</event>
<event>
 3    0  0.4591805E-005  0.9118800E+02  0.7546771E-02  0.1235069E+00
         25   -1    0    0    0    0  0.00000000000E+00  0.00000000000E+00  0.99999998245E-14  0.12500000000E+03  0.12500000000E+03 0.  0.
          5    1    1    0  501    0  0.49430149576E+02 -0.18095605432E+02 -0.33367190126E+02  0.62500000000E+02  0.47000000000E+01 0. -1.
         -5    1    1    0    0  501 -0.49430149576E+02  0.18095605432E+02  0.33367190126E+02  0.62500000000E+02  0.47000000000E+01 0. -1.
</event>
<event>
 3    0  0.4591805E-005  0.9118800E+02  0.7546771E-02  0.1235069E+00
         25   -1    0    0    0    0  0.00000000000E+00  0.00000000000E+00  0.99999998245E-14  0.12500000000E+03  0.12500000000E+03 0.  0.
          5    1    1    0  501    0  0.47373562626E+01  0.18452060210E+02 -0.59340028056E+02  0.62500000000E+02  0.47000000000E+01 0. -1.
         -5    1    1    0    0  501 -0.47373562626E+01 -0.18452060210E+02  0.59340028056E+02  0.62500000000E+02  0.47000000000E+01 0. -1.
</event>
<event>
 3    0  0.4591805E-005  0.9118800E+02  0.7546771E-02  0.1235069E+00
         25   -1    0    0    0    0  0.00000000000E+00  0.00000000000E+00  0.99999998245E-14  0.12500000000E+03  0.12500000000E+03 0.  0.
          5    1    1    0  501    0 -0.46762371809E+02  0.30996538289E+02 -0.27141392685E+02  0.62500000000E+02  0.47000000000E+01 0. -1.
         -5    1    1    0    0  501  0.46762371809E+02 -0.30996538289E+02  0.27141392685E+02  0.62500000000E+02  0.47000000000E+01 0. -1.
</event>
<event>
 3    0  0.4591805E-005  0.9118800E+02  0.7546771E-02  0.1235069E+00
         25   -1    0    0    0    0  0.00000000000E+00  0.00000000000E+00  0.99999998245E-14  0.12500000000E+03  0.12500000000E+03 0.  0.
          5    1    1    0  501    0  0.36690840278E+02 -0.17956515138E+02  0.47069159795E+02  0.62500000000E+02  0.47000000000E+01 0. -1.
         -5    1    1    0    0  501 -0.36690840278E+02  0.17956515138E+02 -0.47069159795E+02  0.62500000000E+02  0.47000000000E+01 0. -1.
</event>
<event>
 3    0  0.4591805E-005  0.9118800E+02  0.7546771E-02  0.1235069E+00
         25   -1    0    0    0    0  0.00000000000E+00  0.00000000000E+00  0.99999998245E-14  0.12500000000E+03  0.12500000000E+03 0.  0.
          5    1    1    0  501    0  0.24362289661E+02 -0.56326624959E+02 -0.10860486323E+02  0.62500000000E+02  0.47000000000E+01 0.  1.
         -5    1    1    0    0  501 -0.24362289661E+02  0.56326624959E+02  0.10860486323E+02  0.62500000000E+02  0.47000000000E+01 0.  1.
</event>
<event>
 3    0  0.4591805E-005  0.9118800E+02  0.7546771E-02  0.1235069E+00
         25   -1    0    0    0    0  0.00000000000E+00  0.00000000000E+00  0.99999998245E-14  0.12500000000E+03  0.12500000000E+03 0.  0.
          5    1    1    0  501    0 -0.61485702610E+02 -0.61162780446E+01 -0.81399949310E+01  0.62500000000E+02  0.47000000000E+01 0. -1.
         -5    1    1    0    0  501  0.61485702610E+02  0.61162780446E+01  0.81399949310E+01  0.62500000000E+02  0.47000000000E+01 0. -1.
</event>
<event>
 3    0  0.4591805E-005  0.9118800E+02  0.7546771E-02  0.1235069E+00
         25   -1    0    0    0    0  0.00000000000E+00  0.00000000000E+00  0.99999998245E-14  0.12500000000E+03  0.12500000000E+03 0.  0.
          5    1    1    0  501    0  0.32409016577E+02  0.33323277489E+02 -0.41513549860E+02  0.62500000000E+02  0.47000000000E+01 0. -1.
         -5    1    1    0    0  501 -0.32409016577E+02 -0.33323277489E+02  0.41513549860E+02  0.62500000000E+02  0.47000000000E+01 0. -1.
</event>
<event>
 3    0  0.4591805E-005  0.9118800E+02  0.7546771E-02  0.1235069E+00
         25   -1    0    0    0    0  0.00000000000E+00  0.00000000000E+00  0.99999998245E-14  0.12500000000E+03  0.12500000000E+03 0.  0.
          5    1    1    0  501    0  0.14488526156E+02  0.53199295554E+02  0.29053012966E+02  0.62500000000E+02  0.47000000000E+01 0. -1.
         -5    1    1    0    0  501 -0.14488526156E+02 -0.53199295554E+02 -0.29053012966E+02  0.62500000000E+02  0.47000000000E+01 0. -1.
</event>
<event>
 3    0  0.4591805E-005  0.9118800E+02  0.7546771E-02  0.1235069E+00
         25   -1    0    0    0    0  0.00000000000E+00  0.00000000000E+00  0.99999998245E-14  0.12500000000E+03  0.12500000000E+03 0.  0.
          5    1    1    0  501    0  0.53315208229E+02 -0.21181876251E+02  0.24351112704E+02  0.62500000000E+02  0.47000000000E+01 0. -1.
         -5    1    1    0    0  501 -0.53315208229E+02  0.21181876251E+02 -0.24351112704E+02  0.62500000000E+02  0.47000000000E+01 0. -1.
</event>
<event>
 3    0  0.4591805E-005  0.9118800E+02  0.7546771E-02  0.1235069E+00
         25   -1    0    0    0    0  0.00000000000E+00  0.00000000000E+00  0.99999998245E-14  0.12500000000E+03  0.12500000000E+03 0.  0.
          5    1    1    0  501    0 -0.11174838488E+02  0.58623266928E+02 -0.17960945394E+02  0.62500000000E+02  0.47000000000E+01 0. -1.
         -5    1    1    0    0  501  0.11174838488E+02 -0.58623266928E+02  0.17960945394E+02  0.62500000000E+02  0.47000000000E+01 0. -1.
</event>
<event>
 3    0  0.4591805E-005  0.9118800E+02  0.7546771E-02  0.1235069E+00
         25   -1    0    0    0    0  0.00000000000E+00  0.00000000000E+00  0.99999998245E-14  0.12500000000E+03  0.12500000000E+03 0.  0.
          5    1    1    0  501    0 -0.50932833458E+02 -0.43927061951E+01  0.35647028043E+02  0.62500000000E+02  0.47000000000E+01 0. -1.
         -5    1    1    0    0  501  0.50932833458E+02  0.43927061951E+01 -0.35647028043E+02  0.62500000000E+02  0.47000000000E+01 0. -1.
</event>
<event>
 3    0  0.4591805E-005  0.9118800E+02  0.7546771E-02  0.1235069E+00
         25   -1    0    0    0    0  0.00000000000E+00  0.00000000000E+00  0.99999998245E-14  0.12500000000E+03  0.12500000000E+03 0.  0.
          5    1    1    0  501    0 -0.44843297226E+02  0.18726805806E+02 -0.39019808280E+02  0.62500000000E+02  0.47000000000E+01 0. -1.
         -5    1    1    0    0  501  0.44843297226E+02 -0.18726805806E+02  0.39019808280E+02  0.62500000000E+02  0.47000000000E+01 0. -1.
</event>
<event>
 3    0  0.4591805E-005  0.9118800E+02  0.7546771E-02  0.1235069E+00
         25   -1    0    0    0    0  0.00000000000E+00  0.00000000000E+00  0.99999998245E-14  0.12500000000E+03  0.12500000000E+03 0.  0.
          5    1    1    0  501    0 -0.44314948360E+02 -0.41109455193E+02 -0.15177550712E+02  0.62500000000E+02  0.47000000000E+01 0. -1.
         -5    1    1    0    0  501  0.44314948360E+02  0.41109455193E+02  0.15177550712E+02  0.62500000000E+02  0.47000000000E+01 0. -1.
</event>
<event>
 3    0  0.4591805E-005  0.9118800E+02  0.7546771E-02  0.1235069E+00
         25   -1    0    0    0    0  0.00000000000E+00  0.00000000000E+00  0.99999998245E-14  0.12500000000E+03  0.12500000000E+03 0.  0.
          5    1    1    0  501    0 -0.29713414081E+02 -0.44835277598E+02 -0.31481278665E+02  0.62500000000E+02  0.47000000000E+01 0.  1.
         -5    1    1    0    0  501  0.29713414081E+02  0.44835277598E+02  0.31481278665E+02  0.62500000000E+02  0.47000000000E+01 0.  1.
</event>
<event>
 3    0  0.4591805E-005  0.9118800E+02  0.7546771E-02  0.1235069E+00
         25   -1    0    0    0    0  0.00000000000E+00  0.00000000000E+00  0.99999998245E-14  0.12500000000E+03  0.12500000000E+03 0.  0.
          5    1    1    0  501    0 -0.35419768661E+01 -0.57227151330E+02  0.24426779373E+02  0.62500000000E+02  0.47000000000E+01 0. -1.
         -5    1    1    0    0  501  0.35419768661E+01  0.57227151330E+02 -0.24426779373E+02  0.62500000000E+02  0.47000000000E+01 0. -1.
</event>
<event>
 3    0  0.4591805E-005  0.9118800E+02  0.7546771E-02  0.1235069E+00
         25   -1    0    0    0    0  0.00000000000E+00  0.00000000000E+00  0.99999998245E-14  0.12500000000E+03  0.12500000000E+03 0.  0.
          5    1    1    0  501    0 -0.45697183193E+02 -0.41518859465E+02  0.84918641634E+01  0.62500000000E+02  0.47000000000E+01 0.  1.
         -5    1    1    0    0  501  0.45697183193E+02  0.41518859465E+02 -0.84918641634E+01  0.62500000000E+02  0.47000000000E+01 0.  1.
</event>
<event>
 3    0  0.4591805E-005  0.9118800E+02  0.7546771E-02  0.1235069E+00
         25   -1    0    0    0    0  0.00000000000E+00  0.00000000000E+00  0.99999998245E-14  0.12500000000E+03  0.12500000000E+03 0.  0.
          5    1    1    0  501    0  0.27189821449E+02 -0.31079571296E+02 -0.46679051593E+02  0.62500000000E+02  0.47000000000E+01 0.  1.
         -5    1    1    0    0  501 -0.27189821449E+02  0.31079571296E+02  0.46679051593E+02  0.62500000000E+02  0.47000000000E+01 0.  1.
</event>
<event>
 3    0  0.4591805E-005  0.9118800E+02  0.7546771E-02  0.1235069E+00
         25   -1    0    0    0    0  0.00000000000E+00  0.00000000000E+00  0.99999998245E-14  0.12500000000E+03  0.12500000000E+03 0.  0.
          5    1    1    0  501    0 -0.42752516937E+02  0.23396671791E+02 -0.38845566603E+02  0.62500000000E+02  0.47000000000E+01 0.  1.
         -5    1    1    0    0  501  0.42752516937E+02 -0.23396671791E+02  0.38845566603E+02  0.62500000000E+02  0.47000000000E+01 0.  1.
</event>
<event>
 3    0  0.4591805E-005  0.9118800E+02  0.7546771E-02  0.1235069E+00
         25   -1    0    0    0    0  0.00000000000E+00  0.00000000000E+00  0.99999998245E-14  0.12500000000E+03  0.12500000000E+03 0.  0.
          5    1    1    0  501    0  0.54358405252E+02 -0.12313200006E+02  0.27887432367E+02  0.62500000000E+02  0.47000000000E+01 0.  1.
         -5    1    1    0    0  501 -0.54358405252E+02  0.12313200006E+02 -0.27887432367E+02  0.62500000000E+02  0.47000000000E+01 0.  1.
</event>
<event>
 3    0  0.4591805E-005  0.9118800E+02  0.7546771E-02  0.1235069E+00
         25   -1    0    0    0    0  0.00000000000E+00  0.00000000000E+00  0.99999998245E-14  0.12500000000E+03  0.12500000000E+03 0.  0.
          5    1    1    0  501    0 -0.16647386674E+02  0.94320379240E+01 -0.59313246223E+02  0.62500000000E+02  0.47000000000E+01 0. -1.
         -5    1    1    0    0  501  0.16647386674E+02 -0.94320379240E+01  0.59313246223E+02  0.62500000000E+02  0.47000000000E+01 0. -1.
</event>
<event>
 3    0  0.4591805E-005  0.9118800E+02  0.7546771E-02  0.1235069E+00
         25   -1    0    0    0    0  0.00000000000E+00  0.00000000000E+00  0.99999998245E-14  0.12500000000E+03  0.12500000000E+03 0.  0.
          5    1    1    0  501    0 -0.61220529723E+02  0.11323330364E+02 -0.28264695183E+01  0.62500000000E+02  0.47000000000E+01 0. -1.
         -5    1    1    0    0  501  0.61220529723E+02 -0.11323330364E+02  0.28264695183E+01  0.62500000000E+02  0.47000000000E+01 0. -1.
</event>
<event>
 3    0  0.4591805E-005  0.9118800E+02  0.7546771E-02  0.1235069E+00
         25   -1    0    0    0    0  0.00000000000E+00  0.00000000000E+00  0.99999998245E-14  0.12500000000E+03  0.12500000000E+03 0.  0.
          5    1    1    0  501    0 -0.52180394746E+02 -0.23918557311E+02  0.24274863962E+02  0.62500000000E+02  0.47000000000E+01 0. -1.
         -5    1    1    0    0  501  0.52180394746E+02  0.23918557311E+02 -0.24274863962E+02  0.62500000000E+02  0.47000000000E+01 0. -1.
</event>
<event>
 3    0  0.4591805E-005  0.9118800E+02  0.7546771E-02  0.1235069E+00
         25   -1    0    0    0    0  0.00000000000E+00  0.00000000000E+00  0.99999998245E-14  0.12500000000E+03  0.12500000000E+03 0.  0.
          5    1    1    0  501    0 -0.42092958287E+02  0.45831531127E+02 -0.34370943042E+01  0.62500000000E+02  0.47000000000E+01 0. -1.
         -5    1    1    0    0  501  0.42092958287E+02 -0.45831531127E+02  0.34370943042E+01  0.62500000000E+02  0.47000000000E+01 0. -1.
</event>
<event>
 3    0  0.4591805E-005  0.9118800E+02  0.7546771E-02  0.1235069E+00
         25   -1    0    0    0    0  0.00000000000E+00  0.00000000000E+00  0.99999998245E-14  0.12500000000E+03  0.12500000000E+03 0.  0.
          5    1    1    0  501    0 -0.39960091222E+02 -0.44516880641E+02  0.17481374302E+02  0.62500000000E+02  0.47000000000E+01 0.  1.
         -5    1    1    0    0  501  0.39960091222E+02  0.44516880641E+02 -0.17481374302E+02  0.62500000000E+02  0.47000000000E+01 0.  1.
</event>
<event>
 3    0  0.4591805E-005  0.9118800E+02  0.7546771E-02  0.1235069E+00
         25   -1    0    0    0    0  0.00000000000E+00  0.00000000000E+00  0.99999998245E-14  0.12500000000E+03  0.12500000000E+03 0.  0.
          5    1    1    0  501    0  0.22489169945E+02 -0.41968433195E+02  0.40212533498E+02  0.62500000000E+02  0.47000000000E+01 0. -1.
         -5    1    1    0    0  501 -0.22489169945E+02  0.41968433195E+02 -0.40212533498E+02  0.62500000000E+02  0.47000000000E+01 0. -1.
</event>
<event>
 3    0  0.4591805E-005  0.9118800E+02  0.7546771E-02  0.1235069E+00
         25   -1    0    0    0    0  0.00000000000E+00  0.00000000000E+00  0.99999998245E-14  0.12500000000E+03  0.12500000000E+03 0.  0.
          5    1    1    0  501    0  0.18275130337E+02  0.40545181694E+02 -0.43660827437E+02  0.62500000000E+02  0.47000000000E+01 0.  1.
         -5    1    1    0    0  501 -0.18275130337E+02 -0.40545181694E+02  0.43660827437E+02  0.62500000000E+02  0.47000000000E+01 0.  1.
</event>
<event>
 3    0  0.4591805E-005  0.9118800E+02  0.7546771E-02  0.1235069E+00
         25   -1    0    0    0    0  0.00000000000E+00  0.00000000000E+00  0.99999998245E-14  0.12500000000E+03  0.12500000000E+03 0.  0.
          5    1    1    0  501    0  0.65282361076E+01 -0.54530681650E+02  0.29460938412E+02  0.62500000000E+02  0.47000000000E+01 0. -1.
         -5    1    1    0    0  501 -0.65282361076E+01  0.54530681650E+02 -0.29460938412E+02  0.62500000000E+02  0.47000000000E+01 0. -1.
</event>
<event>
 3    0  0.4591805E-005  0.9118800E+02  0.7546771E-02  0.1235069E+00
         25   -1    0    0    0    0  0.00000000000E+00  0.00000000000E+00  0.99999998245E-14  0.12500000000E+03  0.12500000000E+03 0.  0.
          5    1    1    0  501    0 -0.44810664027E+02 -0.42454332936E+02  0.85903436750E+01  0.62500000000E+02  0.47000000000E+01 0. -1.
         -5    1    1    0    0  501  0.44810664027E+02  0.42454332936E+02 -0.85903436750E+01  0.62500000000E+02  0.47000000000E+01 0. -1.
</event>
<event>
 3    0  0.4591805E-005  0.9118800E+02  0.7546771E-02  0.1235069E+00
         25   -1    0    0    0    0  0.00000000000E+00  0.00000000000E+00  0.99999998245E-14  0.12500000000E+03  0.12500000000E+03 0.  0.
          5    1    1    0  501    0  0.58995221621E+02 -0.18447086689E+02  0.79642211506E+01  0.62500000000E+02  0.47000000000E+01 0. -1.
         -5    1    1    0    0  501 -0.58995221621E+02  0.18447086689E+02 -0.79642211506E+01  0.62500000000E+02  0.47000000000E+01 0. -1.
</event>
<event>
 3    0  0.4591805E-005  0.9118800E+02  0.7546771E-02  0.1235069E+00
         25   -1    0    0    0    0  0.00000000000E+00  0.00000000000E+00  0.99999998245E-14  0.12500000000E+03  0.12500000000E+03 0.  0.
          5    1    1    0  501    0  0.52216394220E+02 -0.26232043034E+02 -0.21667673916E+02  0.62500000000E+02  0.47000000000E+01 0.  1.
         -5    1    1    0    0  501 -0.52216394220E+02  0.26232043034E+02  0.21667673916E+02  0.62500000000E+02  0.47000000000E+01 0.  1.
</event>
<event>
 3    0  0.4591805E-005  0.9118800E+02  0.7546771E-02  0.1235069E+00
         25   -1    0    0    0    0  0.00000000000E+00  0.00000000000E+00  0.99999998245E-14  0.12500000000E+03  0.12500000000E+03 0.  0.
          5    1    1    0  501    0 -0.35744320907E+02  0.19245926671E+01 -0.51017638773E+02  0.62500000000E+02  0.47000000000E+01 0.  1.
         -5    1    1    0    0  501  0.35744320907E+02 -0.19245926671E+01  0.51017638773E+02  0.62500000000E+02  0.47000000000E+01 0.  1.
</event>
<event>
 3    0  0.4591805E-005  0.9118800E+02  0.7546771E-02  0.1235069E+00
         25   -1    0    0    0    0  0.00000000000E+00  0.00000000000E+00  0.99999998245E-14  0.12500000000E+03  0.12500000000E+03 0.  0.
          5    1    1    0  501    0  0.26705407585E+02  0.38121918797E+02  0.41445150657E+02  0.62500000000E+02  0.47000000000E+01 0.  1.
         -5    1    1    0    0  501 -0.26705407585E+02 -0.38121918797E+02 -0.41445150657E+02  0.62500000000E+02  0.47000000000E+01 0.  1.
</event>
<event>
 3    0  0.4591805E-005  0.9118800E+02  0.7546771E-02  0.1235069E+00
         25   -1    0    0    0    0  0.00000000000E+00  0.00000000000E+00  0.99999998245E-14  0.12500000000E+03  0.12500000000E+03 0.  0.
          5    1    1    0  501    0 -0.32174820512E+02 -0.49870595375E+02 -0.19022740129E+02  0.62500000000E+02  0.47000000000E+01 0. -1.
         -5    1    1    0    0  501  0.32174820512E+02  0.49870595375E+02  0.19022740129E+02  0.62500000000E+02  0.47000000000E+01 0. -1.
</event>
<event>
 3    0  0.4591805E-005  0.9118800E+02  0.7546771E-02  0.1235069E+00
         25   -1    0    0    0    0  0.00000000000E+00  0.00000000000E+00  0.99999998245E-14  0.12500000000E+03  0.12500000000E+03 0.  0.
          5    1    1    0  501    0  0.48132594766E+02  0.16781779427E+02  0.35857847123E+02  0.62500000000E+02  0.47000000000E+01 0.  1.
         -5    1    1    0    0  501 -0.48132594766E+02 -0.16781779427E+02 -0.35857847123E+02  0.62500000000E+02  0.47000000000E+01 0.  1.
</event>
<event>
 3    0  0.4591805E-005  0.9118800E+02  0.7546771E-02  0.1235069E+00
         25   -1    0    0    0    0  0.00000000000E+00  0.00000000000E+00  0.99999998245E-14  0.12500000000E+03  0.12500000000E+03 0.  0.
          5    1    1    0  501    0  0.84740551276E+00 -0.50048027193E+02  0.37129999703E+02  0.62500000000E+02  0.47000000000E+01 0. -1.
         -5    1    1    0    0  501 -0.84740551276E+00  0.50048027193E+02 -0.37129999703E+02  0.62500000000E+02  0.47000000000E+01 0. -1.
</event>
<event>
 3    0  0.4591805E-005  0.9118800E+02  0.7546771E-02  0.1235069E+00
         25   -1    0    0    0    0  0.00000000000E+00  0.00000000000E+00  0.99999998245E-14  0.12500000000E+03  0.12500000000E+03 0.  0.
          5    1    1    0  501    0 -0.32676888015E+02  0.34019518732E+02  0.40731478428E+02  0.62500000000E+02  0.47000000000E+01 0.  1.
         -5    1    1    0    0  501  0.32676888015E+02 -0.34019518732E+02 -0.40731478428E+02  0.62500000000E+02  0.47000000000E+01 0.  1.
</event>
<event>
 3    0  0.4591805E-005  0.9118800E+02  0.7546771E-02  0.1235069E+00
         25   -1    0    0    0    0  0.00000000000E+00  0.00000000000E+00  0.99999998245E-14  0.12500000000E+03  0.12500000000E+03 0.  0.
          5    1    1    0  501    0  0.54311913628E+02  0.21674099289E+02 -0.21554801276E+02  0.62500000000E+02  0.47000000000E+01 0.  1.
         -5    1    1    0    0  501 -0.54311913628E+02 -0.21674099289E+02  0.21554801276E+02  0.62500000000E+02  0.47000000000E+01 0.  1.
</event>
<event>
 3    0  0.4591805E-005  0.9118800E+02  0.7546771E-02  0.1235069E+00
         25   -1    0    0    0    0  0.00000000000E+00  0.00000000000E+00  0.99999998245E-14  0.12500000000E+03  0.12500000000E+03 0.  0.
          5    1    1    0  501    0  0.39896245064E+02 -0.18653639176E+02  0.44096387327E+02  0.62500000000E+02  0.47000000000E+01 0.  1.
         -5    1    1    0    0  501 -0.39896245064E+02  0.18653639176E+02 -0.44096387327E+02  0.62500000000E+02  0.47000000000E+01 0.  1.
</event>
<event>
 3    0  0.4591805E-005  0.9118800E+02  0.7546771E-02  0.1235069E+00
         25   -1    0    0    0    0  0.00000000000E+00  0.00000000000E+00  0.99999998245E-14  0.12500000000E+03  0.12500000000E+03 0.  0.
          5    1    1    0  501    0  0.65504649241E+01 -0.37520390535E+02  0.49330231131E+02  0.62500000000E+02  0.47000000000E+01 0. -1.
         -5    1    1    0    0  501 -0.65504649241E+01  0.37520390535E+02 -0.49330231131E+02  0.62500000000E+02  0.47000000000E+01 0. -1.
</event>
<event>
 3    0  0.4591805E-005  0.9118800E+02  0.7546771E-02  0.1235069E+00
         25   -1    0    0    0    0  0.00000000000E+00  0.00000000000E+00  0.99999998245E-14  0.12500000000E+03  0.12500000000E+03 0.  0.
          5    1    1    0  501    0 -0.11858085032E+02  0.38740669805E+01  0.61061750912E+02  0.62500000000E+02  0.47000000000E+01 0. -1.
         -5    1    1    0    0  501  0.11858085032E+02 -0.38740669805E+01 -0.61061750912E+02  0.62500000000E+02  0.47000000000E+01 0. -1.
</event>
<event>
 3    0  0.4591805E-005  0.9118800E+02  0.7546771E-02  0.1235069E+00
         25   -1    0    0    0    0  0.00000000000E+00  0.00000000000E+00  0.99999998245E-14  0.12500000000E+03  0.12500000000E+03 0.  0.
          5    1    1    0  501    0 -0.27321583425E+02  0.26483817546E+02 -0.49358874454E+02  0.62500000000E+02  0.47000000000E+01 0. -1.
         -5    1    1    0    0  501  0.27321583425E+02 -0.26483817546E+02  0.49358874454E+02  0.62500000000E+02  0.47000000000E+01 0. -1.
</event>
<event>
 3    0  0.4591805E-005  0.9118800E+02  0.7546771E-02  0.1235069E+00
         25   -1    0    0    0    0  0.00000000000E+00  0.00000000000E+00  0.99999998245E-14  0.12500000000E+03  0.12500000000E+03 0.  0.
          5    1    1    0  501    0  0.10601613060E+02 -0.61028706624E+02  0.68747922346E+01  0.62500000000E+02  0.47000000000E+01 0.  1.
         -5    1    1    0    0  501 -0.10601613060E+02  0.61028706624E+02 -0.68747922346E+01  0.62500000000E+02  0.47000000000E+01 0.  1.
</event>
<event>
 3    0  0.4591805E-005  0.9118800E+02  0.7546771E-02  0.1235069E+00
         25   -1    0    0    0    0  0.00000000000E+00  0.00000000000E+00  0.99999998245E-14  0.12500000000E+03  0.12500000000E+03 0.  0.
          5    1    1    0  501    0 -0.14952810786E+02  0.50614805993E+02  0.33146868085E+02  0.62500000000E+02  0.47000000000E+01 0. -1.
         -5    1    1    0    0  501  0.14952810786E+02 -0.50614805993E+02 -0.33146868085E+02  0.62500000000E+02  0.47000000000E+01 0. -1.
</event>
<event>
 3    0  0.4591805E-005  0.9118800E+02  0.7546771E-02  0.1235069E+00
         25   -1    0    0    0    0  0.00000000000E+00  0.00000000000E+00  0.99999998245E-14  0.12500000000E+03  0.12500000000E+03 0.  0.
          5    1    1    0  501    0 -0.40211596997E+02  0.37226736580E+02  0.29687666641E+02  0.62500000000E+02  0.47000000000E+01 0.  1.
         -5    1    1    0    0  501  0.40211596997E+02 -0.37226736580E+02 -0.29687666641E+02  0.62500000000E+02  0.47000000000E+01 0.  1.
</event>
<event>
 3    0  0.4591805E-005  0.9118800E+02  0.7546771E-02  0.1235069E+00
         25   -1    0    0    0    0  0.00000000000E+00  0.00000000000E+00  0.99999998245E-14  0.12500000000E+03  0.12500000000E+03 0.  0.
          5    1    1    0  501    0 -0.52834998273E+02  0.19556308129E+02 -0.26649085723E+02  0.62500000000E+02  0.47000000000E+01 0.  1.
         -5    1    1    0    0  501  0.52834998273E+02 -0.19556308129E+02  0.26649085723E+02  0.62500000000E+02  0.47000000000E+01 0.  1.
</event>
<event>
 3    0  0.4591805E-005  0.9118800E+02  0.7546771E-02  0.1235069E+00
         25   -1    0    0    0    0  0.00000000000E+00  0.00000000000E+00  0.99999998245E-14  0.12500000000E+03  0.12500000000E+03 0.  0.
          5    1    1    0  501    0 -0.30170323788E+02 -0.35684055259E+02  0.41237843819E+02  0.62500000000E+02  0.47000000000E+01 0. -1.
         -5    1    1    0    0  501  0.30170323788E+02  0.35684055259E+02 -0.41237843819E+02  0.62500000000E+02  0.47000000000E+01 0. -1.
</event>
<event>
 3    0  0.4591805E-005  0.9118800E+02  0.7546771E-02  0.1235069E+00
         25   -1    0    0    0    0  0.00000000000E+00  0.00000000000E+00  0.99999998245E-14  0.12500000000E+03  0.12500000000E+03 0.  0.
          5    1    1    0  501    0 -0.37826360096E+02 -0.29065685122E+02  0.40106264228E+02  0.62500000000E+02  0.47000000000E+01 0.  1.
         -5    1    1    0    0  501  0.37826360096E+02  0.29065685122E+02 -0.40106264228E+02  0.62500000000E+02  0.47000000000E+01 0.  1.
</event>
<event>
 3    0  0.4591805E-005  0.9118800E+02  0.7546771E-02  0.1235069E+00
         25   -1    0    0    0    0  0.00000000000E+00  0.00000000000E+00  0.99999998245E-14  0.12500000000E+03  0.12500000000E+03 0.  0.
          5    1    1    0  501    0 -0.31917902529E+02  0.52094587695E+02  0.12311028836E+02  0.62500000000E+02  0.47000000000E+01 0. -1.
         -5    1    1    0    0  501  0.31917902529E+02 -0.52094587695E+02 -0.12311028836E+02  0.62500000000E+02  0.47000000000E+01 0. -1.
</event>
<event>
 3    0  0.4591805E-005  0.9118800E+02  0.7546771E-02  0.1235069E+00
         25   -1    0    0    0    0  0.00000000000E+00  0.00000000000E+00  0.99999998245E-14  0.12500000000E+03  0.12500000000E+03 0.  0.
          5    1    1    0  501    0  0.36475660036E+02 -0.47200013578E+02 -0.18051175671E+02  0.62500000000E+02  0.47000000000E+01 0.  1.
         -5    1    1    0    0  501 -0.36475660036E+02  0.47200013578E+02  0.18051175671E+02  0.62500000000E+02  0.47000000000E+01 0.  1.
</event>
<event>
 3    0  0.4591805E-005  0.9118800E+02  0.7546771E-02  0.1235069E+00
         25   -1    0    0    0    0  0.00000000000E+00  0.00000000000E+00  0.99999998245E-14  0.12500000000E+03  0.12500000000E+03 0.  0.
          5    1    1    0  501    0  0.27304939200E+02 -0.25136555334E+02 -0.50067493259E+02  0.62500000000E+02  0.47000000000E+01 0. -1.
         -5    1    1    0    0  501 -0.27304939200E+02  0.25136555334E+02  0.50067493259E+02  0.62500000000E+02  0.47000000000E+01 0. -1.
</event>
<event>
 3    0  0.4591805E-005  0.9118800E+02  0.7546771E-02  0.1235069E+00
         25   -1    0    0    0    0  0.00000000000E+00  0.00000000000E+00  0.99999998245E-14  0.12500000000E+03  0.12500000000E+03 0.  0.
          5    1    1    0  501    0  0.33141345798E+02  0.46482649866E+02  0.25003488960E+02  0.62500000000E+02  0.47000000000E+01 0. -1.
         -5    1    1    0    0  501 -0.33141345798E+02 -0.46482649866E+02 -0.25003488960E+02  0.62500000000E+02  0.47000000000E+01 0. -1.
</event>
<event>
 3    0  0.4591805E-005  0.9118800E+02  0.7546771E-02  0.1235069E+00
         25   -1    0    0    0    0  0.00000000000E+00  0.00000000000E+00  0.99999998245E-14  0.12500000000E+03  0.12500000000E+03 0.  0.
          5    1    1    0  501    0 -0.19274559090E+02 -0.24199593378E+02 -0.54102042958E+02  0.62500000000E+02  0.47000000000E+01 0.  1.
         -5    1    1    0    0  501  0.19274559090E+02  0.24199593378E+02  0.54102042958E+02  0.62500000000E+02  0.47000000000E+01 0.  1.
</event>
<event>
 3    0  0.4591805E-005  0.9118800E+02  0.7546771E-02  0.1235069E+00
         25   -1    0    0    0    0  0.00000000000E+00  0.00000000000E+00  0.99999998245E-14  0.12500000000E+03  0.12500000000E+03 0.  0.
          5    1    1    0  501    0 -0.45234789641E+02 -0.16283287139E+02  0.39658900213E+02  0.62500000000E+02  0.47000000000E+01 0.  1.
         -5    1    1    0    0  501  0.45234789641E+02  0.16283287139E+02 -0.39658900213E+02  0.62500000000E+02  0.47000000000E+01 0.  1.
</event>
<event>
 3    0  0.4591805E-005  0.9118800E+02  0.7546771E-02  0.1235069E+00
         25   -1    0    0    0    0  0.00000000000E+00  0.00000000000E+00  0.99999998245E-14  0.12500000000E+03  0.12500000000E+03 0.  0.
          5    1    1    0  501    0  0.28900041983E+02  0.48502318156E+02  0.26390769351E+02  0.62500000000E+02  0.47000000000E+01 0. -1.
         -5    1    1    0    0  501 -0.28900041983E+02 -0.48502318156E+02 -0.26390769351E+02  0.62500000000E+02  0.47000000000E+01 0. -1.
</event>
<event>
 3    0  0.4591805E-005  0.9118800E+02  0.7546771E-02  0.1235069E+00
         25   -1    0    0    0    0  0.00000000000E+00  0.00000000000E+00  0.99999998245E-14  0.12500000000E+03  0.12500000000E+03 0.  0.
          5    1    1    0  501    0 -0.31895565694E+02 -0.17658534760E+02 -0.50547097238E+02  0.62500000000E+02  0.47000000000E+01 0. -1.
         -5    1    1    0    0  501  0.31895565694E+02  0.17658534760E+02  0.50547097238E+02  0.62500000000E+02  0.47000000000E+01 0. -1.
</event>
<event>
 3    0  0.4591805E-005  0.9118800E+02  0.7546771E-02  0.1235069E+00
         25   -1    0    0    0    0  0.00000000000E+00  0.00000000000E+00  0.99999998245E-14  0.12500000000E+03  0.12500000000E+03 0.  0.
          5    1    1    0  501    0  0.41620300155E+02 -0.37846305529E+02  0.26824760444E+02  0.62500000000E+02  0.47000000000E+01 0.  1.
         -5    1    1    0    0  501 -0.41620300155E+02  0.37846305529E+02 -0.26824760444E+02  0.62500000000E+02  0.47000000000E+01 0.  1.
</event>
<event>
 3    0  0.4591805E-005  0.9118800E+02  0.7546771E-02  0.1235069E+00
         25   -1    0    0    0    0  0.00000000000E+00  0.00000000000E+00  0.99999998245E-14  0.12500000000E+03  0.12500000000E+03 0.  0.
          5    1    1    0  501    0  0.59626059121E+02  0.15357604181E+02  0.96455724303E+01  0.62500000000E+02  0.47000000000E+01 0. -1.
         -5    1    1    0    0  501 -0.59626059121E+02 -0.15357604181E+02 -0.96455724303E+01  0.62500000000E+02  0.47000000000E+01 0. -1.
</event>
<event>
 3    0  0.4591805E-005  0.9118800E+02  0.7546771E-02  0.1235069E+00
         25   -1    0    0    0    0  0.00000000000E+00  0.00000000000E+00  0.99999998245E-14  0.12500000000E+03  0.12500000000E+03 0.  0.
          5    1    1    0  501    0 -0.21382696556E+02  0.41914780314E+02 -0.40866752736E+02  0.62500000000E+02  0.47000000000E+01 0.  1.
         -5    1    1    0    0  501  0.21382696556E+02 -0.41914780314E+02  0.40866752736E+02  0.62500000000E+02  0.47000000000E+01 0.  1.
</event>
<event>
 3    0  0.4591805E-005  0.9118800E+02  0.7546771E-02  0.1235069E+00
         25   -1    0    0    0    0  0.00000000000E+00  0.00000000000E+00  0.99999998245E-14  0.12500000000E+03  0.12500000000E+03 0.  0.
          5    1    1    0  501    0  0.54831930468E+02 -0.27403792035E+02  0.11253958561E+02  0.62500000000E+02  0.47000000000E+01 0. -1.
         -5    1    1    0    0  501 -0.54831930468E+02  0.27403792035E+02 -0.11253958561E+02  0.62500000000E+02  0.47000000000E+01 0. -1.
</event>
<event>
 3    0  0.4591805E-005  0.9118800E+02  0.7546771E-02  0.1235069E+00
         25   -1    0    0    0    0  0.00000000000E+00  0.00000000000E+00  0.99999998245E-14  0.12500000000E+03  0.12500000000E+03 0.  0.
          5    1    1    0  501    0 -0.19425959398E+02  0.69723196287E+01  0.58806282492E+02  0.62500000000E+02  0.47000000000E+01 0. -1.
         -5    1    1    0    0  501  0.19425959398E+02 -0.69723196287E+01 -0.58806282492E+02  0.62500000000E+02  0.47000000000E+01 0. -1.
</event>
<event>
 3    0  0.4591805E-005  0.9118800E+02  0.7546771E-02  0.1235069E+00
         25   -1    0    0    0    0  0.00000000000E+00  0.00000000000E+00  0.99999998245E-14  0.12500000000E+03  0.12500000000E+03 0.  0.
          5    1    1    0  501    0  0.44373500661E+01  0.78493580017E+01 -0.61667313087E+02  0.62500000000E+02  0.47000000000E+01 0.  1.
         -5    1    1    0    0  501 -0.44373500661E+01 -0.78493580017E+01  0.61667313087E+02  0.62500000000E+02  0.47000000000E+01 0.  1.
</event>
<event>
 3    0  0.4591805E-005  0.9118800E+02  0.7546771E-02  0.1235069E+00
         25   -1    0    0    0    0  0.00000000000E+00  0.00000000000E+00  0.99999998245E-14  0.12500000000E+03  0.12500000000E+03 0.  0.
          5    1    1    0  501    0 -0.43636081387E+02  0.33345052981E+02  0.29464552312E+02  0.62500000000E+02  0.47000000000E+01 0. -1.
         -5    1    1    0    0  501  0.43636081387E+02 -0.33345052981E+02 -0.29464552312E+02  0.62500000000E+02  0.47000000000E+01 0. -1.
</event>
<event>
 3    0  0.4591805E-005  0.9118800E+02  0.7546771E-02  0.1235069E+00
         25   -1    0    0    0    0  0.00000000000E+00  0.00000000000E+00  0.99999998245E-14  0.12500000000E+03  0.12500000000E+03 0.  0.
          5    1    1    0  501    0 -0.51244277222E+02 -0.34119823338E+02 -0.96964791247E+01  0.62500000000E+02  0.47000000000E+01 0. -1.
         -5    1    1    0    0  501  0.51244277222E+02  0.34119823338E+02  0.96964791247E+01  0.62500000000E+02  0.47000000000E+01 0. -1.
</event>
<event>
 3    0  0.4591805E-005  0.9118800E+02  0.7546771E-02  0.1235069E+00
         25   -1    0    0    0    0  0.00000000000E+00  0.00000000000E+00  0.99999998245E-14  0.12500000000E+03  0.12500000000E+03 0.  0.
          5    1    1    0  501    0 -0.42046222141E+01  0.51334989389E+02  0.35088459876E+02  0.62500000000E+02  0.47000000000E+01 0. -1.
         -5    1    1    0    0  501  0.42046222141E+01 -0.51334989389E+02 -0.35088459876E+02  0.62500000000E+02  0.47000000000E+01 0. -1.
</event>
<event>
 3    0  0.4591805E-005  0.9118800E+02  0.7546771E-02  0.1235069E+00
         25   -1    0    0    0    0  0.00000000000E+00  0.00000000000E+00  0.99999998245E-14  0.12500000000E+03  0.12500000000E+03 0.  0.
          5    1    1    0  501    0  0.42659142487E+02  0.32070838967E+02 -0.32184139731E+02  0.62500000000E+02  0.47000000000E+01 0. -1.
         -5    1    1    0    0  501 -0.42659142487E+02 -0.32070838967E+02  0.32184139731E+02  0.62500000000E+02  0.47000000000E+01 0. -1.
</event>
<event>
 3    0  0.4591805E-005  0.9118800E+02  0.7546771E-02  0.1235069E+00
         25   -1    0    0    0    0  0.00000000000E+00  0.00000000000E+00  0.99999998245E-14  0.12500000000E+03  0.12500000000E+03 0.  0.
          5    1    1    0  501    0 -0.32283918380E+02 -0.24018793957E+02  0.47592080758E+02  0.62500000000E+02  0.47000000000E+01 0. -1.
         -5    1    1    0    0  501  0.32283918380E+02  0.24018793957E+02 -0.47592080758E+02  0.62500000000E+02  0.47000000000E+01 0. -1.
</event>
<event>
 3    0  0.4591805E-005  0.9118800E+02  0.7546771E-02  0.1235069E+00
         25   -1    0    0    0    0  0.00000000000E+00  0.00000000000E+00  0.99999998245E-14  0.12500000000E+03  0.12500000000E+03 0.  0.
          5    1    1    0  501    0  0.10666642812E+02 -0.47290476111E+02 -0.39166230357E+02  0.62500000000E+02  0.47000000000E+01 0. -1.
         -5    1    1    0    0  501 -0.10666642812E+02  0.47290476111E+02  0.39166230357E+02  0.62500000000E+02  0.47000000000E+01 0. -1.
</event>
<event>
 3    0  0.4591805E-005  0.9118800E+02  0.7546771E-02  0.1235069E+00
         25   -1    0    0    0    0  0.00000000000E+00  0.00000000000E+00  0.99999998245E-14  0.12500000000E+03  0.12500000000E+03 0.  0.
          5    1    1    0  501    0  0.33087610444E+02  0.36165719090E+02  0.38489099727E+02  0.62500000000E+02  0.47000000000E+01 0. -1.
         -5    1    1    0    0  501 -0.33087610444E+02 -0.36165719090E+02 -0.38489099727E+02  0.62500000000E+02  0.47000000000E+01 0. -1.
</event>
<event>
 3    0  0.4591805E-005  0.9118800E+02  0.7546771E-02  0.1235069E+00
         25   -1    0    0    0    0  0.00000000000E+00  0.00000000000E+00  0.99999998245E-14  0.12500000000E+03  0.12500000000E+03 0.  0.
          5    1    1    0  501    0  0.65921245072E+01  0.61722025062E+02 -0.55763354164E+01  0.62500000000E+02  0.47000000000E+01 0. -1.
         -5    1    1    0    0  501 -0.65921245072E+01 -0.61722025062E+02  0.55763354164E+01  0.62500000000E+02  0.47000000000E+01 0. -1.
</event>
<event>
 3    0  0.4591805E-005  0.9118800E+02  0.7546771E-02  0.1235069E+00
         25   -1    0    0    0    0  0.00000000000E+00  0.00000000000E+00  0.99999998245E-14  0.12500000000E+03  0.12500000000E+03 0.  0.
          5    1    1    0  501    0 -0.38497134808E+02  0.84332981268E+01 -0.48280535356E+02  0.62500000000E+02  0.47000000000E+01 0. -1.
         -5    1    1    0    0  501  0.38497134808E+02 -0.84332981268E+01  0.48280535356E+02  0.62500000000E+02  0.47000000000E+01 0. -1.
</event>
<event>
 3    0  0.4591805E-005  0.9118800E+02  0.7546771E-02  0.1235069E+00
         25   -1    0    0    0    0  0.00000000000E+00  0.00000000000E+00  0.99999998245E-14  0.12500000000E+03  0.12500000000E+03 0.  0.
          5    1    1    0  501    0 -0.12908071567E+02  0.60819983429E+02  0.42978255077E+01  0.62500000000E+02  0.47000000000E+01 0.  1.
         -5    1    1    0    0  501  0.12908071567E+02 -0.60819983429E+02 -0.42978255077E+01  0.62500000000E+02  0.47000000000E+01 0.  1.
</event>
<event>
 3    0  0.4591805E-005  0.9118800E+02  0.7546771E-02  0.1235069E+00
         25   -1    0    0    0    0  0.00000000000E+00  0.00000000000E+00  0.99999998245E-14  0.12500000000E+03  0.12500000000E+03 0.  0.
          5    1    1    0  501    0 -0.14519822209E+02 -0.57552470176E+02  0.19001261527E+02  0.62500000000E+02  0.47000000000E+01 0. -1.
         -5    1    1    0    0  501  0.14519822209E+02  0.57552470176E+02 -0.19001261527E+02  0.62500000000E+02  0.47000000000E+01 0. -1.
</event>
<event>
 3    0  0.4591805E-005  0.9118800E+02  0.7546771E-02  0.1235069E+00
         25   -1    0    0    0    0  0.00000000000E+00  0.00000000000E+00  0.99999998245E-14  0.12500000000E+03  0.12500000000E+03 0.  0.
          5    1    1    0  501    0 -0.32699657600E+02 -0.44740061198E+02 -0.28517000488E+02  0.62500000000E+02  0.47000000000E+01 0. -1.
         -5    1    1    0    0  501  0.32699657600E+02  0.44740061198E+02  0.28517000488E+02  0.62500000000E+02  0.47000000000E+01 0. -1.
</event>
<event>
 3    0  0.4591805E-005  0.9118800E+02  0.7546771E-02  0.1235069E+00
         25   -1    0    0    0    0  0.00000000000E+00  0.00000000000E+00  0.99999998245E-14  0.12500000000E+03  0.12500000000E+03 0.  0.
          5    1    1    0  501    0 -0.19668203039E+01  0.15659896850E+02 -0.60291452533E+02  0.62500000000E+02  0.47000000000E+01 0. -1.
         -5    1    1    0    0  501  0.19668203039E+01 -0.15659896850E+02  0.60291452533E+02  0.62500000000E+02  0.47000000000E+01 0. -1.
</event>
<event>
 3    0  0.4591805E-005  0.9118800E+02  0.7546771E-02  0.1235069E+00
         25   -1    0    0    0    0  0.00000000000E+00  0.00000000000E+00  0.99999998245E-14  0.12500000000E+03  0.12500000000E+03 0.  0.
          5    1    1    0  501    0  0.21853240805E+02  0.21503725803E+02 -0.54260350560E+02  0.62500000000E+02  0.47000000000E+01 0. -1.
         -5    1    1    0    0  501 -0.21853240805E+02 -0.21503725803E+02  0.54260350560E+02  0.62500000000E+02  0.47000000000E+01 0. -1.
</event>
<event>
 3    0  0.4591805E-005  0.9118800E+02  0.7546771E-02  0.1235069E+00
         25   -1    0    0    0    0  0.00000000000E+00  0.00000000000E+00  0.99999998245E-14  0.12500000000E+03  0.12500000000E+03 0.  0.
          5    1    1    0  501    0  0.45624528121E+02 -0.32450354022E+02 -0.27377672611E+02  0.62500000000E+02  0.47000000000E+01 0.  1.
         -5    1    1    0    0  501 -0.45624528121E+02  0.32450354022E+02  0.27377672611E+02  0.62500000000E+02  0.47000000000E+01 0.  1.
</event>
<event>
 3    0  0.4591805E-005  0.9118800E+02  0.7546771E-02  0.1235069E+00
         25   -1    0    0    0    0  0.00000000000E+00  0.00000000000E+00  0.99999998245E-14  0.12500000000E+03  0.12500000000E+03 0.  0.
          5    1    1    0  501    0 -0.36978656848E+02 -0.43685944451E+02 -0.24663276245E+02  0.62500000000E+02  0.47000000000E+01 0. -1.
         -5    1    1    0    0  501  0.36978656848E+02  0.43685944451E+02  0.24663276245E+02  0.62500000000E+02  0.47000000000E+01 0. -1.
</event>
<event>
 3    0  0.4591805E-005  0.9118800E+02  0.7546771E-02  0.1235069E+00
         25   -1    0    0    0    0  0.00000000000E+00  0.00000000000E+00  0.99999998245E-14  0.12500000000E+03  0.12500000000E+03 0.  0.
          5    1    1    0  501    0  0.27937519760E+02 -0.42721127749E+02 -0.35756960630E+02  0.62500000000E+02  0.47000000000E+01 0. -1.
         -5    1    1    0    0  501 -0.27937519760E+02  0.42721127749E+02  0.35756960630E+02  0.62500000000E+02  0.47000000000E+01 0. -1.
</event>
<event>
 3    0  0.4591805E-005  0.9118800E+02  0.7546771E-02  0.1235069E+00
         25   -1    0    0    0    0  0.00000000000E+00  0.00000000000E+00  0.99999998245E-14  0.12500000000E+03  0.12500000000E+03 0.  0.
          5    1    1    0  501    0 -0.54205705270E+01 -0.54403250194E+02 -0.29917616609E+02  0.62500000000E+02  0.47000000000E+01 0.  1.
         -5    1    1    0    0  501  0.54205705270E+01  0.54403250194E+02  0.29917616609E+02  0.62500000000E+02  0.47000000000E+01 0.  1.
</event>
<event>
 3    0  0.4591805E-005  0.9118800E+02  0.7546771E-02  0.1235069E+00
         25   -1    0    0    0    0  0.00000000000E+00  0.00000000000E+00  0.99999998245E-14  0.12500000000E+03  0.12500000000E+03 0.  0.
          5    1    1    0  501    0 -0.20321850736E+02  0.58777544007E+02 -0.40475552060E+01  0.62500000000E+02  0.47000000000E+01 0. -1.
         -5    1    1    0    0  501  0.20321850736E+02 -0.58777544007E+02  0.40475552060E+01  0.62500000000E+02  0.47000000000E+01 0. -1.
</event>
<event>
 3    0  0.4591805E-005  0.9118800E+02  0.7546771E-02  0.1235069E+00
         25   -1    0    0    0    0  0.00000000000E+00  0.00000000000E+00  0.99999998245E-14  0.12500000000E+03  0.12500000000E+03 0.  0.
          5    1    1    0  501    0  0.84369313082E+01 -0.45605859063E+02 -0.41630323194E+02  0.62500000000E+02  0.47000000000E+01 0.  1.
         -5    1    1    0    0  501 -0.84369313082E+01  0.45605859063E+02  0.41630323194E+02  0.62500000000E+02  0.47000000000E+01 0.  1.
</event>
<event>
 3    0  0.4591805E-005  0.9118800E+02  0.7546771E-02  0.1235069E+00
         25   -1    0    0    0    0  0.00000000000E+00  0.00000000000E+00  0.99999998245E-14  0.12500000000E+03  0.12500000000E+03 0.  0.
          5    1    1    0  501    0 -0.36852346114E+02 -0.34767562567E+02  0.36294368421E+02  0.62500000000E+02  0.47000000000E+01 0.  1.
         -5    1    1    0    0  501  0.36852346114E+02  0.34767562567E+02 -0.36294368421E+02  0.62500000000E+02  0.47000000000E+01 0.  1.
</event>
<event>
 3    0  0.4591805E-005  0.9118800E+02  0.7546771E-02  0.1235069E+00
         25   -1    0    0    0    0  0.00000000000E+00  0.00000000000E+00  0.99999998245E-14  0.12500000000E+03  0.12500000000E+03 0.  0.
          5    1    1    0  501    0  0.64180372005E+01  0.22945281123E+02 -0.57588912758E+02  0.62500000000E+02  0.47000000000E+01 0. -1.
         -5    1    1    0    0  501 -0.64180372005E+01 -0.22945281123E+02  0.57588912758E+02  0.62500000000E+02  0.47000000000E+01 0. -1.
</event>
<event>
 3    0  0.4591805E-005  0.9118800E+02  0.7546771E-02  0.1235069E+00
         25   -1    0    0    0    0  0.00000000000E+00  0.00000000000E+00  0.99999998245E-14  0.12500000000E+03  0.12500000000E+03 0.  0.
          5    1    1    0  501    0  0.20890632123E+02  0.35121080318E+02  0.47055830742E+02  0.62500000000E+02  0.47000000000E+01 0. -1.
         -5    1    1    0    0  501 -0.20890632123E+02 -0.35121080318E+02 -0.47055830742E+02  0.62500000000E+02  0.47000000000E+01 0. -1.
</event>
<event>
 3    0  0.4591805E-005  0.9118800E+02  0.7546771E-02  0.1235069E+00
         25   -1    0    0    0    0  0.00000000000E+00  0.00000000000E+00  0.99999998245E-14  0.12500000000E+03  0.12500000000E+03 0.  0.
          5    1    1    0  501    0  0.18562616744E+02 -0.42728780533E+02  0.41398557629E+02  0.62500000000E+02  0.47000000000E+01 0.  1.
         -5    1    1    0    0  501 -0.18562616744E+02  0.42728780533E+02 -0.41398557629E+02  0.62500000000E+02  0.47000000000E+01 0.  1.
</event>
<event>
 3    0  0.4591805E-005  0.9118800E+02  0.7546771E-02  0.1235069E+00
         25   -1    0    0    0    0  0.00000000000E+00  0.00000000000E+00  0.99999998245E-14  0.12500000000E+03  0.12500000000E+03 0.  0.
          5    1    1    0  501    0 -0.19371497535E+02 -0.59086777179E+02 -0.42021239686E+01  0.62500000000E+02  0.47000000000E+01 0. -1.
         -5    1    1    0    0  501  0.19371497535E+02  0.59086777179E+02  0.42021239686E+01  0.62500000000E+02  0.47000000000E+01 0. -1.
</event>
<event>
 3    0  0.4591805E-005  0.9118800E+02  0.7546771E-02  0.1235069E+00
         25   -1    0    0    0    0  0.00000000000E+00  0.00000000000E+00  0.99999998245E-14  0.12500000000E+03  0.12500000000E+03 0.  0.
          5    1    1    0  501    0 -0.39604121900E+02  0.45457196102E+02  0.15789770456E+02  0.62500000000E+02  0.47000000000E+01 0. -1.
         -5    1    1    0    0  501  0.39604121900E+02 -0.45457196102E+02 -0.15789770456E+02  0.62500000000E+02  0.47000000000E+01 0. -1.
</event>
<event>
 3    0  0.4591805E-005  0.9118800E+02  0.7546771E-02  0.1235069E+00
         25   -1    0    0    0    0  0.00000000000E+00  0.00000000000E+00  0.99999998245E-14  0.12500000000E+03  0.12500000000E+03 0.  0.
          5    1    1    0  501    0 -0.30523390088E+02 -0.12090123272E+02 -0.52974631446E+02  0.62500000000E+02  0.47000000000E+01 0. -1.
         -5    1    1    0    0  501  0.30523390088E+02  0.12090123272E+02  0.52974631446E+02  0.62500000000E+02  0.47000000000E+01 0. -1.
</event>
<event>
 3    0  0.4591805E-005  0.9118800E+02  0.7546771E-02  0.1235069E+00
         25   -1    0    0    0    0  0.00000000000E+00  0.00000000000E+00  0.99999998245E-14  0.12500000000E+03  0.12500000000E+03 0.  0.
          5    1    1    0  501    0 -0.43219629144E+02  0.19544422100E+02 -0.40425724749E+02  0.62500000000E+02  0.47000000000E+01 0. -1.
         -5    1    1    0    0  501  0.43219629144E+02 -0.19544422100E+02  0.40425724749E+02  0.62500000000E+02  0.47000000000E+01 0. -1.
</event>
<event>
 3    0  0.4591805E-005  0.9118800E+02  0.7546771E-02  0.1235069E+00
         25   -1    0    0    0    0  0.00000000000E+00  0.00000000000E+00  0.99999998245E-14  0.12500000000E+03  0.12500000000E+03 0.  0.
          5    1    1    0  501    0 -0.12817383228E+02  0.50950781233E+02  0.33524507139E+02  0.62500000000E+02  0.47000000000E+01 0. -1.
         -5    1    1    0    0  501  0.12817383228E+02 -0.50950781233E+02 -0.33524507139E+02  0.62500000000E+02  0.47000000000E+01 0. -1.
</event>
<event>
 3    0  0.4591805E-005  0.9118800E+02  0.7546771E-02  0.1235069E+00
         25   -1    0    0    0    0  0.00000000000E+00  0.00000000000E+00  0.99999998245E-14  0.12500000000E+03  0.12500000000E+03 0.  0.
          5    1    1    0  501    0 -0.53919333102E+02 -0.28484884611E+02  0.12863781192E+02  0.62500000000E+02  0.47000000000E+01 0.  1.
         -5    1    1    0    0  501  0.53919333102E+02  0.28484884611E+02 -0.12863781192E+02  0.62500000000E+02  0.47000000000E+01 0.  1.
</event>
<event>
 3    0  0.4591805E-005  0.9118800E+02  0.7546771E-02  0.1235069E+00
         25   -1    0    0    0    0  0.00000000000E+00  0.00000000000E+00  0.99999998245E-14  0.12500000000E+03  0.12500000000E+03 0.  0.
          5    1    1    0  501    0  0.92564960532E+01 -0.56503940865E+02  0.24612637965E+02  0.62500000000E+02  0.47000000000E+01 0.  1.
         -5    1    1    0    0  501 -0.92564960532E+01  0.56503940865E+02 -0.24612637965E+02  0.62500000000E+02  0.47000000000E+01 0.  1.
</event>
<event>
 3    0  0.4591805E-005  0.9118800E+02  0.7546771E-02  0.1235069E+00
         25   -1    0    0    0    0  0.00000000000E+00  0.00000000000E+00  0.99999998245E-14  0.12500000000E+03  0.12500000000E+03 0.  0.
          5    1    1    0  501    0  0.11803392171E+02 -0.57869303758E+02 -0.19899337069E+02  0.62500000000E+02  0.47000000000E+01 0.  1.
         -5    1    1    0    0  501 -0.11803392171E+02  0.57869303758E+02  0.19899337069E+02  0.62500000000E+02  0.47000000000E+01 0.  1.
</event>
<event>
 3    0  0.4591805E-005  0.9118800E+02  0.7546771E-02  0.1235069E+00
         25   -1    0    0    0    0  0.00000000000E+00  0.00000000000E+00  0.99999998245E-14  0.12500000000E+03  0.12500000000E+03 0.  0.
          5    1    1    0  501    0  0.17932726218E+02  0.16267436288E+02  0.57427761988E+02  0.62500000000E+02  0.47000000000E+01 0.  1.
         -5    1    1    0    0  501 -0.17932726218E+02 -0.16267436288E+02 -0.57427761988E+02  0.62500000000E+02  0.47000000000E+01 0.  1.
</event>
<event>
 3    0  0.4591805E-005  0.9118800E+02  0.7546771E-02  0.1235069E+00
         25   -1    0    0    0    0  0.00000000000E+00  0.00000000000E+00  0.99999998245E-14  0.12500000000E+03  0.12500000000E+03 0.  0.
          5    1    1    0  501    0 -0.76813292243E+00 -0.96966827699E+01 -0.61559274810E+02  0.62500000000E+02  0.47000000000E+01 0.  1.
         -5    1    1    0    0  501  0.76813292243E+00  0.96966827699E+01  0.61559274810E+02  0.62500000000E+02  0.47000000000E+01 0.  1.
</event>
<event>
 3    0  0.4591805E-005  0.9118800E+02  0.7546771E-02  0.1235069E+00
         25   -1    0    0    0    0  0.00000000000E+00  0.00000000000E+00  0.99999998245E-14  0.12500000000E+03  0.12500000000E+03 0.  0.
          5    1    1    0  501    0 -0.20345389748E+02 -0.39611190626E+02 -0.43602507877E+02  0.62500000000E+02  0.47000000000E+01 0.  1.
         -5    1    1    0    0  501  0.20345389748E+02  0.39611190626E+02  0.43602507877E+02  0.62500000000E+02  0.47000000000E+01 0.  1.
</event>
<event>
 3    0  0.4591805E-005  0.9118800E+02  0.7546771E-02  0.1235069E+00
         25   -1    0    0    0    0  0.00000000000E+00  0.00000000000E+00  0.99999998245E-14  0.12500000000E+03  0.12500000000E+03 0.  0.
          5    1    1    0  501    0 -0.14833050251E+02 -0.12205834896E+02 -0.59288769719E+02  0.62500000000E+02  0.47000000000E+01 0. -1.
         -5    1    1    0    0  501  0.14833050251E+02  0.12205834896E+02  0.59288769719E+02  0.62500000000E+02  0.47000000000E+01 0. -1.
</event>
<event>
 3    0  0.4591805E-005  0.9118800E+02  0.7546771E-02  0.1235069E+00
         25   -1    0    0    0    0  0.00000000000E+00  0.00000000000E+00  0.99999998245E-14  0.12500000000E+03  0.12500000000E+03 0.  0.
          5    1    1    0  501    0 -0.21250969060E+02  0.23829346241E+02  0.53523065791E+02  0.62500000000E+02  0.47000000000E+01 0.  1.
         -5    1    1    0    0  501  0.21250969060E+02 -0.23829346241E+02 -0.53523065791E+02  0.62500000000E+02  0.47000000000E+01 0.  1.
</event>
<event>
 3    0  0.4591805E-005  0.9118800E+02  0.7546771E-02  0.1235069E+00
         25   -1    0    0    0    0  0.00000000000E+00  0.00000000000E+00  0.99999998245E-14  0.12500000000E+03  0.12500000000E+03 0.  0.
          5    1    1    0  501    0 -0.22845193967E+02 -0.43366168956E+02 -0.38491979719E+02  0.62500000000E+02  0.47000000000E+01 0.  1.
         -5    1    1    0    0  501  0.22845193967E+02  0.43366168956E+02  0.38491979719E+02  0.62500000000E+02  0.47000000000E+01 0.  1.
</event>
<event>
 3    0  0.4591805E-005  0.9118800E+02  0.7546771E-02  0.1235069E+00
         25   -1    0    0    0    0  0.00000000000E+00  0.00000000000E+00  0.99999998245E-14  0.12500000000E+03  0.12500000000E+03 0.  0.
          5    1    1    0  501    0  0.42875286205E+02  0.57279552293E+01 -0.44867141226E+02  0.62500000000E+02  0.47000000000E+01 0.  1.
         -5    1    1    0    0  501 -0.42875286205E+02 -0.57279552293E+01  0.44867141226E+02  0.62500000000E+02  0.47000000000E+01 0.  1.
</event>
<event>
 3    0  0.4591805E-005  0.9118800E+02  0.7546771E-02  0.1235069E+00
         25   -1    0    0    0    0  0.00000000000E+00  0.00000000000E+00  0.99999998245E-14  0.12500000000E+03  0.12500000000E+03 0.  0.
          5    1    1    0  501    0 -0.32045432007E+02 -0.33324865270E+02  0.41793583745E+02  0.62500000000E+02  0.47000000000E+01 0.  1.
         -5    1    1    0    0  501  0.32045432007E+02  0.33324865270E+02 -0.41793583745E+02  0.62500000000E+02  0.47000000000E+01 0.  1.
</event>
<event>
 3    0  0.4591805E-005  0.9118800E+02  0.7546771E-02  0.1235069E+00
         25   -1    0    0    0    0  0.00000000000E+00  0.00000000000E+00  0.99999998245E-14  0.12500000000E+03  0.12500000000E+03 0.  0.
          5    1    1    0  501    0 -0.37307460668E+01  0.62155350103E+02  0.26370414122E+01  0.62500000000E+02  0.47000000000E+01 0. -1.
         -5    1    1    0    0  501  0.37307460668E+01 -0.62155350103E+02 -0.26370414122E+01  0.62500000000E+02  0.47000000000E+01 0. -1.
</event>
<event>
 3    0  0.4591805E-005  0.9118800E+02  0.7546771E-02  0.1235069E+00
         25   -1    0    0    0    0  0.00000000000E+00  0.00000000000E+00  0.99999998245E-14  0.12500000000E+03  0.12500000000E+03 0.  0.
          5    1    1    0  501    0 -0.31551064901E+02  0.53712050393E+02  0.19250834260E+01  0.62500000000E+02  0.47000000000E+01 0.  1.
         -5    1    1    0    0  501  0.31551064901E+02 -0.53712050393E+02 -0.19250834260E+01  0.62500000000E+02  0.47000000000E+01 0.  1.
</event>
<event>
 3    0  0.4591805E-005  0.9118800E+02  0.7546771E-02  0.1235069E+00
         25   -1    0    0    0    0  0.00000000000E+00  0.00000000000E+00  0.99999998245E-14  0.12500000000E+03  0.12500000000E+03 0.  0.
          5    1    1    0  501    0  0.12460108508E+02  0.23167408267E+02 -0.56499353007E+02  0.62500000000E+02  0.47000000000E+01 0.  1.
         -5    1    1    0    0  501 -0.12460108508E+02 -0.23167408267E+02  0.56499353007E+02  0.62500000000E+02  0.47000000000E+01 0.  1.
</event>
<event>
 3    0  0.4591805E-005  0.9118800E+02  0.7546771E-02  0.1235069E+00
         25   -1    0    0    0    0  0.00000000000E+00  0.00000000000E+00  0.99999998245E-14  0.12500000000E+03  0.12500000000E+03 0.  0.
          5    1    1    0  501    0 -0.52996087671E+02  0.26508359226E+02  0.19310141964E+02  0.62500000000E+02  0.47000000000E+01 0.  1.
         -5    1    1    0    0  501  0.52996087671E+02 -0.26508359226E+02 -0.19310141964E+02  0.62500000000E+02  0.47000000000E+01 0.  1.
</event>
<event>
 3    0  0.4591805E-005  0.9118800E+02  0.7546771E-02  0.1235069E+00
         25   -1    0    0    0    0  0.00000000000E+00  0.00000000000E+00  0.99999998245E-14  0.12500000000E+03  0.12500000000E+03 0.  0.
          5    1    1    0  501    0 -0.34113607207E+02 -0.32356269577E+02  0.40908356388E+02  0.62500000000E+02  0.47000000000E+01 0.  1.
         -5    1    1    0    0  501  0.34113607207E+02  0.32356269577E+02 -0.40908356388E+02  0.62500000000E+02  0.47000000000E+01 0.  1.
</event>
<event>
 3    0  0.4591805E-005  0.9118800E+02  0.7546771E-02  0.1235069E+00
         25   -1    0    0    0    0  0.00000000000E+00  0.00000000000E+00  0.99999998245E-14  0.12500000000E+03  0.12500000000E+03 0.  0.
          5    1    1    0  501    0 -0.14873302026E+02 -0.39233321498E+02 -0.46083526027E+02  0.62500000000E+02  0.47000000000E+01 0.  1.
         -5    1    1    0    0  501  0.14873302026E+02  0.39233321498E+02  0.46083526027E+02  0.62500000000E+02  0.47000000000E+01 0.  1.
</event>
<event>
 3    0  0.4591805E-005  0.9118800E+02  0.7546771E-02  0.1235069E+00
         25   -1    0    0    0    0  0.00000000000E+00  0.00000000000E+00  0.99999998245E-14  0.12500000000E+03  0.12500000000E+03 0.  0.
          5    1    1    0  501    0  0.19643672552E+02  0.48702028365E+02  0.33561861715E+02  0.62500000000E+02  0.47000000000E+01 0. -1.
         -5    1    1    0    0  501 -0.19643672552E+02 -0.48702028365E+02 -0.33561861715E+02  0.62500000000E+02  0.47000000000E+01 0. -1.
</event>
<event>
 3    0  0.4591805E-005  0.9118800E+02  0.7546771E-02  0.1235069E+00
         25   -1    0    0    0    0  0.00000000000E+00  0.00000000000E+00  0.99999998245E-14  0.12500000000E+03  0.12500000000E+03 0.  0.
          5    1    1    0  501    0  0.28954499308E+01 -0.45920220655E+02 -0.42037003993E+02  0.62500000000E+02  0.47000000000E+01 0. -1.
         -5    1    1    0    0  501 -0.28954499308E+01  0.45920220655E+02  0.42037003993E+02  0.62500000000E+02  0.47000000000E+01 0. -1.
</event>
<event>
 3    0  0.4591805E-005  0.9118800E+02  0.7546771E-02  0.1235069E+00
         25   -1    0    0    0    0  0.00000000000E+00  0.00000000000E+00  0.99999998245E-14  0.12500000000E+03  0.12500000000E+03 0.  0.
          5    1    1    0  501    0  0.54035297667E+02  0.28807146770E+02 -0.11597193671E+02  0.62500000000E+02  0.47000000000E+01 0.  1.
         -5    1    1    0    0  501 -0.54035297667E+02 -0.28807146770E+02  0.11597193671E+02  0.62500000000E+02  0.47000000000E+01 0.  1.
</event>
<event>
 3    0  0.4591805E-005  0.9118800E+02  0.7546771E-02  0.1235069E+00
         25   -1    0    0    0    0  0.00000000000E+00  0.00000000000E+00  0.99999998245E-14  0.12500000000E+03  0.12500000000E+03 0.  0.
          5    1    1    0  501    0  0.28266511629E+02  0.41096124124E+02 -0.37366735238E+02  0.62500000000E+02  0.47000000000E+01 0.  1.
         -5    1    1    0    0  501 -0.28266511629E+02 -0.41096124124E+02  0.37366735238E+02  0.62500000000E+02  0.47000000000E+01 0.  1.
</event>
<event>
 3    0  0.4591805E-005  0.9118800E+02  0.7546771E-02  0.1235069E+00
         25   -1    0    0    0    0  0.00000000000E+00  0.00000000000E+00  0.99999998245E-14  0.12500000000E+03  0.12500000000E+03 0.  0.
          5    1    1    0  501    0 -0.39810081869E+02  0.96949887454E+01  0.46960883454E+02  0.62500000000E+02  0.47000000000E+01 0.  1.
         -5    1    1    0    0  501  0.39810081869E+02 -0.96949887454E+01 -0.46960883454E+02  0.62500000000E+02  0.47000000000E+01 0.  1.
</event>
<event>
 3    0  0.4591805E-005  0.9118800E+02  0.7546771E-02  0.1235069E+00
         25   -1    0    0    0    0  0.00000000000E+00  0.00000000000E+00  0.99999998245E-14  0.12500000000E+03  0.12500000000E+03 0.  0.
          5    1    1    0  501    0  0.46200147324E+02  0.12934057507E+01 -0.41809490415E+02  0.62500000000E+02  0.47000000000E+01 0. -1.
         -5    1    1    0    0  501 -0.46200147324E+02 -0.12934057507E+01  0.41809490415E+02  0.62500000000E+02  0.47000000000E+01 0. -1.
</event>
<event>
 3    0  0.4591805E-005  0.9118800E+02  0.7546771E-02  0.1235069E+00
         25   -1    0    0    0    0  0.00000000000E+00  0.00000000000E+00  0.99999998245E-14  0.12500000000E+03  0.12500000000E+03 0.  0.
          5    1    1    0  501    0  0.44051844524E+02 -0.43775111525E+02 -0.52282506594E+01  0.62500000000E+02  0.47000000000E+01 0.  1.
         -5    1    1    0    0  501 -0.44051844524E+02  0.43775111525E+02  0.52282506594E+01  0.62500000000E+02  0.47000000000E+01 0.  1.
</event>
<event>
 3    0  0.4591805E-005  0.9118800E+02  0.7546771E-02  0.1235069E+00
         25   -1    0    0    0    0  0.00000000000E+00  0.00000000000E+00  0.99999998245E-14  0.12500000000E+03  0.12500000000E+03 0.  0.
          5    1    1    0  501    0  0.36546557742E+02 -0.49030135681E+02  0.12023099114E+02  0.62500000000E+02  0.47000000000E+01 0.  1.
         -5    1    1    0    0  501 -0.36546557742E+02  0.49030135681E+02 -0.12023099114E+02  0.62500000000E+02  0.47000000000E+01 0.  1.
</event>
<event>
 3    0  0.4591805E-005  0.9118800E+02  0.7546771E-02  0.1235069E+00
         25   -1    0    0    0    0  0.00000000000E+00  0.00000000000E+00  0.99999998245E-14  0.12500000000E+03  0.12500000000E+03 0.  0.
          5    1    1    0  501    0  0.98548821794E+01  0.57965707228E+02 -0.20664415860E+02  0.62500000000E+02  0.47000000000E+01 0. -1.
         -5    1    1    0    0  501 -0.98548821794E+01 -0.57965707228E+02  0.20664415860E+02  0.62500000000E+02  0.47000000000E+01 0. -1.
</event>
<event>
 3    0  0.4591805E-005  0.9118800E+02  0.7546771E-02  0.1235069E+00
         25   -1    0    0    0    0  0.00000000000E+00  0.00000000000E+00  0.99999998245E-14  0.12500000000E+03  0.12500000000E+03 0.  0.
          5    1    1    0  501    0  0.42686444803E+02 -0.19834056105E+01 -0.45366215759E+02  0.62500000000E+02  0.47000000000E+01 0. -1.
         -5    1    1    0    0  501 -0.42686444803E+02  0.19834056105E+01  0.45366215759E+02  0.62500000000E+02  0.47000000000E+01 0. -1.
</event>
<event>
 3    0  0.4591805E-005  0.9118800E+02  0.7546771E-02  0.1235069E+00
         25   -1    0    0    0    0  0.00000000000E+00  0.00000000000E+00  0.99999998245E-14  0.12500000000E+03  0.12500000000E+03 0.  0.
          5    1    1    0  501    0  0.33080382099E+02 -0.37452168409E+02 -0.37244911084E+02  0.62500000000E+02  0.47000000000E+01 0.  1.
         -5    1    1    0    0  501 -0.33080382099E+02  0.37452168409E+02  0.37244911084E+02  0.62500000000E+02  0.47000000000E+01 0.  1.
</event>
<event>
 3    0  0.4591805E-005  0.9118800E+02  0.7546771E-02  0.1235069E+00
         25   -1    0    0    0    0  0.00000000000E+00  0.00000000000E+00  0.99999998245E-14  0.12500000000E+03  0.12500000000E+03 0.  0.
          5    1    1    0  501    0 -0.22714249717E+02  0.46895701882E+02  0.34190876046E+02  0.62500000000E+02  0.47000000000E+01 0.  1.
         -5    1    1    0    0  501  0.22714249717E+02 -0.46895701882E+02 -0.34190876046E+02  0.62500000000E+02  0.47000000000E+01 0.  1.
</event>
<event>
 3    0  0.4591805E-005  0.9118800E+02  0.7546771E-02  0.1235069E+00
         25   -1    0    0    0    0  0.00000000000E+00  0.00000000000E+00  0.99999998245E-14  0.12500000000E+03  0.12500000000E+03 0.  0.
          5    1    1    0  501    0 -0.56169206876E+02 -0.11900323071E+01  0.26977101810E+02  0.62500000000E+02  0.47000000000E+01 0.  1.
         -5    1    1    0    0  501  0.56169206876E+02  0.11900323071E+01 -0.26977101810E+02  0.62500000000E+02  0.47000000000E+01 0.  1.
</event>
<event>
 3    0  0.4591805E-005  0.9118800E+02  0.7546771E-02  0.1235069E+00
         25   -1    0    0    0    0  0.00000000000E+00  0.00000000000E+00  0.99999998245E-14  0.12500000000E+03  0.12500000000E+03 0.  0.
          5    1    1    0  501    0 -0.56530030024E+02  0.11436054052E+02  0.23616358169E+02  0.62500000000E+02  0.47000000000E+01 0. -1.
         -5    1    1    0    0  501  0.56530030024E+02 -0.11436054052E+02 -0.23616358169E+02  0.62500000000E+02  0.47000000000E+01 0. -1.
</event>
<event>
 3    0  0.4591805E-005  0.9118800E+02  0.7546771E-02  0.1235069E+00
         25   -1    0    0    0    0  0.00000000000E+00  0.00000000000E+00  0.99999998245E-14  0.12500000000E+03  0.12500000000E+03 0.  0.
          5    1    1    0  501    0 -0.41990617702E+02  0.19205301646E+02  0.41858146324E+02  0.62500000000E+02  0.47000000000E+01 0.  1.
         -5    1    1    0    0  501  0.41990617702E+02 -0.19205301646E+02 -0.41858146324E+02  0.62500000000E+02  0.47000000000E+01 0.  1.
</event>
<event>
 3    0  0.4591805E-005  0.9118800E+02  0.7546771E-02  0.1235069E+00
         25   -1    0    0    0    0  0.00000000000E+00  0.00000000000E+00  0.99999998245E-14  0.12500000000E+03  0.12500000000E+03 0.  0.
          5    1    1    0  501    0  0.46977868735E+02  0.36122337239E+02  0.19298098391E+02  0.62500000000E+02  0.47000000000E+01 0. -1.
         -5    1    1    0    0  501 -0.46977868735E+02 -0.36122337239E+02 -0.19298098391E+02  0.62500000000E+02  0.47000000000E+01 0. -1.
</event>
<event>
 3    0  0.4591805E-005  0.9118800E+02  0.7546771E-02  0.1235069E+00
         25   -1    0    0    0    0  0.00000000000E+00  0.00000000000E+00  0.99999998245E-14  0.12500000000E+03  0.12500000000E+03 0.  0.
          5    1    1    0  501    0  0.72338684626E+01  0.45401561069E+01 -0.61735064020E+02  0.62500000000E+02  0.47000000000E+01 0. -1.
         -5    1    1    0    0  501 -0.72338684626E+01 -0.45401561069E+01  0.61735064020E+02  0.62500000000E+02  0.47000000000E+01 0. -1.
</event>
<event>
 3    0  0.4591805E-005  0.9118800E+02  0.7546771E-02  0.1235069E+00
         25   -1    0    0    0    0  0.00000000000E+00  0.00000000000E+00  0.99999998245E-14  0.12500000000E+03  0.12500000000E+03 0.  0.
          5    1    1    0  501    0  0.12378326301E+02 -0.87341094214E+01  0.60453720900E+02  0.62500000000E+02  0.47000000000E+01 0.  1.
         -5    1    1    0    0  501 -0.12378326301E+02  0.87341094214E+01 -0.60453720900E+02  0.62500000000E+02  0.47000000000E+01 0.  1.
</event>
<event>
 3    0  0.4591805E-005  0.9118800E+02  0.7546771E-02  0.1235069E+00
         25   -1    0    0    0    0  0.00000000000E+00  0.00000000000E+00  0.99999998245E-14  0.12500000000E+03  0.12500000000E+03 0.  0.
          5    1    1    0  501    0  0.32663453906E+02 -0.53016716507E+02 -0.25468705837E+01  0.62500000000E+02  0.47000000000E+01 0. -1.
         -5    1    1    0    0  501 -0.32663453906E+02  0.53016716507E+02  0.25468705837E+01  0.62500000000E+02  0.47000000000E+01 0. -1.
</event>
<event>
 3    0  0.4591805E-005  0.9118800E+02  0.7546771E-02  0.1235069E+00
         25   -1    0    0    0    0  0.00000000000E+00  0.00000000000E+00  0.99999998245E-14  0.12500000000E+03  0.12500000000E+03 0.  0.
          5    1    1    0  501    0  0.30836479556E+02  0.49406985701E+02 -0.22186060772E+02  0.62500000000E+02  0.47000000000E+01 0.  1.
         -5    1    1    0    0  501 -0.30836479556E+02 -0.49406985701E+02  0.22186060772E+02  0.62500000000E+02  0.47000000000E+01 0.  1.
</event>
<event>
 3    0  0.4591805E-005  0.9118800E+02  0.7546771E-02  0.1235069E+00
         25   -1    0    0    0    0  0.00000000000E+00  0.00000000000E+00  0.99999998245E-14  0.12500000000E+03  0.12500000000E+03 0.  0.
          5    1    1    0  501    0  0.28814276234E+02  0.53849553386E+02  0.12414631902E+02  0.62500000000E+02  0.47000000000E+01 0. -1.
         -5    1    1    0    0  501 -0.28814276234E+02 -0.53849553386E+02 -0.12414631902E+02  0.62500000000E+02  0.47000000000E+01 0. -1.
</event>
<event>
 3    0  0.4591805E-005  0.9118800E+02  0.7546771E-02  0.1235069E+00
         25   -1    0    0    0    0  0.00000000000E+00  0.00000000000E+00  0.99999998245E-14  0.12500000000E+03  0.12500000000E+03 0.  0.
          5    1    1    0  501    0  0.46017839744E+02  0.15853283875E+02  0.38925464874E+02  0.62500000000E+02  0.47000000000E+01 0. -1.
         -5    1    1    0    0  501 -0.46017839744E+02 -0.15853283875E+02 -0.38925464874E+02  0.62500000000E+02  0.47000000000E+01 0. -1.
</event>
<event>
 3    0  0.4591805E-005  0.9118800E+02  0.7546771E-02  0.1235069E+00
         25   -1    0    0    0    0  0.00000000000E+00  0.00000000000E+00  0.99999998245E-14  0.12500000000E+03  0.12500000000E+03 0.  0.
          5    1    1    0  501    0  0.36164417283E+02  0.47800606985E+02  0.17070351328E+02  0.62500000000E+02  0.47000000000E+01 0. -1.
         -5    1    1    0    0  501 -0.36164417283E+02 -0.47800606985E+02 -0.17070351328E+02  0.62500000000E+02  0.47000000000E+01 0. -1.
</event>
<event>
 3    0  0.4591805E-005  0.9118800E+02  0.7546771E-02  0.1235069E+00
         25   -1    0    0    0    0  0.00000000000E+00  0.00000000000E+00  0.99999998245E-14  0.12500000000E+03  0.12500000000E+03 0.  0.
          5    1    1    0  501    0 -0.17118008711E+02  0.35750195769E+02 -0.48094254129E+02  0.62500000000E+02  0.47000000000E+01 0. -1.
         -5    1    1    0    0  501  0.17118008711E+02 -0.35750195769E+02  0.48094254129E+02  0.62500000000E+02  0.47000000000E+01 0. -1.
</event>
<event>
 3    0  0.4591805E-005  0.9118800E+02  0.7546771E-02  0.1235069E+00
         25   -1    0    0    0    0  0.00000000000E+00  0.00000000000E+00  0.99999998245E-14  0.12500000000E+03  0.12500000000E+03 0.  0.
          5    1    1    0  501    0 -0.40149174925E+02  0.46820345498E+02  0.89475695208E+01  0.62500000000E+02  0.47000000000E+01 0.  1.
         -5    1    1    0    0  501  0.40149174925E+02 -0.46820345498E+02 -0.89475695208E+01  0.62500000000E+02  0.47000000000E+01 0.  1.
</event>
<event>
 3    0  0.4591805E-005  0.9118800E+02  0.7546771E-02  0.1235069E+00
         25   -1    0    0    0    0  0.00000000000E+00  0.00000000000E+00  0.99999998245E-14  0.12500000000E+03  0.12500000000E+03 0.  0.
          5    1    1    0  501    0  0.39997246612E+02 -0.44153826485E+02 -0.18298083785E+02  0.62500000000E+02  0.47000000000E+01 0.  1.
         -5    1    1    0    0  501 -0.39997246612E+02  0.44153826485E+02  0.18298083785E+02  0.62500000000E+02  0.47000000000E+01 0.  1.
</event>
<event>
 3    0  0.4591805E-005  0.9118800E+02  0.7546771E-02  0.1235069E+00
         25   -1    0    0    0    0  0.00000000000E+00  0.00000000000E+00  0.99999998245E-14  0.12500000000E+03  0.12500000000E+03 0.  0.
          5    1    1    0  501    0 -0.11628959139E+02 -0.58709353019E+02  0.17382151118E+02  0.62500000000E+02  0.47000000000E+01 0.  1.
         -5    1    1    0    0  501  0.11628959139E+02  0.58709353019E+02 -0.17382151118E+02  0.62500000000E+02  0.47000000000E+01 0.  1.
</event>
<event>
 3    0  0.4591805E-005  0.9118800E+02  0.7546771E-02  0.1235069E+00
         25   -1    0    0    0    0  0.00000000000E+00  0.00000000000E+00  0.99999998245E-14  0.12500000000E+03  0.12500000000E+03 0.  0.
          5    1    1    0  501    0  0.26590526719E+02  0.19296701188E+02  0.52959807515E+02  0.62500000000E+02  0.47000000000E+01 0.  1.
         -5    1    1    0    0  501 -0.26590526719E+02 -0.19296701188E+02 -0.52959807515E+02  0.62500000000E+02  0.47000000000E+01 0.  1.
</event>
<event>
 3    0  0.4591805E-005  0.9118800E+02  0.7546771E-02  0.1235069E+00
         25   -1    0    0    0    0  0.00000000000E+00  0.00000000000E+00  0.99999998245E-14  0.12500000000E+03  0.12500000000E+03 0.  0.
          5    1    1    0  501    0 -0.44827890982E+02 -0.31260656928E+02  0.29956493763E+02  0.62500000000E+02  0.47000000000E+01 0.  1.
         -5    1    1    0    0  501  0.44827890982E+02  0.31260656928E+02 -0.29956493763E+02  0.62500000000E+02  0.47000000000E+01 0.  1.
</event>
<event>
 3    0  0.4591805E-005  0.9118800E+02  0.7546771E-02  0.1235069E+00
         25   -1    0    0    0    0  0.00000000000E+00  0.00000000000E+00  0.99999998245E-14  0.12500000000E+03  0.12500000000E+03 0.  0.
          5    1    1    0  501    0 -0.29482283129E+02  0.54887997274E+02 -0.15042395787E+01  0.62500000000E+02  0.47000000000E+01 0.  1.
         -5    1    1    0    0  501  0.29482283129E+02 -0.54887997274E+02  0.15042395787E+01  0.62500000000E+02  0.47000000000E+01 0.  1.
</event>
<event>
 3    0  0.4591805E-005  0.9118800E+02  0.7546771E-02  0.1235069E+00
         25   -1    0    0    0    0  0.00000000000E+00  0.00000000000E+00  0.99999998245E-14  0.12500000000E+03  0.12500000000E+03 0.  0.
          5    1    1    0  501    0 -0.15635591567E+02  0.50859688324E+02  0.32449659165E+02  0.62500000000E+02  0.47000000000E+01 0.  1.
         -5    1    1    0    0  501  0.15635591567E+02 -0.50859688324E+02 -0.32449659165E+02  0.62500000000E+02  0.47000000000E+01 0.  1.
</event>
<event>
 3    0  0.4591805E-005  0.9118800E+02  0.7546771E-02  0.1235069E+00
         25   -1    0    0    0    0  0.00000000000E+00  0.00000000000E+00  0.99999998245E-14  0.12500000000E+03  0.12500000000E+03 0.  0.
          5    1    1    0  501    0 -0.19977548102E+02 -0.58763237789E+02 -0.56515003626E+01  0.62500000000E+02  0.47000000000E+01 0.  1.
         -5    1    1    0    0  501  0.19977548102E+02  0.58763237789E+02  0.56515003626E+01  0.62500000000E+02  0.47000000000E+01 0.  1.
</event>
<event>
 3    0  0.4591805E-005  0.9118800E+02  0.7546771E-02  0.1235069E+00
         25   -1    0    0    0    0  0.00000000000E+00  0.00000000000E+00  0.99999998245E-14  0.12500000000E+03  0.12500000000E+03 0.  0.
          5    1    1    0  501    0  0.99431464456E+01  0.20638385626E+02 -0.57959907501E+02  0.62500000000E+02  0.47000000000E+01 0. -1.
         -5    1    1    0    0  501 -0.99431464456E+01 -0.20638385626E+02  0.57959907501E+02  0.62500000000E+02  0.47000000000E+01 0. -1.
</event>
<event>
 3    0  0.4591805E-005  0.9118800E+02  0.7546771E-02  0.1235069E+00
         25   -1    0    0    0    0  0.00000000000E+00  0.00000000000E+00  0.99999998245E-14  0.12500000000E+03  0.12500000000E+03 0.  0.
          5    1    1    0  501    0  0.34686381008E+02 -0.41570998828E+02 -0.30868544329E+02  0.62500000000E+02  0.47000000000E+01 0. -1.
         -5    1    1    0    0  501 -0.34686381008E+02  0.41570998828E+02  0.30868544329E+02  0.62500000000E+02  0.47000000000E+01 0. -1.
</event>
<event>
 3    0  0.4591805E-005  0.9118800E+02  0.7546771E-02  0.1235069E+00
         25   -1    0    0    0    0  0.00000000000E+00  0.00000000000E+00  0.99999998245E-14  0.12500000000E+03  0.12500000000E+03 0.  0.
          5    1    1    0  501    0  0.58548193629E+02  0.19906917103E+02  0.77449127989E+01  0.62500000000E+02  0.47000000000E+01 0.  1.
         -5    1    1    0    0  501 -0.58548193629E+02 -0.19906917103E+02 -0.77449127989E+01  0.62500000000E+02  0.47000000000E+01 0.  1.
</event>
<event>
 3    0  0.4591805E-005  0.9118800E+02  0.7546771E-02  0.1235069E+00
         25   -1    0    0    0    0  0.00000000000E+00  0.00000000000E+00  0.99999998245E-14  0.12500000000E+03  0.12500000000E+03 0.  0.
          5    1    1    0  501    0  0.11688298981E+02  0.30460615042E+02  0.53100796587E+02  0.62500000000E+02  0.47000000000E+01 0. -1.
         -5    1    1    0    0  501 -0.11688298981E+02 -0.30460615042E+02 -0.53100796587E+02  0.62500000000E+02  0.47000000000E+01 0. -1.
</event>
<event>
 3    0  0.4591805E-005  0.9118800E+02  0.7546771E-02  0.1235069E+00
         25   -1    0    0    0    0  0.00000000000E+00  0.00000000000E+00  0.99999998245E-14  0.12500000000E+03  0.12500000000E+03 0.  0.
          5    1    1    0  501    0  0.53403397610E+02  0.29203186061E+02 -0.13394440922E+02  0.62500000000E+02  0.47000000000E+01 0. -1.
         -5    1    1    0    0  501 -0.53403397610E+02 -0.29203186061E+02  0.13394440922E+02  0.62500000000E+02  0.47000000000E+01 0. -1.
</event>
<event>
 3    0  0.4591805E-005  0.9118800E+02  0.7546771E-02  0.1235069E+00
         25   -1    0    0    0    0  0.00000000000E+00  0.00000000000E+00  0.99999998245E-14  0.12500000000E+03  0.12500000000E+03 0.  0.
          5    1    1    0  501    0 -0.49349935425E+02  0.27050030726E+02 -0.26777597189E+02  0.62500000000E+02  0.47000000000E+01 0.  1.
         -5    1    1    0    0  501  0.49349935425E+02 -0.27050030726E+02  0.26777597189E+02  0.62500000000E+02  0.47000000000E+01 0.  1.
</event>
<event>
 3    0  0.4591805E-005  0.9118800E+02  0.7546771E-02  0.1235069E+00
         25   -1    0    0    0    0  0.00000000000E+00  0.00000000000E+00  0.99999998245E-14  0.12500000000E+03  0.12500000000E+03 0.  0.
          5    1    1    0  501    0  0.46125835892E+02 -0.58002966647E+01  0.41508117541E+02  0.62500000000E+02  0.47000000000E+01 0.  1.
         -5    1    1    0    0  501 -0.46125835892E+02  0.58002966647E+01 -0.41508117541E+02  0.62500000000E+02  0.47000000000E+01 0.  1.
</event>
<event>
 3    0  0.4591805E-005  0.9118800E+02  0.7546771E-02  0.1235069E+00
         25   -1    0    0    0    0  0.00000000000E+00  0.00000000000E+00  0.99999998245E-14  0.12500000000E+03  0.12500000000E+03 0.  0.
          5    1    1    0  501    0  0.18768482311E+02 -0.44892300417E+02 -0.38943361887E+02  0.62500000000E+02  0.47000000000E+01 0. -1.
         -5    1    1    0    0  501 -0.18768482311E+02  0.44892300417E+02  0.38943361887E+02  0.62500000000E+02  0.47000000000E+01 0. -1.
</event>
<event>
 3    0  0.4591805E-005  0.9118800E+02  0.7546771E-02  0.1235069E+00
         25   -1    0    0    0    0  0.00000000000E+00  0.00000000000E+00  0.99999998245E-14  0.12500000000E+03  0.12500000000E+03 0.  0.
          5    1    1    0  501    0  0.94889013049E+01  0.43624909208E+02  0.43485492393E+02  0.62500000000E+02  0.47000000000E+01 0.  1.
         -5    1    1    0    0  501 -0.94889013049E+01 -0.43624909208E+02 -0.43485492393E+02  0.62500000000E+02  0.47000000000E+01 0.  1.
</event>
<event>
 3    0  0.4591805E-005  0.9118800E+02  0.7546771E-02  0.1235069E+00
         25   -1    0    0    0    0  0.00000000000E+00  0.00000000000E+00  0.99999998245E-14  0.12500000000E+03  0.12500000000E+03 0.  0.
          5    1    1    0  501    0 -0.42501032781E+02 -0.26847783212E+02 -0.36837735397E+02  0.62500000000E+02  0.47000000000E+01 0. -1.
         -5    1    1    0    0  501  0.42501032781E+02  0.26847783212E+02  0.36837735397E+02  0.62500000000E+02  0.47000000000E+01 0. -1.
</event>
<event>
 3    0  0.4591805E-005  0.9118800E+02  0.7546771E-02  0.1235069E+00
         25   -1    0    0    0    0  0.00000000000E+00  0.00000000000E+00  0.99999998245E-14  0.12500000000E+03  0.12500000000E+03 0.  0.
          5    1    1    0  501    0  0.11291589396E+02  0.53426719309E+02 -0.30037404562E+02  0.62500000000E+02  0.47000000000E+01 0. -1.
         -5    1    1    0    0  501 -0.11291589396E+02 -0.53426719309E+02  0.30037404562E+02  0.62500000000E+02  0.47000000000E+01 0. -1.
</event>
<event>
 3    0  0.4591805E-005  0.9118800E+02  0.7546771E-02  0.1235069E+00
         25   -1    0    0    0    0  0.00000000000E+00  0.00000000000E+00  0.99999998245E-14  0.12500000000E+03  0.12500000000E+03 0.  0.
          5    1    1    0  501    0 -0.14900747624E+02 -0.58643105005E+02  0.14936999550E+02  0.62500000000E+02  0.47000000000E+01 0.  1.
         -5    1    1    0    0  501  0.14900747624E+02  0.58643105005E+02 -0.14936999550E+02  0.62500000000E+02  0.47000000000E+01 0.  1.
</event>
<event>
 3    0  0.4591805E-005  0.9118800E+02  0.7546771E-02  0.1235069E+00
         25   -1    0    0    0    0  0.00000000000E+00  0.00000000000E+00  0.99999998245E-14  0.12500000000E+03  0.12500000000E+03 0.  0.
          5    1    1    0  501    0 -0.26854352483E+02 -0.47319856436E+01  0.56041164019E+02  0.62500000000E+02  0.47000000000E+01 0. -1.
         -5    1    1    0    0  501  0.26854352483E+02  0.47319856436E+01 -0.56041164019E+02  0.62500000000E+02  0.47000000000E+01 0. -1.
</event>
<event>
 3    0  0.4591805E-005  0.9118800E+02  0.7546771E-02  0.1235069E+00
         25   -1    0    0    0    0  0.00000000000E+00  0.00000000000E+00  0.99999998245E-14  0.12500000000E+03  0.12500000000E+03 0.  0.
          5    1    1    0  501    0 -0.22366418222E+01  0.62241235819E+02  0.22772784501E+01  0.62500000000E+02  0.47000000000E+01 0. -1.
         -5    1    1    0    0  501  0.22366418222E+01 -0.62241235819E+02 -0.22772784501E+01  0.62500000000E+02  0.47000000000E+01 0. -1.
</event>
<event>
 3    0  0.4591805E-005  0.9118800E+02  0.7546771E-02  0.1235069E+00
         25   -1    0    0    0    0  0.00000000000E+00  0.00000000000E+00  0.99999998245E-14  0.12500000000E+03  0.12500000000E+03 0.  0.
          5    1    1    0  501    0 -0.23383315900E+02 -0.36032383118E+02  0.45155818057E+02  0.62500000000E+02  0.47000000000E+01 0. -1.
         -5    1    1    0    0  501  0.23383315900E+02  0.36032383118E+02 -0.45155818057E+02  0.62500000000E+02  0.47000000000E+01 0. -1.
</event>
<event>
 3    0  0.4591805E-005  0.9118800E+02  0.7546771E-02  0.1235069E+00
         25   -1    0    0    0    0  0.00000000000E+00  0.00000000000E+00  0.99999998245E-14  0.12500000000E+03  0.12500000000E+03 0.  0.
          5    1    1    0  501    0  0.56980436888E+02  0.25075358673E+02 -0.29353363555E+01  0.62500000000E+02  0.47000000000E+01 0.  1.
         -5    1    1    0    0  501 -0.56980436888E+02 -0.25075358673E+02  0.29353363555E+01  0.62500000000E+02  0.47000000000E+01 0.  1.
</event>
<event>
 3    0  0.4591805E-005  0.9118800E+02  0.7546771E-02  0.1235069E+00
         25   -1    0    0    0    0  0.00000000000E+00  0.00000000000E+00  0.99999998245E-14  0.12500000000E+03  0.12500000000E+03 0.  0.
          5    1    1    0  501    0 -0.46316110149E+02 -0.40815768225E+02  0.85469880552E+01  0.62500000000E+02  0.47000000000E+01 0.  1.
         -5    1    1    0    0  501  0.46316110149E+02  0.40815768225E+02 -0.85469880552E+01  0.62500000000E+02  0.47000000000E+01 0.  1.
</event>
<event>
 3    0  0.4591805E-005  0.9118800E+02  0.7546771E-02  0.1235069E+00
         25   -1    0    0    0    0  0.00000000000E+00  0.00000000000E+00  0.99999998245E-14  0.12500000000E+03  0.12500000000E+03 0.  0.
          5    1    1    0  501    0 -0.56298704532E+01 -0.15923535606E+02  0.59990879077E+02  0.62500000000E+02  0.47000000000E+01 0. -1.
         -5    1    1    0    0  501  0.56298704532E+01  0.15923535606E+02 -0.59990879077E+02  0.62500000000E+02  0.47000000000E+01 0. -1.
</event>
<event>
 3    0  0.4591805E-005  0.9118800E+02  0.7546771E-02  0.1235069E+00
         25   -1    0    0    0    0  0.00000000000E+00  0.00000000000E+00  0.99999998245E-14  0.12500000000E+03  0.12500000000E+03 0.  0.
          5    1    1    0  501    0  0.26277179486E+02 -0.26820659866E+02  0.49742557661E+02  0.62500000000E+02  0.47000000000E+01 0.  1.
         -5    1    1    0    0  501 -0.26277179486E+02  0.26820659866E+02 -0.49742557661E+02  0.62500000000E+02  0.47000000000E+01 0.  1.
</event>
<event>
 3    0  0.4591805E-005  0.9118800E+02  0.7546771E-02  0.1235069E+00
         25   -1    0    0    0    0  0.00000000000E+00  0.00000000000E+00  0.99999998245E-14  0.12500000000E+03  0.12500000000E+03 0.  0.
          5    1    1    0  501    0  0.21638248719E+02 -0.46717539346E+02  0.35120047122E+02  0.62500000000E+02  0.47000000000E+01 0. -1.
         -5    1    1    0    0  501 -0.21638248719E+02  0.46717539346E+02 -0.35120047122E+02  0.62500000000E+02  0.47000000000E+01 0. -1.
</event>
<event>
 3    0  0.4591805E-005  0.9118800E+02  0.7546771E-02  0.1235069E+00
         25   -1    0    0    0    0  0.00000000000E+00  0.00000000000E+00  0.99999998245E-14  0.12500000000E+03  0.12500000000E+03 0.  0.
          5    1    1    0  501    0  0.12911675105E+01 -0.29619643764E+02  0.54819427120E+02  0.62500000000E+02  0.47000000000E+01 0. -1.
         -5    1    1    0    0  501 -0.12911675105E+01  0.29619643764E+02 -0.54819427120E+02  0.62500000000E+02  0.47000000000E+01 0. -1.
</event>
<event>
 3    0  0.4591805E-005  0.9118800E+02  0.7546771E-02  0.1235069E+00
         25   -1    0    0    0    0  0.00000000000E+00  0.00000000000E+00  0.99999998245E-14  0.12500000000E+03  0.12500000000E+03 0.  0.
          5    1    1    0  501    0 -0.58591293261E+02  0.18067979413E+02 -0.11169980926E+02  0.62500000000E+02  0.47000000000E+01 0. -1.
         -5    1    1    0    0  501  0.58591293261E+02 -0.18067979413E+02  0.11169980926E+02  0.62500000000E+02  0.47000000000E+01 0. -1.
</event>
<event>
 3    0  0.4591805E-005  0.9118800E+02  0.7546771E-02  0.1235069E+00
         25   -1    0    0    0    0  0.00000000000E+00  0.00000000000E+00  0.99999998245E-14  0.12500000000E+03  0.12500000000E+03 0.  0.
          5    1    1    0  501    0 -0.27460918611E+02  0.27086471446E+02  0.48952844796E+02  0.62500000000E+02  0.47000000000E+01 0.  1.
         -5    1    1    0    0  501  0.27460918611E+02 -0.27086471446E+02 -0.48952844796E+02  0.62500000000E+02  0.47000000000E+01 0.  1.
</event>
<event>
 3    0  0.4591805E-005  0.9118800E+02  0.7546771E-02  0.1235069E+00
         25   -1    0    0    0    0  0.00000000000E+00  0.00000000000E+00  0.99999998245E-14  0.12500000000E+03  0.12500000000E+03 0.  0.
          5    1    1    0  501    0  0.46128282648E+02 -0.15595609834E+02 -0.38898823811E+02  0.62500000000E+02  0.47000000000E+01 0. -1.
         -5    1    1    0    0  501 -0.46128282648E+02  0.15595609834E+02  0.38898823811E+02  0.62500000000E+02  0.47000000000E+01 0. -1.
</event>
<event>
 3    0  0.4591805E-005  0.9118800E+02  0.7546771E-02  0.1235069E+00
         25   -1    0    0    0    0  0.00000000000E+00  0.00000000000E+00  0.99999998245E-14  0.12500000000E+03  0.12500000000E+03 0.  0.
          5    1    1    0  501    0 -0.38888352862E+02 -0.16160272295E+02  0.45942372719E+02  0.62500000000E+02  0.47000000000E+01 0.  1.
         -5    1    1    0    0  501  0.38888352862E+02  0.16160272295E+02 -0.45942372719E+02  0.62500000000E+02  0.47000000000E+01 0.  1.
</event>
<event>
 3    0  0.4591805E-005  0.9118800E+02  0.7546771E-02  0.1235069E+00
         25   -1    0    0    0    0  0.00000000000E+00  0.00000000000E+00  0.99999998245E-14  0.12500000000E+03  0.12500000000E+03 0.  0.
          5    1    1    0  501    0  0.31544266965E+02  0.37810683130E+02 -0.38203029499E+02  0.62500000000E+02  0.47000000000E+01 0.  1.
         -5    1    1    0    0  501 -0.31544266965E+02 -0.37810683130E+02  0.38203029499E+02  0.62500000000E+02  0.47000000000E+01 0.  1.
</event>
<event>
 3    0  0.4591805E-005  0.9118800E+02  0.7546771E-02  0.1235069E+00
         25   -1    0    0    0    0  0.00000000000E+00  0.00000000000E+00  0.99999998245E-14  0.12500000000E+03  0.12500000000E+03 0.  0.
          5    1    1    0  501    0  0.50426901142E+02  0.27181694990E+02 -0.24544716309E+02  0.62500000000E+02  0.47000000000E+01 0. -1.
         -5    1    1    0    0  501 -0.50426901142E+02 -0.27181694990E+02  0.24544716309E+02  0.62500000000E+02  0.47000000000E+01 0. -1.
</event>
<event>
 3    0  0.4591805E-005  0.9118800E+02  0.7546771E-02  0.1235069E+00
         25   -1    0    0    0    0  0.00000000000E+00  0.00000000000E+00  0.99999998245E-14  0.12500000000E+03  0.12500000000E+03 0.  0.
          5    1    1    0  501    0 -0.52328572776E+01  0.29969448129E+02 -0.54393100514E+02  0.62500000000E+02  0.47000000000E+01 0.  1.
         -5    1    1    0    0  501  0.52328572776E+01 -0.29969448129E+02  0.54393100514E+02  0.62500000000E+02  0.47000000000E+01 0.  1.
</event>
<event>
 3    0  0.4591805E-005  0.9118800E+02  0.7546771E-02  0.1235069E+00
         25   -1    0    0    0    0  0.00000000000E+00  0.00000000000E+00  0.99999998245E-14  0.12500000000E+03  0.12500000000E+03 0.  0.
          5    1    1    0  501    0  0.44044532127E+02  0.15283138199E+02 -0.41360184677E+02  0.62500000000E+02  0.47000000000E+01 0.  1.
         -5    1    1    0    0  501 -0.44044532127E+02 -0.15283138199E+02  0.41360184677E+02  0.62500000000E+02  0.47000000000E+01 0.  1.
</event>
<event>
 3    0  0.4591805E-005  0.9118800E+02  0.7546771E-02  0.1235069E+00
         25   -1    0    0    0    0  0.00000000000E+00  0.00000000000E+00  0.99999998245E-14  0.12500000000E+03  0.12500000000E+03 0.  0.
          5    1    1    0  501    0 -0.16103020960E+01 -0.22608039515E+02  0.58055520637E+02  0.62500000000E+02  0.47000000000E+01 0.  1.
         -5    1    1    0    0  501  0.16103020960E+01  0.22608039515E+02 -0.58055520637E+02  0.62500000000E+02  0.47000000000E+01 0.  1.
</event>
<event>
 3    0  0.4591805E-005  0.9118800E+02  0.7546771E-02  0.1235069E+00
         25   -1    0    0    0    0  0.00000000000E+00  0.00000000000E+00  0.99999998245E-14  0.12500000000E+03  0.12500000000E+03 0.  0.
          5    1    1    0  501    0  0.15466045565E+02  0.59812528953E+02  0.82111396788E+01  0.62500000000E+02  0.47000000000E+01 0. -1.
         -5    1    1    0    0  501 -0.15466045565E+02 -0.59812528953E+02 -0.82111396788E+01  0.62500000000E+02  0.47000000000E+01 0. -1.
</event>
<event>
 3    0  0.4591805E-005  0.9118800E+02  0.7546771E-02  0.1235069E+00
         25   -1    0    0    0    0  0.00000000000E+00  0.00000000000E+00  0.99999998245E-14  0.12500000000E+03  0.12500000000E+03 0.  0.
          5    1    1    0  501    0  0.56005330988E+02 -0.24360166472E+02  0.12415522154E+02  0.62500000000E+02  0.47000000000E+01 0. -1.
         -5    1    1    0    0  501 -0.56005330988E+02  0.24360166472E+02 -0.12415522154E+02  0.62500000000E+02  0.47000000000E+01 0. -1.
</event>
<event>
 3    0  0.4591805E-005  0.9118800E+02  0.7546771E-02  0.1235069E+00
         25   -1    0    0    0    0  0.00000000000E+00  0.00000000000E+00  0.99999998245E-14  0.12500000000E+03  0.12500000000E+03 0.  0.
          5    1    1    0  501    0  0.38287466386E+02 -0.16936855492E+02 -0.46166793735E+02  0.62500000000E+02  0.47000000000E+01 0.  1.
         -5    1    1    0    0  501 -0.38287466386E+02  0.16936855492E+02  0.46166793735E+02  0.62500000000E+02  0.47000000000E+01 0.  1.
</event>
<event>
 3    0  0.4591805E-005  0.9118800E+02  0.7546771E-02  0.1235069E+00
         25   -1    0    0    0    0  0.00000000000E+00  0.00000000000E+00  0.99999998245E-14  0.12500000000E+03  0.12500000000E+03 0.  0.
          5    1    1    0  501    0  0.29545913623E+02  0.52793407003E+02  0.14968472374E+02  0.62500000000E+02  0.47000000000E+01 0. -1.
         -5    1    1    0    0  501 -0.29545913623E+02 -0.52793407003E+02 -0.14968472374E+02  0.62500000000E+02  0.47000000000E+01 0. -1.
</event>
<event>
 3    0  0.4591805E-005  0.9118800E+02  0.7546771E-02  0.1235069E+00
         25   -1    0    0    0    0  0.00000000000E+00  0.00000000000E+00  0.99999998245E-14  0.12500000000E+03  0.12500000000E+03 0.  0.
          5    1    1    0  501    0 -0.46948994832E+02 -0.40976224349E+02  0.94916929016E+00  0.62500000000E+02  0.47000000000E+01 0.  1.
         -5    1    1    0    0  501  0.46948994832E+02  0.40976224349E+02 -0.94916929016E+00  0.62500000000E+02  0.47000000000E+01 0.  1.
</event>
<event>
 3    0  0.4591805E-005  0.9118800E+02  0.7546771E-02  0.1235069E+00
         25   -1    0    0    0    0  0.00000000000E+00  0.00000000000E+00  0.99999998245E-14  0.12500000000E+03  0.12500000000E+03 0.  0.
          5    1    1    0  501    0  0.31227001773E+02 -0.53928346063E+02 -0.87627121669E+00  0.62500000000E+02  0.47000000000E+01 0. -1.
         -5    1    1    0    0  501 -0.31227001773E+02  0.53928346063E+02  0.87627121669E+00  0.62500000000E+02  0.47000000000E+01 0. -1.
</event>
<event>
 3    0  0.4591805E-005  0.9118800E+02  0.7546771E-02  0.1235069E+00
         25   -1    0    0    0    0  0.00000000000E+00  0.00000000000E+00  0.99999998245E-14  0.12500000000E+03  0.12500000000E+03 0.  0.
          5    1    1    0  501    0  0.11895790711E+02  0.37396988146E+02 -0.48416065938E+02  0.62500000000E+02  0.47000000000E+01 0. -1.
         -5    1    1    0    0  501 -0.11895790711E+02 -0.37396988146E+02  0.48416065938E+02  0.62500000000E+02  0.47000000000E+01 0. -1.
</event>
<event>
 3    0  0.4591805E-005  0.9118800E+02  0.7546771E-02  0.1235069E+00
         25   -1    0    0    0    0  0.00000000000E+00  0.00000000000E+00  0.99999998245E-14  0.12500000000E+03  0.12500000000E+03 0.  0.
          5    1    1    0  501    0 -0.22928963101E+02 -0.66744186174E+01  0.57566264316E+02  0.62500000000E+02  0.47000000000E+01 0. -1.
         -5    1    1    0    0  501  0.22928963101E+02  0.66744186174E+01 -0.57566264316E+02  0.62500000000E+02  0.47000000000E+01 0. -1.
</event>
<event>
 3    0  0.4591805E-005  0.9118800E+02  0.7546771E-02  0.1235069E+00
         25   -1    0    0    0    0  0.00000000000E+00  0.00000000000E+00  0.99999998245E-14  0.12500000000E+03  0.12500000000E+03 0.  0.
          5    1    1    0  501    0  0.54509428166E+00 -0.58908100631E+02 -0.20339580925E+02  0.62500000000E+02  0.47000000000E+01 0. -1.
         -5    1    1    0    0  501 -0.54509428166E+00  0.58908100631E+02  0.20339580925E+02  0.62500000000E+02  0.47000000000E+01 0. -1.
</event>
<event>
 3    0  0.4591805E-005  0.9118800E+02  0.7546771E-02  0.1235069E+00
         25   -1    0    0    0    0  0.00000000000E+00  0.00000000000E+00  0.99999998245E-14  0.12500000000E+03  0.12500000000E+03 0.  0.
          5    1    1    0  501    0  0.24110662322E+02 -0.48698357332E+02 -0.30517305838E+02  0.62500000000E+02  0.47000000000E+01 0.  1.
         -5    1    1    0    0  501 -0.24110662322E+02  0.48698357332E+02  0.30517305838E+02  0.62500000000E+02  0.47000000000E+01 0.  1.
</event>
<event>
 3    0  0.4591805E-005  0.9118800E+02  0.7546771E-02  0.1235069E+00
         25   -1    0    0    0    0  0.00000000000E+00  0.00000000000E+00  0.99999998245E-14  0.12500000000E+03  0.12500000000E+03 0.  0.
          5    1    1    0  501    0 -0.12762140605E+02 -0.24722744082E+02 -0.55768034681E+02  0.62500000000E+02  0.47000000000E+01 0.  1.
         -5    1    1    0    0  501  0.12762140605E+02  0.24722744082E+02  0.55768034681E+02  0.62500000000E+02  0.47000000000E+01 0.  1.
</event>
<event>
 3    0  0.4591805E-005  0.9118800E+02  0.7546771E-02  0.1235069E+00
         25   -1    0    0    0    0  0.00000000000E+00  0.00000000000E+00  0.99999998245E-14  0.12500000000E+03  0.12500000000E+03 0.  0.
          5    1    1    0  501    0 -0.89400450765E+01  0.52431108101E+02 -0.32484065284E+02  0.62500000000E+02  0.47000000000E+01 0.  1.
         -5    1    1    0    0  501  0.89400450765E+01 -0.52431108101E+02  0.32484065284E+02  0.62500000000E+02  0.47000000000E+01 0.  1.
</event>
<event>
 3    0  0.4591805E-005  0.9118800E+02  0.7546771E-02  0.1235069E+00
         25   -1    0    0    0    0  0.00000000000E+00  0.00000000000E+00  0.99999998245E-14  0.12500000000E+03  0.12500000000E+03 0.  0.
          5    1    1    0  501    0 -0.38353491679E+02 -0.24232106948E+02 -0.42731424840E+02  0.62500000000E+02  0.47000000000E+01 0.  1.
         -5    1    1    0    0  501  0.38353491679E+02  0.24232106948E+02  0.42731424840E+02  0.62500000000E+02  0.47000000000E+01 0.  1.
</event>
<event>
 3    0  0.4591805E-005  0.9118800E+02  0.7546771E-02  0.1235069E+00
         25   -1    0    0    0    0  0.00000000000E+00  0.00000000000E+00  0.99999998245E-14  0.12500000000E+03  0.12500000000E+03 0.  0.
          5    1    1    0  501    0 -0.41953138048E+02 -0.29236124966E+02 -0.35627843113E+02  0.62500000000E+02  0.47000000000E+01 0.  1.
         -5    1    1    0    0  501  0.41953138048E+02  0.29236124966E+02  0.35627843113E+02  0.62500000000E+02  0.47000000000E+01 0.  1.
</event>
<event>
 3    0  0.4591805E-005  0.9118800E+02  0.7546771E-02  0.1235069E+00
         25   -1    0    0    0    0  0.00000000000E+00  0.00000000000E+00  0.99999998245E-14  0.12500000000E+03  0.12500000000E+03 0.  0.
          5    1    1    0  501    0  0.33548836631E+02 -0.94179543411E+01  0.51671439856E+02  0.62500000000E+02  0.47000000000E+01 0.  1.
         -5    1    1    0    0  501 -0.33548836631E+02  0.94179543411E+01 -0.51671439856E+02  0.62500000000E+02  0.47000000000E+01 0.  1.
</event>
<event>
 3    0  0.4591805E-005  0.9118800E+02  0.7546771E-02  0.1235069E+00
         25   -1    0    0    0    0  0.00000000000E+00  0.00000000000E+00  0.99999998245E-14  0.12500000000E+03  0.12500000000E+03 0.  0.
          5    1    1    0  501    0  0.52125067787E+02 -0.27907871152E+02  0.19705025653E+02  0.62500000000E+02  0.47000000000E+01 0.  1.
         -5    1    1    0    0  501 -0.52125067787E+02  0.27907871152E+02 -0.19705025653E+02  0.62500000000E+02  0.47000000000E+01 0.  1.
</event>
<event>
 3    0  0.4591805E-005  0.9118800E+02  0.7546771E-02  0.1235069E+00
         25   -1    0    0    0    0  0.00000000000E+00  0.00000000000E+00  0.99999998245E-14  0.12500000000E+03  0.12500000000E+03 0.  0.
          5    1    1    0  501    0 -0.22842698162E+01 -0.58544174312E+02 -0.21249041521E+02  0.62500000000E+02  0.47000000000E+01 0.  1.
         -5    1    1    0    0  501  0.22842698162E+01  0.58544174312E+02  0.21249041521E+02  0.62500000000E+02  0.47000000000E+01 0.  1.
</event>
<event>
 3    0  0.4591805E-005  0.9118800E+02  0.7546771E-02  0.1235069E+00
         25   -1    0    0    0    0  0.00000000000E+00  0.00000000000E+00  0.99999998245E-14  0.12500000000E+03  0.12500000000E+03 0.  0.
          5    1    1    0  501    0  0.24352234689E+02 -0.10604407701E+02  0.56379741068E+02  0.62500000000E+02  0.47000000000E+01 0. -1.
         -5    1    1    0    0  501 -0.24352234689E+02  0.10604407701E+02 -0.56379741068E+02  0.62500000000E+02  0.47000000000E+01 0. -1.
</event>
<event>
 3    0  0.4591805E-005  0.9118800E+02  0.7546771E-02  0.1235069E+00
         25   -1    0    0    0    0  0.00000000000E+00  0.00000000000E+00  0.99999998245E-14  0.12500000000E+03  0.12500000000E+03 0.  0.
          5    1    1    0  501    0  0.19008149046E+02 -0.59139602055E+02  0.50356467924E+01  0.62500000000E+02  0.47000000000E+01 0.  1.
         -5    1    1    0    0  501 -0.19008149046E+02  0.59139602055E+02 -0.50356467924E+01  0.62500000000E+02  0.47000000000E+01 0.  1.
</event>
<event>
 3    0  0.4591805E-005  0.9118800E+02  0.7546771E-02  0.1235069E+00
         25   -1    0    0    0    0  0.00000000000E+00  0.00000000000E+00  0.99999998245E-14  0.12500000000E+03  0.12500000000E+03 0.  0.
          5    1    1    0  501    0 -0.46884806635E+02  0.11050774844E+02  0.39545610150E+02  0.62500000000E+02  0.47000000000E+01 0.  1.
         -5    1    1    0    0  501  0.46884806635E+02 -0.11050774844E+02 -0.39545610150E+02  0.62500000000E+02  0.47000000000E+01 0.  1.
</event>
<event>
 3    0  0.4591805E-005  0.9118800E+02  0.7546771E-02  0.1235069E+00
         25   -1    0    0    0    0  0.00000000000E+00  0.00000000000E+00  0.99999998245E-14  0.12500000000E+03  0.12500000000E+03 0.  0.
          5    1    1    0  501    0  0.30045588356E+02 -0.39536496955E+02 -0.37660165014E+02  0.62500000000E+02  0.47000000000E+01 0.  1.
         -5    1    1    0    0  501 -0.30045588356E+02  0.39536496955E+02  0.37660165014E+02  0.62500000000E+02  0.47000000000E+01 0.  1.
</event>
<event>
 3    0  0.4591805E-005  0.9118800E+02  0.7546771E-02  0.1235069E+00
         25   -1    0    0    0    0  0.00000000000E+00  0.00000000000E+00  0.99999998245E-14  0.12500000000E+03  0.12500000000E+03 0.  0.
          5    1    1    0  501    0 -0.30459539091E+02  0.20285496465E+01 -0.54334716938E+02  0.62500000000E+02  0.47000000000E+01 0. -1.
         -5    1    1    0    0  501  0.30459539091E+02 -0.20285496465E+01  0.54334716938E+02  0.62500000000E+02  0.47000000000E+01 0. -1.
</event>
<event>
 3    0  0.4591805E-005  0.9118800E+02  0.7546771E-02  0.1235069E+00
         25   -1    0    0    0    0  0.00000000000E+00  0.00000000000E+00  0.99999998245E-14  0.12500000000E+03  0.12500000000E+03 0.  0.
          5    1    1    0  501    0 -0.10127423239E+02 -0.51529118262E+02  0.33561067768E+02  0.62500000000E+02  0.47000000000E+01 0. -1.
         -5    1    1    0    0  501  0.10127423239E+02  0.51529118262E+02 -0.33561067768E+02  0.62500000000E+02  0.47000000000E+01 0. -1.
</event>
<event>
 3    0  0.4591805E-005  0.9118800E+02  0.7546771E-02  0.1235069E+00
         25   -1    0    0    0    0  0.00000000000E+00  0.00000000000E+00  0.99999998245E-14  0.12500000000E+03  0.12500000000E+03 0.  0.
          5    1    1    0  501    0  0.38291459480E+02  0.37233239266E+02  0.32118686534E+02  0.62500000000E+02  0.47000000000E+01 0.  1.
         -5    1    1    0    0  501 -0.38291459480E+02 -0.37233239266E+02 -0.32118686534E+02  0.62500000000E+02  0.47000000000E+01 0.  1.
</event>
<event>
 3    0  0.4591805E-005  0.9118800E+02  0.7546771E-02  0.1235069E+00
         25   -1    0    0    0    0  0.00000000000E+00  0.00000000000E+00  0.99999998245E-14  0.12500000000E+03  0.12500000000E+03 0.  0.
          5    1    1    0  501    0 -0.10277188778E+02  0.83132804645E+01 -0.60905079909E+02  0.62500000000E+02  0.47000000000E+01 0.  1.
         -5    1    1    0    0  501  0.10277188778E+02 -0.83132804645E+01  0.60905079909E+02  0.62500000000E+02  0.47000000000E+01 0.  1.
</event>
<event>
 3    0  0.4591805E-005  0.9118800E+02  0.7546771E-02  0.1235069E+00
         25   -1    0    0    0    0  0.00000000000E+00  0.00000000000E+00  0.99999998245E-14  0.12500000000E+03  0.12500000000E+03 0.  0.
          5    1    1    0  501    0 -0.30563060304E+02  0.34829894272E+02  0.41676585871E+02  0.62500000000E+02  0.47000000000E+01 0.  1.
         -5    1    1    0    0  501  0.30563060304E+02 -0.34829894272E+02 -0.41676585871E+02  0.62500000000E+02  0.47000000000E+01 0.  1.
</event>
<event>
 3    0  0.4591805E-005  0.9118800E+02  0.7546771E-02  0.1235069E+00
         25   -1    0    0    0    0  0.00000000000E+00  0.00000000000E+00  0.99999998245E-14  0.12500000000E+03  0.12500000000E+03 0.  0.
          5    1    1    0  501    0  0.19151535066E+02 -0.58875472624E+02 -0.71454480524E+01  0.62500000000E+02  0.47000000000E+01 0. -1.
         -5    1    1    0    0  501 -0.19151535066E+02  0.58875472624E+02  0.71454480524E+01  0.62500000000E+02  0.47000000000E+01 0. -1.
</event>
<event>
 3    0  0.4591805E-005  0.9118800E+02  0.7546771E-02  0.1235069E+00
         25   -1    0    0    0    0  0.00000000000E+00  0.00000000000E+00  0.99999998245E-14  0.12500000000E+03  0.12500000000E+03 0.  0.
          5    1    1    0  501    0  0.19010489312E+02 -0.52166680248E+02  0.28308987408E+02  0.62500000000E+02  0.47000000000E+01 0.  1.
         -5    1    1    0    0  501 -0.19010489312E+02  0.52166680248E+02 -0.28308987408E+02  0.62500000000E+02  0.47000000000E+01 0.  1.
</event>
<event>
 3    0  0.4591805E-005  0.9118800E+02  0.7546771E-02  0.1235069E+00
         25   -1    0    0    0    0  0.00000000000E+00  0.00000000000E+00  0.99999998245E-14  0.12500000000E+03  0.12500000000E+03 0.  0.
          5    1    1    0  501    0  0.52013499682E+02  0.23074926304E+02  0.25422502373E+02  0.62500000000E+02  0.47000000000E+01 0. -1.
         -5    1    1    0    0  501 -0.52013499682E+02 -0.23074926304E+02 -0.25422502373E+02  0.62500000000E+02  0.47000000000E+01 0. -1.
</event>
<event>
 3    0  0.4591805E-005  0.9118800E+02  0.7546771E-02  0.1235069E+00
         25   -1    0    0    0    0  0.00000000000E+00  0.00000000000E+00  0.99999998245E-14  0.12500000000E+03  0.12500000000E+03 0.  0.
          5    1    1    0  501    0  0.46896284500E+02  0.18925777855E+02 -0.36424077650E+02  0.62500000000E+02  0.47000000000E+01 0.  1.
         -5    1    1    0    0  501 -0.46896284500E+02 -0.18925777855E+02  0.36424077650E+02  0.62500000000E+02  0.47000000000E+01 0.  1.
</event>
<event>
 3    0  0.4591805E-005  0.9118800E+02  0.7546771E-02  0.1235069E+00
         25   -1    0    0    0    0  0.00000000000E+00  0.00000000000E+00  0.99999998245E-14  0.12500000000E+03  0.12500000000E+03 0.  0.
          5    1    1    0  501    0  0.52419454408E+02 -0.26262700377E+02 -0.21133654877E+02  0.62500000000E+02  0.47000000000E+01 0. -1.
         -5    1    1    0    0  501 -0.52419454408E+02  0.26262700377E+02  0.21133654877E+02  0.62500000000E+02  0.47000000000E+01 0. -1.
</event>
<event>
 3    0  0.4591805E-005  0.9118800E+02  0.7546771E-02  0.1235069E+00
         25   -1    0    0    0    0  0.00000000000E+00  0.00000000000E+00  0.99999998245E-14  0.12500000000E+03  0.12500000000E+03 0.  0.
          5    1    1    0  501    0  0.54764929224E+02  0.25039958621E+02  0.16061226582E+02  0.62500000000E+02  0.47000000000E+01 0.  1.
         -5    1    1    0    0  501 -0.54764929224E+02 -0.25039958621E+02 -0.16061226582E+02  0.62500000000E+02  0.47000000000E+01 0.  1.
</event>
<event>
 3    0  0.4591805E-005  0.9118800E+02  0.7546771E-02  0.1235069E+00
         25   -1    0    0    0    0  0.00000000000E+00  0.00000000000E+00  0.99999998245E-14  0.12500000000E+03  0.12500000000E+03 0.  0.
          5    1    1    0  501    0 -0.11355241130E+02 -0.58907176119E+02 -0.16886772947E+02  0.62500000000E+02  0.47000000000E+01 0.  1.
         -5    1    1    0    0  501  0.11355241130E+02  0.58907176119E+02  0.16886772947E+02  0.62500000000E+02  0.47000000000E+01 0.  1.
</event>
<event>
 3    0  0.4591805E-005  0.9118800E+02  0.7546771E-02  0.1235069E+00
         25   -1    0    0    0    0  0.00000000000E+00  0.00000000000E+00  0.99999998245E-14  0.12500000000E+03  0.12500000000E+03 0.  0.
          5    1    1    0  501    0  0.47190001646E+02  0.36819415065E+02 -0.17366473992E+02  0.62500000000E+02  0.47000000000E+01 0.  1.
         -5    1    1    0    0  501 -0.47190001646E+02 -0.36819415065E+02  0.17366473992E+02  0.62500000000E+02  0.47000000000E+01 0.  1.
</event>
<event>
 3    0  0.4591805E-005  0.9118800E+02  0.7546771E-02  0.1235069E+00
         25   -1    0    0    0    0  0.00000000000E+00  0.00000000000E+00  0.99999998245E-14  0.12500000000E+03  0.12500000000E+03 0.  0.
          5    1    1    0  501    0 -0.33178938173E+02 -0.52538462248E+02  0.47987546702E+01  0.62500000000E+02  0.47000000000E+01 0.  1.
         -5    1    1    0    0  501  0.33178938173E+02  0.52538462248E+02 -0.47987546702E+01  0.62500000000E+02  0.47000000000E+01 0.  1.
</event>
<event>
 3    0  0.4591805E-005  0.9118800E+02  0.7546771E-02  0.1235069E+00
         25   -1    0    0    0    0  0.00000000000E+00  0.00000000000E+00  0.99999998245E-14  0.12500000000E+03  0.12500000000E+03 0.  0.
          5    1    1    0  501    0  0.60725910278E+02  0.78392861099E+01  0.11621936768E+02  0.62500000000E+02  0.47000000000E+01 0.  1.
         -5    1    1    0    0  501 -0.60725910278E+02 -0.78392861099E+01 -0.11621936768E+02  0.62500000000E+02  0.47000000000E+01 0.  1.
</event>
<event>
 3    0  0.4591805E-005  0.9118800E+02  0.7546771E-02  0.1235069E+00
         25   -1    0    0    0    0  0.00000000000E+00  0.00000000000E+00  0.99999998245E-14  0.12500000000E+03  0.12500000000E+03 0.  0.
          5    1    1    0  501    0  0.19995308340E+02  0.57189045771E+02  0.14620557040E+02  0.62500000000E+02  0.47000000000E+01 0.  1.
         -5    1    1    0    0  501 -0.19995308340E+02 -0.57189045771E+02 -0.14620557040E+02  0.62500000000E+02  0.47000000000E+01 0.  1.
</event>
<event>
 3    0  0.4591805E-005  0.9118800E+02  0.7546771E-02  0.1235069E+00
         25   -1    0    0    0    0  0.00000000000E+00  0.00000000000E+00  0.99999998245E-14  0.12500000000E+03  0.12500000000E+03 0.  0.
          5    1    1    0  501    0  0.50681715493E+02 -0.40366058938E+01 -0.36044826640E+02  0.62500000000E+02  0.47000000000E+01 0. -1.
         -5    1    1    0    0  501 -0.50681715493E+02  0.40366058938E+01  0.36044826640E+02  0.62500000000E+02  0.47000000000E+01 0. -1.
</event>
<event>
 3    0  0.4591805E-005  0.9118800E+02  0.7546771E-02  0.1235069E+00
         25   -1    0    0    0    0  0.00000000000E+00  0.00000000000E+00  0.99999998245E-14  0.12500000000E+03  0.12500000000E+03 0.  0.
          5    1    1    0  501    0  0.53033982895E+02 -0.12969534140E+02  0.30055745583E+02  0.62500000000E+02  0.47000000000E+01 0.  1.
         -5    1    1    0    0  501 -0.53033982895E+02  0.12969534140E+02 -0.30055745583E+02  0.62500000000E+02  0.47000000000E+01 0.  1.
</event>
<event>
 3    0  0.4591805E-005  0.9118800E+02  0.7546771E-02  0.1235069E+00
         25   -1    0    0    0    0  0.00000000000E+00  0.00000000000E+00  0.99999998245E-14  0.12500000000E+03  0.12500000000E+03 0.  0.
          5    1    1    0  501    0 -0.79431172540E+01  0.61224081762E+02  0.85251803936E+01  0.62500000000E+02  0.47000000000E+01 0.  1.
         -5    1    1    0    0  501  0.79431172540E+01 -0.61224081762E+02 -0.85251803936E+01  0.62500000000E+02  0.47000000000E+01 0.  1.
</event>
<event>
 3    0  0.4591805E-005  0.9118800E+02  0.7546771E-02  0.1235069E+00
         25   -1    0    0    0    0  0.00000000000E+00  0.00000000000E+00  0.99999998245E-14  0.12500000000E+03  0.12500000000E+03 0.  0.
          5    1    1    0  501    0 -0.58694196967E+02 -0.10636477018E+02  0.18055929747E+02  0.62500000000E+02  0.47000000000E+01 0.  1.
         -5    1    1    0    0  501  0.58694196967E+02  0.10636477018E+02 -0.18055929747E+02  0.62500000000E+02  0.47000000000E+01 0.  1.
</event>
<event>
 3    0  0.4591805E-005  0.9118800E+02  0.7546771E-02  0.1235069E+00
         25   -1    0    0    0    0  0.00000000000E+00  0.00000000000E+00  0.99999998245E-14  0.12500000000E+03  0.12500000000E+03 0.  0.
          5    1    1    0  501    0 -0.45066012934E+02 -0.29673932702E+02  0.31187693025E+02  0.62500000000E+02  0.47000000000E+01 0. -1.
         -5    1    1    0    0  501  0.45066012934E+02  0.29673932702E+02 -0.31187693025E+02  0.62500000000E+02  0.47000000000E+01 0. -1.
</event>
<event>
 3    0  0.4591805E-005  0.9118800E+02  0.7546771E-02  0.1235069E+00
         25   -1    0    0    0    0  0.00000000000E+00  0.00000000000E+00  0.99999998245E-14  0.12500000000E+03  0.12500000000E+03 0.  0.
          5    1    1    0  501    0  0.59669103374E+01  0.60185162550E+02  0.15043343707E+02  0.62500000000E+02  0.47000000000E+01 0.  1.
         -5    1    1    0    0  501 -0.59669103374E+01 -0.60185162550E+02 -0.15043343707E+02  0.62500000000E+02  0.47000000000E+01 0.  1.
</event>
<event>
 3    0  0.4591805E-005  0.9118800E+02  0.7546771E-02  0.1235069E+00
         25   -1    0    0    0    0  0.00000000000E+00  0.00000000000E+00  0.99999998245E-14  0.12500000000E+03  0.12500000000E+03 0.  0.
          5    1    1    0  501    0  0.40073828733E+02  0.20149363884E+02  0.43269520285E+02  0.62500000000E+02  0.47000000000E+01 0. -1.
         -5    1    1    0    0  501 -0.40073828733E+02 -0.20149363884E+02 -0.43269520285E+02  0.62500000000E+02  0.47000000000E+01 0. -1.
</event>
<event>
 3    0  0.4591805E-005  0.9118800E+02  0.7546771E-02  0.1235069E+00
         25   -1    0    0    0    0  0.00000000000E+00  0.00000000000E+00  0.99999998245E-14  0.12500000000E+03  0.12500000000E+03 0.  0.
          5    1    1    0  501    0  0.29277600032E+02  0.53557101396E+02 -0.12594404566E+02  0.62500000000E+02  0.47000000000E+01 0. -1.
         -5    1    1    0    0  501 -0.29277600032E+02 -0.53557101396E+02  0.12594404566E+02  0.62500000000E+02  0.47000000000E+01 0. -1.
</event>
<event>
 3    0  0.4591805E-005  0.9118800E+02  0.7546771E-02  0.1235069E+00
         25   -1    0    0    0    0  0.00000000000E+00  0.00000000000E+00  0.99999998245E-14  0.12500000000E+03  0.12500000000E+03 0.  0.
          5    1    1    0  501    0 -0.26252277905E+02  0.60921382266E+01 -0.56194873046E+02  0.62500000000E+02  0.47000000000E+01 0. -1.
         -5    1    1    0    0  501  0.26252277905E+02 -0.60921382266E+01  0.56194873046E+02  0.62500000000E+02  0.47000000000E+01 0. -1.
</event>
<event>
 3    0  0.4591805E-005  0.9118800E+02  0.7546771E-02  0.1235069E+00
         25   -1    0    0    0    0  0.00000000000E+00  0.00000000000E+00  0.99999998245E-14  0.12500000000E+03  0.12500000000E+03 0.  0.
          5    1    1    0  501    0 -0.61971447883E+02  0.30919151241E+00 -0.66033361187E+01  0.62500000000E+02  0.47000000000E+01 0. -1.
         -5    1    1    0    0  501  0.61971447883E+02 -0.30919151241E+00  0.66033361187E+01  0.62500000000E+02  0.47000000000E+01 0. -1.
</event>
<event>
 3    0  0.4591805E-005  0.9118800E+02  0.7546771E-02  0.1235069E+00
         25   -1    0    0    0    0  0.00000000000E+00  0.00000000000E+00  0.99999998245E-14  0.12500000000E+03  0.12500000000E+03 0.  0.
          5    1    1    0  501    0  0.15070700414E+02  0.10966452944E+01 -0.60463471271E+02  0.62500000000E+02  0.47000000000E+01 0.  1.
         -5    1    1    0    0  501 -0.15070700414E+02 -0.10966452944E+01  0.60463471271E+02  0.62500000000E+02  0.47000000000E+01 0.  1.
</event>
<event>
 3    0  0.4591805E-005  0.9118800E+02  0.7546771E-02  0.1235069E+00
         25   -1    0    0    0    0  0.00000000000E+00  0.00000000000E+00  0.99999998245E-14  0.12500000000E+03  0.12500000000E+03 0.  0.
          5    1    1    0  501    0  0.42095985496E+02  0.32986932280E+02  0.31999223488E+02  0.62500000000E+02  0.47000000000E+01 0.  1.
         -5    1    1    0    0  501 -0.42095985496E+02 -0.32986932280E+02 -0.31999223488E+02  0.62500000000E+02  0.47000000000E+01 0.  1.
</event>
<event>
 3    0  0.4591805E-005  0.9118800E+02  0.7546771E-02  0.1235069E+00
         25   -1    0    0    0    0  0.00000000000E+00  0.00000000000E+00  0.99999998245E-14  0.12500000000E+03  0.12500000000E+03 0.  0.
          5    1    1    0  501    0 -0.56567996805E+02  0.14034473353E+02  0.22073859999E+02  0.62500000000E+02  0.47000000000E+01 0. -1.
         -5    1    1    0    0  501  0.56567996805E+02 -0.14034473353E+02 -0.22073859999E+02  0.62500000000E+02  0.47000000000E+01 0. -1.
</event>
<event>
 3    0  0.4591805E-005  0.9118800E+02  0.7546771E-02  0.1235069E+00
         25   -1    0    0    0    0  0.00000000000E+00  0.00000000000E+00  0.99999998245E-14  0.12500000000E+03  0.12500000000E+03 0.  0.
          5    1    1    0  501    0 -0.29918609736E+01  0.71618589438E+01 -0.61837824544E+02  0.62500000000E+02  0.47000000000E+01 0. -1.
         -5    1    1    0    0  501  0.29918609736E+01 -0.71618589438E+01  0.61837824544E+02  0.62500000000E+02  0.47000000000E+01 0. -1.
</event>
<event>
 3    0  0.4591805E-005  0.9118800E+02  0.7546771E-02  0.1235069E+00
         25   -1    0    0    0    0  0.00000000000E+00  0.00000000000E+00  0.99999998245E-14  0.12500000000E+03  0.12500000000E+03 0.  0.
          5    1    1    0  501    0  0.25434763774E+02 -0.33554610722E+02 -0.45949111972E+02  0.62500000000E+02  0.47000000000E+01 0.  1.
         -5    1    1    0    0  501 -0.25434763774E+02  0.33554610722E+02  0.45949111972E+02  0.62500000000E+02  0.47000000000E+01 0.  1.
</event>
<event>
 3    0  0.4591805E-005  0.9118800E+02  0.7546771E-02  0.1235069E+00
         25   -1    0    0    0    0  0.00000000000E+00  0.00000000000E+00  0.99999998245E-14  0.12500000000E+03  0.12500000000E+03 0.  0.
          5    1    1    0  501    0 -0.13383964939E+02 -0.18182696602E+02  0.58089749757E+02  0.62500000000E+02  0.47000000000E+01 0. -1.
         -5    1    1    0    0  501  0.13383964939E+02  0.18182696602E+02 -0.58089749757E+02  0.62500000000E+02  0.47000000000E+01 0. -1.
</event>
<event>
 3    0  0.4591805E-005  0.9118800E+02  0.7546771E-02  0.1235069E+00
         25   -1    0    0    0    0  0.00000000000E+00  0.00000000000E+00  0.99999998245E-14  0.12500000000E+03  0.12500000000E+03 0.  0.
          5    1    1    0  501    0  0.37814528143E+02  0.41864510448E+02  0.26487435253E+02  0.62500000000E+02  0.47000000000E+01 0. -1.
         -5    1    1    0    0  501 -0.37814528143E+02 -0.41864510448E+02 -0.26487435253E+02  0.62500000000E+02  0.47000000000E+01 0. -1.
</event>
<event>
 3    0  0.4591805E-005  0.9118800E+02  0.7546771E-02  0.1235069E+00
         25   -1    0    0    0    0  0.00000000000E+00  0.00000000000E+00  0.99999998245E-14  0.12500000000E+03  0.12500000000E+03 0.  0.
          5    1    1    0  501    0 -0.38986394574E+02 -0.73271961273E+01 -0.48068006356E+02  0.62500000000E+02  0.47000000000E+01 0.  1.
         -5    1    1    0    0  501  0.38986394574E+02  0.73271961273E+01  0.48068006356E+02  0.62500000000E+02  0.47000000000E+01 0.  1.
</event>
<event>
 3    0  0.4591805E-005  0.9118800E+02  0.7546771E-02  0.1235069E+00
         25   -1    0    0    0    0  0.00000000000E+00  0.00000000000E+00  0.99999998245E-14  0.12500000000E+03  0.12500000000E+03 0.  0.
          5    1    1    0  501    0  0.73163990197E+01  0.21040761143E+02  0.58205813077E+02  0.62500000000E+02  0.47000000000E+01 0.  1.
         -5    1    1    0    0  501 -0.73163990197E+01 -0.21040761143E+02 -0.58205813077E+02  0.62500000000E+02  0.47000000000E+01 0.  1.
</event>
<event>
 3    0  0.4591805E-005  0.9118800E+02  0.7546771E-02  0.1235069E+00
         25   -1    0    0    0    0  0.00000000000E+00  0.00000000000E+00  0.99999998245E-14  0.12500000000E+03  0.12500000000E+03 0.  0.
          5    1    1    0  501    0  0.50287864578E+02  0.14036143327E+02  0.34033474062E+02  0.62500000000E+02  0.47000000000E+01 0.  1.
         -5    1    1    0    0  501 -0.50287864578E+02 -0.14036143327E+02 -0.34033474062E+02  0.62500000000E+02  0.47000000000E+01 0.  1.
</event>
<event>
 3    0  0.4591805E-005  0.9118800E+02  0.7546771E-02  0.1235069E+00
         25   -1    0    0    0    0  0.00000000000E+00  0.00000000000E+00  0.99999998245E-14  0.12500000000E+03  0.12500000000E+03 0.  0.
          5    1    1    0  501    0 -0.56367968064E+02  0.11358741288E+02 -0.24037287134E+02  0.62500000000E+02  0.47000000000E+01 0. -1.
         -5    1    1    0    0  501  0.56367968064E+02 -0.11358741288E+02  0.24037287134E+02  0.62500000000E+02  0.47000000000E+01 0. -1.
</event>
<event>
 3    0  0.4591805E-005  0.9118800E+02  0.7546771E-02  0.1235069E+00
         25   -1    0    0    0    0  0.00000000000E+00  0.00000000000E+00  0.99999998245E-14  0.12500000000E+03  0.12500000000E+03 0.  0.
          5    1    1    0  501    0 -0.34732425935E+02  0.51744948362E+02  0.52811710684E+00  0.62500000000E+02  0.47000000000E+01 0.  1.
         -5    1    1    0    0  501  0.34732425935E+02 -0.51744948362E+02 -0.52811710684E+00  0.62500000000E+02  0.47000000000E+01 0.  1.
</event>
<event>
 3    0  0.4591805E-005  0.9118800E+02  0.7546771E-02  0.1235069E+00
         25   -1    0    0    0    0  0.00000000000E+00  0.00000000000E+00  0.99999998245E-14  0.12500000000E+03  0.12500000000E+03 0.  0.
          5    1    1    0  501    0  0.20949429595E+02  0.41279864071E+02  0.41728338356E+02  0.62500000000E+02  0.47000000000E+01 0.  1.
         -5    1    1    0    0  501 -0.20949429595E+02 -0.41279864071E+02 -0.41728338356E+02  0.62500000000E+02  0.47000000000E+01 0.  1.
</event>
<event>
 3    0  0.4591805E-005  0.9118800E+02  0.7546771E-02  0.1235069E+00
         25   -1    0    0    0    0  0.00000000000E+00  0.00000000000E+00  0.99999998245E-14  0.12500000000E+03  0.12500000000E+03 0.  0.
          5    1    1    0  501    0 -0.35859607439E+02  0.50972922468E+02  0.98637721460E-01  0.62500000000E+02  0.47000000000E+01 0. -1.
         -5    1    1    0    0  501  0.35859607439E+02 -0.50972922468E+02 -0.98637721460E-01  0.62500000000E+02  0.47000000000E+01 0. -1.
</event>
<event>
 3    0  0.4591805E-005  0.9118800E+02  0.7546771E-02  0.1235069E+00
         25   -1    0    0    0    0  0.00000000000E+00  0.00000000000E+00  0.99999998245E-14  0.12500000000E+03  0.12500000000E+03 0.  0.
          5    1    1    0  501    0 -0.20022799390E+02 -0.42827898801E+02  0.40608109891E+02  0.62500000000E+02  0.47000000000E+01 0.  1.
         -5    1    1    0    0  501  0.20022799390E+02  0.42827898801E+02 -0.40608109891E+02  0.62500000000E+02  0.47000000000E+01 0.  1.
</event>
<event>
 3    0  0.4591805E-005  0.9118800E+02  0.7546771E-02  0.1235069E+00
         25   -1    0    0    0    0  0.00000000000E+00  0.00000000000E+00  0.99999998245E-14  0.12500000000E+03  0.12500000000E+03 0.  0.
          5    1    1    0  501    0  0.47476866140E+02  0.24137703611E+02  0.32364771680E+02  0.62500000000E+02  0.47000000000E+01 0. -1.
         -5    1    1    0    0  501 -0.47476866140E+02 -0.24137703611E+02 -0.32364771680E+02  0.62500000000E+02  0.47000000000E+01 0. -1.
</event>
<event>
 3    0  0.4591805E-005  0.9118800E+02  0.7546771E-02  0.1235069E+00
         25   -1    0    0    0    0  0.00000000000E+00  0.00000000000E+00  0.99999998245E-14  0.12500000000E+03  0.12500000000E+03 0.  0.
          5    1    1    0  501    0  0.36327777105E+02 -0.44528518828E+02  0.24117703490E+02  0.62500000000E+02  0.47000000000E+01 0.  1.
         -5    1    1    0    0  501 -0.36327777105E+02  0.44528518828E+02 -0.24117703490E+02  0.62500000000E+02  0.47000000000E+01 0.  1.
</event>
<event>
 3    0  0.4591805E-005  0.9118800E+02  0.7546771E-02  0.1235069E+00
         25   -1    0    0    0    0  0.00000000000E+00  0.00000000000E+00  0.99999998245E-14  0.12500000000E+03  0.12500000000E+03 0.  0.
          5    1    1    0  501    0  0.17102618413E+02 -0.50173897942E+02  0.32775606916E+02  0.62500000000E+02  0.47000000000E+01 0. -1.
         -5    1    1    0    0  501 -0.17102618413E+02  0.50173897942E+02 -0.32775606916E+02  0.62500000000E+02  0.47000000000E+01 0. -1.
</event>
<event>
 3    0  0.4591805E-005  0.9118800E+02  0.7546771E-02  0.1235069E+00
         25   -1    0    0    0    0  0.00000000000E+00  0.00000000000E+00  0.99999998245E-14  0.12500000000E+03  0.12500000000E+03 0.  0.
          5    1    1    0  501    0 -0.77737437956E+00 -0.61637460750E+02 -0.91858108744E+01  0.62500000000E+02  0.47000000000E+01 0.  1.
         -5    1    1    0    0  501  0.77737437956E+00  0.61637460750E+02  0.91858108744E+01  0.62500000000E+02  0.47000000000E+01 0.  1.
</event>
<event>
 3    0  0.4591805E-005  0.9118800E+02  0.7546771E-02  0.1235069E+00
         25   -1    0    0    0    0  0.00000000000E+00  0.00000000000E+00  0.99999998245E-14  0.12500000000E+03  0.12500000000E+03 0.  0.
          5    1    1    0  501    0 -0.41191257383E+02  0.43967470237E+02  0.15946845334E+02  0.62500000000E+02  0.47000000000E+01 0. -1.
         -5    1    1    0    0  501  0.41191257383E+02 -0.43967470237E+02 -0.15946845334E+02  0.62500000000E+02  0.47000000000E+01 0. -1.
</event>
<event>
 3    0  0.4591805E-005  0.9118800E+02  0.7546771E-02  0.1235069E+00
         25   -1    0    0    0    0  0.00000000000E+00  0.00000000000E+00  0.99999998245E-14  0.12500000000E+03  0.12500000000E+03 0.  0.
          5    1    1    0  501    0 -0.39957283675E+02  0.15749808338E+02  0.45161034296E+02  0.62500000000E+02  0.47000000000E+01 0. -1.
         -5    1    1    0    0  501  0.39957283675E+02 -0.15749808338E+02 -0.45161034296E+02  0.62500000000E+02  0.47000000000E+01 0. -1.
</event>
<event>
 3    0  0.4591805E-005  0.9118800E+02  0.7546771E-02  0.1235069E+00
         25   -1    0    0    0    0  0.00000000000E+00  0.00000000000E+00  0.99999998245E-14  0.12500000000E+03  0.12500000000E+03 0.  0.
          5    1    1    0  501    0 -0.10789499668E+02 -0.38577547331E+02 -0.47744314204E+02  0.62500000000E+02  0.47000000000E+01 0. -1.
         -5    1    1    0    0  501  0.10789499668E+02  0.38577547331E+02  0.47744314204E+02  0.62500000000E+02  0.47000000000E+01 0. -1.
</event>
<event>
 3    0  0.4591805E-005  0.9118800E+02  0.7546771E-02  0.1235069E+00
         25   -1    0    0    0    0  0.00000000000E+00  0.00000000000E+00  0.99999998245E-14  0.12500000000E+03  0.12500000000E+03 0.  0.
          5    1    1    0  501    0 -0.55494807983E+02 -0.21116981053E+02  0.18935664715E+02  0.62500000000E+02  0.47000000000E+01 0. -1.
         -5    1    1    0    0  501  0.55494807983E+02  0.21116981053E+02 -0.18935664715E+02  0.62500000000E+02  0.47000000000E+01 0. -1.
</event>
<event>
 3    0  0.4591805E-005  0.9118800E+02  0.7546771E-02  0.1235069E+00
         25   -1    0    0    0    0  0.00000000000E+00  0.00000000000E+00  0.99999998245E-14  0.12500000000E+03  0.12500000000E+03 0.  0.
          5    1    1    0  501    0  0.95230887039E+01  0.58814074137E+02 -0.18285936260E+02  0.62500000000E+02  0.47000000000E+01 0. -1.
         -5    1    1    0    0  501 -0.95230887039E+01 -0.58814074137E+02  0.18285936260E+02  0.62500000000E+02  0.47000000000E+01 0. -1.
</event>
<event>
 3    0  0.4591805E-005  0.9118800E+02  0.7546771E-02  0.1235069E+00
         25   -1    0    0    0    0  0.00000000000E+00  0.00000000000E+00  0.99999998245E-14  0.12500000000E+03  0.12500000000E+03 0.  0.
          5    1    1    0  501    0  0.36147399582E+02  0.16031317055E+02  0.48171800640E+02  0.62500000000E+02  0.47000000000E+01 0. -1.
         -5    1    1    0    0  501 -0.36147399582E+02 -0.16031317055E+02 -0.48171800640E+02  0.62500000000E+02  0.47000000000E+01 0. -1.
</event>
<event>
 3    0  0.4591805E-005  0.9118800E+02  0.7546771E-02  0.1235069E+00
         25   -1    0    0    0    0  0.00000000000E+00  0.00000000000E+00  0.99999998245E-14  0.12500000000E+03  0.12500000000E+03 0.  0.
          5    1    1    0  501    0 -0.59480967368E+02 -0.11266308828E+02 -0.14806917519E+02  0.62500000000E+02  0.47000000000E+01 0. -1.
         -5    1    1    0    0  501  0.59480967368E+02  0.11266308828E+02  0.14806917519E+02  0.62500000000E+02  0.47000000000E+01 0. -1.
</event>
<event>
 3    0  0.4591805E-005  0.9118800E+02  0.7546771E-02  0.1235069E+00
         25   -1    0    0    0    0  0.00000000000E+00  0.00000000000E+00  0.99999998245E-14  0.12500000000E+03  0.12500000000E+03 0.  0.
          5    1    1    0  501    0  0.44286458318E+02  0.37387885334E+02 -0.22913219762E+02  0.62500000000E+02  0.47000000000E+01 0.  1.
         -5    1    1    0    0  501 -0.44286458318E+02 -0.37387885334E+02  0.22913219762E+02  0.62500000000E+02  0.47000000000E+01 0.  1.
</event>
<event>
 3    0  0.4591805E-005  0.9118800E+02  0.7546771E-02  0.1235069E+00
         25   -1    0    0    0    0  0.00000000000E+00  0.00000000000E+00  0.99999998245E-14  0.12500000000E+03  0.12500000000E+03 0.  0.
          5    1    1    0  501    0  0.72857906810E+01 -0.51084909803E+02 -0.34948665848E+02  0.62500000000E+02  0.47000000000E+01 0. -1.
         -5    1    1    0    0  501 -0.72857906810E+01  0.51084909803E+02  0.34948665848E+02  0.62500000000E+02  0.47000000000E+01 0. -1.
</event>
<event>
 3    0  0.4591805E-005  0.9118800E+02  0.7546771E-02  0.1235069E+00
         25   -1    0    0    0    0  0.00000000000E+00  0.00000000000E+00  0.99999998245E-14  0.12500000000E+03  0.12500000000E+03 0.  0.
          5    1    1    0  501    0 -0.62094296798E+02 -0.49092375722E+01  0.20875084782E+01  0.62500000000E+02  0.47000000000E+01 0. -1.
         -5    1    1    0    0  501  0.62094296798E+02  0.49092375722E+01 -0.20875084782E+01  0.62500000000E+02  0.47000000000E+01 0. -1.
</event>
<event>
 3    0  0.4591805E-005  0.9118800E+02  0.7546771E-02  0.1235069E+00
         25   -1    0    0    0    0  0.00000000000E+00  0.00000000000E+00  0.99999998245E-14  0.12500000000E+03  0.12500000000E+03 0.  0.
          5    1    1    0  501    0  0.17476130119E+02  0.26075456388E+01  0.59765755929E+02  0.62500000000E+02  0.47000000000E+01 0. -1.
         -5    1    1    0    0  501 -0.17476130119E+02 -0.26075456388E+01 -0.59765755929E+02  0.62500000000E+02  0.47000000000E+01 0. -1.
</event>
<event>
 3    0  0.4591805E-005  0.9118800E+02  0.7546771E-02  0.1235069E+00
         25   -1    0    0    0    0  0.00000000000E+00  0.00000000000E+00  0.99999998245E-14  0.12500000000E+03  0.12500000000E+03 0.  0.
          5    1    1    0  501    0 -0.13080232883E+02  0.20026532494E+02 -0.57550026099E+02  0.62500000000E+02  0.47000000000E+01 0. -1.
         -5    1    1    0    0  501  0.13080232883E+02 -0.20026532494E+02  0.57550026099E+02  0.62500000000E+02  0.47000000000E+01 0. -1.
</event>
<event>
 3    0  0.4591805E-005  0.9118800E+02  0.7546771E-02  0.1235069E+00
         25   -1    0    0    0    0  0.00000000000E+00  0.00000000000E+00  0.99999998245E-14  0.12500000000E+03  0.12500000000E+03 0.  0.
          5    1    1    0  501    0  0.44649413753E+02 -0.18857261345E+02 -0.39178993684E+02  0.62500000000E+02  0.47000000000E+01 0.  1.
         -5    1    1    0    0  501 -0.44649413753E+02  0.18857261345E+02  0.39178993684E+02  0.62500000000E+02  0.47000000000E+01 0.  1.
</event>
<event>
 3    0  0.4591805E-005  0.9118800E+02  0.7546771E-02  0.1235069E+00
         25   -1    0    0    0    0  0.00000000000E+00  0.00000000000E+00  0.99999998245E-14  0.12500000000E+03  0.12500000000E+03 0.  0.
          5    1    1    0  501    0  0.43817425673E+02  0.44163346505E+02  0.37137626309E+01  0.62500000000E+02  0.47000000000E+01 0. -1.
         -5    1    1    0    0  501 -0.43817425673E+02 -0.44163346505E+02 -0.37137626309E+01  0.62500000000E+02  0.47000000000E+01 0. -1.
</event>
<event>
 3    0  0.4591805E-005  0.9118800E+02  0.7546771E-02  0.1235069E+00
         25   -1    0    0    0    0  0.00000000000E+00  0.00000000000E+00  0.99999998245E-14  0.12500000000E+03  0.12500000000E+03 0.  0.
          5    1    1    0  501    0 -0.99602668156E+01  0.28703323130E+02 -0.54415736017E+02  0.62500000000E+02  0.47000000000E+01 0. -1.
         -5    1    1    0    0  501  0.99602668156E+01 -0.28703323130E+02  0.54415736017E+02  0.62500000000E+02  0.47000000000E+01 0. -1.
</event>
<event>
 3    0  0.4591805E-005  0.9118800E+02  0.7546771E-02  0.1235069E+00
         25   -1    0    0    0    0  0.00000000000E+00  0.00000000000E+00  0.99999998245E-14  0.12500000000E+03  0.12500000000E+03 0.  0.
          5    1    1    0  501    0  0.54705746794E+02  0.29849277867E+02  0.67961647554E+00  0.62500000000E+02  0.47000000000E+01 0.  1.
         -5    1    1    0    0  501 -0.54705746794E+02 -0.29849277867E+02 -0.67961647554E+00  0.62500000000E+02  0.47000000000E+01 0.  1.
</event>
<event>
 3    0  0.4591805E-005  0.9118800E+02  0.7546771E-02  0.1235069E+00
         25   -1    0    0    0    0  0.00000000000E+00  0.00000000000E+00  0.99999998245E-14  0.12500000000E+03  0.12500000000E+03 0.  0.
          5    1    1    0  501    0 -0.62552397381E+01  0.55370068160E+02  0.27913930712E+02  0.62500000000E+02  0.47000000000E+01 0. -1.
         -5    1    1    0    0  501  0.62552397381E+01 -0.55370068160E+02 -0.27913930712E+02  0.62500000000E+02  0.47000000000E+01 0. -1.
</event>
<event>
 3    0  0.4591805E-005  0.9118800E+02  0.7546771E-02  0.1235069E+00
         25   -1    0    0    0    0  0.00000000000E+00  0.00000000000E+00  0.99999998245E-14  0.12500000000E+03  0.12500000000E+03 0.  0.
          5    1    1    0  501    0 -0.18326479478E+02  0.42411641135E+02 -0.41827656475E+02  0.62500000000E+02  0.47000000000E+01 0. -1.
         -5    1    1    0    0  501  0.18326479478E+02 -0.42411641135E+02  0.41827656475E+02  0.62500000000E+02  0.47000000000E+01 0. -1.
</event>
<event>
 3    0  0.4591805E-005  0.9118800E+02  0.7546771E-02  0.1235069E+00
         25   -1    0    0    0    0  0.00000000000E+00  0.00000000000E+00  0.99999998245E-14  0.12500000000E+03  0.12500000000E+03 0.  0.
          5    1    1    0  501    0  0.23726582918E+02 -0.93263708548E+01  0.56870274043E+02  0.62500000000E+02  0.47000000000E+01 0.  1.
         -5    1    1    0    0  501 -0.23726582918E+02  0.93263708548E+01 -0.56870274043E+02  0.62500000000E+02  0.47000000000E+01 0.  1.
</event>
<event>
 3    0  0.4591805E-005  0.9118800E+02  0.7546771E-02  0.1235069E+00
         25   -1    0    0    0    0  0.00000000000E+00  0.00000000000E+00  0.99999998245E-14  0.12500000000E+03  0.12500000000E+03 0.  0.
          5    1    1    0  501    0 -0.53546720346E+02  0.30280347959E+02  0.10000463374E+02  0.62500000000E+02  0.47000000000E+01 0.  1.
         -5    1    1    0    0  501  0.53546720346E+02 -0.30280347959E+02 -0.10000463374E+02  0.62500000000E+02  0.47000000000E+01 0.  1.
</event>
<event>
 3    0  0.4591805E-005  0.9118800E+02  0.7546771E-02  0.1235069E+00
         25   -1    0    0    0    0  0.00000000000E+00  0.00000000000E+00  0.99999998245E-14  0.12500000000E+03  0.12500000000E+03 0.  0.
          5    1    1    0  501    0 -0.23504911441E+02 -0.55172381762E+02 -0.16961351034E+02  0.62500000000E+02  0.47000000000E+01 0. -1.
         -5    1    1    0    0  501  0.23504911441E+02  0.55172381762E+02  0.16961351034E+02  0.62500000000E+02  0.47000000000E+01 0. -1.
</event>
<event>
 3    0  0.4591805E-005  0.9118800E+02  0.7546771E-02  0.1235069E+00
         25   -1    0    0    0    0  0.00000000000E+00  0.00000000000E+00  0.99999998245E-14  0.12500000000E+03  0.12500000000E+03 0.  0.
          5    1    1    0  501    0 -0.41723925976E+02 -0.44818231864E+02  0.11601728049E+02  0.62500000000E+02  0.47000000000E+01 0.  1.
         -5    1    1    0    0  501  0.41723925976E+02  0.44818231864E+02 -0.11601728049E+02  0.62500000000E+02  0.47000000000E+01 0.  1.
</event>
<event>
 3    0  0.4591805E-005  0.9118800E+02  0.7546771E-02  0.1235069E+00
         25   -1    0    0    0    0  0.00000000000E+00  0.00000000000E+00  0.99999998245E-14  0.12500000000E+03  0.12500000000E+03 0.  0.
          5    1    1    0  501    0  0.80793792506E+01 -0.13031371349E+02 -0.60407507743E+02  0.62500000000E+02  0.47000000000E+01 0.  1.
         -5    1    1    0    0  501 -0.80793792506E+01  0.13031371349E+02  0.60407507743E+02  0.62500000000E+02  0.47000000000E+01 0.  1.
</event>
<event>
 3    0  0.4591805E-005  0.9118800E+02  0.7546771E-02  0.1235069E+00
         25   -1    0    0    0    0  0.00000000000E+00  0.00000000000E+00  0.99999998245E-14  0.12500000000E+03  0.12500000000E+03 0.  0.
          5    1    1    0  501    0 -0.42881784527E+02 -0.39806292041E+02  0.21465592695E+02  0.62500000000E+02  0.47000000000E+01 0. -1.
         -5    1    1    0    0  501  0.42881784527E+02  0.39806292041E+02 -0.21465592695E+02  0.62500000000E+02  0.47000000000E+01 0. -1.
</event>
<event>
 3    0  0.4591805E-005  0.9118800E+02  0.7546771E-02  0.1235069E+00
         25   -1    0    0    0    0  0.00000000000E+00  0.00000000000E+00  0.99999998245E-14  0.12500000000E+03  0.12500000000E+03 0.  0.
          5    1    1    0  501    0  0.57062849779E+02 -0.11022555845E+02  0.22505431294E+02  0.62500000000E+02  0.47000000000E+01 0.  1.
         -5    1    1    0    0  501 -0.57062849779E+02  0.11022555845E+02 -0.22505431294E+02  0.62500000000E+02  0.47000000000E+01 0.  1.
</event>
<event>
 3    0  0.4591805E-005  0.9118800E+02  0.7546771E-02  0.1235069E+00
         25   -1    0    0    0    0  0.00000000000E+00  0.00000000000E+00  0.99999998245E-14  0.12500000000E+03  0.12500000000E+03 0.  0.
          5    1    1    0  501    0 -0.28686726808E+02 -0.54100752479E+02  0.11590525713E+02  0.62500000000E+02  0.47000000000E+01 0. -1.
         -5    1    1    0    0  501  0.28686726808E+02  0.54100752479E+02 -0.11590525713E+02  0.62500000000E+02  0.47000000000E+01 0. -1.
</event>
<event>
 3    0  0.4591805E-005  0.9118800E+02  0.7546771E-02  0.1235069E+00
         25   -1    0    0    0    0  0.00000000000E+00  0.00000000000E+00  0.99999998245E-14  0.12500000000E+03  0.12500000000E+03 0.  0.
          5    1    1    0  501    0 -0.27478842043E+02 -0.44059410812E+02  0.34465077381E+02  0.62500000000E+02  0.47000000000E+01 0.  1.
         -5    1    1    0    0  501  0.27478842043E+02  0.44059410812E+02 -0.34465077381E+02  0.62500000000E+02  0.47000000000E+01 0.  1.
</event>
<event>
 3    0  0.4591805E-005  0.9118800E+02  0.7546771E-02  0.1235069E+00
         25   -1    0    0    0    0  0.00000000000E+00  0.00000000000E+00  0.99999998245E-14  0.12500000000E+03  0.12500000000E+03 0.  0.
          5    1    1    0  501    0 -0.23222707291E+02 -0.57078764811E+02  0.93209695690E+01  0.62500000000E+02  0.47000000000E+01 0. -1.
         -5    1    1    0    0  501  0.23222707291E+02  0.57078764811E+02 -0.93209695690E+01  0.62500000000E+02  0.47000000000E+01 0. -1.
</event>
<event>
 3    0  0.4591805E-005  0.9118800E+02  0.7546771E-02  0.1235069E+00
         25   -1    0    0    0    0  0.00000000000E+00  0.00000000000E+00  0.99999998245E-14  0.12500000000E+03  0.12500000000E+03 0.  0.
          5    1    1    0  501    0  0.38938624889E+02 -0.38375013933E+01  0.48509968819E+02  0.62500000000E+02  0.47000000000E+01 0.  1.
         -5    1    1    0    0  501 -0.38938624889E+02  0.38375013933E+01 -0.48509968819E+02  0.62500000000E+02  0.47000000000E+01 0.  1.
</event>
<event>
 3    0  0.4591805E-005  0.9118800E+02  0.7546771E-02  0.1235069E+00
         25   -1    0    0    0    0  0.00000000000E+00  0.00000000000E+00  0.99999998245E-14  0.12500000000E+03  0.12500000000E+03 0.  0.
          5    1    1    0  501    0 -0.49002621784E+02  0.13271684007E+02  0.36149211083E+02  0.62500000000E+02  0.47000000000E+01 0. -1.
         -5    1    1    0    0  501  0.49002621784E+02 -0.13271684007E+02 -0.36149211083E+02  0.62500000000E+02  0.47000000000E+01 0. -1.
</event>
<event>
 3    0  0.4591805E-005  0.9118800E+02  0.7546771E-02  0.1235069E+00
         25   -1    0    0    0    0  0.00000000000E+00  0.00000000000E+00  0.99999998245E-14  0.12500000000E+03  0.12500000000E+03 0.  0.
          5    1    1    0  501    0  0.33545302539E+02  0.52182500663E+02 -0.59882636961E+01  0.62500000000E+02  0.47000000000E+01 0.  1.
         -5    1    1    0    0  501 -0.33545302539E+02 -0.52182500663E+02  0.59882636961E+01  0.62500000000E+02  0.47000000000E+01 0.  1.
</event>
<event>
 3    0  0.4591805E-005  0.9118800E+02  0.7546771E-02  0.1235069E+00
         25   -1    0    0    0    0  0.00000000000E+00  0.00000000000E+00  0.99999998245E-14  0.12500000000E+03  0.12500000000E+03 0.  0.
          5    1    1    0  501    0  0.52359077376E+02  0.14992633704E+02  0.30296995742E+02  0.62500000000E+02  0.47000000000E+01 0.  1.
         -5    1    1    0    0  501 -0.52359077376E+02 -0.14992633704E+02 -0.30296995742E+02  0.62500000000E+02  0.47000000000E+01 0.  1.
</event>
<event>
 3    0  0.4591805E-005  0.9118800E+02  0.7546771E-02  0.1235069E+00
         25   -1    0    0    0    0  0.00000000000E+00  0.00000000000E+00  0.99999998245E-14  0.12500000000E+03  0.12500000000E+03 0.  0.
          5    1    1    0  501    0 -0.10262034737E+01 -0.24263037573E+01  0.62267326557E+02  0.62500000000E+02  0.47000000000E+01 0.  1.
         -5    1    1    0    0  501  0.10262034737E+01  0.24263037573E+01 -0.62267326557E+02  0.62500000000E+02  0.47000000000E+01 0.  1.
</event>
<event>
 3    0  0.4591805E-005  0.9118800E+02  0.7546771E-02  0.1235069E+00
         25   -1    0    0    0    0  0.00000000000E+00  0.00000000000E+00  0.99999998245E-14  0.12500000000E+03  0.12500000000E+03 0.  0.
          5    1    1    0  501    0  0.16124262703E+02 -0.37935637029E+02 -0.46744578247E+02  0.62500000000E+02  0.47000000000E+01 0.  1.
         -5    1    1    0    0  501 -0.16124262703E+02  0.37935637029E+02  0.46744578247E+02  0.62500000000E+02  0.47000000000E+01 0.  1.
</event>
<event>
 3    0  0.4591805E-005  0.9118800E+02  0.7546771E-02  0.1235069E+00
         25   -1    0    0    0    0  0.00000000000E+00  0.00000000000E+00  0.99999998245E-14  0.12500000000E+03  0.12500000000E+03 0.  0.
          5    1    1    0  501    0 -0.49697931732E+02  0.36383507942E+02  0.95139860932E+01  0.62500000000E+02  0.47000000000E+01 0. -1.
         -5    1    1    0    0  501  0.49697931732E+02 -0.36383507942E+02 -0.95139860932E+01  0.62500000000E+02  0.47000000000E+01 0. -1.
</event>
<event>
 3    0  0.4591805E-005  0.9118800E+02  0.7546771E-02  0.1235069E+00
         25   -1    0    0    0    0  0.00000000000E+00  0.00000000000E+00  0.99999998245E-14  0.12500000000E+03  0.12500000000E+03 0.  0.
          5    1    1    0  501    0  0.89317696813E+01  0.40557340010E+02  0.46470266426E+02  0.62500000000E+02  0.47000000000E+01 0.  1.
         -5    1    1    0    0  501 -0.89317696813E+01 -0.40557340010E+02 -0.46470266426E+02  0.62500000000E+02  0.47000000000E+01 0.  1.
</event>
<event>
 3    0  0.4591805E-005  0.9118800E+02  0.7546771E-02  0.1235069E+00
         25   -1    0    0    0    0  0.00000000000E+00  0.00000000000E+00  0.99999998245E-14  0.12500000000E+03  0.12500000000E+03 0.  0.
          5    1    1    0  501    0  0.46643303562E+02 -0.25093952564E+02 -0.32845940046E+02  0.62500000000E+02  0.47000000000E+01 0. -1.
         -5    1    1    0    0  501 -0.46643303562E+02  0.25093952564E+02  0.32845940046E+02  0.62500000000E+02  0.47000000000E+01 0. -1.
</event>
<event>
 3    0  0.4591805E-005  0.9118800E+02  0.7546771E-02  0.1235069E+00
         25   -1    0    0    0    0  0.00000000000E+00  0.00000000000E+00  0.99999998245E-14  0.12500000000E+03  0.12500000000E+03 0.  0.
          5    1    1    0  501    0  0.36574395882E+02 -0.47164393065E+02  0.17944179911E+02  0.62500000000E+02  0.47000000000E+01 0.  1.
         -5    1    1    0    0  501 -0.36574395882E+02  0.47164393065E+02 -0.17944179911E+02  0.62500000000E+02  0.47000000000E+01 0.  1.
</event>
<event>
 3    0  0.4591805E-005  0.9118800E+02  0.7546771E-02  0.1235069E+00
         25   -1    0    0    0    0  0.00000000000E+00  0.00000000000E+00  0.99999998245E-14  0.12500000000E+03  0.12500000000E+03 0.  0.
          5    1    1    0  501    0  0.39524716572E+02 -0.47567123163E+02 -0.77023096493E+01  0.62500000000E+02  0.47000000000E+01 0. -1.
         -5    1    1    0    0  501 -0.39524716572E+02  0.47567123163E+02  0.77023096493E+01  0.62500000000E+02  0.47000000000E+01 0. -1.
</event>
<event>
 3    0  0.4591805E-005  0.9118800E+02  0.7546771E-02  0.1235069E+00
         25   -1    0    0    0    0  0.00000000000E+00  0.00000000000E+00  0.99999998245E-14  0.12500000000E+03  0.12500000000E+03 0.  0.
          5    1    1    0  501    0 -0.45202176825E+02 -0.22942002375E+02  0.36257243929E+02  0.62500000000E+02  0.47000000000E+01 0.  1.
         -5    1    1    0    0  501  0.45202176825E+02  0.22942002375E+02 -0.36257243929E+02  0.62500000000E+02  0.47000000000E+01 0.  1.
</event>
<event>
 3    0  0.4591805E-005  0.9118800E+02  0.7546771E-02  0.1235069E+00
         25   -1    0    0    0    0  0.00000000000E+00  0.00000000000E+00  0.99999998245E-14  0.12500000000E+03  0.12500000000E+03 0.  0.
          5    1    1    0  501    0 -0.30632275764E+02 -0.88104154723E+01  0.53555581042E+02  0.62500000000E+02  0.47000000000E+01 0. -1.
         -5    1    1    0    0  501  0.30632275764E+02  0.88104154723E+01 -0.53555581042E+02  0.62500000000E+02  0.47000000000E+01 0. -1.
</event>
<event>
 3    0  0.4591805E-005  0.9118800E+02  0.7546771E-02  0.1235069E+00
         25   -1    0    0    0    0  0.00000000000E+00  0.00000000000E+00  0.99999998245E-14  0.12500000000E+03  0.12500000000E+03 0.  0.
          5    1    1    0  501    0  0.40720040524E+02 -0.46582407677E+02  0.74911677826E+01  0.62500000000E+02  0.47000000000E+01 0.  1.
         -5    1    1    0    0  501 -0.40720040524E+02  0.46582407677E+02 -0.74911677826E+01  0.62500000000E+02  0.47000000000E+01 0.  1.
</event>
<event>
 3    0  0.4591805E-005  0.9118800E+02  0.7546771E-02  0.1235069E+00
         25   -1    0    0    0    0  0.00000000000E+00  0.00000000000E+00  0.99999998245E-14  0.12500000000E+03  0.12500000000E+03 0.  0.
          5    1    1    0  501    0  0.28471414432E+01 -0.47120570868E+02 -0.40690362331E+02  0.62500000000E+02  0.47000000000E+01 0. -1.
         -5    1    1    0    0  501 -0.28471414432E+01  0.47120570868E+02  0.40690362331E+02  0.62500000000E+02  0.47000000000E+01 0. -1.
</event>
<event>
 3    0  0.4591805E-005  0.9118800E+02  0.7546771E-02  0.1235069E+00
         25   -1    0    0    0    0  0.00000000000E+00  0.00000000000E+00  0.99999998245E-14  0.12500000000E+03  0.12500000000E+03 0.  0.
          5    1    1    0  501    0 -0.81006390015E+01  0.46428666112E+02 -0.40778899088E+02  0.62500000000E+02  0.47000000000E+01 0.  1.
         -5    1    1    0    0  501  0.81006390015E+01 -0.46428666112E+02  0.40778899088E+02  0.62500000000E+02  0.47000000000E+01 0.  1.
</event>
<event>
 3    0  0.4591805E-005  0.9118800E+02  0.7546771E-02  0.1235069E+00
         25   -1    0    0    0    0  0.00000000000E+00  0.00000000000E+00  0.99999998245E-14  0.12500000000E+03  0.12500000000E+03 0.  0.
          5    1    1    0  501    0  0.15136296460E+02 -0.11539494317E+02 -0.59345535640E+02  0.62500000000E+02  0.47000000000E+01 0.  1.
         -5    1    1    0    0  501 -0.15136296460E+02  0.11539494317E+02  0.59345535640E+02  0.62500000000E+02  0.47000000000E+01 0.  1.
</event>
<event>
 3    0  0.4591805E-005  0.9118800E+02  0.7546771E-02  0.1235069E+00
         25   -1    0    0    0    0  0.00000000000E+00  0.00000000000E+00  0.99999998245E-14  0.12500000000E+03  0.12500000000E+03 0.  0.
          5    1    1    0  501    0 -0.54612853630E+02 -0.28162665730E+02 -0.10414436007E+02  0.62500000000E+02  0.47000000000E+01 0.  1.
         -5    1    1    0    0  501  0.54612853630E+02  0.28162665730E+02  0.10414436007E+02  0.62500000000E+02  0.47000000000E+01 0.  1.
</event>
<event>
 3    0  0.4591805E-005  0.9118800E+02  0.7546771E-02  0.1235069E+00
         25   -1    0    0    0    0  0.00000000000E+00  0.00000000000E+00  0.99999998245E-14  0.12500000000E+03  0.12500000000E+03 0.  0.
          5    1    1    0  501    0  0.51189555391E+02  0.33220803121E+02 -0.12655736207E+02  0.62500000000E+02  0.47000000000E+01 0. -1.
         -5    1    1    0    0  501 -0.51189555391E+02 -0.33220803121E+02  0.12655736207E+02  0.62500000000E+02  0.47000000000E+01 0. -1.
</event>
<event>
 3    0  0.4591805E-005  0.9118800E+02  0.7546771E-02  0.1235069E+00
         25   -1    0    0    0    0  0.00000000000E+00  0.00000000000E+00  0.99999998245E-14  0.12500000000E+03  0.12500000000E+03 0.  0.
          5    1    1    0  501    0  0.24639373111E+02 -0.53800414716E+02  0.19559567200E+02  0.62500000000E+02  0.47000000000E+01 0. -1.
         -5    1    1    0    0  501 -0.24639373111E+02  0.53800414716E+02 -0.19559567200E+02  0.62500000000E+02  0.47000000000E+01 0. -1.
</event>
<event>
 3    0  0.4591805E-005  0.9118800E+02  0.7546771E-02  0.1235069E+00
         25   -1    0    0    0    0  0.00000000000E+00  0.00000000000E+00  0.99999998245E-14  0.12500000000E+03  0.12500000000E+03 0.  0.
          5    1    1    0  501    0  0.16934147219E+02  0.51623020682E+02  0.30536181713E+02  0.62500000000E+02  0.47000000000E+01 0.  1.
         -5    1    1    0    0  501 -0.16934147219E+02 -0.51623020682E+02 -0.30536181713E+02  0.62500000000E+02  0.47000000000E+01 0.  1.
</event>
<event>
 3    0  0.4591805E-005  0.9118800E+02  0.7546771E-02  0.1235069E+00
         25   -1    0    0    0    0  0.00000000000E+00  0.00000000000E+00  0.99999998245E-14  0.12500000000E+03  0.12500000000E+03 0.  0.
          5    1    1    0  501    0 -0.41217308014E+02  0.28123083101E+02 -0.37341474488E+02  0.62500000000E+02  0.47000000000E+01 0. -1.
         -5    1    1    0    0  501  0.41217308014E+02 -0.28123083101E+02  0.37341474488E+02  0.62500000000E+02  0.47000000000E+01 0. -1.
</event>
<event>
 3    0  0.4591805E-005  0.9118800E+02  0.7546771E-02  0.1235069E+00
         25   -1    0    0    0    0  0.00000000000E+00  0.00000000000E+00  0.99999998245E-14  0.12500000000E+03  0.12500000000E+03 0.  0.
          5    1    1    0  501    0  0.45415828934E+02 -0.37306882088E+02  0.20730630262E+02  0.62500000000E+02  0.47000000000E+01 0.  1.
         -5    1    1    0    0  501 -0.45415828934E+02  0.37306882088E+02 -0.20730630262E+02  0.62500000000E+02  0.47000000000E+01 0.  1.
</event>
<event>
 3    0  0.4591805E-005  0.9118800E+02  0.7546771E-02  0.1235069E+00
         25   -1    0    0    0    0  0.00000000000E+00  0.00000000000E+00  0.99999998245E-14  0.12500000000E+03  0.12500000000E+03 0.  0.
          5    1    1    0  501    0  0.22853079988E+02  0.57619075356E+02 -0.64760242562E+01  0.62500000000E+02  0.47000000000E+01 0. -1.
         -5    1    1    0    0  501 -0.22853079988E+02 -0.57619075356E+02  0.64760242562E+01  0.62500000000E+02  0.47000000000E+01 0. -1.
</event>
<event>
 3    0  0.4591805E-005  0.9118800E+02  0.7546771E-02  0.1235069E+00
         25   -1    0    0    0    0  0.00000000000E+00  0.00000000000E+00  0.99999998245E-14  0.12500000000E+03  0.12500000000E+03 0.  0.
          5    1    1    0  501    0 -0.39205752510E+02 -0.33563910442E+02  0.34936125802E+02  0.62500000000E+02  0.47000000000E+01 0.  1.
         -5    1    1    0    0  501  0.39205752510E+02  0.33563910442E+02 -0.34936125802E+02  0.62500000000E+02  0.47000000000E+01 0.  1.
</event>
<event>
 3    0  0.4591805E-005  0.9118800E+02  0.7546771E-02  0.1235069E+00
         25   -1    0    0    0    0  0.00000000000E+00  0.00000000000E+00  0.99999998245E-14  0.12500000000E+03  0.12500000000E+03 0.  0.
          5    1    1    0  501    0 -0.37205806709E+02 -0.93444570478E+01 -0.49117909866E+02  0.62500000000E+02  0.47000000000E+01 0. -1.
         -5    1    1    0    0  501  0.37205806709E+02  0.93444570478E+01  0.49117909866E+02  0.62500000000E+02  0.47000000000E+01 0. -1.
</event>
<event>
 3    0  0.4591805E-005  0.9118800E+02  0.7546771E-02  0.1235069E+00
         25   -1    0    0    0    0  0.00000000000E+00  0.00000000000E+00  0.99999998245E-14  0.12500000000E+03  0.12500000000E+03 0.  0.
          5    1    1    0  501    0  0.82059317351E+01  0.54437537211E+02 -0.29212621019E+02  0.62500000000E+02  0.47000000000E+01 0. -1.
         -5    1    1    0    0  501 -0.82059317351E+01 -0.54437537211E+02  0.29212621019E+02  0.62500000000E+02  0.47000000000E+01 0. -1.
</event>
<event>
 3    0  0.4591805E-005  0.9118800E+02  0.7546771E-02  0.1235069E+00
         25   -1    0    0    0    0  0.00000000000E+00  0.00000000000E+00  0.99999998245E-14  0.12500000000E+03  0.12500000000E+03 0.  0.
          5    1    1    0  501    0  0.44505752069E+02 -0.29559408104E+02 -0.32087995034E+02  0.62500000000E+02  0.47000000000E+01 0.  1.
         -5    1    1    0    0  501 -0.44505752069E+02  0.29559408104E+02  0.32087995034E+02  0.62500000000E+02  0.47000000000E+01 0.  1.
</event>
<event>
 3    0  0.4591805E-005  0.9118800E+02  0.7546771E-02  0.1235069E+00
         25   -1    0    0    0    0  0.00000000000E+00  0.00000000000E+00  0.99999998245E-14  0.12500000000E+03  0.12500000000E+03 0.  0.
          5    1    1    0  501    0  0.34528895437E+02 -0.15979497571E+02 -0.49361635277E+02  0.62500000000E+02  0.47000000000E+01 0. -1.
         -5    1    1    0    0  501 -0.34528895437E+02  0.15979497571E+02  0.49361635277E+02  0.62500000000E+02  0.47000000000E+01 0. -1.
</event>
<event>
 3    0  0.4591805E-005  0.9118800E+02  0.7546771E-02  0.1235069E+00
         25   -1    0    0    0    0  0.00000000000E+00  0.00000000000E+00  0.99999998245E-14  0.12500000000E+03  0.12500000000E+03 0.  0.
          5    1    1    0  501    0  0.10242656586E+02 -0.40787259527E+02  0.45996167735E+02  0.62500000000E+02  0.47000000000E+01 0.  1.
         -5    1    1    0    0  501 -0.10242656586E+02  0.40787259527E+02 -0.45996167735E+02  0.62500000000E+02  0.47000000000E+01 0.  1.
</event>
<event>
 3    0  0.4591805E-005  0.9118800E+02  0.7546771E-02  0.1235069E+00
         25   -1    0    0    0    0  0.00000000000E+00  0.00000000000E+00  0.99999998245E-14  0.12500000000E+03  0.12500000000E+03 0.  0.
          5    1    1    0  501    0 -0.58333289316E+02 -0.20164920588E+02  0.86465793974E+01  0.62500000000E+02  0.47000000000E+01 0. -1.
         -5    1    1    0    0  501  0.58333289316E+02  0.20164920588E+02 -0.86465793974E+01  0.62500000000E+02  0.47000000000E+01 0. -1.
</event>
<event>
 3    0  0.4591805E-005  0.9118800E+02  0.7546771E-02  0.1235069E+00
         25   -1    0    0    0    0  0.00000000000E+00  0.00000000000E+00  0.99999998245E-14  0.12500000000E+03  0.12500000000E+03 0.  0.
          5    1    1    0  501    0  0.15978438451E+02  0.67884898200E+01 -0.59856210293E+02  0.62500000000E+02  0.47000000000E+01 0. -1.
         -5    1    1    0    0  501 -0.15978438451E+02 -0.67884898200E+01  0.59856210293E+02  0.62500000000E+02  0.47000000000E+01 0. -1.
</event>
<event>
 3    0  0.4591805E-005  0.9118800E+02  0.7546771E-02  0.1235069E+00
         25   -1    0    0    0    0  0.00000000000E+00  0.00000000000E+00  0.99999998245E-14  0.12500000000E+03  0.12500000000E+03 0.  0.
          5    1    1    0  501    0 -0.54063531869E+02 -0.11300634722E+02  0.28871961775E+02  0.62500000000E+02  0.47000000000E+01 0. -1.
         -5    1    1    0    0  501  0.54063531869E+02  0.11300634722E+02 -0.28871961775E+02  0.62500000000E+02  0.47000000000E+01 0. -1.
</event>
<event>
 3    0  0.4591805E-005  0.9118800E+02  0.7546771E-02  0.1235069E+00
         25   -1    0    0    0    0  0.00000000000E+00  0.00000000000E+00  0.99999998245E-14  0.12500000000E+03  0.12500000000E+03 0.  0.
          5    1    1    0  501    0  0.51027344184E+02  0.37495784232E+01 -0.35585261095E+02  0.62500000000E+02  0.47000000000E+01 0. -1.
         -5    1    1    0    0  501 -0.51027344184E+02 -0.37495784232E+01  0.35585261095E+02  0.62500000000E+02  0.47000000000E+01 0. -1.
</event>
<event>
 3    0  0.4591805E-005  0.9118800E+02  0.7546771E-02  0.1235069E+00
         25   -1    0    0    0    0  0.00000000000E+00  0.00000000000E+00  0.99999998245E-14  0.12500000000E+03  0.12500000000E+03 0.  0.
          5    1    1    0  501    0  0.59146558266E+02 -0.19331607195E+02  0.34833329654E+01  0.62500000000E+02  0.47000000000E+01 0.  1.
         -5    1    1    0    0  501 -0.59146558266E+02  0.19331607195E+02 -0.34833329654E+01  0.62500000000E+02  0.47000000000E+01 0.  1.
</event>
<event>
 3    0  0.4591805E-005  0.9118800E+02  0.7546771E-02  0.1235069E+00
         25   -1    0    0    0    0  0.00000000000E+00  0.00000000000E+00  0.99999998245E-14  0.12500000000E+03  0.12500000000E+03 0.  0.
          5    1    1    0  501    0 -0.48843295326E+02 -0.32124566211E+02 -0.21598720967E+02  0.62500000000E+02  0.47000000000E+01 0.  1.
         -5    1    1    0    0  501  0.48843295326E+02  0.32124566211E+02  0.21598720967E+02  0.62500000000E+02  0.47000000000E+01 0.  1.
</event>
<event>
 3    0  0.4591805E-005  0.9118800E+02  0.7546771E-02  0.1235069E+00
         25   -1    0    0    0    0  0.00000000000E+00  0.00000000000E+00  0.99999998245E-14  0.12500000000E+03  0.12500000000E+03 0.  0.
          5    1    1    0  501    0  0.86997815010E+01  0.52168098546E+02 -0.32969126405E+02  0.62500000000E+02  0.47000000000E+01 0.  1.
         -5    1    1    0    0  501 -0.86997815010E+01 -0.52168098546E+02  0.32969126405E+02  0.62500000000E+02  0.47000000000E+01 0.  1.
</event>
<event>
 3    0  0.4591805E-005  0.9118800E+02  0.7546771E-02  0.1235069E+00
         25   -1    0    0    0    0  0.00000000000E+00  0.00000000000E+00  0.99999998245E-14  0.12500000000E+03  0.12500000000E+03 0.  0.
          5    1    1    0  501    0  0.15935063395E+02 -0.52358439554E+02 -0.29813211201E+02  0.62500000000E+02  0.47000000000E+01 0.  1.
         -5    1    1    0    0  501 -0.15935063395E+02  0.52358439554E+02  0.29813211201E+02  0.62500000000E+02  0.47000000000E+01 0.  1.
</event>
<event>
 3    0  0.4591805E-005  0.9118800E+02  0.7546771E-02  0.1235069E+00
         25   -1    0    0    0    0  0.00000000000E+00  0.00000000000E+00  0.99999998245E-14  0.12500000000E+03  0.12500000000E+03 0.  0.
          5    1    1    0  501    0 -0.37706268590E+02 -0.43278023629E+02  0.24277767191E+02  0.62500000000E+02  0.47000000000E+01 0.  1.
         -5    1    1    0    0  501  0.37706268590E+02  0.43278023629E+02 -0.24277767191E+02  0.62500000000E+02  0.47000000000E+01 0.  1.
</event>
<event>
 3    0  0.4591805E-005  0.9118800E+02  0.7546771E-02  0.1235069E+00
         25   -1    0    0    0    0  0.00000000000E+00  0.00000000000E+00  0.99999998245E-14  0.12500000000E+03  0.12500000000E+03 0.  0.
          5    1    1    0  501    0 -0.15620637087E+02  0.58294727017E+02  0.15552507804E+02  0.62500000000E+02  0.47000000000E+01 0. -1.
         -5    1    1    0    0  501  0.15620637087E+02 -0.58294727017E+02 -0.15552507804E+02  0.62500000000E+02  0.47000000000E+01 0. -1.
</event>
<event>
 3    0  0.4591805E-005  0.9118800E+02  0.7546771E-02  0.1235069E+00
         25   -1    0    0    0    0  0.00000000000E+00  0.00000000000E+00  0.99999998245E-14  0.12500000000E+03  0.12500000000E+03 0.  0.
          5    1    1    0  501    0 -0.59188064182E+02 -0.10357160856E+02  0.16542740928E+02  0.62500000000E+02  0.47000000000E+01 0.  1.
         -5    1    1    0    0  501  0.59188064182E+02  0.10357160856E+02 -0.16542740928E+02  0.62500000000E+02  0.47000000000E+01 0.  1.
</event>
<event>
 3    0  0.4591805E-005  0.9118800E+02  0.7546771E-02  0.1235069E+00
         25   -1    0    0    0    0  0.00000000000E+00  0.00000000000E+00  0.99999998245E-14  0.12500000000E+03  0.12500000000E+03 0.  0.
          5    1    1    0  501    0  0.43774817553E+02  0.35461966282E+02 -0.26652847795E+02  0.62500000000E+02  0.47000000000E+01 0. -1.
         -5    1    1    0    0  501 -0.43774817553E+02 -0.35461966282E+02  0.26652847795E+02  0.62500000000E+02  0.47000000000E+01 0. -1.
</event>
<event>
 3    0  0.4591805E-005  0.9118800E+02  0.7546771E-02  0.1235069E+00
         25   -1    0    0    0    0  0.00000000000E+00  0.00000000000E+00  0.99999998245E-14  0.12500000000E+03  0.12500000000E+03 0.  0.
          5    1    1    0  501    0  0.44136997619E+02 -0.25598428634E+02 -0.35788348559E+02  0.62500000000E+02  0.47000000000E+01 0.  1.
         -5    1    1    0    0  501 -0.44136997619E+02  0.25598428634E+02  0.35788348559E+02  0.62500000000E+02  0.47000000000E+01 0.  1.
</event>
<event>
 3    0  0.4591805E-005  0.9118800E+02  0.7546771E-02  0.1235069E+00
         25   -1    0    0    0    0  0.00000000000E+00  0.00000000000E+00  0.99999998245E-14  0.12500000000E+03  0.12500000000E+03 0.  0.
          5    1    1    0  501    0 -0.47091991316E+02 -0.29177899846E+02  0.28550910921E+02  0.62500000000E+02  0.47000000000E+01 0. -1.
         -5    1    1    0    0  501  0.47091991316E+02  0.29177899846E+02 -0.28550910921E+02  0.62500000000E+02  0.47000000000E+01 0. -1.
</event>
<event>
 3    0  0.4591805E-005  0.9118800E+02  0.7546771E-02  0.1235069E+00
         25   -1    0    0    0    0  0.00000000000E+00  0.00000000000E+00  0.99999998245E-14  0.12500000000E+03  0.12500000000E+03 0.  0.
          5    1    1    0  501    0  0.33181149624E+02  0.50945459102E+02  0.13701514754E+02  0.62500000000E+02  0.47000000000E+01 0.  1.
         -5    1    1    0    0  501 -0.33181149624E+02 -0.50945459102E+02 -0.13701514754E+02  0.62500000000E+02  0.47000000000E+01 0.  1.
</event>
<event>
 3    0  0.4591805E-005  0.9118800E+02  0.7546771E-02  0.1235069E+00
         25   -1    0    0    0    0  0.00000000000E+00  0.00000000000E+00  0.99999998245E-14  0.12500000000E+03  0.12500000000E+03 0.  0.
          5    1    1    0  501    0 -0.15136950552E+02  0.12990496623E+02  0.59044726483E+02  0.62500000000E+02  0.47000000000E+01 0.  1.
         -5    1    1    0    0  501  0.15136950552E+02 -0.12990496623E+02 -0.59044726483E+02  0.62500000000E+02  0.47000000000E+01 0.  1.
</event>
<event>
 3    0  0.4591805E-005  0.9118800E+02  0.7546771E-02  0.1235069E+00
         25   -1    0    0    0    0  0.00000000000E+00  0.00000000000E+00  0.99999998245E-14  0.12500000000E+03  0.12500000000E+03 0.  0.
          5    1    1    0  501    0  0.23775395462E+02  0.82502110500E+01 -0.57016002914E+02  0.62500000000E+02  0.47000000000E+01 0.  1.
         -5    1    1    0    0  501 -0.23775395462E+02 -0.82502110500E+01  0.57016002914E+02  0.62500000000E+02  0.47000000000E+01 0.  1.
</event>
<event>
 3    0  0.4591805E-005  0.9118800E+02  0.7546771E-02  0.1235069E+00
         25   -1    0    0    0    0  0.00000000000E+00  0.00000000000E+00  0.99999998245E-14  0.12500000000E+03  0.12500000000E+03 0.  0.
          5    1    1    0  501    0 -0.40809342810E+02  0.41715565299E+02 -0.21876223423E+02  0.62500000000E+02  0.47000000000E+01 0. -1.
         -5    1    1    0    0  501  0.40809342810E+02 -0.41715565299E+02  0.21876223423E+02  0.62500000000E+02  0.47000000000E+01 0. -1.
</event>
<event>
 3    0  0.4591805E-005  0.9118800E+02  0.7546771E-02  0.1235069E+00
         25   -1    0    0    0    0  0.00000000000E+00  0.00000000000E+00  0.99999998245E-14  0.12500000000E+03  0.12500000000E+03 0.  0.
          5    1    1    0  501    0  0.47377613602E+02  0.18830064107E+02  0.35846205031E+02  0.62500000000E+02  0.47000000000E+01 0. -1.
         -5    1    1    0    0  501 -0.47377613602E+02 -0.18830064107E+02 -0.35846205031E+02  0.62500000000E+02  0.47000000000E+01 0. -1.
</event>
<event>
 3    0  0.4591805E-005  0.9118800E+02  0.7546771E-02  0.1235069E+00
         25   -1    0    0    0    0  0.00000000000E+00  0.00000000000E+00  0.99999998245E-14  0.12500000000E+03  0.12500000000E+03 0.  0.
          5    1    1    0  501    0  0.45165436265E+02  0.34471143574E+02  0.25612177332E+02  0.62500000000E+02  0.47000000000E+01 0. -1.
         -5    1    1    0    0  501 -0.45165436265E+02 -0.34471143574E+02 -0.25612177332E+02  0.62500000000E+02  0.47000000000E+01 0. -1.
</event>
<event>
 3    0  0.4591805E-005  0.9118800E+02  0.7546771E-02  0.1235069E+00
         25   -1    0    0    0    0  0.00000000000E+00  0.00000000000E+00  0.99999998245E-14  0.12500000000E+03  0.12500000000E+03 0.  0.
          5    1    1    0  501    0 -0.16662581475E+02  0.44834601969E+02 -0.39954684892E+02  0.62500000000E+02  0.47000000000E+01 0.  1.
         -5    1    1    0    0  501  0.16662581475E+02 -0.44834601969E+02  0.39954684892E+02  0.62500000000E+02  0.47000000000E+01 0.  1.
</event>
<event>
 3    0  0.4591805E-005  0.9118800E+02  0.7546771E-02  0.1235069E+00
         25   -1    0    0    0    0  0.00000000000E+00  0.00000000000E+00  0.99999998245E-14  0.12500000000E+03  0.12500000000E+03 0.  0.
          5    1    1    0  501    0 -0.33582788553E+02 -0.42448780430E+02 -0.30894293211E+02  0.62500000000E+02  0.47000000000E+01 0. -1.
         -5    1    1    0    0  501  0.33582788553E+02  0.42448780430E+02  0.30894293211E+02  0.62500000000E+02  0.47000000000E+01 0. -1.
</event>
<event>
 3    0  0.4591805E-005  0.9118800E+02  0.7546771E-02  0.1235069E+00
         25   -1    0    0    0    0  0.00000000000E+00  0.00000000000E+00  0.99999998245E-14  0.12500000000E+03  0.12500000000E+03 0.  0.
          5    1    1    0  501    0 -0.43649304930E+02  0.22403632363E+02 -0.38431438121E+02  0.62500000000E+02  0.47000000000E+01 0. -1.
         -5    1    1    0    0  501  0.43649304930E+02 -0.22403632363E+02  0.38431438121E+02  0.62500000000E+02  0.47000000000E+01 0. -1.
</event>
<event>
 3    0  0.4591805E-005  0.9118800E+02  0.7546771E-02  0.1235069E+00
         25   -1    0    0    0    0  0.00000000000E+00  0.00000000000E+00  0.99999998245E-14  0.12500000000E+03  0.12500000000E+03 0.  0.
          5    1    1    0  501    0 -0.45227451617E+02  0.20422577546E-01  0.42879333054E+02  0.62500000000E+02  0.47000000000E+01 0. -1.
         -5    1    1    0    0  501  0.45227451617E+02 -0.20422577546E-01 -0.42879333054E+02  0.62500000000E+02  0.47000000000E+01 0. -1.
</event>
<event>
 3    0  0.4591805E-005  0.9118800E+02  0.7546771E-02  0.1235069E+00
         25   -1    0    0    0    0  0.00000000000E+00  0.00000000000E+00  0.99999998245E-14  0.12500000000E+03  0.12500000000E+03 0.  0.
          5    1    1    0  501    0  0.49141677082E+02 -0.29172496773E+02  0.24864050467E+02  0.62500000000E+02  0.47000000000E+01 0. -1.
         -5    1    1    0    0  501 -0.49141677082E+02  0.29172496773E+02 -0.24864050467E+02  0.62500000000E+02  0.47000000000E+01 0. -1.
</event>
<event>
 3    0  0.4591805E-005  0.9118800E+02  0.7546771E-02  0.1235069E+00
         25   -1    0    0    0    0  0.00000000000E+00  0.00000000000E+00  0.99999998245E-14  0.12500000000E+03  0.12500000000E+03 0.  0.
          5    1    1    0  501    0 -0.50932354724E+02 -0.26287521699E+02  0.24474914610E+02  0.62500000000E+02  0.47000000000E+01 0.  1.
         -5    1    1    0    0  501  0.50932354724E+02  0.26287521699E+02 -0.24474914610E+02  0.62500000000E+02  0.47000000000E+01 0.  1.
</event>
<event>
 3    0  0.4591805E-005  0.9118800E+02  0.7546771E-02  0.1235069E+00
         25   -1    0    0    0    0  0.00000000000E+00  0.00000000000E+00  0.99999998245E-14  0.12500000000E+03  0.12500000000E+03 0.  0.
          5    1    1    0  501    0 -0.13370207314E+02  0.54335206816E+02  0.27442355159E+02  0.62500000000E+02  0.47000000000E+01 0. -1.
         -5    1    1    0    0  501  0.13370207314E+02 -0.54335206816E+02 -0.27442355159E+02  0.62500000000E+02  0.47000000000E+01 0. -1.
</event>
<event>
 3    0  0.4591805E-005  0.9118800E+02  0.7546771E-02  0.1235069E+00
         25   -1    0    0    0    0  0.00000000000E+00  0.00000000000E+00  0.99999998245E-14  0.12500000000E+03  0.12500000000E+03 0.  0.
          5    1    1    0  501    0  0.17991677095E+02  0.59663722510E+02 -0.83652347318E+00  0.62500000000E+02  0.47000000000E+01 0. -1.
         -5    1    1    0    0  501 -0.17991677095E+02 -0.59663722510E+02  0.83652347318E+00  0.62500000000E+02  0.47000000000E+01 0. -1.
</event>
<event>
 3    0  0.4591805E-005  0.9118800E+02  0.7546771E-02  0.1235069E+00
         25   -1    0    0    0    0  0.00000000000E+00  0.00000000000E+00  0.99999998245E-14  0.12500000000E+03  0.12500000000E+03 0.  0.
          5    1    1    0  501    0  0.11567653253E+02 -0.25605010791E+02  0.55630322852E+02  0.62500000000E+02  0.47000000000E+01 0.  1.
         -5    1    1    0    0  501 -0.11567653253E+02  0.25605010791E+02 -0.55630322852E+02  0.62500000000E+02  0.47000000000E+01 0.  1.
</event>
<event>
 3    0  0.4591805E-005  0.9118800E+02  0.7546771E-02  0.1235069E+00
         25   -1    0    0    0    0  0.00000000000E+00  0.00000000000E+00  0.99999998245E-14  0.12500000000E+03  0.12500000000E+03 0.  0.
          5    1    1    0  501    0 -0.47710090545E+02 -0.25450426304E+02  0.30986820765E+02  0.62500000000E+02  0.47000000000E+01 0.  1.
         -5    1    1    0    0  501  0.47710090545E+02  0.25450426304E+02 -0.30986820765E+02  0.62500000000E+02  0.47000000000E+01 0.  1.
</event>
<event>
 3    0  0.4591805E-005  0.9118800E+02  0.7546771E-02  0.1235069E+00
         25   -1    0    0    0    0  0.00000000000E+00  0.00000000000E+00  0.99999998245E-14  0.12500000000E+03  0.12500000000E+03 0.  0.
          5    1    1    0  501    0 -0.41116098203E+02 -0.25347861475E+02 -0.39384164168E+02  0.62500000000E+02  0.47000000000E+01 0. -1.
         -5    1    1    0    0  501  0.41116098203E+02  0.25347861475E+02  0.39384164168E+02  0.62500000000E+02  0.47000000000E+01 0. -1.
</event>
<event>
 3    0  0.4591805E-005  0.9118800E+02  0.7546771E-02  0.1235069E+00
         25   -1    0    0    0    0  0.00000000000E+00  0.00000000000E+00  0.99999998245E-14  0.12500000000E+03  0.12500000000E+03 0.  0.
          5    1    1    0  501    0 -0.42513698166E+02 -0.36966788198E+02  0.26649616106E+02  0.62500000000E+02  0.47000000000E+01 0.  1.
         -5    1    1    0    0  501  0.42513698166E+02  0.36966788198E+02 -0.26649616106E+02  0.62500000000E+02  0.47000000000E+01 0.  1.
</event>
<event>
 3    0  0.4591805E-005  0.9118800E+02  0.7546771E-02  0.1235069E+00
         25   -1    0    0    0    0  0.00000000000E+00  0.00000000000E+00  0.99999998245E-14  0.12500000000E+03  0.12500000000E+03 0.  0.
          5    1    1    0  501    0 -0.46964430372E+02 -0.27463801468E+02 -0.30401346825E+02  0.62500000000E+02  0.47000000000E+01 0.  1.
         -5    1    1    0    0  501  0.46964430372E+02  0.27463801468E+02  0.30401346825E+02  0.62500000000E+02  0.47000000000E+01 0.  1.
</event>
<event>
 3    0  0.4591805E-005  0.9118800E+02  0.7546771E-02  0.1235069E+00
         25   -1    0    0    0    0  0.00000000000E+00  0.00000000000E+00  0.99999998245E-14  0.12500000000E+03  0.12500000000E+03 0.  0.
          5    1    1    0  501    0 -0.45307936390E+02 -0.35009220626E+02 -0.24611082285E+02  0.62500000000E+02  0.47000000000E+01 0.  1.
         -5    1    1    0    0  501  0.45307936390E+02  0.35009220626E+02  0.24611082285E+02  0.62500000000E+02  0.47000000000E+01 0.  1.
</event>
<event>
 3    0  0.4591805E-005  0.9118800E+02  0.7546771E-02  0.1235069E+00
         25   -1    0    0    0    0  0.00000000000E+00  0.00000000000E+00  0.99999998245E-14  0.12500000000E+03  0.12500000000E+03 0.  0.
          5    1    1    0  501    0  0.28305190752E+02 -0.52275107802E+02  0.18716016693E+02  0.62500000000E+02  0.47000000000E+01 0.  1.
         -5    1    1    0    0  501 -0.28305190752E+02  0.52275107802E+02 -0.18716016693E+02  0.62500000000E+02  0.47000000000E+01 0.  1.
</event>
<event>
 3    0  0.4591805E-005  0.9118800E+02  0.7546771E-02  0.1235069E+00
         25   -1    0    0    0    0  0.00000000000E+00  0.00000000000E+00  0.99999998245E-14  0.12500000000E+03  0.12500000000E+03 0.  0.
          5    1    1    0  501    0 -0.22917939369E+02 -0.40123610004E+02 -0.41821333974E+02  0.62500000000E+02  0.47000000000E+01 0. -1.
         -5    1    1    0    0  501  0.22917939369E+02  0.40123610004E+02  0.41821333974E+02  0.62500000000E+02  0.47000000000E+01 0. -1.
</event>
<event>
 3    0  0.4591805E-005  0.9118800E+02  0.7546771E-02  0.1235069E+00
         25   -1    0    0    0    0  0.00000000000E+00  0.00000000000E+00  0.99999998245E-14  0.12500000000E+03  0.12500000000E+03 0.  0.
          5    1    1    0  501    0  0.32499954065E+02 -0.52126543135E+02  0.10523140526E+02  0.62500000000E+02  0.47000000000E+01 0.  1.
         -5    1    1    0    0  501 -0.32499954065E+02  0.52126543135E+02 -0.10523140526E+02  0.62500000000E+02  0.47000000000E+01 0.  1.
</event>
<event>
 3    0  0.4591805E-005  0.9118800E+02  0.7546771E-02  0.1235069E+00
         25   -1    0    0    0    0  0.00000000000E+00  0.00000000000E+00  0.99999998245E-14  0.12500000000E+03  0.12500000000E+03 0.  0.
          5    1    1    0  501    0 -0.36613653269E+02  0.25226352760E+02  0.43671861888E+02  0.62500000000E+02  0.47000000000E+01 0. -1.
         -5    1    1    0    0  501  0.36613653269E+02 -0.25226352760E+02 -0.43671861888E+02  0.62500000000E+02  0.47000000000E+01 0. -1.
</event>
<event>
 3    0  0.4591805E-005  0.9118800E+02  0.7546771E-02  0.1235069E+00
         25   -1    0    0    0    0  0.00000000000E+00  0.00000000000E+00  0.99999998245E-14  0.12500000000E+03  0.12500000000E+03 0.  0.
          5    1    1    0  501    0 -0.55887246000E+01 -0.49548995142E+02  0.37387474343E+02  0.62500000000E+02  0.47000000000E+01 0. -1.
         -5    1    1    0    0  501  0.55887246000E+01  0.49548995142E+02 -0.37387474343E+02  0.62500000000E+02  0.47000000000E+01 0. -1.
</event>
<event>
 3    0  0.4591805E-005  0.9118800E+02  0.7546771E-02  0.1235069E+00
         25   -1    0    0    0    0  0.00000000000E+00  0.00000000000E+00  0.99999998245E-14  0.12500000000E+03  0.12500000000E+03 0.  0.
          5    1    1    0  501    0  0.14171821152E+02  0.56245978602E+02  0.22797135265E+02  0.62500000000E+02  0.47000000000E+01 0.  1.
         -5    1    1    0    0  501 -0.14171821152E+02 -0.56245978602E+02 -0.22797135265E+02  0.62500000000E+02  0.47000000000E+01 0.  1.
</event>
<event>
 3    0  0.4591805E-005  0.9118800E+02  0.7546771E-02  0.1235069E+00
         25   -1    0    0    0    0  0.00000000000E+00  0.00000000000E+00  0.99999998245E-14  0.12500000000E+03  0.12500000000E+03 0.  0.
          5    1    1    0  501    0 -0.43993851689E+01 -0.38254546029E+02  0.49004031653E+02  0.62500000000E+02  0.47000000000E+01 0.  1.
         -5    1    1    0    0  501  0.43993851689E+01  0.38254546029E+02 -0.49004031653E+02  0.62500000000E+02  0.47000000000E+01 0.  1.
</event>
<event>
 3    0  0.4591805E-005  0.9118800E+02  0.7546771E-02  0.1235069E+00
         25   -1    0    0    0    0  0.00000000000E+00  0.00000000000E+00  0.99999998245E-14  0.12500000000E+03  0.12500000000E+03 0.  0.
          5    1    1    0  501    0 -0.23106102468E+02  0.48109532535E+02  0.32182928829E+02  0.62500000000E+02  0.47000000000E+01 0.  1.
         -5    1    1    0    0  501  0.23106102468E+02 -0.48109532535E+02 -0.32182928829E+02  0.62500000000E+02  0.47000000000E+01 0.  1.
</event>
<event>
 3    0  0.4591805E-005  0.9118800E+02  0.7546771E-02  0.1235069E+00
         25   -1    0    0    0    0  0.00000000000E+00  0.00000000000E+00  0.99999998245E-14  0.12500000000E+03  0.12500000000E+03 0.  0.
          5    1    1    0  501    0 -0.44421163809E+02  0.43600707018E+02  0.31461966512E+01  0.62500000000E+02  0.47000000000E+01 0.  1.
         -5    1    1    0    0  501  0.44421163809E+02 -0.43600707018E+02 -0.31461966512E+01  0.62500000000E+02  0.47000000000E+01 0.  1.
</event>
<event>
 3    0  0.4591805E-005  0.9118800E+02  0.7546771E-02  0.1235069E+00
         25   -1    0    0    0    0  0.00000000000E+00  0.00000000000E+00  0.99999998245E-14  0.12500000000E+03  0.12500000000E+03 0.  0.
          5    1    1    0  501    0 -0.59607425652E+02 -0.17889887827E+02  0.33266681022E+01  0.62500000000E+02  0.47000000000E+01 0.  1.
         -5    1    1    0    0  501  0.59607425652E+02  0.17889887827E+02 -0.33266681022E+01  0.62500000000E+02  0.47000000000E+01 0.  1.
</event>
<event>
 3    0  0.4591805E-005  0.9118800E+02  0.7546771E-02  0.1235069E+00
         25   -1    0    0    0    0  0.00000000000E+00  0.00000000000E+00  0.99999998245E-14  0.12500000000E+03  0.12500000000E+03 0.  0.
          5    1    1    0  501    0 -0.44739362313E+02 -0.21070892341E+02 -0.37928445207E+02  0.62500000000E+02  0.47000000000E+01 0. -1.
         -5    1    1    0    0  501  0.44739362313E+02  0.21070892341E+02  0.37928445207E+02  0.62500000000E+02  0.47000000000E+01 0. -1.
</event>
<event>
 3    0  0.4591805E-005  0.9118800E+02  0.7546771E-02  0.1235069E+00
         25   -1    0    0    0    0  0.00000000000E+00  0.00000000000E+00  0.99999998245E-14  0.12500000000E+03  0.12500000000E+03 0.  0.
          5    1    1    0  501    0 -0.46791399295E+02  0.39093298643E+02 -0.12901122171E+02  0.62500000000E+02  0.47000000000E+01 0. -1.
         -5    1    1    0    0  501  0.46791399295E+02 -0.39093298643E+02  0.12901122171E+02  0.62500000000E+02  0.47000000000E+01 0. -1.
</event>
<event>
 3    0  0.4591805E-005  0.9118800E+02  0.7546771E-02  0.1235069E+00
         25   -1    0    0    0    0  0.00000000000E+00  0.00000000000E+00  0.99999998245E-14  0.12500000000E+03  0.12500000000E+03 0.  0.
          5    1    1    0  501    0  0.32496161683E+02 -0.17006036178E+02  0.50388036371E+02  0.62500000000E+02  0.47000000000E+01 0. -1.
         -5    1    1    0    0  501 -0.32496161683E+02  0.17006036178E+02 -0.50388036371E+02  0.62500000000E+02  0.47000000000E+01 0. -1.
</event>
<event>
 3    0  0.4591805E-005  0.9118800E+02  0.7546771E-02  0.1235069E+00
         25   -1    0    0    0    0  0.00000000000E+00  0.00000000000E+00  0.99999998245E-14  0.12500000000E+03  0.12500000000E+03 0.  0.
          5    1    1    0  501    0  0.10167966097E+01  0.23027694133E+01 -0.62272171776E+02  0.62500000000E+02  0.47000000000E+01 0.  1.
         -5    1    1    0    0  501 -0.10167966097E+01 -0.23027694133E+01  0.62272171776E+02  0.62500000000E+02  0.47000000000E+01 0.  1.
</event>
<event>
 3    0  0.4591805E-005  0.9118800E+02  0.7546771E-02  0.1235069E+00
         25   -1    0    0    0    0  0.00000000000E+00  0.00000000000E+00  0.99999998245E-14  0.12500000000E+03  0.12500000000E+03 0.  0.
          5    1    1    0  501    0 -0.15110883216E+02 -0.29817826849E+02 -0.52599604660E+02  0.62500000000E+02  0.47000000000E+01 0. -1.
         -5    1    1    0    0  501  0.15110883216E+02  0.29817826849E+02  0.52599604660E+02  0.62500000000E+02  0.47000000000E+01 0. -1.
</event>
<event>
 3    0  0.4591805E-005  0.9118800E+02  0.7546771E-02  0.1235069E+00
         25   -1    0    0    0    0  0.00000000000E+00  0.00000000000E+00  0.99999998245E-14  0.12500000000E+03  0.12500000000E+03 0.  0.
          5    1    1    0  501    0 -0.29712404300E+02 -0.54398566210E+02 -0.64906875566E+01  0.62500000000E+02  0.47000000000E+01 0. -1.
         -5    1    1    0    0  501  0.29712404300E+02  0.54398566210E+02  0.64906875566E+01  0.62500000000E+02  0.47000000000E+01 0. -1.
</event>
<event>
 3    0  0.4591805E-005  0.9118800E+02  0.7546771E-02  0.1235069E+00
         25   -1    0    0    0    0  0.00000000000E+00  0.00000000000E+00  0.99999998245E-14  0.12500000000E+03  0.12500000000E+03 0.  0.
          5    1    1    0  501    0 -0.19565794826E+02 -0.49090508618E+02 -0.33037276468E+02  0.62500000000E+02  0.47000000000E+01 0. -1.
         -5    1    1    0    0  501  0.19565794826E+02  0.49090508618E+02  0.33037276468E+02  0.62500000000E+02  0.47000000000E+01 0. -1.
</event>
<event>
 3    0  0.4591805E-005  0.9118800E+02  0.7546771E-02  0.1235069E+00
         25   -1    0    0    0    0  0.00000000000E+00  0.00000000000E+00  0.99999998245E-14  0.12500000000E+03  0.12500000000E+03 0.  0.
          5    1    1    0  501    0  0.24394128290E+02  0.13666010519E+02  0.55698533746E+02  0.62500000000E+02  0.47000000000E+01 0.  1.
         -5    1    1    0    0  501 -0.24394128290E+02 -0.13666010519E+02 -0.55698533746E+02  0.62500000000E+02  0.47000000000E+01 0.  1.
</event>
<event>
 3    0  0.4591805E-005  0.9118800E+02  0.7546771E-02  0.1235069E+00
         25   -1    0    0    0    0  0.00000000000E+00  0.00000000000E+00  0.99999998245E-14  0.12500000000E+03  0.12500000000E+03 0.  0.
          5    1    1    0  501    0 -0.33289959127E+02 -0.52360176170E+02  0.58609361704E+01  0.62500000000E+02  0.47000000000E+01 0. -1.
         -5    1    1    0    0  501  0.33289959127E+02  0.52360176170E+02 -0.58609361704E+01  0.62500000000E+02  0.47000000000E+01 0. -1.
</event>
<event>
 3    0  0.4591805E-005  0.9118800E+02  0.7546771E-02  0.1235069E+00
         25   -1    0    0    0    0  0.00000000000E+00  0.00000000000E+00  0.99999998245E-14  0.12500000000E+03  0.12500000000E+03 0.  0.
          5    1    1    0  501    0 -0.22569341586E+02  0.47779688761E+02  0.33043700796E+02  0.62500000000E+02  0.47000000000E+01 0.  1.
         -5    1    1    0    0  501  0.22569341586E+02 -0.47779688761E+02 -0.33043700796E+02  0.62500000000E+02  0.47000000000E+01 0.  1.
</event>
<event>
 3    0  0.4591805E-005  0.9118800E+02  0.7546771E-02  0.1235069E+00
         25   -1    0    0    0    0  0.00000000000E+00  0.00000000000E+00  0.99999998245E-14  0.12500000000E+03  0.12500000000E+03 0.  0.
          5    1    1    0  501    0 -0.16856735479E+02  0.51369014473E+02  0.31003787205E+02  0.62500000000E+02  0.47000000000E+01 0. -1.
         -5    1    1    0    0  501  0.16856735479E+02 -0.51369014473E+02 -0.31003787205E+02  0.62500000000E+02  0.47000000000E+01 0. -1.
</event>
<event>
 3    0  0.4591805E-005  0.9118800E+02  0.7546771E-02  0.1235069E+00
         25   -1    0    0    0    0  0.00000000000E+00  0.00000000000E+00  0.99999998245E-14  0.12500000000E+03  0.12500000000E+03 0.  0.
          5    1    1    0  501    0 -0.41070762726E+02  0.46591504977E+02 -0.51559783843E+01  0.62500000000E+02  0.47000000000E+01 0.  1.
         -5    1    1    0    0  501  0.41070762726E+02 -0.46591504977E+02  0.51559783843E+01  0.62500000000E+02  0.47000000000E+01 0.  1.
</event>
<event>
 3    0  0.4591805E-005  0.9118800E+02  0.7546771E-02  0.1235069E+00
         25   -1    0    0    0    0  0.00000000000E+00  0.00000000000E+00  0.99999998245E-14  0.12500000000E+03  0.12500000000E+03 0.  0.
          5    1    1    0  501    0  0.11123497485E+02  0.21611493139E+02  0.57387900885E+02  0.62500000000E+02  0.47000000000E+01 0.  1.
         -5    1    1    0    0  501 -0.11123497485E+02 -0.21611493139E+02 -0.57387900885E+02  0.62500000000E+02  0.47000000000E+01 0.  1.
</event>
<event>
 3    0  0.4591805E-005  0.9118800E+02  0.7546771E-02  0.1235069E+00
         25   -1    0    0    0    0  0.00000000000E+00  0.00000000000E+00  0.99999998245E-14  0.12500000000E+03  0.12500000000E+03 0.  0.
          5    1    1    0  501    0  0.16095319943E+02  0.67779430528E+01  0.59826082639E+02  0.62500000000E+02  0.47000000000E+01 0.  1.
         -5    1    1    0    0  501 -0.16095319943E+02 -0.67779430528E+01 -0.59826082639E+02  0.62500000000E+02  0.47000000000E+01 0.  1.
</event>
<event>
 3    0  0.4591805E-005  0.9118800E+02  0.7546771E-02  0.1235069E+00
         25   -1    0    0    0    0  0.00000000000E+00  0.00000000000E+00  0.99999998245E-14  0.12500000000E+03  0.12500000000E+03 0.  0.
          5    1    1    0  501    0 -0.26439861176E+00 -0.62075813024E+02  0.55392716817E+01  0.62500000000E+02  0.47000000000E+01 0.  1.
         -5    1    1    0    0  501  0.26439861176E+00  0.62075813024E+02 -0.55392716817E+01  0.62500000000E+02  0.47000000000E+01 0.  1.
</event>
<event>
 3    0  0.4591805E-005  0.9118800E+02  0.7546771E-02  0.1235069E+00
         25   -1    0    0    0    0  0.00000000000E+00  0.00000000000E+00  0.99999998245E-14  0.12500000000E+03  0.12500000000E+03 0.  0.
          5    1    1    0  501    0 -0.58572557330E+02 -0.14421613760E+02 -0.15666288151E+02  0.62500000000E+02  0.47000000000E+01 0. -1.
         -5    1    1    0    0  501  0.58572557330E+02  0.14421613760E+02  0.15666288151E+02  0.62500000000E+02  0.47000000000E+01 0. -1.
</event>
<event>
 3    0  0.4591805E-005  0.9118800E+02  0.7546771E-02  0.1235069E+00
         25   -1    0    0    0    0  0.00000000000E+00  0.00000000000E+00  0.99999998245E-14  0.12500000000E+03  0.12500000000E+03 0.  0.
          5    1    1    0  501    0  0.60420212072E+02 -0.48819780108E+01 -0.14481859823E+02  0.62500000000E+02  0.47000000000E+01 0.  1.
         -5    1    1    0    0  501 -0.60420212072E+02  0.48819780108E+01  0.14481859823E+02  0.62500000000E+02  0.47000000000E+01 0.  1.
</event>
<event>
 3    0  0.4591805E-005  0.9118800E+02  0.7546771E-02  0.1235069E+00
         25   -1    0    0    0    0  0.00000000000E+00  0.00000000000E+00  0.99999998245E-14  0.12500000000E+03  0.12500000000E+03 0.  0.
          5    1    1    0  501    0 -0.70661127331E+00  0.28873246034E+02 -0.55226772167E+02  0.62500000000E+02  0.47000000000E+01 0.  1.
         -5    1    1    0    0  501  0.70661127331E+00 -0.28873246034E+02  0.55226772167E+02  0.62500000000E+02  0.47000000000E+01 0.  1.
</event>
<event>
 3    0  0.4591805E-005  0.9118800E+02  0.7546771E-02  0.1235069E+00
         25   -1    0    0    0    0  0.00000000000E+00  0.00000000000E+00  0.99999998245E-14  0.12500000000E+03  0.12500000000E+03 0.  0.
          5    1    1    0  501    0  0.48150204781E+02 -0.82879834211E+01 -0.38691434586E+02  0.62500000000E+02  0.47000000000E+01 0.  1.
         -5    1    1    0    0  501 -0.48150204781E+02  0.82879834211E+01  0.38691434586E+02  0.62500000000E+02  0.47000000000E+01 0.  1.
</event>
<event>
 3    0  0.4591805E-005  0.9118800E+02  0.7546771E-02  0.1235069E+00
         25   -1    0    0    0    0  0.00000000000E+00  0.00000000000E+00  0.99999998245E-14  0.12500000000E+03  0.12500000000E+03 0.  0.
          5    1    1    0  501    0  0.33392532604E+02 -0.35883708410E+02  0.38489715991E+02  0.62500000000E+02  0.47000000000E+01 0. -1.
         -5    1    1    0    0  501 -0.33392532604E+02  0.35883708410E+02 -0.38489715991E+02  0.62500000000E+02  0.47000000000E+01 0. -1.
</event>
<event>
 3    0  0.4591805E-005  0.9118800E+02  0.7546771E-02  0.1235069E+00
         25   -1    0    0    0    0  0.00000000000E+00  0.00000000000E+00  0.99999998245E-14  0.12500000000E+03  0.12500000000E+03 0.  0.
          5    1    1    0  501    0 -0.31021485220E+02  0.52953318582E+02  0.10852350249E+02  0.62500000000E+02  0.47000000000E+01 0. -1.
         -5    1    1    0    0  501  0.31021485220E+02 -0.52953318582E+02 -0.10852350249E+02  0.62500000000E+02  0.47000000000E+01 0. -1.
</event>
<event>
 3    0  0.4591805E-005  0.9118800E+02  0.7546771E-02  0.1235069E+00
         25   -1    0    0    0    0  0.00000000000E+00  0.00000000000E+00  0.99999998245E-14  0.12500000000E+03  0.12500000000E+03 0.  0.
          5    1    1    0  501    0 -0.57726932973E+02 -0.12631102285E+02  0.19804455676E+02  0.62500000000E+02  0.47000000000E+01 0. -1.
         -5    1    1    0    0  501  0.57726932973E+02  0.12631102285E+02 -0.19804455676E+02  0.62500000000E+02  0.47000000000E+01 0. -1.
</event>
<event>
 3    0  0.4591805E-005  0.9118800E+02  0.7546771E-02  0.1235069E+00
         25   -1    0    0    0    0  0.00000000000E+00  0.00000000000E+00  0.99999998245E-14  0.12500000000E+03  0.12500000000E+03 0.  0.
          5    1    1    0  501    0 -0.14516373195E+02 -0.24328565325E+02 -0.55511762884E+02  0.62500000000E+02  0.47000000000E+01 0.  1.
         -5    1    1    0    0  501  0.14516373195E+02  0.24328565325E+02  0.55511762884E+02  0.62500000000E+02  0.47000000000E+01 0.  1.
</event>
<event>
 3    0  0.4591805E-005  0.9118800E+02  0.7546771E-02  0.1235069E+00
         25   -1    0    0    0    0  0.00000000000E+00  0.00000000000E+00  0.99999998245E-14  0.12500000000E+03  0.12500000000E+03 0.  0.
          5    1    1    0  501    0 -0.23962681017E+02  0.48358810586E+02  0.31166895213E+02  0.62500000000E+02  0.47000000000E+01 0.  1.
         -5    1    1    0    0  501  0.23962681017E+02 -0.48358810586E+02 -0.31166895213E+02  0.62500000000E+02  0.47000000000E+01 0.  1.
</event>
<event>
 3    0  0.4591805E-005  0.9118800E+02  0.7546771E-02  0.1235069E+00
         25   -1    0    0    0    0  0.00000000000E+00  0.00000000000E+00  0.99999998245E-14  0.12500000000E+03  0.12500000000E+03 0.  0.
          5    1    1    0  501    0 -0.10802183337E+02 -0.33935330879E+02  0.51145538938E+02  0.62500000000E+02  0.47000000000E+01 0. -1.
         -5    1    1    0    0  501  0.10802183337E+02  0.33935330879E+02 -0.51145538938E+02  0.62500000000E+02  0.47000000000E+01 0. -1.
</event>
<event>
 3    0  0.4591805E-005  0.9118800E+02  0.7546771E-02  0.1235069E+00
         25   -1    0    0    0    0  0.00000000000E+00  0.00000000000E+00  0.99999998245E-14  0.12500000000E+03  0.12500000000E+03 0.  0.
          5    1    1    0  501    0  0.19229745599E+02 -0.23009311752E+02 -0.54634681814E+02  0.62500000000E+02  0.47000000000E+01 0. -1.
         -5    1    1    0    0  501 -0.19229745599E+02  0.23009311752E+02  0.54634681814E+02  0.62500000000E+02  0.47000000000E+01 0. -1.
</event>
<event>
 3    0  0.4591805E-005  0.9118800E+02  0.7546771E-02  0.1235069E+00
         25   -1    0    0    0    0  0.00000000000E+00  0.00000000000E+00  0.99999998245E-14  0.12500000000E+03  0.12500000000E+03 0.  0.
          5    1    1    0  501    0 -0.36160123273E+02 -0.23854237523E+02 -0.44806035721E+02  0.62500000000E+02  0.47000000000E+01 0. -1.
         -5    1    1    0    0  501  0.36160123273E+02  0.23854237523E+02  0.44806035721E+02  0.62500000000E+02  0.47000000000E+01 0. -1.
</event>
<event>
 3    0  0.4591805E-005  0.9118800E+02  0.7546771E-02  0.1235069E+00
         25   -1    0    0    0    0  0.00000000000E+00  0.00000000000E+00  0.99999998245E-14  0.12500000000E+03  0.12500000000E+03 0.  0.
          5    1    1    0  501    0 -0.56620903166E+02 -0.26018980319E+02  0.11162382583E+01  0.62500000000E+02  0.47000000000E+01 0.  1.
         -5    1    1    0    0  501  0.56620903166E+02  0.26018980319E+02 -0.11162382583E+01  0.62500000000E+02  0.47000000000E+01 0.  1.
</event>
<event>
 3    0  0.4591805E-005  0.9118800E+02  0.7546771E-02  0.1235069E+00
         25   -1    0    0    0    0  0.00000000000E+00  0.00000000000E+00  0.99999998245E-14  0.12500000000E+03  0.12500000000E+03 0.  0.
          5    1    1    0  501    0  0.52064641557E+02  0.29588760565E+02  0.17260890699E+02  0.62500000000E+02  0.47000000000E+01 0.  1.
         -5    1    1    0    0  501 -0.52064641557E+02 -0.29588760565E+02 -0.17260890699E+02  0.62500000000E+02  0.47000000000E+01 0.  1.
</event>
<event>
 3    0  0.4591805E-005  0.9118800E+02  0.7546771E-02  0.1235069E+00
         25   -1    0    0    0    0  0.00000000000E+00  0.00000000000E+00  0.99999998245E-14  0.12500000000E+03  0.12500000000E+03 0.  0.
          5    1    1    0  501    0 -0.45999812411E+02 -0.39390382043E+02  0.14716489413E+02  0.62500000000E+02  0.47000000000E+01 0.  1.
         -5    1    1    0    0  501  0.45999812411E+02  0.39390382043E+02 -0.14716489413E+02  0.62500000000E+02  0.47000000000E+01 0.  1.
</event>
<event>
 3    0  0.4591805E-005  0.9118800E+02  0.7546771E-02  0.1235069E+00
         25   -1    0    0    0    0  0.00000000000E+00  0.00000000000E+00  0.99999998245E-14  0.12500000000E+03  0.12500000000E+03 0.  0.
          5    1    1    0  501    0 -0.42795531519E+02 -0.34350576075E+02 -0.29542180104E+02  0.62500000000E+02  0.47000000000E+01 0.  1.
         -5    1    1    0    0  501  0.42795531519E+02  0.34350576075E+02  0.29542180104E+02  0.62500000000E+02  0.47000000000E+01 0.  1.
</event>
<event>
 3    0  0.4591805E-005  0.9118800E+02  0.7546771E-02  0.1235069E+00
         25   -1    0    0    0    0  0.00000000000E+00  0.00000000000E+00  0.99999998245E-14  0.12500000000E+03  0.12500000000E+03 0.  0.
          5    1    1    0  501    0  0.26325336252E+02  0.13554497197E+02  0.54839878528E+02  0.62500000000E+02  0.47000000000E+01 0.  1.
         -5    1    1    0    0  501 -0.26325336252E+02 -0.13554497197E+02 -0.54839878528E+02  0.62500000000E+02  0.47000000000E+01 0.  1.
</event>
<event>
 3    0  0.4591805E-005  0.9118800E+02  0.7546771E-02  0.1235069E+00
         25   -1    0    0    0    0  0.00000000000E+00  0.00000000000E+00  0.99999998245E-14  0.12500000000E+03  0.12500000000E+03 0.  0.
          5    1    1    0  501    0  0.36580282242E+02  0.34073068336E+02  0.37216514685E+02  0.62500000000E+02  0.47000000000E+01 0. -1.
         -5    1    1    0    0  501 -0.36580282242E+02 -0.34073068336E+02 -0.37216514685E+02  0.62500000000E+02  0.47000000000E+01 0. -1.
</event>
<event>
 3    0  0.4591805E-005  0.9118800E+02  0.7546771E-02  0.1235069E+00
         25   -1    0    0    0    0  0.00000000000E+00  0.00000000000E+00  0.99999998245E-14  0.12500000000E+03  0.12500000000E+03 0.  0.
          5    1    1    0  501    0 -0.19595921842E+02 -0.40201055133E+01 -0.59025406384E+02  0.62500000000E+02  0.47000000000E+01 0.  1.
         -5    1    1    0    0  501  0.19595921842E+02  0.40201055133E+01  0.59025406384E+02  0.62500000000E+02  0.47000000000E+01 0.  1.
</event>
<event>
 3    0  0.4591805E-005  0.9118800E+02  0.7546771E-02  0.1235069E+00
         25   -1    0    0    0    0  0.00000000000E+00  0.00000000000E+00  0.99999998245E-14  0.12500000000E+03  0.12500000000E+03 0.  0.
          5    1    1    0  501    0 -0.35757311123E+02 -0.45288591226E+02  0.23548210252E+02  0.62500000000E+02  0.47000000000E+01 0. -1.
         -5    1    1    0    0  501  0.35757311123E+02  0.45288591226E+02 -0.23548210252E+02  0.62500000000E+02  0.47000000000E+01 0. -1.
</event>
<event>
 3    0  0.4591805E-005  0.9118800E+02  0.7546771E-02  0.1235069E+00
         25   -1    0    0    0    0  0.00000000000E+00  0.00000000000E+00  0.99999998245E-14  0.12500000000E+03  0.12500000000E+03 0.  0.
          5    1    1    0  501    0 -0.21521327628E+02  0.10491119895E+02 -0.57540671359E+02  0.62500000000E+02  0.47000000000E+01 0.  1.
         -5    1    1    0    0  501  0.21521327628E+02 -0.10491119895E+02  0.57540671359E+02  0.62500000000E+02  0.47000000000E+01 0.  1.
</event>
<event>
 3    0  0.4591805E-005  0.9118800E+02  0.7546771E-02  0.1235069E+00
         25   -1    0    0    0    0  0.00000000000E+00  0.00000000000E+00  0.99999998245E-14  0.12500000000E+03  0.12500000000E+03 0.  0.
          5    1    1    0  501    0  0.30225788377E+00 -0.60137535133E+02  0.16356818405E+02  0.62500000000E+02  0.47000000000E+01 0. -1.
         -5    1    1    0    0  501 -0.30225788377E+00  0.60137535133E+02 -0.16356818405E+02  0.62500000000E+02  0.47000000000E+01 0. -1.
</event>
<event>
 3    0  0.4591805E-005  0.9118800E+02  0.7546771E-02  0.1235069E+00
         25   -1    0    0    0    0  0.00000000000E+00  0.00000000000E+00  0.99999998245E-14  0.12500000000E+03  0.12500000000E+03 0.  0.
          5    1    1    0  501    0  0.44559481212E+02  0.22622459214E+02  0.37240260112E+02  0.62500000000E+02  0.47000000000E+01 0. -1.
         -5    1    1    0    0  501 -0.44559481212E+02 -0.22622459214E+02 -0.37240260112E+02  0.62500000000E+02  0.47000000000E+01 0. -1.
</event>
<event>
 3    0  0.4591805E-005  0.9118800E+02  0.7546771E-02  0.1235069E+00
         25   -1    0    0    0    0  0.00000000000E+00  0.00000000000E+00  0.99999998245E-14  0.12500000000E+03  0.12500000000E+03 0.  0.
          5    1    1    0  501    0  0.10277152481E+02 -0.53294828075E+02 -0.30630074067E+02  0.62500000000E+02  0.47000000000E+01 0.  1.
         -5    1    1    0    0  501 -0.10277152481E+02  0.53294828075E+02  0.30630074067E+02  0.62500000000E+02  0.47000000000E+01 0.  1.
</event>
<event>
 3    0  0.4591805E-005  0.9118800E+02  0.7546771E-02  0.1235069E+00
         25   -1    0    0    0    0  0.00000000000E+00  0.00000000000E+00  0.99999998245E-14  0.12500000000E+03  0.12500000000E+03 0.  0.
          5    1    1    0  501    0 -0.56084328702E+02  0.57443064445E+01 -0.26565221956E+02  0.62500000000E+02  0.47000000000E+01 0. -1.
         -5    1    1    0    0  501  0.56084328702E+02 -0.57443064445E+01  0.26565221956E+02  0.62500000000E+02  0.47000000000E+01 0. -1.
</event>
<event>
 3    0  0.4591805E-005  0.9118800E+02  0.7546771E-02  0.1235069E+00
         25   -1    0    0    0    0  0.00000000000E+00  0.00000000000E+00  0.99999998245E-14  0.12500000000E+03  0.12500000000E+03 0.  0.
          5    1    1    0  501    0 -0.32562203143E+00  0.22550576951E+02 -0.58099272366E+02  0.62500000000E+02  0.47000000000E+01 0.  1.
         -5    1    1    0    0  501  0.32562203143E+00 -0.22550576951E+02  0.58099272366E+02  0.62500000000E+02  0.47000000000E+01 0.  1.
</event>
<event>
 3    0  0.4591805E-005  0.9118800E+02  0.7546771E-02  0.1235069E+00
         25   -1    0    0    0    0  0.00000000000E+00  0.00000000000E+00  0.99999998245E-14  0.12500000000E+03  0.12500000000E+03 0.  0.
          5    1    1    0  501    0  0.58217264301E+02  0.45777948275E+01 -0.21770483042E+02  0.62500000000E+02  0.47000000000E+01 0.  1.
         -5    1    1    0    0  501 -0.58217264301E+02 -0.45777948275E+01  0.21770483042E+02  0.62500000000E+02  0.47000000000E+01 0.  1.
</event>
<event>
 3    0  0.4591805E-005  0.9118800E+02  0.7546771E-02  0.1235069E+00
         25   -1    0    0    0    0  0.00000000000E+00  0.00000000000E+00  0.99999998245E-14  0.12500000000E+03  0.12500000000E+03 0.  0.
          5    1    1    0  501    0 -0.58735753606E+02  0.18883129055E+02  0.88146857805E+01  0.62500000000E+02  0.47000000000E+01 0.  1.
         -5    1    1    0    0  501  0.58735753606E+02 -0.18883129055E+02 -0.88146857805E+01  0.62500000000E+02  0.47000000000E+01 0.  1.
</event>
<event>
 3    0  0.4591805E-005  0.9118800E+02  0.7546771E-02  0.1235069E+00
         25   -1    0    0    0    0  0.00000000000E+00  0.00000000000E+00  0.99999998245E-14  0.12500000000E+03  0.12500000000E+03 0.  0.
          5    1    1    0  501    0 -0.45373842989E+02 -0.43705269981E+01  0.42500269013E+02  0.62500000000E+02  0.47000000000E+01 0. -1.
         -5    1    1    0    0  501  0.45373842989E+02  0.43705269981E+01 -0.42500269013E+02  0.62500000000E+02  0.47000000000E+01 0. -1.
</event>
<event>
 3    0  0.4591805E-005  0.9118800E+02  0.7546771E-02  0.1235069E+00
         25   -1    0    0    0    0  0.00000000000E+00  0.00000000000E+00  0.99999998245E-14  0.12500000000E+03  0.12500000000E+03 0.  0.
          5    1    1    0  501    0  0.49041166502E+02  0.26177208958E+02 -0.28175835734E+02  0.62500000000E+02  0.47000000000E+01 0. -1.
         -5    1    1    0    0  501 -0.49041166502E+02 -0.26177208958E+02  0.28175835734E+02  0.62500000000E+02  0.47000000000E+01 0. -1.
</event>
<event>
 3    0  0.4591805E-005  0.9118800E+02  0.7546771E-02  0.1235069E+00
         25   -1    0    0    0    0  0.00000000000E+00  0.00000000000E+00  0.99999998245E-14  0.12500000000E+03  0.12500000000E+03 0.  0.
          5    1    1    0  501    0 -0.61591354059E+02  0.30731996265E+01 -0.90122444056E+01  0.62500000000E+02  0.47000000000E+01 0. -1.
         -5    1    1    0    0  501  0.61591354059E+02 -0.30731996265E+01  0.90122444056E+01  0.62500000000E+02  0.47000000000E+01 0. -1.
</event>
<event>
 3    0  0.4591805E-005  0.9118800E+02  0.7546771E-02  0.1235069E+00
         25   -1    0    0    0    0  0.00000000000E+00  0.00000000000E+00  0.99999998245E-14  0.12500000000E+03  0.12500000000E+03 0.  0.
          5    1    1    0  501    0  0.44051481568E+02 -0.41590406658E+02 -0.14624125469E+02  0.62500000000E+02  0.47000000000E+01 0. -1.
         -5    1    1    0    0  501 -0.44051481568E+02  0.41590406658E+02  0.14624125469E+02  0.62500000000E+02  0.47000000000E+01 0. -1.
</event>
<event>
 3    0  0.4591805E-005  0.9118800E+02  0.7546771E-02  0.1235069E+00
         25   -1    0    0    0    0  0.00000000000E+00  0.00000000000E+00  0.99999998245E-14  0.12500000000E+03  0.12500000000E+03 0.  0.
          5    1    1    0  501    0 -0.15528743343E+02  0.58384540861E+02  0.15305669495E+02  0.62500000000E+02  0.47000000000E+01 0. -1.
         -5    1    1    0    0  501  0.15528743343E+02 -0.58384540861E+02 -0.15305669495E+02  0.62500000000E+02  0.47000000000E+01 0. -1.
</event>
<event>
 3    0  0.4591805E-005  0.9118800E+02  0.7546771E-02  0.1235069E+00
         25   -1    0    0    0    0  0.00000000000E+00  0.00000000000E+00  0.99999998245E-14  0.12500000000E+03  0.12500000000E+03 0.  0.
          5    1    1    0  501    0  0.24486719770E+02 -0.17890805066E+02  0.54447035264E+02  0.62500000000E+02  0.47000000000E+01 0.  1.
         -5    1    1    0    0  501 -0.24486719770E+02  0.17890805066E+02 -0.54447035264E+02  0.62500000000E+02  0.47000000000E+01 0.  1.
</event>
<event>
 3    0  0.4591805E-005  0.9118800E+02  0.7546771E-02  0.1235069E+00
         25   -1    0    0    0    0  0.00000000000E+00  0.00000000000E+00  0.99999998245E-14  0.12500000000E+03  0.12500000000E+03 0.  0.
          5    1    1    0  501    0 -0.14875974359E+02 -0.58004572589E+02 -0.17272375218E+02  0.62500000000E+02  0.47000000000E+01 0. -1.
         -5    1    1    0    0  501  0.14875974359E+02  0.58004572589E+02  0.17272375218E+02  0.62500000000E+02  0.47000000000E+01 0. -1.
</event>
<event>
 3    0  0.4591805E-005  0.9118800E+02  0.7546771E-02  0.1235069E+00
         25   -1    0    0    0    0  0.00000000000E+00  0.00000000000E+00  0.99999998245E-14  0.12500000000E+03  0.12500000000E+03 0.  0.
          5    1    1    0  501    0  0.39580137036E+02  0.11577023986E+01  0.48127252959E+02  0.62500000000E+02  0.47000000000E+01 0. -1.
         -5    1    1    0    0  501 -0.39580137036E+02 -0.11577023986E+01 -0.48127252959E+02  0.62500000000E+02  0.47000000000E+01 0. -1.
</event>
<event>
 3    0  0.4591805E-005  0.9118800E+02  0.7546771E-02  0.1235069E+00
         25   -1    0    0    0    0  0.00000000000E+00  0.00000000000E+00  0.99999998245E-14  0.12500000000E+03  0.12500000000E+03 0.  0.
          5    1    1    0  501    0  0.25600427207E+02  0.12751592371E+02  0.55373053183E+02  0.62500000000E+02  0.47000000000E+01 0.  1.
         -5    1    1    0    0  501 -0.25600427207E+02 -0.12751592371E+02 -0.55373053183E+02  0.62500000000E+02  0.47000000000E+01 0.  1.
</event>
<event>
 3    0  0.4591805E-005  0.9118800E+02  0.7546771E-02  0.1235069E+00
         25   -1    0    0    0    0  0.00000000000E+00  0.00000000000E+00  0.99999998245E-14  0.12500000000E+03  0.12500000000E+03 0.  0.
          5    1    1    0  501    0 -0.51354056701E+01 -0.60234537093E+02  0.15152166506E+02  0.62500000000E+02  0.47000000000E+01 0. -1.
         -5    1    1    0    0  501  0.51354056701E+01  0.60234537093E+02 -0.15152166506E+02  0.62500000000E+02  0.47000000000E+01 0. -1.
</event>
<event>
 3    0  0.4591805E-005  0.9118800E+02  0.7546771E-02  0.1235069E+00
         25   -1    0    0    0    0  0.00000000000E+00  0.00000000000E+00  0.99999998245E-14  0.12500000000E+03  0.12500000000E+03 0.  0.
          5    1    1    0  501    0 -0.42807233151E+02  0.43523115303E+02  0.12547478802E+02  0.62500000000E+02  0.47000000000E+01 0.  1.
         -5    1    1    0    0  501  0.42807233151E+02 -0.43523115303E+02 -0.12547478802E+02  0.62500000000E+02  0.47000000000E+01 0.  1.
</event>
<event>
 3    0  0.4591805E-005  0.9118800E+02  0.7546771E-02  0.1235069E+00
         25   -1    0    0    0    0  0.00000000000E+00  0.00000000000E+00  0.99999998245E-14  0.12500000000E+03  0.12500000000E+03 0.  0.
          5    1    1    0  501    0 -0.52505724224E+02  0.26974952912E+01 -0.33466885767E+02  0.62500000000E+02  0.47000000000E+01 0. -1.
         -5    1    1    0    0  501  0.52505724224E+02 -0.26974952912E+01  0.33466885767E+02  0.62500000000E+02  0.47000000000E+01 0. -1.
</event>
<event>
 3    0  0.4591805E-005  0.9118800E+02  0.7546771E-02  0.1235069E+00
         25   -1    0    0    0    0  0.00000000000E+00  0.00000000000E+00  0.99999998245E-14  0.12500000000E+03  0.12500000000E+03 0.  0.
          5    1    1    0  501    0  0.52613946896E+02  0.31134835505E+02  0.12105974148E+02  0.62500000000E+02  0.47000000000E+01 0. -1.
         -5    1    1    0    0  501 -0.52613946896E+02 -0.31134835505E+02 -0.12105974148E+02  0.62500000000E+02  0.47000000000E+01 0. -1.
</event>
<event>
 3    0  0.4591805E-005  0.9118800E+02  0.7546771E-02  0.1235069E+00
         25   -1    0    0    0    0  0.00000000000E+00  0.00000000000E+00  0.99999998245E-14  0.12500000000E+03  0.12500000000E+03 0.  0.
          5    1    1    0  501    0 -0.31440202469E+02 -0.45958863044E+02  0.27990294326E+02  0.62500000000E+02  0.47000000000E+01 0.  1.
         -5    1    1    0    0  501  0.31440202469E+02  0.45958863044E+02 -0.27990294326E+02  0.62500000000E+02  0.47000000000E+01 0.  1.
</event>
<event>
 3    0  0.4591805E-005  0.9118800E+02  0.7546771E-02  0.1235069E+00
         25   -1    0    0    0    0  0.00000000000E+00  0.00000000000E+00  0.99999998245E-14  0.12500000000E+03  0.12500000000E+03 0.  0.
          5    1    1    0  501    0  0.17088759904E+02 -0.54942414617E+02 -0.23947136801E+02  0.62500000000E+02  0.47000000000E+01 0.  1.
         -5    1    1    0    0  501 -0.17088759904E+02  0.54942414617E+02  0.23947136801E+02  0.62500000000E+02  0.47000000000E+01 0.  1.
</event>
<event>
 3    0  0.4591805E-005  0.9118800E+02  0.7546771E-02  0.1235069E+00
         25   -1    0    0    0    0  0.00000000000E+00  0.00000000000E+00  0.99999998245E-14  0.12500000000E+03  0.12500000000E+03 0.  0.
          5    1    1    0  501    0  0.42391397212E+02 -0.25781993290E+02  0.37714960750E+02  0.62500000000E+02  0.47000000000E+01 0. -1.
         -5    1    1    0    0  501 -0.42391397212E+02  0.25781993290E+02 -0.37714960750E+02  0.62500000000E+02  0.47000000000E+01 0. -1.
</event>
<event>
 3    0  0.4591805E-005  0.9118800E+02  0.7546771E-02  0.1235069E+00
         25   -1    0    0    0    0  0.00000000000E+00  0.00000000000E+00  0.99999998245E-14  0.12500000000E+03  0.12500000000E+03 0.  0.
          5    1    1    0  501    0 -0.55989149177E+02 -0.25763745878E+02  0.92522739242E+01  0.62500000000E+02  0.47000000000E+01 0. -1.
         -5    1    1    0    0  501  0.55989149177E+02  0.25763745878E+02 -0.92522739242E+01  0.62500000000E+02  0.47000000000E+01 0. -1.
</event>
<event>
 3    0  0.4591805E-005  0.9118800E+02  0.7546771E-02  0.1235069E+00
         25   -1    0    0    0    0  0.00000000000E+00  0.00000000000E+00  0.99999998245E-14  0.12500000000E+03  0.12500000000E+03 0.  0.
          5    1    1    0  501    0  0.42752921214E+02 -0.41055476585E+02 -0.19256052815E+02  0.62500000000E+02  0.47000000000E+01 0.  1.
         -5    1    1    0    0  501 -0.42752921214E+02  0.41055476585E+02  0.19256052815E+02  0.62500000000E+02  0.47000000000E+01 0.  1.
</event>
<event>
 3    0  0.4591805E-005  0.9118800E+02  0.7546771E-02  0.1235069E+00
         25   -1    0    0    0    0  0.00000000000E+00  0.00000000000E+00  0.99999998245E-14  0.12500000000E+03  0.12500000000E+03 0.  0.
          5    1    1    0  501    0  0.60782607566E+02  0.13759097031E+02  0.56733263498E+00  0.62500000000E+02  0.47000000000E+01 0. -1.
         -5    1    1    0    0  501 -0.60782607566E+02 -0.13759097031E+02 -0.56733263498E+00  0.62500000000E+02  0.47000000000E+01 0. -1.
</event>
<event>
 3    0  0.4591805E-005  0.9118800E+02  0.7546771E-02  0.1235069E+00
         25   -1    0    0    0    0  0.00000000000E+00  0.00000000000E+00  0.99999998245E-14  0.12500000000E+03  0.12500000000E+03 0.  0.
          5    1    1    0  501    0  0.54540148013E+01 -0.59748528742E+02  0.16867929208E+02  0.62500000000E+02  0.47000000000E+01 0. -1.
         -5    1    1    0    0  501 -0.54540148013E+01  0.59748528742E+02 -0.16867929208E+02  0.62500000000E+02  0.47000000000E+01 0. -1.
</event>
<event>
 3    0  0.4591805E-005  0.9118800E+02  0.7546771E-02  0.1235069E+00
         25   -1    0    0    0    0  0.00000000000E+00  0.00000000000E+00  0.99999998245E-14  0.12500000000E+03  0.12500000000E+03 0.  0.
          5    1    1    0  501    0  0.42551152695E+02  0.41152812218E+02  0.19493728501E+02  0.62500000000E+02  0.47000000000E+01 0.  1.
         -5    1    1    0    0  501 -0.42551152695E+02 -0.41152812218E+02 -0.19493728501E+02  0.62500000000E+02  0.47000000000E+01 0.  1.
</event>
<event>
 3    0  0.4591805E-005  0.9118800E+02  0.7546771E-02  0.1235069E+00
         25   -1    0    0    0    0  0.00000000000E+00  0.00000000000E+00  0.99999998245E-14  0.12500000000E+03  0.12500000000E+03 0.  0.
          5    1    1    0  501    0  0.34621389504E+02 -0.25210160870E+02  0.45276563228E+02  0.62500000000E+02  0.47000000000E+01 0.  1.
         -5    1    1    0    0  501 -0.34621389504E+02  0.25210160870E+02 -0.45276563228E+02  0.62500000000E+02  0.47000000000E+01 0.  1.
</event>
<event>
 3    0  0.4591805E-005  0.9118800E+02  0.7546771E-02  0.1235069E+00
         25   -1    0    0    0    0  0.00000000000E+00  0.00000000000E+00  0.99999998245E-14  0.12500000000E+03  0.12500000000E+03 0.  0.
          5    1    1    0  501    0  0.52545786702E+02  0.25736567330E+02 -0.21464608126E+02  0.62500000000E+02  0.47000000000E+01 0. -1.
         -5    1    1    0    0  501 -0.52545786702E+02 -0.25736567330E+02  0.21464608126E+02  0.62500000000E+02  0.47000000000E+01 0. -1.
</event>
<event>
 3    0  0.4591805E-005  0.9118800E+02  0.7546771E-02  0.1235069E+00
         25   -1    0    0    0    0  0.00000000000E+00  0.00000000000E+00  0.99999998245E-14  0.12500000000E+03  0.12500000000E+03 0.  0.
          5    1    1    0  501    0 -0.22711001864E+02  0.27695838853E+02 -0.51003047993E+02  0.62500000000E+02  0.47000000000E+01 0.  1.
         -5    1    1    0    0  501  0.22711001864E+02 -0.27695838853E+02  0.51003047993E+02  0.62500000000E+02  0.47000000000E+01 0.  1.
</event>
<event>
 3    0  0.4591805E-005  0.9118800E+02  0.7546771E-02  0.1235069E+00
         25   -1    0    0    0    0  0.00000000000E+00  0.00000000000E+00  0.99999998245E-14  0.12500000000E+03  0.12500000000E+03 0.  0.
          5    1    1    0  501    0 -0.23240187510E+02  0.34085030798E+02 -0.46714712458E+02  0.62500000000E+02  0.47000000000E+01 0.  1.
         -5    1    1    0    0  501  0.23240187510E+02 -0.34085030798E+02  0.46714712458E+02  0.62500000000E+02  0.47000000000E+01 0.  1.
</event>
<event>
 3    0  0.4591805E-005  0.9118800E+02  0.7546771E-02  0.1235069E+00
         25   -1    0    0    0    0  0.00000000000E+00  0.00000000000E+00  0.99999998245E-14  0.12500000000E+03  0.12500000000E+03 0.  0.
          5    1    1    0  501    0  0.42324110637E+02 -0.45672077643E+02 -0.26250680946E+01  0.62500000000E+02  0.47000000000E+01 0.  1.
         -5    1    1    0    0  501 -0.42324110637E+02  0.45672077643E+02  0.26250680946E+01  0.62500000000E+02  0.47000000000E+01 0.  1.
</event>
<event>
 3    0  0.4591805E-005  0.9118800E+02  0.7546771E-02  0.1235069E+00
         25   -1    0    0    0    0  0.00000000000E+00  0.00000000000E+00  0.99999998245E-14  0.12500000000E+03  0.12500000000E+03 0.  0.
          5    1    1    0  501    0 -0.27958734968E+01  0.60447453364E+02  0.14914706609E+02  0.62500000000E+02  0.47000000000E+01 0. -1.
         -5    1    1    0    0  501  0.27958734968E+01 -0.60447453364E+02 -0.14914706609E+02  0.62500000000E+02  0.47000000000E+01 0. -1.
</event>
<event>
 3    0  0.4591805E-005  0.9118800E+02  0.7546771E-02  0.1235069E+00
         25   -1    0    0    0    0  0.00000000000E+00  0.00000000000E+00  0.99999998245E-14  0.12500000000E+03  0.12500000000E+03 0.  0.
          5    1    1    0  501    0  0.54311721840E+02 -0.11487219826E+02  0.28327383420E+02  0.62500000000E+02  0.47000000000E+01 0.  1.
         -5    1    1    0    0  501 -0.54311721840E+02  0.11487219826E+02 -0.28327383420E+02  0.62500000000E+02  0.47000000000E+01 0.  1.
</event>
<event>
 3    0  0.4591805E-005  0.9118800E+02  0.7546771E-02  0.1235069E+00
         25   -1    0    0    0    0  0.00000000000E+00  0.00000000000E+00  0.99999998245E-14  0.12500000000E+03  0.12500000000E+03 0.  0.
          5    1    1    0  501    0  0.95346878483E+00  0.45279134154E+02 -0.42814143779E+02  0.62500000000E+02  0.47000000000E+01 0.  1.
         -5    1    1    0    0  501 -0.95346878483E+00 -0.45279134154E+02  0.42814143779E+02  0.62500000000E+02  0.47000000000E+01 0.  1.
</event>
<event>
 3    0  0.4591805E-005  0.9118800E+02  0.7546771E-02  0.1235069E+00
         25   -1    0    0    0    0  0.00000000000E+00  0.00000000000E+00  0.99999998245E-14  0.12500000000E+03  0.12500000000E+03 0.  0.
          5    1    1    0  501    0  0.15548087456E+02  0.19873103065E+02 -0.56986636600E+02  0.62500000000E+02  0.47000000000E+01 0.  1.
         -5    1    1    0    0  501 -0.15548087456E+02 -0.19873103065E+02  0.56986636600E+02  0.62500000000E+02  0.47000000000E+01 0.  1.
</event>
<event>
 3    0  0.4591805E-005  0.9118800E+02  0.7546771E-02  0.1235069E+00
         25   -1    0    0    0    0  0.00000000000E+00  0.00000000000E+00  0.99999998245E-14  0.12500000000E+03  0.12500000000E+03 0.  0.
          5    1    1    0  501    0 -0.79412573061E+01  0.12203170516E+02 -0.60598507092E+02  0.62500000000E+02  0.47000000000E+01 0.  1.
         -5    1    1    0    0  501  0.79412573061E+01 -0.12203170516E+02  0.60598507092E+02  0.62500000000E+02  0.47000000000E+01 0.  1.
</event>
<event>
 3    0  0.4591805E-005  0.9118800E+02  0.7546771E-02  0.1235069E+00
         25   -1    0    0    0    0  0.00000000000E+00  0.00000000000E+00  0.99999998245E-14  0.12500000000E+03  0.12500000000E+03 0.  0.
          5    1    1    0  501    0  0.45644726911E+02 -0.36962785170E+02 -0.20843977971E+02  0.62500000000E+02  0.47000000000E+01 0.  1.
         -5    1    1    0    0  501 -0.45644726911E+02  0.36962785170E+02  0.20843977971E+02  0.62500000000E+02  0.47000000000E+01 0.  1.
</event>
<event>
 3    0  0.4591805E-005  0.9118800E+02  0.7546771E-02  0.1235069E+00
         25   -1    0    0    0    0  0.00000000000E+00  0.00000000000E+00  0.99999998245E-14  0.12500000000E+03  0.12500000000E+03 0.  0.
          5    1    1    0  501    0  0.28181955661E+02  0.23486913789E+02 -0.50381566627E+02  0.62500000000E+02  0.47000000000E+01 0. -1.
         -5    1    1    0    0  501 -0.28181955661E+02 -0.23486913789E+02  0.50381566627E+02  0.62500000000E+02  0.47000000000E+01 0. -1.
</event>
<event>
 3    0  0.4591805E-005  0.9118800E+02  0.7546771E-02  0.1235069E+00
         25   -1    0    0    0    0  0.00000000000E+00  0.00000000000E+00  0.99999998245E-14  0.12500000000E+03  0.12500000000E+03 0.  0.
          5    1    1    0  501    0 -0.43932919095E+01  0.60817265992E+02  0.12888721561E+02  0.62500000000E+02  0.47000000000E+01 0. -1.
         -5    1    1    0    0  501  0.43932919095E+01 -0.60817265992E+02 -0.12888721561E+02  0.62500000000E+02  0.47000000000E+01 0. -1.
</event>
<event>
 3    0  0.4591805E-005  0.9118800E+02  0.7546771E-02  0.1235069E+00
         25   -1    0    0    0    0  0.00000000000E+00  0.00000000000E+00  0.99999998245E-14  0.12500000000E+03  0.12500000000E+03 0.  0.
          5    1    1    0  501    0 -0.50750247492E+02 -0.36032624753E+02  0.31972383322E+01  0.62500000000E+02  0.47000000000E+01 0.  1.
         -5    1    1    0    0  501  0.50750247492E+02  0.36032624753E+02 -0.31972383322E+01  0.62500000000E+02  0.47000000000E+01 0.  1.
</event>
<event>
 3    0  0.4591805E-005  0.9118800E+02  0.7546771E-02  0.1235069E+00
         25   -1    0    0    0    0  0.00000000000E+00  0.00000000000E+00  0.99999998245E-14  0.12500000000E+03  0.12500000000E+03 0.  0.
          5    1    1    0  501    0 -0.26884162541E+02 -0.17604149416E+02  0.53399398197E+02  0.62500000000E+02  0.47000000000E+01 0.  1.
         -5    1    1    0    0  501  0.26884162541E+02  0.17604149416E+02 -0.53399398197E+02  0.62500000000E+02  0.47000000000E+01 0.  1.
</event>
<event>
 3    0  0.4591805E-005  0.9118800E+02  0.7546771E-02  0.1235069E+00
         25   -1    0    0    0    0  0.00000000000E+00  0.00000000000E+00  0.99999998245E-14  0.12500000000E+03  0.12500000000E+03 0.  0.
          5    1    1    0  501    0  0.47697433904E+01 -0.39173679047E+02  0.48237251351E+02  0.62500000000E+02  0.47000000000E+01 0.  1.
         -5    1    1    0    0  501 -0.47697433904E+01  0.39173679047E+02 -0.48237251351E+02  0.62500000000E+02  0.47000000000E+01 0.  1.
</event>
<event>
 3    0  0.4591805E-005  0.9118800E+02  0.7546771E-02  0.1235069E+00
         25   -1    0    0    0    0  0.00000000000E+00  0.00000000000E+00  0.99999998245E-14  0.12500000000E+03  0.12500000000E+03 0.  0.
          5    1    1    0  501    0 -0.48745753871E+02  0.26633902216E+02  0.28260338503E+02  0.62500000000E+02  0.47000000000E+01 0. -1.
         -5    1    1    0    0  501  0.48745753871E+02 -0.26633902216E+02 -0.28260338503E+02  0.62500000000E+02  0.47000000000E+01 0. -1.
</event>
<event>
 3    0  0.4591805E-005  0.9118800E+02  0.7546771E-02  0.1235069E+00
         25   -1    0    0    0    0  0.00000000000E+00  0.00000000000E+00  0.99999998245E-14  0.12500000000E+03  0.12500000000E+03 0.  0.
          5    1    1    0  501    0  0.47526856270E+02  0.15291016182E+01 -0.40286719665E+02  0.62500000000E+02  0.47000000000E+01 0.  1.
         -5    1    1    0    0  501 -0.47526856270E+02 -0.15291016182E+01  0.40286719665E+02  0.62500000000E+02  0.47000000000E+01 0.  1.
</event>
<event>
 3    0  0.4591805E-005  0.9118800E+02  0.7546771E-02  0.1235069E+00
         25   -1    0    0    0    0  0.00000000000E+00  0.00000000000E+00  0.99999998245E-14  0.12500000000E+03  0.12500000000E+03 0.  0.
          5    1    1    0  501    0 -0.11312779800E+02 -0.47304399499E+02 -0.38967612208E+02  0.62500000000E+02  0.47000000000E+01 0.  1.
         -5    1    1    0    0  501  0.11312779800E+02  0.47304399499E+02  0.38967612208E+02  0.62500000000E+02  0.47000000000E+01 0.  1.
</event>
<event>
 3    0  0.4591805E-005  0.9118800E+02  0.7546771E-02  0.1235069E+00
         25   -1    0    0    0    0  0.00000000000E+00  0.00000000000E+00  0.99999998245E-14  0.12500000000E+03  0.12500000000E+03 0.  0.
          5    1    1    0  501    0 -0.19702154403E+02 -0.22711795228E+02  0.54590836863E+02  0.62500000000E+02  0.47000000000E+01 0. -1.
         -5    1    1    0    0  501  0.19702154403E+02  0.22711795228E+02 -0.54590836863E+02  0.62500000000E+02  0.47000000000E+01 0. -1.
</event>
<event>
 3    0  0.4591805E-005  0.9118800E+02  0.7546771E-02  0.1235069E+00
         25   -1    0    0    0    0  0.00000000000E+00  0.00000000000E+00  0.99999998245E-14  0.12500000000E+03  0.12500000000E+03 0.  0.
          5    1    1    0  501    0  0.24251235285E+02 -0.33906269252E+02  0.46329283316E+02  0.62500000000E+02  0.47000000000E+01 0. -1.
         -5    1    1    0    0  501 -0.24251235285E+02  0.33906269252E+02 -0.46329283316E+02  0.62500000000E+02  0.47000000000E+01 0. -1.
</event>
<event>
 3    0  0.4591805E-005  0.9118800E+02  0.7546771E-02  0.1235069E+00
         25   -1    0    0    0    0  0.00000000000E+00  0.00000000000E+00  0.99999998245E-14  0.12500000000E+03  0.12500000000E+03 0.  0.
          5    1    1    0  501    0 -0.56286245460E+02 -0.26670919933E+02  0.21634698982E+01  0.62500000000E+02  0.47000000000E+01 0.  1.
         -5    1    1    0    0  501  0.56286245460E+02  0.26670919933E+02 -0.21634698982E+01  0.62500000000E+02  0.47000000000E+01 0.  1.
</event>
<event>
 3    0  0.4591805E-005  0.9118800E+02  0.7546771E-02  0.1235069E+00
         25   -1    0    0    0    0  0.00000000000E+00  0.00000000000E+00  0.99999998245E-14  0.12500000000E+03  0.12500000000E+03 0.  0.
          5    1    1    0  501    0  0.18586399968E+02  0.70145773236E+01 -0.59072002177E+02  0.62500000000E+02  0.47000000000E+01 0.  1.
         -5    1    1    0    0  501 -0.18586399968E+02 -0.70145773236E+01  0.59072002177E+02  0.62500000000E+02  0.47000000000E+01 0.  1.
</event>
<event>
 3    0  0.4591805E-005  0.9118800E+02  0.7546771E-02  0.1235069E+00
         25   -1    0    0    0    0  0.00000000000E+00  0.00000000000E+00  0.99999998245E-14  0.12500000000E+03  0.12500000000E+03 0.  0.
          5    1    1    0  501    0  0.21757631307E+02 -0.26040729423E+02  0.52274715600E+02  0.62500000000E+02  0.47000000000E+01 0.  1.
         -5    1    1    0    0  501 -0.21757631307E+02  0.26040729423E+02 -0.52274715600E+02  0.62500000000E+02  0.47000000000E+01 0.  1.
</event>
<event>
 3    0  0.4591805E-005  0.9118800E+02  0.7546771E-02  0.1235069E+00
         25   -1    0    0    0    0  0.00000000000E+00  0.00000000000E+00  0.99999998245E-14  0.12500000000E+03  0.12500000000E+03 0.  0.
          5    1    1    0  501    0  0.73347749831E+01  0.25531479351E+02  0.56378228405E+02  0.62500000000E+02  0.47000000000E+01 0.  1.
         -5    1    1    0    0  501 -0.73347749831E+01 -0.25531479351E+02 -0.56378228405E+02  0.62500000000E+02  0.47000000000E+01 0.  1.
</event>
<event>
 3    0  0.4591805E-005  0.9118800E+02  0.7546771E-02  0.1235069E+00
         25   -1    0    0    0    0  0.00000000000E+00  0.00000000000E+00  0.99999998245E-14  0.12500000000E+03  0.12500000000E+03 0.  0.
          5    1    1    0  501    0  0.27945232598E+02  0.50985174361E+02 -0.22444063146E+02  0.62500000000E+02  0.47000000000E+01 0. -1.
         -5    1    1    0    0  501 -0.27945232598E+02 -0.50985174361E+02  0.22444063146E+02  0.62500000000E+02  0.47000000000E+01 0. -1.
</event>
<event>
 3    0  0.4591805E-005  0.9118800E+02  0.7546771E-02  0.1235069E+00
         25   -1    0    0    0    0  0.00000000000E+00  0.00000000000E+00  0.99999998245E-14  0.12500000000E+03  0.12500000000E+03 0.  0.
          5    1    1    0  501    0 -0.35488771786E+01 -0.17807357983E+02  0.59619321301E+02  0.62500000000E+02  0.47000000000E+01 0. -1.
         -5    1    1    0    0  501  0.35488771786E+01  0.17807357983E+02 -0.59619321301E+02  0.62500000000E+02  0.47000000000E+01 0. -1.
</event>
<event>
 3    0  0.4591805E-005  0.9118800E+02  0.7546771E-02  0.1235069E+00
         25   -1    0    0    0    0  0.00000000000E+00  0.00000000000E+00  0.99999998245E-14  0.12500000000E+03  0.12500000000E+03 0.  0.
          5    1    1    0  501    0 -0.31382721118E+02  0.35776807122E+00 -0.53843818747E+02  0.62500000000E+02  0.47000000000E+01 0. -1.
         -5    1    1    0    0  501  0.31382721118E+02 -0.35776807122E+00  0.53843818747E+02  0.62500000000E+02  0.47000000000E+01 0. -1.
</event>
<event>
 3    0  0.4591805E-005  0.9118800E+02  0.7546771E-02  0.1235069E+00
         25   -1    0    0    0    0  0.00000000000E+00  0.00000000000E+00  0.99999998245E-14  0.12500000000E+03  0.12500000000E+03 0.  0.
          5    1    1    0  501    0  0.39259750602E+02 -0.10894805800E+02  0.47160737794E+02  0.62500000000E+02  0.47000000000E+01 0. -1.
         -5    1    1    0    0  501 -0.39259750602E+02  0.10894805800E+02 -0.47160737794E+02  0.62500000000E+02  0.47000000000E+01 0. -1.
</event>
<event>
 3    0  0.4591805E-005  0.9118800E+02  0.7546771E-02  0.1235069E+00
         25   -1    0    0    0    0  0.00000000000E+00  0.00000000000E+00  0.99999998245E-14  0.12500000000E+03  0.12500000000E+03 0.  0.
          5    1    1    0  501    0 -0.38476270637E+02  0.47335385784E+02  0.12770976883E+02  0.62500000000E+02  0.47000000000E+01 0.  1.
         -5    1    1    0    0  501  0.38476270637E+02 -0.47335385784E+02 -0.12770976883E+02  0.62500000000E+02  0.47000000000E+01 0.  1.
</event>
<event>
 3    0  0.4591805E-005  0.9118800E+02  0.7546771E-02  0.1235069E+00
         25   -1    0    0    0    0  0.00000000000E+00  0.00000000000E+00  0.99999998245E-14  0.12500000000E+03  0.12500000000E+03 0.  0.
          5    1    1    0  501    0 -0.33110440059E+01  0.58270573301E+02  0.21857201897E+02  0.62500000000E+02  0.47000000000E+01 0.  1.
         -5    1    1    0    0  501  0.33110440059E+01 -0.58270573301E+02 -0.21857201897E+02  0.62500000000E+02  0.47000000000E+01 0.  1.
</event>
<event>
 3    0  0.4591805E-005  0.9118800E+02  0.7546771E-02  0.1235069E+00
         25   -1    0    0    0    0  0.00000000000E+00  0.00000000000E+00  0.99999998245E-14  0.12500000000E+03  0.12500000000E+03 0.  0.
          5    1    1    0  501    0 -0.30186258796E+02 -0.51752154778E+02 -0.17165787361E+02  0.62500000000E+02  0.47000000000E+01 0.  1.
         -5    1    1    0    0  501  0.30186258796E+02  0.51752154778E+02  0.17165787361E+02  0.62500000000E+02  0.47000000000E+01 0.  1.
</event>
<event>
 3    0  0.4591805E-005  0.9118800E+02  0.7546771E-02  0.1235069E+00
         25   -1    0    0    0    0  0.00000000000E+00  0.00000000000E+00  0.99999998245E-14  0.12500000000E+03  0.12500000000E+03 0.  0.
          5    1    1    0  501    0 -0.61005650019E+02 -0.31668411930E+01 -0.12346731659E+02  0.62500000000E+02  0.47000000000E+01 0.  1.
         -5    1    1    0    0  501  0.61005650019E+02  0.31668411930E+01  0.12346731659E+02  0.62500000000E+02  0.47000000000E+01 0.  1.
</event>
<event>
 3    0  0.4591805E-005  0.9118800E+02  0.7546771E-02  0.1235069E+00
         25   -1    0    0    0    0  0.00000000000E+00  0.00000000000E+00  0.99999998245E-14  0.12500000000E+03  0.12500000000E+03 0.  0.
          5    1    1    0  501    0  0.15538273214E+02  0.29607829603E+02  0.52593711523E+02  0.62500000000E+02  0.47000000000E+01 0. -1.
         -5    1    1    0    0  501 -0.15538273214E+02 -0.29607829603E+02 -0.52593711523E+02  0.62500000000E+02  0.47000000000E+01 0. -1.
</event>
<event>
 3    0  0.4591805E-005  0.9118800E+02  0.7546771E-02  0.1235069E+00
         25   -1    0    0    0    0  0.00000000000E+00  0.00000000000E+00  0.99999998245E-14  0.12500000000E+03  0.12500000000E+03 0.  0.
          5    1    1    0  501    0  0.48771654965E+02 -0.18351225860E+02  0.34186520464E+02  0.62500000000E+02  0.47000000000E+01 0.  1.
         -5    1    1    0    0  501 -0.48771654965E+02  0.18351225860E+02 -0.34186520464E+02  0.62500000000E+02  0.47000000000E+01 0.  1.
</event>
<event>
 3    0  0.4591805E-005  0.9118800E+02  0.7546771E-02  0.1235069E+00
         25   -1    0    0    0    0  0.00000000000E+00  0.00000000000E+00  0.99999998245E-14  0.12500000000E+03  0.12500000000E+03 0.  0.
          5    1    1    0  501    0 -0.44898113017E+01  0.35890718198E+02  0.50752910673E+02  0.62500000000E+02  0.47000000000E+01 0.  1.
         -5    1    1    0    0  501  0.44898113017E+01 -0.35890718198E+02 -0.50752910673E+02  0.62500000000E+02  0.47000000000E+01 0.  1.
</event>
<event>
 3    0  0.4591805E-005  0.9118800E+02  0.7546771E-02  0.1235069E+00
         25   -1    0    0    0    0  0.00000000000E+00  0.00000000000E+00  0.99999998245E-14  0.12500000000E+03  0.12500000000E+03 0.  0.
          5    1    1    0  501    0  0.43979894014E+02  0.19577875884E+02 -0.39580749088E+02  0.62500000000E+02  0.47000000000E+01 0.  1.
         -5    1    1    0    0  501 -0.43979894014E+02 -0.19577875884E+02  0.39580749088E+02  0.62500000000E+02  0.47000000000E+01 0.  1.
</event>
<event>
 3    0  0.4591805E-005  0.9118800E+02  0.7546771E-02  0.1235069E+00
         25   -1    0    0    0    0  0.00000000000E+00  0.00000000000E+00  0.99999998245E-14  0.12500000000E+03  0.12500000000E+03 0.  0.
          5    1    1    0  501    0 -0.33565343925E+02  0.80953516188E+00  0.52505926713E+02  0.62500000000E+02  0.47000000000E+01 0.  1.
         -5    1    1    0    0  501  0.33565343925E+02 -0.80953516188E+00 -0.52505926713E+02  0.62500000000E+02  0.47000000000E+01 0.  1.
</event>
<event>
 3    0  0.4591805E-005  0.9118800E+02  0.7546771E-02  0.1235069E+00
         25   -1    0    0    0    0  0.00000000000E+00  0.00000000000E+00  0.99999998245E-14  0.12500000000E+03  0.12500000000E+03 0.  0.
          5    1    1    0  501    0 -0.37417227118E+02  0.45215739723E+02 -0.20967784721E+02  0.62500000000E+02  0.47000000000E+01 0. -1.
         -5    1    1    0    0  501  0.37417227118E+02 -0.45215739723E+02  0.20967784721E+02  0.62500000000E+02  0.47000000000E+01 0. -1.
</event>
<event>
 3    0  0.4591805E-005  0.9118800E+02  0.7546771E-02  0.1235069E+00
         25   -1    0    0    0    0  0.00000000000E+00  0.00000000000E+00  0.99999998245E-14  0.12500000000E+03  0.12500000000E+03 0.  0.
          5    1    1    0  501    0 -0.60774159779E+01  0.57295547961E+02 -0.23758055453E+02  0.62500000000E+02  0.47000000000E+01 0.  1.
         -5    1    1    0    0  501  0.60774159779E+01 -0.57295547961E+02  0.23758055453E+02  0.62500000000E+02  0.47000000000E+01 0.  1.
</event>
<event>
 3    0  0.4591805E-005  0.9118800E+02  0.7546771E-02  0.1235069E+00
         25   -1    0    0    0    0  0.00000000000E+00  0.00000000000E+00  0.99999998245E-14  0.12500000000E+03  0.12500000000E+03 0.  0.
          5    1    1    0  501    0  0.32888866073E+02  0.47058684631E+02 -0.24247941960E+02  0.62500000000E+02  0.47000000000E+01 0.  1.
         -5    1    1    0    0  501 -0.32888866073E+02 -0.47058684631E+02  0.24247941960E+02  0.62500000000E+02  0.47000000000E+01 0.  1.
</event>
<event>
 3    0  0.4591805E-005  0.9118800E+02  0.7546771E-02  0.1235069E+00
         25   -1    0    0    0    0  0.00000000000E+00  0.00000000000E+00  0.99999998245E-14  0.12500000000E+03  0.12500000000E+03 0.  0.
          5    1    1    0  501    0  0.50413021961E+02  0.10752638419E+02 -0.35029530169E+02  0.62500000000E+02  0.47000000000E+01 0.  1.
         -5    1    1    0    0  501 -0.50413021961E+02 -0.10752638419E+02  0.35029530169E+02  0.62500000000E+02  0.47000000000E+01 0.  1.
</event>
<event>
 3    0  0.4591805E-005  0.9118800E+02  0.7546771E-02  0.1235069E+00
         25   -1    0    0    0    0  0.00000000000E+00  0.00000000000E+00  0.99999998245E-14  0.12500000000E+03  0.12500000000E+03 0.  0.
          5    1    1    0  501    0 -0.53361713208E+02 -0.16949690925E+00 -0.32197186745E+02  0.62500000000E+02  0.47000000000E+01 0. -1.
         -5    1    1    0    0  501  0.53361713208E+02  0.16949690925E+00  0.32197186745E+02  0.62500000000E+02  0.47000000000E+01 0. -1.
</event>
<event>
 3    0  0.4591805E-005  0.9118800E+02  0.7546771E-02  0.1235069E+00
         25   -1    0    0    0    0  0.00000000000E+00  0.00000000000E+00  0.99999998245E-14  0.12500000000E+03  0.12500000000E+03 0.  0.
          5    1    1    0  501    0 -0.21974506165E+01 -0.18321041037E+02  0.59528738153E+02  0.62500000000E+02  0.47000000000E+01 0.  1.
         -5    1    1    0    0  501  0.21974506165E+01  0.18321041037E+02 -0.59528738153E+02  0.62500000000E+02  0.47000000000E+01 0.  1.
</event>
<event>
 3    0  0.4591805E-005  0.9118800E+02  0.7546771E-02  0.1235069E+00
         25   -1    0    0    0    0  0.00000000000E+00  0.00000000000E+00  0.99999998245E-14  0.12500000000E+03  0.12500000000E+03 0.  0.
          5    1    1    0  501    0 -0.33037921916E+02  0.51070667008E+02 -0.13580967816E+02  0.62500000000E+02  0.47000000000E+01 0. -1.
         -5    1    1    0    0  501  0.33037921916E+02 -0.51070667008E+02  0.13580967816E+02  0.62500000000E+02  0.47000000000E+01 0. -1.
</event>
<event>
 3    0  0.4591805E-005  0.9118800E+02  0.7546771E-02  0.1235069E+00
         25   -1    0    0    0    0  0.00000000000E+00  0.00000000000E+00  0.99999998245E-14  0.12500000000E+03  0.12500000000E+03 0.  0.
          5    1    1    0  501    0  0.52679531468E+02  0.30965687138E+01 -0.33157777768E+02  0.62500000000E+02  0.47000000000E+01 0.  1.
         -5    1    1    0    0  501 -0.52679531468E+02 -0.30965687138E+01  0.33157777768E+02  0.62500000000E+02  0.47000000000E+01 0.  1.
</event>
<event>
 3    0  0.4591805E-005  0.9118800E+02  0.7546771E-02  0.1235069E+00
         25   -1    0    0    0    0  0.00000000000E+00  0.00000000000E+00  0.99999998245E-14  0.12500000000E+03  0.12500000000E+03 0.  0.
          5    1    1    0  501    0 -0.51475463448E+02 -0.32597907620E+02 -0.13107748914E+02  0.62500000000E+02  0.47000000000E+01 0.  1.
         -5    1    1    0    0  501  0.51475463448E+02  0.32597907620E+02  0.13107748914E+02  0.62500000000E+02  0.47000000000E+01 0.  1.
</event>
<event>
 3    0  0.4591805E-005  0.9118800E+02  0.7546771E-02  0.1235069E+00
         25   -1    0    0    0    0  0.00000000000E+00  0.00000000000E+00  0.99999998245E-14  0.12500000000E+03  0.12500000000E+03 0.  0.
          5    1    1    0  501    0 -0.18250611623E+02 -0.41684863297E+02 -0.42584590491E+02  0.62500000000E+02  0.47000000000E+01 0.  1.
         -5    1    1    0    0  501  0.18250611623E+02  0.41684863297E+02  0.42584590491E+02  0.62500000000E+02  0.47000000000E+01 0.  1.
</event>
<event>
 3    0  0.4591805E-005  0.9118800E+02  0.7546771E-02  0.1235069E+00
         25   -1    0    0    0    0  0.00000000000E+00  0.00000000000E+00  0.99999998245E-14  0.12500000000E+03  0.12500000000E+03 0.  0.
          5    1    1    0  501    0  0.42802245543E+02 -0.40744463126E+02  0.19799406582E+02  0.62500000000E+02  0.47000000000E+01 0. -1.
         -5    1    1    0    0  501 -0.42802245543E+02  0.40744463126E+02 -0.19799406582E+02  0.62500000000E+02  0.47000000000E+01 0. -1.
</event>
<event>
 3    0  0.4591805E-005  0.9118800E+02  0.7546771E-02  0.1235069E+00
         25   -1    0    0    0    0  0.00000000000E+00  0.00000000000E+00  0.99999998245E-14  0.12500000000E+03  0.12500000000E+03 0.  0.
          5    1    1    0  501    0  0.35132733609E+02  0.95214225710E+01 -0.50588472416E+02  0.62500000000E+02  0.47000000000E+01 0. -1.
         -5    1    1    0    0  501 -0.35132733609E+02 -0.95214225710E+01  0.50588472416E+02  0.62500000000E+02  0.47000000000E+01 0. -1.
</event>
<event>
 3    0  0.4591805E-005  0.9118800E+02  0.7546771E-02  0.1235069E+00
         25   -1    0    0    0    0  0.00000000000E+00  0.00000000000E+00  0.99999998245E-14  0.12500000000E+03  0.12500000000E+03 0.  0.
          5    1    1    0  501    0 -0.23707223051E+02 -0.30004170448E+02  0.49212572895E+02  0.62500000000E+02  0.47000000000E+01 0.  1.
         -5    1    1    0    0  501  0.23707223051E+02  0.30004170448E+02 -0.49212572895E+02  0.62500000000E+02  0.47000000000E+01 0.  1.
</event>
<event>
 3    0  0.4591805E-005  0.9118800E+02  0.7546771E-02  0.1235069E+00
         25   -1    0    0    0    0  0.00000000000E+00  0.00000000000E+00  0.99999998245E-14  0.12500000000E+03  0.12500000000E+03 0.  0.
          5    1    1    0  501    0  0.38607931980E+02 -0.47058630759E+02 -0.13381810762E+02  0.62500000000E+02  0.47000000000E+01 0. -1.
         -5    1    1    0    0  501 -0.38607931980E+02  0.47058630759E+02  0.13381810762E+02  0.62500000000E+02  0.47000000000E+01 0. -1.
</event>
<event>
 3    0  0.4591805E-005  0.9118800E+02  0.7546771E-02  0.1235069E+00
         25   -1    0    0    0    0  0.00000000000E+00  0.00000000000E+00  0.99999998245E-14  0.12500000000E+03  0.12500000000E+03 0.  0.
          5    1    1    0  501    0 -0.17042346203E+02  0.27366337096E+02 -0.53336685591E+02  0.62500000000E+02  0.47000000000E+01 0. -1.
         -5    1    1    0    0  501  0.17042346203E+02 -0.27366337096E+02  0.53336685591E+02  0.62500000000E+02  0.47000000000E+01 0. -1.
</event>
<event>
 3    0  0.4591805E-005  0.9118800E+02  0.7546771E-02  0.1235069E+00
         25   -1    0    0    0    0  0.00000000000E+00  0.00000000000E+00  0.99999998245E-14  0.12500000000E+03  0.12500000000E+03 0.  0.
          5    1    1    0  501    0 -0.43358143576E+02  0.32301765847E+02 -0.30997214533E+02  0.62500000000E+02  0.47000000000E+01 0.  1.
         -5    1    1    0    0  501  0.43358143576E+02 -0.32301765847E+02  0.30997214533E+02  0.62500000000E+02  0.47000000000E+01 0.  1.
</event>
<event>
 3    0  0.4591805E-005  0.9118800E+02  0.7546771E-02  0.1235069E+00
         25   -1    0    0    0    0  0.00000000000E+00  0.00000000000E+00  0.99999998245E-14  0.12500000000E+03  0.12500000000E+03 0.  0.
          5    1    1    0  501    0 -0.51847507504E+02 -0.30889297309E+02  0.15551439721E+02  0.62500000000E+02  0.47000000000E+01 0. -1.
         -5    1    1    0    0  501  0.51847507504E+02  0.30889297309E+02 -0.15551439721E+02  0.62500000000E+02  0.47000000000E+01 0. -1.
</event>
<event>
 3    0  0.4591805E-005  0.9118800E+02  0.7546771E-02  0.1235069E+00
         25   -1    0    0    0    0  0.00000000000E+00  0.00000000000E+00  0.99999998245E-14  0.12500000000E+03  0.12500000000E+03 0.  0.
          5    1    1    0  501    0 -0.22204635180E+01  0.33054360951E+02  0.52788623432E+02  0.62500000000E+02  0.47000000000E+01 0.  1.
         -5    1    1    0    0  501  0.22204635180E+01 -0.33054360951E+02 -0.52788623432E+02  0.62500000000E+02  0.47000000000E+01 0.  1.
</event>
<event>
 3    0  0.4591805E-005  0.9118800E+02  0.7546771E-02  0.1235069E+00
         25   -1    0    0    0    0  0.00000000000E+00  0.00000000000E+00  0.99999998245E-14  0.12500000000E+03  0.12500000000E+03 0.  0.
          5    1    1    0  501    0  0.60912573146E+02  0.66436328217E+01 -0.11387737951E+02  0.62500000000E+02  0.47000000000E+01 0. -1.
         -5    1    1    0    0  501 -0.60912573146E+02 -0.66436328217E+01  0.11387737951E+02  0.62500000000E+02  0.47000000000E+01 0. -1.
</event>
<event>
 3    0  0.4591805E-005  0.9118800E+02  0.7546771E-02  0.1235069E+00
         25   -1    0    0    0    0  0.00000000000E+00  0.00000000000E+00  0.99999998245E-14  0.12500000000E+03  0.12500000000E+03 0.  0.
          5    1    1    0  501    0  0.39381119415E+02  0.24473576431E+02 -0.41645305741E+02  0.62500000000E+02  0.47000000000E+01 0.  1.
         -5    1    1    0    0  501 -0.39381119415E+02 -0.24473576431E+02  0.41645305741E+02  0.62500000000E+02  0.47000000000E+01 0.  1.
</event>
<event>
 3    0  0.4591805E-005  0.9118800E+02  0.7546771E-02  0.1235069E+00
         25   -1    0    0    0    0  0.00000000000E+00  0.00000000000E+00  0.99999998245E-14  0.12500000000E+03  0.12500000000E+03 0.  0.
          5    1    1    0  501    0 -0.35487211974E+02 -0.25639405088E+02  0.44355819156E+02  0.62500000000E+02  0.47000000000E+01 0.  1.
         -5    1    1    0    0  501  0.35487211974E+02  0.25639405088E+02 -0.44355819156E+02  0.62500000000E+02  0.47000000000E+01 0.  1.
</event>
<event>
 3    0  0.4591805E-005  0.9118800E+02  0.7546771E-02  0.1235069E+00
         25   -1    0    0    0    0  0.00000000000E+00  0.00000000000E+00  0.99999998245E-14  0.12500000000E+03  0.12500000000E+03 0.  0.
          5    1    1    0  501    0 -0.51641753973E+02  0.32998349553E+02  0.11331291777E+02  0.62500000000E+02  0.47000000000E+01 0. -1.
         -5    1    1    0    0  501  0.51641753973E+02 -0.32998349553E+02 -0.11331291777E+02  0.62500000000E+02  0.47000000000E+01 0. -1.
</event>
<event>
 3    0  0.4591805E-005  0.9118800E+02  0.7546771E-02  0.1235069E+00
         25   -1    0    0    0    0  0.00000000000E+00  0.00000000000E+00  0.99999998245E-14  0.12500000000E+03  0.12500000000E+03 0.  0.
          5    1    1    0  501    0 -0.26750352136E+01 -0.49670424071E+02 -0.37548011389E+02  0.62500000000E+02  0.47000000000E+01 0.  1.
         -5    1    1    0    0  501  0.26750352136E+01  0.49670424071E+02  0.37548011389E+02  0.62500000000E+02  0.47000000000E+01 0.  1.
</event>
<event>
 3    0  0.4591805E-005  0.9118800E+02  0.7546771E-02  0.1235069E+00
         25   -1    0    0    0    0  0.00000000000E+00  0.00000000000E+00  0.99999998245E-14  0.12500000000E+03  0.12500000000E+03 0.  0.
          5    1    1    0  501    0  0.44702351608E+02 -0.25220959543E+02 -0.35351986656E+02  0.62500000000E+02  0.47000000000E+01 0.  1.
         -5    1    1    0    0  501 -0.44702351608E+02  0.25220959543E+02  0.35351986656E+02  0.62500000000E+02  0.47000000000E+01 0.  1.
</event>
<event>
 3    0  0.4591805E-005  0.9118800E+02  0.7546771E-02  0.1235069E+00
         25   -1    0    0    0    0  0.00000000000E+00  0.00000000000E+00  0.99999998245E-14  0.12500000000E+03  0.12500000000E+03 0.  0.
          5    1    1    0  501    0 -0.33348701558E+02  0.40022400513E+02 -0.34208647467E+02  0.62500000000E+02  0.47000000000E+01 0.  1.
         -5    1    1    0    0  501  0.33348701558E+02 -0.40022400513E+02  0.34208647467E+02  0.62500000000E+02  0.47000000000E+01 0.  1.
</event>
<event>
 3    0  0.4591805E-005  0.9118800E+02  0.7546771E-02  0.1235069E+00
         25   -1    0    0    0    0  0.00000000000E+00  0.00000000000E+00  0.99999998245E-14  0.12500000000E+03  0.12500000000E+03 0.  0.
          5    1    1    0  501    0  0.45646355542E+02  0.10618492717E+01  0.42419838541E+02  0.62500000000E+02  0.47000000000E+01 0. -1.
         -5    1    1    0    0  501 -0.45646355542E+02 -0.10618492717E+01 -0.42419838541E+02  0.62500000000E+02  0.47000000000E+01 0. -1.
</event>
<event>
 3    0  0.4591805E-005  0.9118800E+02  0.7546771E-02  0.1235069E+00
         25   -1    0    0    0    0  0.00000000000E+00  0.00000000000E+00  0.99999998245E-14  0.12500000000E+03  0.12500000000E+03 0.  0.
          5    1    1    0  501    0  0.35888488893E+02 -0.42479033338E+02  0.28137307825E+02  0.62500000000E+02  0.47000000000E+01 0. -1.
         -5    1    1    0    0  501 -0.35888488893E+02  0.42479033338E+02 -0.28137307825E+02  0.62500000000E+02  0.47000000000E+01 0. -1.
</event>
<event>
 3    0  0.4591805E-005  0.9118800E+02  0.7546771E-02  0.1235069E+00
         25   -1    0    0    0    0  0.00000000000E+00  0.00000000000E+00  0.99999998245E-14  0.12500000000E+03  0.12500000000E+03 0.  0.
          5    1    1    0  501    0  0.50259945723E+02  0.36153104203E+02  0.71449921197E+01  0.62500000000E+02  0.47000000000E+01 0. -1.
         -5    1    1    0    0  501 -0.50259945723E+02 -0.36153104203E+02 -0.71449921197E+01  0.62500000000E+02  0.47000000000E+01 0. -1.
</event>
<event>
 3    0  0.4591805E-005  0.9118800E+02  0.7546771E-02  0.1235069E+00
         25   -1    0    0    0    0  0.00000000000E+00  0.00000000000E+00  0.99999998245E-14  0.12500000000E+03  0.12500000000E+03 0.  0.
          5    1    1    0  501    0 -0.29369270472E+02 -0.81114977517E+01 -0.54367357451E+02  0.62500000000E+02  0.47000000000E+01 0. -1.
         -5    1    1    0    0  501  0.29369270472E+02  0.81114977517E+01  0.54367357451E+02  0.62500000000E+02  0.47000000000E+01 0. -1.
</event>
<event>
 3    0  0.4591805E-005  0.9118800E+02  0.7546771E-02  0.1235069E+00
         25   -1    0    0    0    0  0.00000000000E+00  0.00000000000E+00  0.99999998245E-14  0.12500000000E+03  0.12500000000E+03 0.  0.
          5    1    1    0  501    0  0.53293055088E+02 -0.11566283827E+02  0.30170040732E+02  0.62500000000E+02  0.47000000000E+01 0. -1.
         -5    1    1    0    0  501 -0.53293055088E+02  0.11566283827E+02 -0.30170040732E+02  0.62500000000E+02  0.47000000000E+01 0. -1.
</event>
<event>
 3    0  0.4591805E-005  0.9118800E+02  0.7546771E-02  0.1235069E+00
         25   -1    0    0    0    0  0.00000000000E+00  0.00000000000E+00  0.99999998245E-14  0.12500000000E+03  0.12500000000E+03 0.  0.
          5    1    1    0  501    0  0.22855941772E+02  0.45062222246E+02 -0.36485093558E+02  0.62500000000E+02  0.47000000000E+01 0. -1.
         -5    1    1    0    0  501 -0.22855941772E+02 -0.45062222246E+02  0.36485093558E+02  0.62500000000E+02  0.47000000000E+01 0. -1.
</event>
<event>
 3    0  0.4591805E-005  0.9118800E+02  0.7546771E-02  0.1235069E+00
         25   -1    0    0    0    0  0.00000000000E+00  0.00000000000E+00  0.99999998245E-14  0.12500000000E+03  0.12500000000E+03 0.  0.
          5    1    1    0  501    0  0.10509704576E+02 -0.12682018121E+02 -0.60107175329E+02  0.62500000000E+02  0.47000000000E+01 0.  1.
         -5    1    1    0    0  501 -0.10509704576E+02  0.12682018121E+02  0.60107175329E+02  0.62500000000E+02  0.47000000000E+01 0.  1.
</event>
<event>
 3    0  0.4591805E-005  0.9118800E+02  0.7546771E-02  0.1235069E+00
         25   -1    0    0    0    0  0.00000000000E+00  0.00000000000E+00  0.99999998245E-14  0.12500000000E+03  0.12500000000E+03 0.  0.
          5    1    1    0  501    0 -0.36440350437E+02 -0.44328002256E+02 -0.24316436334E+02  0.62500000000E+02  0.47000000000E+01 0. -1.
         -5    1    1    0    0  501  0.36440350437E+02  0.44328002256E+02  0.24316436334E+02  0.62500000000E+02  0.47000000000E+01 0. -1.
</event>
<event>
 3    0  0.4591805E-005  0.9118800E+02  0.7546771E-02  0.1235069E+00
         25   -1    0    0    0    0  0.00000000000E+00  0.00000000000E+00  0.99999998245E-14  0.12500000000E+03  0.12500000000E+03 0.  0.
          5    1    1    0  501    0 -0.37152572296E+02  0.35273129341E+02 -0.35491586584E+02  0.62500000000E+02  0.47000000000E+01 0. -1.
         -5    1    1    0    0  501  0.37152572296E+02 -0.35273129341E+02  0.35491586584E+02  0.62500000000E+02  0.47000000000E+01 0. -1.
</event>
<event>
 3    0  0.4591805E-005  0.9118800E+02  0.7546771E-02  0.1235069E+00
         25   -1    0    0    0    0  0.00000000000E+00  0.00000000000E+00  0.99999998245E-14  0.12500000000E+03  0.12500000000E+03 0.  0.
          5    1    1    0  501    0  0.20156388730E+01 -0.14004933600E+02 -0.60695626159E+02  0.62500000000E+02  0.47000000000E+01 0. -1.
         -5    1    1    0    0  501 -0.20156388730E+01  0.14004933600E+02  0.60695626159E+02  0.62500000000E+02  0.47000000000E+01 0. -1.
</event>
<event>
 3    0  0.4591805E-005  0.9118800E+02  0.7546771E-02  0.1235069E+00
         25   -1    0    0    0    0  0.00000000000E+00  0.00000000000E+00  0.99999998245E-14  0.12500000000E+03  0.12500000000E+03 0.  0.
          5    1    1    0  501    0 -0.50702598303E+02 -0.22047092583E+02 -0.28763383561E+02  0.62500000000E+02  0.47000000000E+01 0.  1.
         -5    1    1    0    0  501  0.50702598303E+02  0.22047092583E+02  0.28763383561E+02  0.62500000000E+02  0.47000000000E+01 0.  1.
</event>
<event>
 3    0  0.4591805E-005  0.9118800E+02  0.7546771E-02  0.1235069E+00
         25   -1    0    0    0    0  0.00000000000E+00  0.00000000000E+00  0.99999998245E-14  0.12500000000E+03  0.12500000000E+03 0.  0.
          5    1    1    0  501    0  0.61173220478E+02  0.99179813306E+01  0.66053571152E+01  0.62500000000E+02  0.47000000000E+01 0. -1.
         -5    1    1    0    0  501 -0.61173220478E+02 -0.99179813306E+01 -0.66053571152E+01  0.62500000000E+02  0.47000000000E+01 0. -1.
</event>
<event>
 3    0  0.4591805E-005  0.9118800E+02  0.7546771E-02  0.1235069E+00
         25   -1    0    0    0    0  0.00000000000E+00  0.00000000000E+00  0.99999998245E-14  0.12500000000E+03  0.12500000000E+03 0.  0.
          5    1    1    0  501    0  0.27884609599E+02 -0.22412735196E+02 -0.51032125652E+02  0.62500000000E+02  0.47000000000E+01 0.  1.
         -5    1    1    0    0  501 -0.27884609599E+02  0.22412735196E+02  0.51032125652E+02  0.62500000000E+02  0.47000000000E+01 0.  1.
</event>
<event>
 3    0  0.4591805E-005  0.9118800E+02  0.7546771E-02  0.1235069E+00
         25   -1    0    0    0    0  0.00000000000E+00  0.00000000000E+00  0.99999998245E-14  0.12500000000E+03  0.12500000000E+03 0.  0.
          5    1    1    0  501    0 -0.23315278055E+02  0.77406752081E+01  0.57276869298E+02  0.62500000000E+02  0.47000000000E+01 0.  1.
         -5    1    1    0    0  501  0.23315278055E+02 -0.77406752081E+01 -0.57276869298E+02  0.62500000000E+02  0.47000000000E+01 0.  1.
</event>
<event>
 3    0  0.4591805E-005  0.9118800E+02  0.7546771E-02  0.1235069E+00
         25   -1    0    0    0    0  0.00000000000E+00  0.00000000000E+00  0.99999998245E-14  0.12500000000E+03  0.12500000000E+03 0.  0.
          5    1    1    0  501    0  0.25271968503E+02  0.36686450238E+02  0.43584308839E+02  0.62500000000E+02  0.47000000000E+01 0. -1.
         -5    1    1    0    0  501 -0.25271968503E+02 -0.36686450238E+02 -0.43584308839E+02  0.62500000000E+02  0.47000000000E+01 0. -1.
</event>
<event>
 3    0  0.4591805E-005  0.9118800E+02  0.7546771E-02  0.1235069E+00
         25   -1    0    0    0    0  0.00000000000E+00  0.00000000000E+00  0.99999998245E-14  0.12500000000E+03  0.12500000000E+03 0.  0.
          5    1    1    0  501    0  0.40116191515E+02  0.29458200116E+02  0.37510873413E+02  0.62500000000E+02  0.47000000000E+01 0. -1.
         -5    1    1    0    0  501 -0.40116191515E+02 -0.29458200116E+02 -0.37510873413E+02  0.62500000000E+02  0.47000000000E+01 0. -1.
</event>
<event>
 3    0  0.4591805E-005  0.9118800E+02  0.7546771E-02  0.1235069E+00
         25   -1    0    0    0    0  0.00000000000E+00  0.00000000000E+00  0.99999998245E-14  0.12500000000E+03  0.12500000000E+03 0.  0.
          5    1    1    0  501    0 -0.18081121809E+02 -0.41151833016E+02  0.43171282973E+02  0.62500000000E+02  0.47000000000E+01 0. -1.
         -5    1    1    0    0  501  0.18081121809E+02  0.41151833016E+02 -0.43171282973E+02  0.62500000000E+02  0.47000000000E+01 0. -1.
</event>
<event>
 3    0  0.4591805E-005  0.9118800E+02  0.7546771E-02  0.1235069E+00
         25   -1    0    0    0    0  0.00000000000E+00  0.00000000000E+00  0.99999998245E-14  0.12500000000E+03  0.12500000000E+03 0.  0.
          5    1    1    0  501    0  0.45384272787E+02 -0.10258868192E+02 -0.41463036636E+02  0.62500000000E+02  0.47000000000E+01 0. -1.
         -5    1    1    0    0  501 -0.45384272787E+02  0.10258868192E+02  0.41463036636E+02  0.62500000000E+02  0.47000000000E+01 0. -1.
</event>
<event>
 3    0  0.4591805E-005  0.9118800E+02  0.7546771E-02  0.1235069E+00
         25   -1    0    0    0    0  0.00000000000E+00  0.00000000000E+00  0.99999998245E-14  0.12500000000E+03  0.12500000000E+03 0.  0.
          5    1    1    0  501    0 -0.17306313771E+02  0.57763124173E+02  0.15750332995E+02  0.62500000000E+02  0.47000000000E+01 0.  1.
         -5    1    1    0    0  501  0.17306313771E+02 -0.57763124173E+02 -0.15750332995E+02  0.62500000000E+02  0.47000000000E+01 0.  1.
</event>
<event>
 3    0  0.4591805E-005  0.9118800E+02  0.7546771E-02  0.1235069E+00
         25   -1    0    0    0    0  0.00000000000E+00  0.00000000000E+00  0.99999998245E-14  0.12500000000E+03  0.12500000000E+03 0.  0.
          5    1    1    0  501    0  0.40807238166E+02  0.40167472374E+02  0.24606980237E+02  0.62500000000E+02  0.47000000000E+01 0. -1.
         -5    1    1    0    0  501 -0.40807238166E+02 -0.40167472374E+02 -0.24606980237E+02  0.62500000000E+02  0.47000000000E+01 0. -1.
</event>
<event>
 3    0  0.4591805E-005  0.9118800E+02  0.7546771E-02  0.1235069E+00
         25   -1    0    0    0    0  0.00000000000E+00  0.00000000000E+00  0.99999998245E-14  0.12500000000E+03  0.12500000000E+03 0.  0.
          5    1    1    0  501    0  0.31248306425E+01 -0.61741751555E+02 -0.78962996620E+01  0.62500000000E+02  0.47000000000E+01 0. -1.
         -5    1    1    0    0  501 -0.31248306425E+01  0.61741751555E+02  0.78962996620E+01  0.62500000000E+02  0.47000000000E+01 0. -1.
</event>
<event>
 3    0  0.4591805E-005  0.9118800E+02  0.7546771E-02  0.1235069E+00
         25   -1    0    0    0    0  0.00000000000E+00  0.00000000000E+00  0.99999998245E-14  0.12500000000E+03  0.12500000000E+03 0.  0.
          5    1    1    0  501    0  0.17354554848E+02  0.14411988864E+02  0.58097108388E+02  0.62500000000E+02  0.47000000000E+01 0.  1.
         -5    1    1    0    0  501 -0.17354554848E+02 -0.14411988864E+02 -0.58097108388E+02  0.62500000000E+02  0.47000000000E+01 0.  1.
</event>
<event>
 3    0  0.4591805E-005  0.9118800E+02  0.7546771E-02  0.1235069E+00
         25   -1    0    0    0    0  0.00000000000E+00  0.00000000000E+00  0.99999998245E-14  0.12500000000E+03  0.12500000000E+03 0.  0.
          5    1    1    0  501    0  0.45557486046E+02  0.38060786824E+01 -0.42357870936E+02  0.62500000000E+02  0.47000000000E+01 0.  1.
         -5    1    1    0    0  501 -0.45557486046E+02 -0.38060786824E+01  0.42357870936E+02  0.62500000000E+02  0.47000000000E+01 0.  1.
</event>
<event>
 3    0  0.4591805E-005  0.9118800E+02  0.7546771E-02  0.1235069E+00
         25   -1    0    0    0    0  0.00000000000E+00  0.00000000000E+00  0.99999998245E-14  0.12500000000E+03  0.12500000000E+03 0.  0.
          5    1    1    0  501    0 -0.54015956449E+01  0.59548720762E+02 -0.17576479172E+02  0.62500000000E+02  0.47000000000E+01 0.  1.
         -5    1    1    0    0  501  0.54015956449E+01 -0.59548720762E+02  0.17576479172E+02  0.62500000000E+02  0.47000000000E+01 0.  1.
</event>
<event>
 3    0  0.4591805E-005  0.9118800E+02  0.7546771E-02  0.1235069E+00
         25   -1    0    0    0    0  0.00000000000E+00  0.00000000000E+00  0.99999998245E-14  0.12500000000E+03  0.12500000000E+03 0.  0.
          5    1    1    0  501    0 -0.45106205775E+02 -0.27493822073E+02 -0.33070832290E+02  0.62500000000E+02  0.47000000000E+01 0.  1.
         -5    1    1    0    0  501  0.45106205775E+02  0.27493822073E+02  0.33070832290E+02  0.62500000000E+02  0.47000000000E+01 0.  1.
</event>
<event>
 3    0  0.4591805E-005  0.9118800E+02  0.7546771E-02  0.1235069E+00
         25   -1    0    0    0    0  0.00000000000E+00  0.00000000000E+00  0.99999998245E-14  0.12500000000E+03  0.12500000000E+03 0.  0.
          5    1    1    0  501    0  0.34513814188E+02  0.50881946950E+02  0.10197259673E+02  0.62500000000E+02  0.47000000000E+01 0.  1.
         -5    1    1    0    0  501 -0.34513814188E+02 -0.50881946950E+02 -0.10197259673E+02  0.62500000000E+02  0.47000000000E+01 0.  1.
</event>
<event>
 3    0  0.4591805E-005  0.9118800E+02  0.7546771E-02  0.1235069E+00
         25   -1    0    0    0    0  0.00000000000E+00  0.00000000000E+00  0.99999998245E-14  0.12500000000E+03  0.12500000000E+03 0.  0.
          5    1    1    0  501    0  0.10164453809E+02  0.30589361483E+02  0.53339805426E+02  0.62500000000E+02  0.47000000000E+01 0. -1.
         -5    1    1    0    0  501 -0.10164453809E+02 -0.30589361483E+02 -0.53339805426E+02  0.62500000000E+02  0.47000000000E+01 0. -1.
</event>
<event>
 3    0  0.4591805E-005  0.9118800E+02  0.7546771E-02  0.1235069E+00
         25   -1    0    0    0    0  0.00000000000E+00  0.00000000000E+00  0.99999998245E-14  0.12500000000E+03  0.12500000000E+03 0.  0.
          5    1    1    0  501    0 -0.38163113376E+02 -0.47624599294E+02  0.12634647583E+02  0.62500000000E+02  0.47000000000E+01 0.  1.
         -5    1    1    0    0  501  0.38163113376E+02  0.47624599294E+02 -0.12634647583E+02  0.62500000000E+02  0.47000000000E+01 0.  1.
</event>
<event>
 3    0  0.4591805E-005  0.9118800E+02  0.7546771E-02  0.1235069E+00
         25   -1    0    0    0    0  0.00000000000E+00  0.00000000000E+00  0.99999998245E-14  0.12500000000E+03  0.12500000000E+03 0.  0.
          5    1    1    0  501    0 -0.31631015494E+02 -0.35354208821E+02 -0.40419287197E+02  0.62500000000E+02  0.47000000000E+01 0. -1.
         -5    1    1    0    0  501  0.31631015494E+02  0.35354208821E+02  0.40419287197E+02  0.62500000000E+02  0.47000000000E+01 0. -1.
</event>
<event>
 3    0  0.4591805E-005  0.9118800E+02  0.7546771E-02  0.1235069E+00
         25   -1    0    0    0    0  0.00000000000E+00  0.00000000000E+00  0.99999998245E-14  0.12500000000E+03  0.12500000000E+03 0.  0.
          5    1    1    0  501    0  0.41262868685E+02 -0.28392263810E+01 -0.46620536907E+02  0.62500000000E+02  0.47000000000E+01 0. -1.
         -5    1    1    0    0  501 -0.41262868685E+02  0.28392263810E+01  0.46620536907E+02  0.62500000000E+02  0.47000000000E+01 0. -1.
</event>
<event>
 3    0  0.4591805E-005  0.9118800E+02  0.7546771E-02  0.1235069E+00
         25   -1    0    0    0    0  0.00000000000E+00  0.00000000000E+00  0.99999998245E-14  0.12500000000E+03  0.12500000000E+03 0.  0.
          5    1    1    0  501    0  0.49362952775E+01 -0.59482612685E+02  0.17933537776E+02  0.62500000000E+02  0.47000000000E+01 0. -1.
         -5    1    1    0    0  501 -0.49362952775E+01  0.59482612685E+02 -0.17933537776E+02  0.62500000000E+02  0.47000000000E+01 0. -1.
</event>
<event>
 3    0  0.4591805E-005  0.9118800E+02  0.7546771E-02  0.1235069E+00
         25   -1    0    0    0    0  0.00000000000E+00  0.00000000000E+00  0.99999998245E-14  0.12500000000E+03  0.12500000000E+03 0.  0.
          5    1    1    0  501    0 -0.54569516923E+02 -0.14732318352E+02 -0.26254268582E+02  0.62500000000E+02  0.47000000000E+01 0.  1.
         -5    1    1    0    0  501  0.54569516923E+02  0.14732318352E+02  0.26254268582E+02  0.62500000000E+02  0.47000000000E+01 0.  1.
</event>
<event>
 3    0  0.4591805E-005  0.9118800E+02  0.7546771E-02  0.1235069E+00
         25   -1    0    0    0    0  0.00000000000E+00  0.00000000000E+00  0.99999998245E-14  0.12500000000E+03  0.12500000000E+03 0.  0.
          5    1    1    0  501    0 -0.25675966704E+02 -0.19919027164E+02 -0.53180232142E+02  0.62500000000E+02  0.47000000000E+01 0. -1.
         -5    1    1    0    0  501  0.25675966704E+02  0.19919027164E+02  0.53180232142E+02  0.62500000000E+02  0.47000000000E+01 0. -1.
</event>
<event>
 3    0  0.4591805E-005  0.9118800E+02  0.7546771E-02  0.1235069E+00
         25   -1    0    0    0    0  0.00000000000E+00  0.00000000000E+00  0.99999998245E-14  0.12500000000E+03  0.12500000000E+03 0.  0.
          5    1    1    0  501    0 -0.43472196624E+01  0.50991383765E+02  0.35568813066E+02  0.62500000000E+02  0.47000000000E+01 0.  1.
         -5    1    1    0    0  501  0.43472196624E+01 -0.50991383765E+02 -0.35568813066E+02  0.62500000000E+02  0.47000000000E+01 0.  1.
</event>
<event>
 3    0  0.4591805E-005  0.9118800E+02  0.7546771E-02  0.1235069E+00
         25   -1    0    0    0    0  0.00000000000E+00  0.00000000000E+00  0.99999998245E-14  0.12500000000E+03  0.12500000000E+03 0.  0.
          5    1    1    0  501    0 -0.29723319489E+02 -0.50754579828E+02 -0.20607205172E+02  0.62500000000E+02  0.47000000000E+01 0.  1.
         -5    1    1    0    0  501  0.29723319489E+02  0.50754579828E+02  0.20607205172E+02  0.62500000000E+02  0.47000000000E+01 0.  1.
</event>
<event>
 3    0  0.4591805E-005  0.9118800E+02  0.7546771E-02  0.1235069E+00
         25   -1    0    0    0    0  0.00000000000E+00  0.00000000000E+00  0.99999998245E-14  0.12500000000E+03  0.12500000000E+03 0.  0.
          5    1    1    0  501    0 -0.27477316560E+02  0.47186184582E+02 -0.30043652561E+02  0.62500000000E+02  0.47000000000E+01 0. -1.
         -5    1    1    0    0  501  0.27477316560E+02 -0.47186184582E+02  0.30043652561E+02  0.62500000000E+02  0.47000000000E+01 0. -1.
</event>
<event>
 3    0  0.4591805E-005  0.9118800E+02  0.7546771E-02  0.1235069E+00
         25   -1    0    0    0    0  0.00000000000E+00  0.00000000000E+00  0.99999998245E-14  0.12500000000E+03  0.12500000000E+03 0.  0.
          5    1    1    0  501    0 -0.54210627888E+02  0.29517643476E+02 -0.86067733545E+01  0.62500000000E+02  0.47000000000E+01 0. -1.
         -5    1    1    0    0  501  0.54210627888E+02 -0.29517643476E+02  0.86067733545E+01  0.62500000000E+02  0.47000000000E+01 0. -1.
</event>
<event>
 3    0  0.4591805E-005  0.9118800E+02  0.7546771E-02  0.1235069E+00
         25   -1    0    0    0    0  0.00000000000E+00  0.00000000000E+00  0.99999998245E-14  0.12500000000E+03  0.12500000000E+03 0.  0.
          5    1    1    0  501    0  0.59882096835E+02 -0.14429025998E+02 -0.94919801650E+01  0.62500000000E+02  0.47000000000E+01 0. -1.
         -5    1    1    0    0  501 -0.59882096835E+02  0.14429025998E+02  0.94919801650E+01  0.62500000000E+02  0.47000000000E+01 0. -1.
</event>
<event>
 3    0  0.4591805E-005  0.9118800E+02  0.7546771E-02  0.1235069E+00
         25   -1    0    0    0    0  0.00000000000E+00  0.00000000000E+00  0.99999998245E-14  0.12500000000E+03  0.12500000000E+03 0.  0.
          5    1    1    0  501    0  0.52390298616E+02  0.33755133468E+02  0.87036986447E-01  0.62500000000E+02  0.47000000000E+01 0. -1.
         -5    1    1    0    0  501 -0.52390298616E+02 -0.33755133468E+02 -0.87036986447E-01  0.62500000000E+02  0.47000000000E+01 0. -1.
</event>
<event>
 3    0  0.4591805E-005  0.9118800E+02  0.7546771E-02  0.1235069E+00
         25   -1    0    0    0    0  0.00000000000E+00  0.00000000000E+00  0.99999998245E-14  0.12500000000E+03  0.12500000000E+03 0.  0.
          5    1    1    0  501    0  0.46695867034E+02 -0.23761141839E+02 -0.33750024304E+02  0.62500000000E+02  0.47000000000E+01 0.  1.
         -5    1    1    0    0  501 -0.46695867034E+02  0.23761141839E+02  0.33750024304E+02  0.62500000000E+02  0.47000000000E+01 0.  1.
</event>
<event>
 3    0  0.4591805E-005  0.9118800E+02  0.7546771E-02  0.1235069E+00
         25   -1    0    0    0    0  0.00000000000E+00  0.00000000000E+00  0.99999998245E-14  0.12500000000E+03  0.12500000000E+03 0.  0.
          5    1    1    0  501    0  0.55504926717E+02 -0.28312642374E+02  0.13256666089E+01  0.62500000000E+02  0.47000000000E+01 0.  1.
         -5    1    1    0    0  501 -0.55504926717E+02  0.28312642374E+02 -0.13256666089E+01  0.62500000000E+02  0.47000000000E+01 0.  1.
</event>
<event>
 3    0  0.4591805E-005  0.9118800E+02  0.7546771E-02  0.1235069E+00
         25   -1    0    0    0    0  0.00000000000E+00  0.00000000000E+00  0.99999998245E-14  0.12500000000E+03  0.12500000000E+03 0.  0.
          5    1    1    0  501    0 -0.61498476646E+02  0.87754807412E+01 -0.50088230129E+01  0.62500000000E+02  0.47000000000E+01 0.  1.
         -5    1    1    0    0  501  0.61498476646E+02 -0.87754807412E+01  0.50088230129E+01  0.62500000000E+02  0.47000000000E+01 0.  1.
</event>
<event>
 3    0  0.4591805E-005  0.9118800E+02  0.7546771E-02  0.1235069E+00
         25   -1    0    0    0    0  0.00000000000E+00  0.00000000000E+00  0.99999998245E-14  0.12500000000E+03  0.12500000000E+03 0.  0.
          5    1    1    0  501    0 -0.52913471586E+02 -0.27099246465E+01  0.32817386141E+02  0.62500000000E+02  0.47000000000E+01 0. -1.
         -5    1    1    0    0  501  0.52913471586E+02  0.27099246465E+01 -0.32817386141E+02  0.62500000000E+02  0.47000000000E+01 0. -1.
</event>
<event>
 3    0  0.4591805E-005  0.9118800E+02  0.7546771E-02  0.1235069E+00
         25   -1    0    0    0    0  0.00000000000E+00  0.00000000000E+00  0.99999998245E-14  0.12500000000E+03  0.12500000000E+03 0.  0.
          5    1    1    0  501    0  0.59065622431E+01 -0.50390883518E+02  0.36194355648E+02  0.62500000000E+02  0.47000000000E+01 0. -1.
         -5    1    1    0    0  501 -0.59065622431E+01  0.50390883518E+02 -0.36194355648E+02  0.62500000000E+02  0.47000000000E+01 0. -1.
</event>
<event>
 3    0  0.4591805E-005  0.9118800E+02  0.7546771E-02  0.1235069E+00
         25   -1    0    0    0    0  0.00000000000E+00  0.00000000000E+00  0.99999998245E-14  0.12500000000E+03  0.12500000000E+03 0.  0.
          5    1    1    0  501    0 -0.54300727119E+02  0.11884743729E+02 -0.28184107239E+02  0.62500000000E+02  0.47000000000E+01 0.  1.
         -5    1    1    0    0  501  0.54300727119E+02 -0.11884743729E+02  0.28184107239E+02  0.62500000000E+02  0.47000000000E+01 0.  1.
</event>
<event>
 3    0  0.4591805E-005  0.9118800E+02  0.7546771E-02  0.1235069E+00
         25   -1    0    0    0    0  0.00000000000E+00  0.00000000000E+00  0.99999998245E-14  0.12500000000E+03  0.12500000000E+03 0.  0.
          5    1    1    0  501    0 -0.30874929419E+02 -0.18252646191E+02 -0.50968025667E+02  0.62500000000E+02  0.47000000000E+01 0. -1.
         -5    1    1    0    0  501  0.30874929419E+02  0.18252646191E+02  0.50968025667E+02  0.62500000000E+02  0.47000000000E+01 0. -1.
</event>
<event>
 3    0  0.4591805E-005  0.9118800E+02  0.7546771E-02  0.1235069E+00
         25   -1    0    0    0    0  0.00000000000E+00  0.00000000000E+00  0.99999998245E-14  0.12500000000E+03  0.12500000000E+03 0.  0.
          5    1    1    0  501    0 -0.22665978932E+01  0.28010310113E+02 -0.55627736439E+02  0.62500000000E+02  0.47000000000E+01 0. -1.
         -5    1    1    0    0  501  0.22665978932E+01 -0.28010310113E+02  0.55627736439E+02  0.62500000000E+02  0.47000000000E+01 0. -1.
</event>
<event>
 3    0  0.4591805E-005  0.9118800E+02  0.7546771E-02  0.1235069E+00
         25   -1    0    0    0    0  0.00000000000E+00  0.00000000000E+00  0.99999998245E-14  0.12500000000E+03  0.12500000000E+03 0.  0.
          5    1    1    0  501    0  0.29712490282E+02  0.48180115022E+02 -0.26076894710E+02  0.62500000000E+02  0.47000000000E+01 0.  1.
         -5    1    1    0    0  501 -0.29712490282E+02 -0.48180115022E+02  0.26076894710E+02  0.62500000000E+02  0.47000000000E+01 0.  1.
</event>
<event>
 3    0  0.4591805E-005  0.9118800E+02  0.7546771E-02  0.1235069E+00
         25   -1    0    0    0    0  0.00000000000E+00  0.00000000000E+00  0.99999998245E-14  0.12500000000E+03  0.12500000000E+03 0.  0.
          5    1    1    0  501    0  0.33615212812E+02  0.35260856240E+02  0.38869647346E+02  0.62500000000E+02  0.47000000000E+01 0. -1.
         -5    1    1    0    0  501 -0.33615212812E+02 -0.35260856240E+02 -0.38869647346E+02  0.62500000000E+02  0.47000000000E+01 0. -1.
</event>
<event>
 3    0  0.4591805E-005  0.9118800E+02  0.7546771E-02  0.1235069E+00
         25   -1    0    0    0    0  0.00000000000E+00  0.00000000000E+00  0.99999998245E-14  0.12500000000E+03  0.12500000000E+03 0.  0.
          5    1    1    0  501    0 -0.47183652184E+02 -0.24326540455E+02 -0.32650917231E+02  0.62500000000E+02  0.47000000000E+01 0.  1.
         -5    1    1    0    0  501  0.47183652184E+02  0.24326540455E+02  0.32650917231E+02  0.62500000000E+02  0.47000000000E+01 0.  1.
</event>
<event>
 3    0  0.4591805E-005  0.9118800E+02  0.7546771E-02  0.1235069E+00
         25   -1    0    0    0    0  0.00000000000E+00  0.00000000000E+00  0.99999998245E-14  0.12500000000E+03  0.12500000000E+03 0.  0.
          5    1    1    0  501    0 -0.36279590106E+00 -0.60903167214E+02  0.13222428007E+02  0.62500000000E+02  0.47000000000E+01 0.  1.
         -5    1    1    0    0  501  0.36279590106E+00  0.60903167214E+02 -0.13222428007E+02  0.62500000000E+02  0.47000000000E+01 0.  1.
</event>
<event>
 3    0  0.4591805E-005  0.9118800E+02  0.7546771E-02  0.1235069E+00
         25   -1    0    0    0    0  0.00000000000E+00  0.00000000000E+00  0.99999998245E-14  0.12500000000E+03  0.12500000000E+03 0.  0.
          5    1    1    0  501    0 -0.38196542806E+02  0.23311436279E+02 -0.43379269891E+02  0.62500000000E+02  0.47000000000E+01 0. -1.
         -5    1    1    0    0  501  0.38196542806E+02 -0.23311436279E+02  0.43379269891E+02  0.62500000000E+02  0.47000000000E+01 0. -1.
</event>
<event>
 3    0  0.4591805E-005  0.9118800E+02  0.7546771E-02  0.1235069E+00
         25   -1    0    0    0    0  0.00000000000E+00  0.00000000000E+00  0.99999998245E-14  0.12500000000E+03  0.12500000000E+03 0.  0.
          5    1    1    0  501    0  0.29506259171E+02  0.14973721689E+02  0.52814092139E+02  0.62500000000E+02  0.47000000000E+01 0. -1.
         -5    1    1    0    0  501 -0.29506259171E+02 -0.14973721689E+02 -0.52814092139E+02  0.62500000000E+02  0.47000000000E+01 0. -1.
</event>
<event>
 3    0  0.4591805E-005  0.9118800E+02  0.7546771E-02  0.1235069E+00
         25   -1    0    0    0    0  0.00000000000E+00  0.00000000000E+00  0.99999998245E-14  0.12500000000E+03  0.12500000000E+03 0.  0.
          5    1    1    0  501    0  0.16687643937E+02 -0.38772245422E+02  0.45851886818E+02  0.62500000000E+02  0.47000000000E+01 0. -1.
         -5    1    1    0    0  501 -0.16687643937E+02  0.38772245422E+02 -0.45851886818E+02  0.62500000000E+02  0.47000000000E+01 0. -1.
</event>
<event>
 3    0  0.4591805E-005  0.9118800E+02  0.7546771E-02  0.1235069E+00
         25   -1    0    0    0    0  0.00000000000E+00  0.00000000000E+00  0.99999998245E-14  0.12500000000E+03  0.12500000000E+03 0.  0.
          5    1    1    0  501    0 -0.32470739600E+02 -0.11090227376E+02 -0.52027088392E+02  0.62500000000E+02  0.47000000000E+01 0. -1.
         -5    1    1    0    0  501  0.32470739600E+02  0.11090227376E+02  0.52027088392E+02  0.62500000000E+02  0.47000000000E+01 0. -1.
</event>
<event>
 3    0  0.4591805E-005  0.9118800E+02  0.7546771E-02  0.1235069E+00
         25   -1    0    0    0    0  0.00000000000E+00  0.00000000000E+00  0.99999998245E-14  0.12500000000E+03  0.12500000000E+03 0.  0.
          5    1    1    0  501    0  0.56712454221E+02 -0.18971498618E+02  0.17548212914E+02  0.62500000000E+02  0.47000000000E+01 0. -1.
         -5    1    1    0    0  501 -0.56712454221E+02  0.18971498618E+02 -0.17548212914E+02  0.62500000000E+02  0.47000000000E+01 0. -1.
</event>
<event>
 3    0  0.4591805E-005  0.9118800E+02  0.7546771E-02  0.1235069E+00
         25   -1    0    0    0    0  0.00000000000E+00  0.00000000000E+00  0.99999998245E-14  0.12500000000E+03  0.12500000000E+03 0.  0.
          5    1    1    0  501    0  0.60564644436E+00  0.49485883978E+02 -0.37880608222E+02  0.62500000000E+02  0.47000000000E+01 0.  1.
         -5    1    1    0    0  501 -0.60564644436E+00 -0.49485883978E+02  0.37880608222E+02  0.62500000000E+02  0.47000000000E+01 0.  1.
</event>
<event>
 3    0  0.4591805E-005  0.9118800E+02  0.7546771E-02  0.1235069E+00
         25   -1    0    0    0    0  0.00000000000E+00  0.00000000000E+00  0.99999998245E-14  0.12500000000E+03  0.12500000000E+03 0.  0.
          5    1    1    0  501    0 -0.38237198411E+02  0.18817570053E+02 -0.45475000989E+02  0.62500000000E+02  0.47000000000E+01 0.  1.
         -5    1    1    0    0  501  0.38237198411E+02 -0.18817570053E+02  0.45475000989E+02  0.62500000000E+02  0.47000000000E+01 0.  1.
</event>
<event>
 3    0  0.4591805E-005  0.9118800E+02  0.7546771E-02  0.1235069E+00
         25   -1    0    0    0    0  0.00000000000E+00  0.00000000000E+00  0.99999998245E-14  0.12500000000E+03  0.12500000000E+03 0.  0.
          5    1    1    0  501    0  0.94988904583E+01  0.42330596168E+02 -0.44744292464E+02  0.62500000000E+02  0.47000000000E+01 0. -1.
         -5    1    1    0    0  501 -0.94988904583E+01 -0.42330596168E+02  0.44744292464E+02  0.62500000000E+02  0.47000000000E+01 0. -1.
</event>
<event>
 3    0  0.4591805E-005  0.9118800E+02  0.7546771E-02  0.1235069E+00
         25   -1    0    0    0    0  0.00000000000E+00  0.00000000000E+00  0.99999998245E-14  0.12500000000E+03  0.12500000000E+03 0.  0.
          5    1    1    0  501    0  0.70754526421E+01  0.26581107108E+02 -0.55924437546E+02  0.62500000000E+02  0.47000000000E+01 0.  1.
         -5    1    1    0    0  501 -0.70754526421E+01 -0.26581107108E+02  0.55924437546E+02  0.62500000000E+02  0.47000000000E+01 0.  1.
</event>
<event>
 3    0  0.4591805E-005  0.9118800E+02  0.7546771E-02  0.1235069E+00
         25   -1    0    0    0    0  0.00000000000E+00  0.00000000000E+00  0.99999998245E-14  0.12500000000E+03  0.12500000000E+03 0.  0.
          5    1    1    0  501    0 -0.84064158595E+01 -0.22015324806E+02 -0.57695906667E+02  0.62500000000E+02  0.47000000000E+01 0. -1.
         -5    1    1    0    0  501  0.84064158595E+01  0.22015324806E+02  0.57695906667E+02  0.62500000000E+02  0.47000000000E+01 0. -1.
</event>
<event>
 3    0  0.4591805E-005  0.9118800E+02  0.7546771E-02  0.1235069E+00
         25   -1    0    0    0    0  0.00000000000E+00  0.00000000000E+00  0.99999998245E-14  0.12500000000E+03  0.12500000000E+03 0.  0.
          5    1    1    0  501    0  0.16346394520E+02  0.57333857246E+02  0.18159961439E+02  0.62500000000E+02  0.47000000000E+01 0. -1.
         -5    1    1    0    0  501 -0.16346394520E+02 -0.57333857246E+02 -0.18159961439E+02  0.62500000000E+02  0.47000000000E+01 0. -1.
</event>
<event>
 3    0  0.4591805E-005  0.9118800E+02  0.7546771E-02  0.1235069E+00
         25   -1    0    0    0    0  0.00000000000E+00  0.00000000000E+00  0.99999998245E-14  0.12500000000E+03  0.12500000000E+03 0.  0.
          5    1    1    0  501    0 -0.40305860621E+02 -0.47493124019E+02 -0.20001926233E+01  0.62500000000E+02  0.47000000000E+01 0.  1.
         -5    1    1    0    0  501  0.40305860621E+02  0.47493124019E+02  0.20001926233E+01  0.62500000000E+02  0.47000000000E+01 0.  1.
</event>
<event>
 3    0  0.4591805E-005  0.9118800E+02  0.7546771E-02  0.1235069E+00
         25   -1    0    0    0    0  0.00000000000E+00  0.00000000000E+00  0.99999998245E-14  0.12500000000E+03  0.12500000000E+03 0.  0.
          5    1    1    0  501    0 -0.41513893167E+02  0.23334642903E+02  0.40202625720E+02  0.62500000000E+02  0.47000000000E+01 0. -1.
         -5    1    1    0    0  501  0.41513893167E+02 -0.23334642903E+02 -0.40202625720E+02  0.62500000000E+02  0.47000000000E+01 0. -1.
</event>
<event>
 3    0  0.4591805E-005  0.9118800E+02  0.7546771E-02  0.1235069E+00
         25   -1    0    0    0    0  0.00000000000E+00  0.00000000000E+00  0.99999998245E-14  0.12500000000E+03  0.12500000000E+03 0.  0.
          5    1    1    0  501    0 -0.46681755709E+02 -0.37085808700E+02 -0.18155342932E+02  0.62500000000E+02  0.47000000000E+01 0. -1.
         -5    1    1    0    0  501  0.46681755709E+02  0.37085808700E+02  0.18155342932E+02  0.62500000000E+02  0.47000000000E+01 0. -1.
</event>
<event>
 3    0  0.4591805E-005  0.9118800E+02  0.7546771E-02  0.1235069E+00
         25   -1    0    0    0    0  0.00000000000E+00  0.00000000000E+00  0.99999998245E-14  0.12500000000E+03  0.12500000000E+03 0.  0.
          5    1    1    0  501    0 -0.36088592050E+02 -0.41630629845E+02 -0.29131841386E+02  0.62500000000E+02  0.47000000000E+01 0.  1.
         -5    1    1    0    0  501  0.36088592050E+02  0.41630629845E+02  0.29131841386E+02  0.62500000000E+02  0.47000000000E+01 0.  1.
</event>
<event>
 3    0  0.4591805E-005  0.9118800E+02  0.7546771E-02  0.1235069E+00
         25   -1    0    0    0    0  0.00000000000E+00  0.00000000000E+00  0.99999998245E-14  0.12500000000E+03  0.12500000000E+03 0.  0.
          5    1    1    0  501    0 -0.59495698892E+02  0.16870931757E+02 -0.77326240674E+01  0.62500000000E+02  0.47000000000E+01 0. -1.
         -5    1    1    0    0  501  0.59495698892E+02 -0.16870931757E+02  0.77326240674E+01  0.62500000000E+02  0.47000000000E+01 0. -1.
</event>
<event>
 3    0  0.4591805E-005  0.9118800E+02  0.7546771E-02  0.1235069E+00
         25   -1    0    0    0    0  0.00000000000E+00  0.00000000000E+00  0.99999998245E-14  0.12500000000E+03  0.12500000000E+03 0.  0.
          5    1    1    0  501    0  0.27385067461E+02 -0.55628809548E+02 -0.62971127067E+01  0.62500000000E+02  0.47000000000E+01 0. -1.
         -5    1    1    0    0  501 -0.27385067461E+02  0.55628809548E+02  0.62971127067E+01  0.62500000000E+02  0.47000000000E+01 0. -1.
</event>
<event>
 3    0  0.4591805E-005  0.9118800E+02  0.7546771E-02  0.1235069E+00
         25   -1    0    0    0    0  0.00000000000E+00  0.00000000000E+00  0.99999998245E-14  0.12500000000E+03  0.12500000000E+03 0.  0.
          5    1    1    0  501    0 -0.40821365889E+02  0.32359902111E+02  0.34214219592E+02  0.62500000000E+02  0.47000000000E+01 0.  1.
         -5    1    1    0    0  501  0.40821365889E+02 -0.32359902111E+02 -0.34214219592E+02  0.62500000000E+02  0.47000000000E+01 0.  1.
</event>
<event>
 3    0  0.4591805E-005  0.9118800E+02  0.7546771E-02  0.1235069E+00
         25   -1    0    0    0    0  0.00000000000E+00  0.00000000000E+00  0.99999998245E-14  0.12500000000E+03  0.12500000000E+03 0.  0.
          5    1    1    0  501    0 -0.39867190960E+02  0.17159645339E+02  0.44724866202E+02  0.62500000000E+02  0.47000000000E+01 0. -1.
         -5    1    1    0    0  501  0.39867190960E+02 -0.17159645339E+02 -0.44724866202E+02  0.62500000000E+02  0.47000000000E+01 0. -1.
</event>
<event>
 3    0  0.4591805E-005  0.9118800E+02  0.7546771E-02  0.1235069E+00
         25   -1    0    0    0    0  0.00000000000E+00  0.00000000000E+00  0.99999998245E-14  0.12500000000E+03  0.12500000000E+03 0.  0.
          5    1    1    0  501    0  0.53767977618E+02 -0.12872638461E+02  0.28765600322E+02  0.62500000000E+02  0.47000000000E+01 0. -1.
         -5    1    1    0    0  501 -0.53767977618E+02  0.12872638461E+02 -0.28765600322E+02  0.62500000000E+02  0.47000000000E+01 0. -1.
</event>
<event>
 3    0  0.4591805E-005  0.9118800E+02  0.7546771E-02  0.1235069E+00
         25   -1    0    0    0    0  0.00000000000E+00  0.00000000000E+00  0.99999998245E-14  0.12500000000E+03  0.12500000000E+03 0.  0.
          5    1    1    0  501    0 -0.28451485627E+02 -0.17643837328E+02  0.52567746480E+02  0.62500000000E+02  0.47000000000E+01 0. -1.
         -5    1    1    0    0  501  0.28451485627E+02  0.17643837328E+02 -0.52567746480E+02  0.62500000000E+02  0.47000000000E+01 0. -1.
</event>
<event>
 3    0  0.4591805E-005  0.9118800E+02  0.7546771E-02  0.1235069E+00
         25   -1    0    0    0    0  0.00000000000E+00  0.00000000000E+00  0.99999998245E-14  0.12500000000E+03  0.12500000000E+03 0.  0.
          5    1    1    0  501    0 -0.20291975359E+02 -0.51876851055E+02  0.27949741693E+02  0.62500000000E+02  0.47000000000E+01 0. -1.
         -5    1    1    0    0  501  0.20291975359E+02  0.51876851055E+02 -0.27949741693E+02  0.62500000000E+02  0.47000000000E+01 0. -1.
</event>
<event>
 3    0  0.4591805E-005  0.9118800E+02  0.7546771E-02  0.1235069E+00
         25   -1    0    0    0    0  0.00000000000E+00  0.00000000000E+00  0.99999998245E-14  0.12500000000E+03  0.12500000000E+03 0.  0.
          5    1    1    0  501    0 -0.46041202892E+01 -0.58106960849E+02 -0.22057723755E+02  0.62500000000E+02  0.47000000000E+01 0.  1.
         -5    1    1    0    0  501  0.46041202892E+01  0.58106960849E+02  0.22057723755E+02  0.62500000000E+02  0.47000000000E+01 0.  1.
</event>
<event>
 3    0  0.4591805E-005  0.9118800E+02  0.7546771E-02  0.1235069E+00
         25   -1    0    0    0    0  0.00000000000E+00  0.00000000000E+00  0.99999998245E-14  0.12500000000E+03  0.12500000000E+03 0.  0.
          5    1    1    0  501    0  0.41042503315E+02 -0.29458071936E+02 -0.36495135559E+02  0.62500000000E+02  0.47000000000E+01 0.  1.
         -5    1    1    0    0  501 -0.41042503315E+02  0.29458071936E+02  0.36495135559E+02  0.62500000000E+02  0.47000000000E+01 0.  1.
</event>
<event>
 3    0  0.4591805E-005  0.9118800E+02  0.7546771E-02  0.1235069E+00
         25   -1    0    0    0    0  0.00000000000E+00  0.00000000000E+00  0.99999998245E-14  0.12500000000E+03  0.12500000000E+03 0.  0.
          5    1    1    0  501    0 -0.26596577836E+02 -0.14156959958E+02  0.54556049455E+02  0.62500000000E+02  0.47000000000E+01 0. -1.
         -5    1    1    0    0  501  0.26596577836E+02  0.14156959958E+02 -0.54556049455E+02  0.62500000000E+02  0.47000000000E+01 0. -1.
</event>
<event>
 3    0  0.4591805E-005  0.9118800E+02  0.7546771E-02  0.1235069E+00
         25   -1    0    0    0    0  0.00000000000E+00  0.00000000000E+00  0.99999998245E-14  0.12500000000E+03  0.12500000000E+03 0.  0.
          5    1    1    0  501    0 -0.42956886802E+02  0.44517453919E+02 -0.75539508133E+01  0.62500000000E+02  0.47000000000E+01 0. -1.
         -5    1    1    0    0  501  0.42956886802E+02 -0.44517453919E+02  0.75539508133E+01  0.62500000000E+02  0.47000000000E+01 0. -1.
</event>
<event>
 3    0  0.4591805E-005  0.9118800E+02  0.7546771E-02  0.1235069E+00
         25   -1    0    0    0    0  0.00000000000E+00  0.00000000000E+00  0.99999998245E-14  0.12500000000E+03  0.12500000000E+03 0.  0.
          5    1    1    0  501    0 -0.51763713136E+02  0.34380231562E+02  0.47621087851E+01  0.62500000000E+02  0.47000000000E+01 0. -1.
         -5    1    1    0    0  501  0.51763713136E+02 -0.34380231562E+02 -0.47621087851E+01  0.62500000000E+02  0.47000000000E+01 0. -1.
</event>
<event>
 3    0  0.4591805E-005  0.9118800E+02  0.7546771E-02  0.1235069E+00
         25   -1    0    0    0    0  0.00000000000E+00  0.00000000000E+00  0.99999998245E-14  0.12500000000E+03  0.12500000000E+03 0.  0.
          5    1    1    0  501    0 -0.16133089913E+02  0.60172258516E+02 -0.17840165208E+01  0.62500000000E+02  0.47000000000E+01 0.  1.
         -5    1    1    0    0  501  0.16133089913E+02 -0.60172258516E+02  0.17840165208E+01  0.62500000000E+02  0.47000000000E+01 0.  1.
</event>
<event>
 3    0  0.4591805E-005  0.9118800E+02  0.7546771E-02  0.1235069E+00
         25   -1    0    0    0    0  0.00000000000E+00  0.00000000000E+00  0.99999998245E-14  0.12500000000E+03  0.12500000000E+03 0.  0.
          5    1    1    0  501    0 -0.10047125442E+02 -0.37271751352E+02  0.48928844473E+02  0.62500000000E+02  0.47000000000E+01 0. -1.
         -5    1    1    0    0  501  0.10047125442E+02  0.37271751352E+02 -0.48928844473E+02  0.62500000000E+02  0.47000000000E+01 0. -1.
</event>
<event>
 3    0  0.4591805E-005  0.9118800E+02  0.7546771E-02  0.1235069E+00
         25   -1    0    0    0    0  0.00000000000E+00  0.00000000000E+00  0.99999998245E-14  0.12500000000E+03  0.12500000000E+03 0.  0.
          5    1    1    0  501    0  0.37901232075E+02  0.23276393361E+02 -0.43656226581E+02  0.62500000000E+02  0.47000000000E+01 0. -1.
         -5    1    1    0    0  501 -0.37901232075E+02 -0.23276393361E+02  0.43656226581E+02  0.62500000000E+02  0.47000000000E+01 0. -1.
</event>
<event>
 3    0  0.4591805E-005  0.9118800E+02  0.7546771E-02  0.1235069E+00
         25   -1    0    0    0    0  0.00000000000E+00  0.00000000000E+00  0.99999998245E-14  0.12500000000E+03  0.12500000000E+03 0.  0.
          5    1    1    0  501    0 -0.53049711010E+01  0.59082120801E+02  0.19113353532E+02  0.62500000000E+02  0.47000000000E+01 0. -1.
         -5    1    1    0    0  501  0.53049711010E+01 -0.59082120801E+02 -0.19113353532E+02  0.62500000000E+02  0.47000000000E+01 0. -1.
</event>
<event>
 3    0  0.4591805E-005  0.9118800E+02  0.7546771E-02  0.1235069E+00
         25   -1    0    0    0    0  0.00000000000E+00  0.00000000000E+00  0.99999998245E-14  0.12500000000E+03  0.12500000000E+03 0.  0.
          5    1    1    0  501    0  0.58033499822E+01 -0.19769722311E+02 -0.58818697782E+02  0.62500000000E+02  0.47000000000E+01 0.  1.
         -5    1    1    0    0  501 -0.58033499822E+01  0.19769722311E+02  0.58818697782E+02  0.62500000000E+02  0.47000000000E+01 0.  1.
</event>
<event>
 3    0  0.4591805E-005  0.9118800E+02  0.7546771E-02  0.1235069E+00
         25   -1    0    0    0    0  0.00000000000E+00  0.00000000000E+00  0.99999998245E-14  0.12500000000E+03  0.12500000000E+03 0.  0.
          5    1    1    0  501    0 -0.14646139784E+02  0.56899587487E+02 -0.20786715307E+02  0.62500000000E+02  0.47000000000E+01 0. -1.
         -5    1    1    0    0  501  0.14646139784E+02 -0.56899587487E+02  0.20786715307E+02  0.62500000000E+02  0.47000000000E+01 0. -1.
</event>
<event>
 3    0  0.4591805E-005  0.9118800E+02  0.7546771E-02  0.1235069E+00
         25   -1    0    0    0    0  0.00000000000E+00  0.00000000000E+00  0.99999998245E-14  0.12500000000E+03  0.12500000000E+03 0.  0.
          5    1    1    0  501    0 -0.15900424668E+01  0.50306180691E+02 -0.36754862933E+02  0.62500000000E+02  0.47000000000E+01 0.  1.
         -5    1    1    0    0  501  0.15900424668E+01 -0.50306180691E+02  0.36754862933E+02  0.62500000000E+02  0.47000000000E+01 0.  1.
</event>
<event>
 3    0  0.4591805E-005  0.9118800E+02  0.7546771E-02  0.1235069E+00
         25   -1    0    0    0    0  0.00000000000E+00  0.00000000000E+00  0.99999998245E-14  0.12500000000E+03  0.12500000000E+03 0.  0.
          5    1    1    0  501    0 -0.15958592255E+02  0.37086370756E+02  0.47477199132E+02  0.62500000000E+02  0.47000000000E+01 0.  1.
         -5    1    1    0    0  501  0.15958592255E+02 -0.37086370756E+02 -0.47477199132E+02  0.62500000000E+02  0.47000000000E+01 0.  1.
</event>
<event>
 3    0  0.4591805E-005  0.9118800E+02  0.7546771E-02  0.1235069E+00
         25   -1    0    0    0    0  0.00000000000E+00  0.00000000000E+00  0.99999998245E-14  0.12500000000E+03  0.12500000000E+03 0.  0.
          5    1    1    0  501    0  0.15172728067E+02 -0.53071534585E+02  0.28937182650E+02  0.62500000000E+02  0.47000000000E+01 0. -1.
         -5    1    1    0    0  501 -0.15172728067E+02  0.53071534585E+02 -0.28937182650E+02  0.62500000000E+02  0.47000000000E+01 0. -1.
</event>
<event>
 3    0  0.4591805E-005  0.9118800E+02  0.7546771E-02  0.1235069E+00
         25   -1    0    0    0    0  0.00000000000E+00  0.00000000000E+00  0.99999998245E-14  0.12500000000E+03  0.12500000000E+03 0.  0.
          5    1    1    0  501    0  0.53594762930E+02  0.24486075623E+02  0.20302548782E+02  0.62500000000E+02  0.47000000000E+01 0.  1.
         -5    1    1    0    0  501 -0.53594762930E+02 -0.24486075623E+02 -0.20302548782E+02  0.62500000000E+02  0.47000000000E+01 0.  1.
</event>
<event>
 3    0  0.4591805E-005  0.9118800E+02  0.7546771E-02  0.1235069E+00
         25   -1    0    0    0    0  0.00000000000E+00  0.00000000000E+00  0.99999998245E-14  0.12500000000E+03  0.12500000000E+03 0.  0.
          5    1    1    0  501    0 -0.29318710864E+02 -0.67615926737E+01 -0.54578879228E+02  0.62500000000E+02  0.47000000000E+01 0. -1.
         -5    1    1    0    0  501  0.29318710864E+02  0.67615926737E+01  0.54578879228E+02  0.62500000000E+02  0.47000000000E+01 0. -1.
</event>
<event>
 3    0  0.4591805E-005  0.9118800E+02  0.7546771E-02  0.1235069E+00
         25   -1    0    0    0    0  0.00000000000E+00  0.00000000000E+00  0.99999998245E-14  0.12500000000E+03  0.12500000000E+03 0.  0.
          5    1    1    0  501    0 -0.22705849594E+02 -0.52742202240E+02  0.24225286315E+02  0.62500000000E+02  0.47000000000E+01 0.  1.
         -5    1    1    0    0  501  0.22705849594E+02  0.52742202240E+02 -0.24225286315E+02  0.62500000000E+02  0.47000000000E+01 0.  1.
</event>
<event>
 3    0  0.4591805E-005  0.9118800E+02  0.7546771E-02  0.1235069E+00
         25   -1    0    0    0    0  0.00000000000E+00  0.00000000000E+00  0.99999998245E-14  0.12500000000E+03  0.12500000000E+03 0.  0.
          5    1    1    0  501    0 -0.20296868759E+02 -0.27677354336E+02 -0.52020776383E+02  0.62500000000E+02  0.47000000000E+01 0. -1.
         -5    1    1    0    0  501  0.20296868759E+02  0.27677354336E+02  0.52020776383E+02  0.62500000000E+02  0.47000000000E+01 0. -1.
</event>
<event>
 3    0  0.4591805E-005  0.9118800E+02  0.7546771E-02  0.1235069E+00
         25   -1    0    0    0    0  0.00000000000E+00  0.00000000000E+00  0.99999998245E-14  0.12500000000E+03  0.12500000000E+03 0.  0.
          5    1    1    0  501    0 -0.24049604450E+02 -0.55703115692E+02 -0.14245681030E+02  0.62500000000E+02  0.47000000000E+01 0. -1.
         -5    1    1    0    0  501  0.24049604450E+02  0.55703115692E+02  0.14245681030E+02  0.62500000000E+02  0.47000000000E+01 0. -1.
</event>
<event>
 3    0  0.4591805E-005  0.9118800E+02  0.7546771E-02  0.1235069E+00
         25   -1    0    0    0    0  0.00000000000E+00  0.00000000000E+00  0.99999998245E-14  0.12500000000E+03  0.12500000000E+03 0.  0.
          5    1    1    0  501    0 -0.68039979968E+01  0.20819952521E+02 -0.58347195205E+02  0.62500000000E+02  0.47000000000E+01 0.  1.
         -5    1    1    0    0  501  0.68039979968E+01 -0.20819952521E+02  0.58347195205E+02  0.62500000000E+02  0.47000000000E+01 0.  1.
</event>
<event>
 3    0  0.4591805E-005  0.9118800E+02  0.7546771E-02  0.1235069E+00
         25   -1    0    0    0    0  0.00000000000E+00  0.00000000000E+00  0.99999998245E-14  0.12500000000E+03  0.12500000000E+03 0.  0.
          5    1    1    0  501    0 -0.52295722412E+01 -0.56604949911E+02 -0.25547822211E+02  0.62500000000E+02  0.47000000000E+01 0. -1.
         -5    1    1    0    0  501  0.52295722412E+01  0.56604949911E+02  0.25547822211E+02  0.62500000000E+02  0.47000000000E+01 0. -1.
</event>
<event>
 3    0  0.4591805E-005  0.9118800E+02  0.7546771E-02  0.1235069E+00
         25   -1    0    0    0    0  0.00000000000E+00  0.00000000000E+00  0.99999998245E-14  0.12500000000E+03  0.12500000000E+03 0.  0.
          5    1    1    0  501    0 -0.51567893166E+02 -0.31139431932E+02 -0.15976488145E+02  0.62500000000E+02  0.47000000000E+01 0. -1.
         -5    1    1    0    0  501  0.51567893166E+02  0.31139431932E+02  0.15976488145E+02  0.62500000000E+02  0.47000000000E+01 0. -1.
</event>
<event>
 3    0  0.4591805E-005  0.9118800E+02  0.7546771E-02  0.1235069E+00
         25   -1    0    0    0    0  0.00000000000E+00  0.00000000000E+00  0.99999998245E-14  0.12500000000E+03  0.12500000000E+03 0.  0.
          5    1    1    0  501    0  0.44781362691E+02 -0.43322002626E+02 -0.14119645876E+01  0.62500000000E+02  0.47000000000E+01 0. -1.
         -5    1    1    0    0  501 -0.44781362691E+02  0.43322002626E+02  0.14119645876E+01  0.62500000000E+02  0.47000000000E+01 0. -1.
</event>
<event>
 3    0  0.4591805E-005  0.9118800E+02  0.7546771E-02  0.1235069E+00
         25   -1    0    0    0    0  0.00000000000E+00  0.00000000000E+00  0.99999998245E-14  0.12500000000E+03  0.12500000000E+03 0.  0.
          5    1    1    0  501    0 -0.21574569810E+02  0.46460846341E+02  0.35497713937E+02  0.62500000000E+02  0.47000000000E+01 0.  1.
         -5    1    1    0    0  501  0.21574569810E+02 -0.46460846341E+02 -0.35497713937E+02  0.62500000000E+02  0.47000000000E+01 0.  1.
</event>
<event>
 3    0  0.4591805E-005  0.9118800E+02  0.7546771E-02  0.1235069E+00
         25   -1    0    0    0    0  0.00000000000E+00  0.00000000000E+00  0.99999998245E-14  0.12500000000E+03  0.12500000000E+03 0.  0.
          5    1    1    0  501    0  0.22553402143E+02 -0.52295861700E+02  0.25311003553E+02  0.62500000000E+02  0.47000000000E+01 0.  1.
         -5    1    1    0    0  501 -0.22553402143E+02  0.52295861700E+02 -0.25311003553E+02  0.62500000000E+02  0.47000000000E+01 0.  1.
</event>
<event>
 3    0  0.4591805E-005  0.9118800E+02  0.7546771E-02  0.1235069E+00
         25   -1    0    0    0    0  0.00000000000E+00  0.00000000000E+00  0.99999998245E-14  0.12500000000E+03  0.12500000000E+03 0.  0.
          5    1    1    0  501    0  0.45352662646E+02  0.14954873962E+02  0.40045570737E+02  0.62500000000E+02  0.47000000000E+01 0.  1.
         -5    1    1    0    0  501 -0.45352662646E+02 -0.14954873962E+02 -0.40045570737E+02  0.62500000000E+02  0.47000000000E+01 0.  1.
</event>
<event>
 3    0  0.4591805E-005  0.9118800E+02  0.7546771E-02  0.1235069E+00
         25   -1    0    0    0    0  0.00000000000E+00  0.00000000000E+00  0.99999998245E-14  0.12500000000E+03  0.12500000000E+03 0.  0.
          5    1    1    0  501    0  0.37989325010E+02 -0.28174918210E+02  0.40585036271E+02  0.62500000000E+02  0.47000000000E+01 0.  1.
         -5    1    1    0    0  501 -0.37989325010E+02  0.28174918210E+02 -0.40585036271E+02  0.62500000000E+02  0.47000000000E+01 0.  1.
</event>
<event>
 3    0  0.4591805E-005  0.9118800E+02  0.7546771E-02  0.1235069E+00
         25   -1    0    0    0    0  0.00000000000E+00  0.00000000000E+00  0.99999998245E-14  0.12500000000E+03  0.12500000000E+03 0.  0.
          5    1    1    0  501    0  0.43421847836E+02  0.24729995338E+02  0.37244200369E+02  0.62500000000E+02  0.47000000000E+01 0. -1.
         -5    1    1    0    0  501 -0.43421847836E+02 -0.24729995338E+02 -0.37244200369E+02  0.62500000000E+02  0.47000000000E+01 0. -1.
</event>
<event>
 3    0  0.4591805E-005  0.9118800E+02  0.7546771E-02  0.1235069E+00
         25   -1    0    0    0    0  0.00000000000E+00  0.00000000000E+00  0.99999998245E-14  0.12500000000E+03  0.12500000000E+03 0.  0.
          5    1    1    0  501    0  0.27408379056E+02  0.54365515102E+02 -0.13316588349E+02  0.62500000000E+02  0.47000000000E+01 0.  1.
         -5    1    1    0    0  501 -0.27408379056E+02 -0.54365515102E+02  0.13316588349E+02  0.62500000000E+02  0.47000000000E+01 0.  1.
</event>
<event>
 3    0  0.4591805E-005  0.9118800E+02  0.7546771E-02  0.1235069E+00
         25   -1    0    0    0    0  0.00000000000E+00  0.00000000000E+00  0.99999998245E-14  0.12500000000E+03  0.12500000000E+03 0.  0.
          5    1    1    0  501    0  0.54645008922E+01  0.47294524526E+02  0.40218493008E+02  0.62500000000E+02  0.47000000000E+01 0.  1.
         -5    1    1    0    0  501 -0.54645008922E+01 -0.47294524526E+02 -0.40218493008E+02  0.62500000000E+02  0.47000000000E+01 0.  1.
</event>
<event>
 3    0  0.4591805E-005  0.9118800E+02  0.7546771E-02  0.1235069E+00
         25   -1    0    0    0    0  0.00000000000E+00  0.00000000000E+00  0.99999998245E-14  0.12500000000E+03  0.12500000000E+03 0.  0.
          5    1    1    0  501    0 -0.36609778129E+02 -0.47964454818E+02  0.15597923560E+02  0.62500000000E+02  0.47000000000E+01 0. -1.
         -5    1    1    0    0  501  0.36609778129E+02  0.47964454818E+02 -0.15597923560E+02  0.62500000000E+02  0.47000000000E+01 0. -1.
</event>
<event>
 3    0  0.4591805E-005  0.9118800E+02  0.7546771E-02  0.1235069E+00
         25   -1    0    0    0    0  0.00000000000E+00  0.00000000000E+00  0.99999998245E-14  0.12500000000E+03  0.12500000000E+03 0.  0.
          5    1    1    0  501    0 -0.12994027963E+02 -0.52977407076E+02  0.30144810113E+02  0.62500000000E+02  0.47000000000E+01 0. -1.
         -5    1    1    0    0  501  0.12994027963E+02  0.52977407076E+02 -0.30144810113E+02  0.62500000000E+02  0.47000000000E+01 0. -1.
</event>
<event>
 3    0  0.4591805E-005  0.9118800E+02  0.7546771E-02  0.1235069E+00
         25   -1    0    0    0    0  0.00000000000E+00  0.00000000000E+00  0.99999998245E-14  0.12500000000E+03  0.12500000000E+03 0.  0.
          5    1    1    0  501    0 -0.28071079580E+02  0.45101285119E+02 -0.32589086698E+02  0.62500000000E+02  0.47000000000E+01 0.  1.
         -5    1    1    0    0  501  0.28071079580E+02 -0.45101285119E+02  0.32589086698E+02  0.62500000000E+02  0.47000000000E+01 0.  1.
</event>
<event>
 3    0  0.4591805E-005  0.9118800E+02  0.7546771E-02  0.1235069E+00
         25   -1    0    0    0    0  0.00000000000E+00  0.00000000000E+00  0.99999998245E-14  0.12500000000E+03  0.12500000000E+03 0.  0.
          5    1    1    0  501    0 -0.36050793412E+01  0.74244716370E+01  0.61774109657E+02  0.62500000000E+02  0.47000000000E+01 0. -1.
         -5    1    1    0    0  501  0.36050793412E+01 -0.74244716370E+01 -0.61774109657E+02  0.62500000000E+02  0.47000000000E+01 0. -1.
</event>
<event>
 3    0  0.4591805E-005  0.9118800E+02  0.7546771E-02  0.1235069E+00
         25   -1    0    0    0    0  0.00000000000E+00  0.00000000000E+00  0.99999998245E-14  0.12500000000E+03  0.12500000000E+03 0.  0.
          5    1    1    0  501    0 -0.49305481056E+02 -0.37223518056E+02 -0.82182261659E+01  0.62500000000E+02  0.47000000000E+01 0.  1.
         -5    1    1    0    0  501  0.49305481056E+02  0.37223518056E+02  0.82182261659E+01  0.62500000000E+02  0.47000000000E+01 0.  1.
</event>
<event>
 3    0  0.4591805E-005  0.9118800E+02  0.7546771E-02  0.1235069E+00
         25   -1    0    0    0    0  0.00000000000E+00  0.00000000000E+00  0.99999998245E-14  0.12500000000E+03  0.12500000000E+03 0.  0.
          5    1    1    0  501    0  0.21835991507E+02 -0.58372204430E+02  0.18768300524E+00  0.62500000000E+02  0.47000000000E+01 0. -1.
         -5    1    1    0    0  501 -0.21835991507E+02  0.58372204430E+02 -0.18768300524E+00  0.62500000000E+02  0.47000000000E+01 0. -1.
</event>
<event>
 3    0  0.4591805E-005  0.9118800E+02  0.7546771E-02  0.1235069E+00
         25   -1    0    0    0    0  0.00000000000E+00  0.00000000000E+00  0.99999998245E-14  0.12500000000E+03  0.12500000000E+03 0.  0.
          5    1    1    0  501    0 -0.54490774294E+02  0.20766667613E+02  0.21992294858E+02  0.62500000000E+02  0.47000000000E+01 0.  1.
         -5    1    1    0    0  501  0.54490774294E+02 -0.20766667613E+02 -0.21992294858E+02  0.62500000000E+02  0.47000000000E+01 0.  1.
</event>
<event>
 3    0  0.4591805E-005  0.9118800E+02  0.7546771E-02  0.1235069E+00
         25   -1    0    0    0    0  0.00000000000E+00  0.00000000000E+00  0.99999998245E-14  0.12500000000E+03  0.12500000000E+03 0.  0.
          5    1    1    0  501    0 -0.46549433339E+02  0.32562077007E+02 -0.25632428616E+02  0.62500000000E+02  0.47000000000E+01 0.  1.
         -5    1    1    0    0  501  0.46549433339E+02 -0.32562077007E+02  0.25632428616E+02  0.62500000000E+02  0.47000000000E+01 0.  1.
</event>
<event>
 3    0  0.4591805E-005  0.9118800E+02  0.7546771E-02  0.1235069E+00
         25   -1    0    0    0    0  0.00000000000E+00  0.00000000000E+00  0.99999998245E-14  0.12500000000E+03  0.12500000000E+03 0.  0.
          5    1    1    0  501    0  0.26738922483E+02 -0.34461998788E+02 -0.44514724126E+02  0.62500000000E+02  0.47000000000E+01 0. -1.
         -5    1    1    0    0  501 -0.26738922483E+02  0.34461998788E+02  0.44514724126E+02  0.62500000000E+02  0.47000000000E+01 0. -1.
</event>
<event>
 3    0  0.4591805E-005  0.9118800E+02  0.7546771E-02  0.1235069E+00
         25   -1    0    0    0    0  0.00000000000E+00  0.00000000000E+00  0.99999998245E-14  0.12500000000E+03  0.12500000000E+03 0.  0.
          5    1    1    0  501    0  0.55234910486E+02 -0.10235051804E+02 -0.26990894356E+02  0.62500000000E+02  0.47000000000E+01 0.  1.
         -5    1    1    0    0  501 -0.55234910486E+02  0.10235051804E+02  0.26990894356E+02  0.62500000000E+02  0.47000000000E+01 0.  1.
</event>
<event>
 3    0  0.4591805E-005  0.9118800E+02  0.7546771E-02  0.1235069E+00
         25   -1    0    0    0    0  0.00000000000E+00  0.00000000000E+00  0.99999998245E-14  0.12500000000E+03  0.12500000000E+03 0.  0.
          5    1    1    0  501    0  0.27169672609E+02 -0.77336805589E+01  0.55553209406E+02  0.62500000000E+02  0.47000000000E+01 0. -1.
         -5    1    1    0    0  501 -0.27169672609E+02  0.77336805589E+01 -0.55553209406E+02  0.62500000000E+02  0.47000000000E+01 0. -1.
</event>
<event>
 3    0  0.4591805E-005  0.9118800E+02  0.7546771E-02  0.1235069E+00
         25   -1    0    0    0    0  0.00000000000E+00  0.00000000000E+00  0.99999998245E-14  0.12500000000E+03  0.12500000000E+03 0.  0.
          5    1    1    0  501    0  0.17950413481E+02  0.49529849534E+02 -0.33297697533E+02  0.62500000000E+02  0.47000000000E+01 0. -1.
         -5    1    1    0    0  501 -0.17950413481E+02 -0.49529849534E+02  0.33297697533E+02  0.62500000000E+02  0.47000000000E+01 0. -1.
</event>
<event>
 3    0  0.4591805E-005  0.9118800E+02  0.7546771E-02  0.1235069E+00
         25   -1    0    0    0    0  0.00000000000E+00  0.00000000000E+00  0.99999998245E-14  0.12500000000E+03  0.12500000000E+03 0.  0.
          5    1    1    0  501    0  0.16539201314E+02  0.96726629280E+01 -0.59304758762E+02  0.62500000000E+02  0.47000000000E+01 0. -1.
         -5    1    1    0    0  501 -0.16539201314E+02 -0.96726629280E+01  0.59304758762E+02  0.62500000000E+02  0.47000000000E+01 0. -1.
</event>
<event>
 3    0  0.4591805E-005  0.9118800E+02  0.7546771E-02  0.1235069E+00
         25   -1    0    0    0    0  0.00000000000E+00  0.00000000000E+00  0.99999998245E-14  0.12500000000E+03  0.12500000000E+03 0.  0.
          5    1    1    0  501    0 -0.38567077957E+02 -0.27318290557E+02 -0.40625749210E+02  0.62500000000E+02  0.47000000000E+01 0. -1.
         -5    1    1    0    0  501  0.38567077957E+02  0.27318290557E+02  0.40625749210E+02  0.62500000000E+02  0.47000000000E+01 0. -1.
</event>
<event>
 3    0  0.4591805E-005  0.9118800E+02  0.7546771E-02  0.1235069E+00
         25   -1    0    0    0    0  0.00000000000E+00  0.00000000000E+00  0.99999998245E-14  0.12500000000E+03  0.12500000000E+03 0.  0.
          5    1    1    0  501    0 -0.38929369610E+02  0.48123219286E+02  0.72677333002E+01  0.62500000000E+02  0.47000000000E+01 0.  1.
         -5    1    1    0    0  501  0.38929369610E+02 -0.48123219286E+02 -0.72677333002E+01  0.62500000000E+02  0.47000000000E+01 0.  1.
</event>
<event>
 3    0  0.4591805E-005  0.9118800E+02  0.7546771E-02  0.1235069E+00
         25   -1    0    0    0    0  0.00000000000E+00  0.00000000000E+00  0.99999998245E-14  0.12500000000E+03  0.12500000000E+03 0.  0.
          5    1    1    0  501    0 -0.26880281262E+01 -0.66836322340E+01 -0.61905278975E+02  0.62500000000E+02  0.47000000000E+01 0. -1.
         -5    1    1    0    0  501  0.26880281262E+01  0.66836322340E+01  0.61905278975E+02  0.62500000000E+02  0.47000000000E+01 0. -1.
</event>
<event>
 3    0  0.4591805E-005  0.9118800E+02  0.7546771E-02  0.1235069E+00
         25   -1    0    0    0    0  0.00000000000E+00  0.00000000000E+00  0.99999998245E-14  0.12500000000E+03  0.12500000000E+03 0.  0.
          5    1    1    0  501    0 -0.29785710867E+02 -0.39707106741E+02 -0.37687094640E+02  0.62500000000E+02  0.47000000000E+01 0.  1.
         -5    1    1    0    0  501  0.29785710867E+02  0.39707106741E+02  0.37687094640E+02  0.62500000000E+02  0.47000000000E+01 0.  1.
</event>
<event>
 3    0  0.4591805E-005  0.9118800E+02  0.7546771E-02  0.1235069E+00
         25   -1    0    0    0    0  0.00000000000E+00  0.00000000000E+00  0.99999998245E-14  0.12500000000E+03  0.12500000000E+03 0.  0.
          5    1    1    0  501    0  0.28100832668E+02  0.41065681224E+02  0.37524832164E+02  0.62500000000E+02  0.47000000000E+01 0. -1.
         -5    1    1    0    0  501 -0.28100832668E+02 -0.41065681224E+02 -0.37524832164E+02  0.62500000000E+02  0.47000000000E+01 0. -1.
</event>
<event>
 3    0  0.4591805E-005  0.9118800E+02  0.7546771E-02  0.1235069E+00
         25   -1    0    0    0    0  0.00000000000E+00  0.00000000000E+00  0.99999998245E-14  0.12500000000E+03  0.12500000000E+03 0.  0.
          5    1    1    0  501    0 -0.41414874780E+02 -0.22767368925E+02  0.40627762173E+02  0.62500000000E+02  0.47000000000E+01 0.  1.
         -5    1    1    0    0  501  0.41414874780E+02  0.22767368925E+02 -0.40627762173E+02  0.62500000000E+02  0.47000000000E+01 0.  1.
</event>
<event>
 3    0  0.4591805E-005  0.9118800E+02  0.7546771E-02  0.1235069E+00
         25   -1    0    0    0    0  0.00000000000E+00  0.00000000000E+00  0.99999998245E-14  0.12500000000E+03  0.12500000000E+03 0.  0.
          5    1    1    0  501    0  0.40896046972E+02 -0.20591051499E+00  0.47027980426E+02  0.62500000000E+02  0.47000000000E+01 0.  1.
         -5    1    1    0    0  501 -0.40896046972E+02  0.20591051499E+00 -0.47027980426E+02  0.62500000000E+02  0.47000000000E+01 0.  1.
</event>
<event>
 3    0  0.4591805E-005  0.9118800E+02  0.7546771E-02  0.1235069E+00
         25   -1    0    0    0    0  0.00000000000E+00  0.00000000000E+00  0.99999998245E-14  0.12500000000E+03  0.12500000000E+03 0.  0.
          5    1    1    0  501    0  0.25118180531E+02 -0.56541862857E+02  0.75003167607E+01  0.62500000000E+02  0.47000000000E+01 0.  1.
         -5    1    1    0    0  501 -0.25118180531E+02  0.56541862857E+02 -0.75003167607E+01  0.62500000000E+02  0.47000000000E+01 0.  1.
</event>
<event>
 3    0  0.4591805E-005  0.9118800E+02  0.7546771E-02  0.1235069E+00
         25   -1    0    0    0    0  0.00000000000E+00  0.00000000000E+00  0.99999998245E-14  0.12500000000E+03  0.12500000000E+03 0.  0.
          5    1    1    0  501    0  0.14781904496E+02 -0.52172400267E+02  0.30719634598E+02  0.62500000000E+02  0.47000000000E+01 0. -1.
         -5    1    1    0    0  501 -0.14781904496E+02  0.52172400267E+02 -0.30719634598E+02  0.62500000000E+02  0.47000000000E+01 0. -1.
</event>
<event>
 3    0  0.4591805E-005  0.9118800E+02  0.7546771E-02  0.1235069E+00
         25   -1    0    0    0    0  0.00000000000E+00  0.00000000000E+00  0.99999998245E-14  0.12500000000E+03  0.12500000000E+03 0.  0.
          5    1    1    0  501    0  0.35411678285E+02  0.41353598770E+02 -0.30332373956E+02  0.62500000000E+02  0.47000000000E+01 0. -1.
         -5    1    1    0    0  501 -0.35411678285E+02 -0.41353598770E+02  0.30332373956E+02  0.62500000000E+02  0.47000000000E+01 0. -1.
</event>
<event>
 3    0  0.4591805E-005  0.9118800E+02  0.7546771E-02  0.1235069E+00
         25   -1    0    0    0    0  0.00000000000E+00  0.00000000000E+00  0.99999998245E-14  0.12500000000E+03  0.12500000000E+03 0.  0.
          5    1    1    0  501    0 -0.56865447949E+01  0.14599561476E+02 -0.60321439083E+02  0.62500000000E+02  0.47000000000E+01 0.  1.
         -5    1    1    0    0  501  0.56865447949E+01 -0.14599561476E+02  0.60321439083E+02  0.62500000000E+02  0.47000000000E+01 0.  1.
</event>
<event>
 3    0  0.4591805E-005  0.9118800E+02  0.7546771E-02  0.1235069E+00
         25   -1    0    0    0    0  0.00000000000E+00  0.00000000000E+00  0.99999998245E-14  0.12500000000E+03  0.12500000000E+03 0.  0.
          5    1    1    0  501    0  0.12119886318E+02  0.22987591752E+02  0.56646614913E+02  0.62500000000E+02  0.47000000000E+01 0.  1.
         -5    1    1    0    0  501 -0.12119886318E+02 -0.22987591752E+02 -0.56646614913E+02  0.62500000000E+02  0.47000000000E+01 0.  1.
</event>
<event>
 3    0  0.4591805E-005  0.9118800E+02  0.7546771E-02  0.1235069E+00
         25   -1    0    0    0    0  0.00000000000E+00  0.00000000000E+00  0.99999998245E-14  0.12500000000E+03  0.12500000000E+03 0.  0.
          5    1    1    0  501    0  0.19021849020E+02  0.11986959546E+01  0.59337108017E+02  0.62500000000E+02  0.47000000000E+01 0.  1.
         -5    1    1    0    0  501 -0.19021849020E+02 -0.11986959546E+01 -0.59337108017E+02  0.62500000000E+02  0.47000000000E+01 0.  1.
</event>
<event>
 3    0  0.4591805E-005  0.9118800E+02  0.7546771E-02  0.1235069E+00
         25   -1    0    0    0    0  0.00000000000E+00  0.00000000000E+00  0.99999998245E-14  0.12500000000E+03  0.12500000000E+03 0.  0.
          5    1    1    0  501    0  0.51696523733E+02 -0.34788405660E+02 -0.11816368349E+01  0.62500000000E+02  0.47000000000E+01 0. -1.
         -5    1    1    0    0  501 -0.51696523733E+02  0.34788405660E+02  0.11816368349E+01  0.62500000000E+02  0.47000000000E+01 0. -1.
</event>
<event>
 3    0  0.4591805E-005  0.9118800E+02  0.7546771E-02  0.1235069E+00
         25   -1    0    0    0    0  0.00000000000E+00  0.00000000000E+00  0.99999998245E-14  0.12500000000E+03  0.12500000000E+03 0.  0.
          5    1    1    0  501    0 -0.18541656653E+02 -0.35551715306E+02  0.47712079260E+02  0.62500000000E+02  0.47000000000E+01 0.  1.
         -5    1    1    0    0  501  0.18541656653E+02  0.35551715306E+02 -0.47712079260E+02  0.62500000000E+02  0.47000000000E+01 0.  1.
</event>
<event>
 3    0  0.4591805E-005  0.9118800E+02  0.7546771E-02  0.1235069E+00
         25   -1    0    0    0    0  0.00000000000E+00  0.00000000000E+00  0.99999998245E-14  0.12500000000E+03  0.12500000000E+03 0.  0.
          5    1    1    0  501    0 -0.18360224012E+02  0.18831905155E+02  0.56501517878E+02  0.62500000000E+02  0.47000000000E+01 0. -1.
         -5    1    1    0    0  501  0.18360224012E+02 -0.18831905155E+02 -0.56501517878E+02  0.62500000000E+02  0.47000000000E+01 0. -1.
</event>
<event>
 3    0  0.4591805E-005  0.9118800E+02  0.7546771E-02  0.1235069E+00
         25   -1    0    0    0    0  0.00000000000E+00  0.00000000000E+00  0.99999998245E-14  0.12500000000E+03  0.12500000000E+03 0.  0.
          5    1    1    0  501    0 -0.58254895519E+01 -0.24636633340E+02 -0.56949626594E+02  0.62500000000E+02  0.47000000000E+01 0. -1.
         -5    1    1    0    0  501  0.58254895519E+01  0.24636633340E+02  0.56949626594E+02  0.62500000000E+02  0.47000000000E+01 0. -1.
</event>
<event>
 3    0  0.4591805E-005  0.9118800E+02  0.7546771E-02  0.1235069E+00
         25   -1    0    0    0    0  0.00000000000E+00  0.00000000000E+00  0.99999998245E-14  0.12500000000E+03  0.12500000000E+03 0.  0.
          5    1    1    0  501    0  0.46692063322E+02  0.41230233169E+02 -0.20196771022E+01  0.62500000000E+02  0.47000000000E+01 0. -1.
         -5    1    1    0    0  501 -0.46692063322E+02 -0.41230233169E+02  0.20196771022E+01  0.62500000000E+02  0.47000000000E+01 0. -1.
</event>
<event>
 3    0  0.4591805E-005  0.9118800E+02  0.7546771E-02  0.1235069E+00
         25   -1    0    0    0    0  0.00000000000E+00  0.00000000000E+00  0.99999998245E-14  0.12500000000E+03  0.12500000000E+03 0.  0.
          5    1    1    0  501    0 -0.58417700671E+02  0.12151024163E+02 -0.17996801386E+02  0.62500000000E+02  0.47000000000E+01 0. -1.
         -5    1    1    0    0  501  0.58417700671E+02 -0.12151024163E+02  0.17996801386E+02  0.62500000000E+02  0.47000000000E+01 0. -1.
</event>
<event>
 3    0  0.4591805E-005  0.9118800E+02  0.7546771E-02  0.1235069E+00
         25   -1    0    0    0    0  0.00000000000E+00  0.00000000000E+00  0.99999998245E-14  0.12500000000E+03  0.12500000000E+03 0.  0.
          5    1    1    0  501    0  0.29165602841E+02  0.54066275726E+01  0.54811458558E+02  0.62500000000E+02  0.47000000000E+01 0.  1.
         -5    1    1    0    0  501 -0.29165602841E+02 -0.54066275726E+01 -0.54811458558E+02  0.62500000000E+02  0.47000000000E+01 0.  1.
</event>
<event>
 3    0  0.4591805E-005  0.9118800E+02  0.7546771E-02  0.1235069E+00
         25   -1    0    0    0    0  0.00000000000E+00  0.00000000000E+00  0.99999998245E-14  0.12500000000E+03  0.12500000000E+03 0.  0.
          5    1    1    0  501    0 -0.55812935023E+02  0.22247977736E+02 -0.16556079573E+02  0.62500000000E+02  0.47000000000E+01 0. -1.
         -5    1    1    0    0  501  0.55812935023E+02 -0.22247977736E+02  0.16556079573E+02  0.62500000000E+02  0.47000000000E+01 0. -1.
</event>
<event>
 3    0  0.4591805E-005  0.9118800E+02  0.7546771E-02  0.1235069E+00
         25   -1    0    0    0    0  0.00000000000E+00  0.00000000000E+00  0.99999998245E-14  0.12500000000E+03  0.12500000000E+03 0.  0.
          5    1    1    0  501    0 -0.49309490862E+02 -0.19907880653E+02 -0.32502467581E+02  0.62500000000E+02  0.47000000000E+01 0. -1.
         -5    1    1    0    0  501  0.49309490862E+02  0.19907880653E+02  0.32502467581E+02  0.62500000000E+02  0.47000000000E+01 0. -1.
</event>
<event>
 3    0  0.4591805E-005  0.9118800E+02  0.7546771E-02  0.1235069E+00
         25   -1    0    0    0    0  0.00000000000E+00  0.00000000000E+00  0.99999998245E-14  0.12500000000E+03  0.12500000000E+03 0.  0.
          5    1    1    0  501    0 -0.26932308711E+02 -0.78491407428E+01  0.55652508812E+02  0.62500000000E+02  0.47000000000E+01 0. -1.
         -5    1    1    0    0  501  0.26932308711E+02  0.78491407428E+01 -0.55652508812E+02  0.62500000000E+02  0.47000000000E+01 0. -1.
</event>
<event>
 3    0  0.4591805E-005  0.9118800E+02  0.7546771E-02  0.1235069E+00
         25   -1    0    0    0    0  0.00000000000E+00  0.00000000000E+00  0.99999998245E-14  0.12500000000E+03  0.12500000000E+03 0.  0.
          5    1    1    0  501    0  0.19770134462E+02  0.12861863358E+02 -0.57687730535E+02  0.62500000000E+02  0.47000000000E+01 0. -1.
         -5    1    1    0    0  501 -0.19770134462E+02 -0.12861863358E+02  0.57687730535E+02  0.62500000000E+02  0.47000000000E+01 0. -1.
</event>
<event>
 3    0  0.4591805E-005  0.9118800E+02  0.7546771E-02  0.1235069E+00
         25   -1    0    0    0    0  0.00000000000E+00  0.00000000000E+00  0.99999998245E-14  0.12500000000E+03  0.12500000000E+03 0.  0.
          5    1    1    0  501    0 -0.42498443452E+02  0.25299337040E+02 -0.37920783873E+02  0.62500000000E+02  0.47000000000E+01 0.  1.
         -5    1    1    0    0  501  0.42498443452E+02 -0.25299337040E+02  0.37920783873E+02  0.62500000000E+02  0.47000000000E+01 0.  1.
</event>
<event>
 3    0  0.4591805E-005  0.9118800E+02  0.7546771E-02  0.1235069E+00
         25   -1    0    0    0    0  0.00000000000E+00  0.00000000000E+00  0.99999998245E-14  0.12500000000E+03  0.12500000000E+03 0.  0.
          5    1    1    0  501    0 -0.14125808025E+02  0.54473575752E+02  0.26781543877E+02  0.62500000000E+02  0.47000000000E+01 0. -1.
         -5    1    1    0    0  501  0.14125808025E+02 -0.54473575752E+02 -0.26781543877E+02  0.62500000000E+02  0.47000000000E+01 0. -1.
</event>
<event>
 3    0  0.4591805E-005  0.9118800E+02  0.7546771E-02  0.1235069E+00
         25   -1    0    0    0    0  0.00000000000E+00  0.00000000000E+00  0.99999998245E-14  0.12500000000E+03  0.12500000000E+03 0.  0.
          5    1    1    0  501    0  0.15059342696E+02  0.44107982332E+02 -0.41374655191E+02  0.62500000000E+02  0.47000000000E+01 0. -1.
         -5    1    1    0    0  501 -0.15059342696E+02 -0.44107982332E+02  0.41374655191E+02  0.62500000000E+02  0.47000000000E+01 0. -1.
</event>
<event>
 3    0  0.4591805E-005  0.9118800E+02  0.7546771E-02  0.1235069E+00
         25   -1    0    0    0    0  0.00000000000E+00  0.00000000000E+00  0.99999998245E-14  0.12500000000E+03  0.12500000000E+03 0.  0.
          5    1    1    0  501    0 -0.38017828604E+02  0.18648213984E+02 -0.45727987310E+02  0.62500000000E+02  0.47000000000E+01 0. -1.
         -5    1    1    0    0  501  0.38017828604E+02 -0.18648213984E+02  0.45727987310E+02  0.62500000000E+02  0.47000000000E+01 0. -1.
</event>
<event>
 3    0  0.4591805E-005  0.9118800E+02  0.7546771E-02  0.1235069E+00
         25   -1    0    0    0    0  0.00000000000E+00  0.00000000000E+00  0.99999998245E-14  0.12500000000E+03  0.12500000000E+03 0.  0.
          5    1    1    0  501    0  0.25978316810E+02 -0.20607259756E+01  0.56613076795E+02  0.62500000000E+02  0.47000000000E+01 0.  1.
         -5    1    1    0    0  501 -0.25978316810E+02  0.20607259756E+01 -0.56613076795E+02  0.62500000000E+02  0.47000000000E+01 0.  1.
</event>
<event>
 3    0  0.4591805E-005  0.9118800E+02  0.7546771E-02  0.1235069E+00
         25   -1    0    0    0    0  0.00000000000E+00  0.00000000000E+00  0.99999998245E-14  0.12500000000E+03  0.12500000000E+03 0.  0.
          5    1    1    0  501    0  0.23408733430E+02  0.37384981836E+02 -0.44029016935E+02  0.62500000000E+02  0.47000000000E+01 0.  1.
         -5    1    1    0    0  501 -0.23408733430E+02 -0.37384981836E+02  0.44029016935E+02  0.62500000000E+02  0.47000000000E+01 0.  1.
</event>
<event>
 3    0  0.4591805E-005  0.9118800E+02  0.7546771E-02  0.1235069E+00
         25   -1    0    0    0    0  0.00000000000E+00  0.00000000000E+00  0.99999998245E-14  0.12500000000E+03  0.12500000000E+03 0.  0.
          5    1    1    0  501    0 -0.17824474336E+02  0.45351812599E+02  0.38854358940E+02  0.62500000000E+02  0.47000000000E+01 0.  1.
         -5    1    1    0    0  501  0.17824474336E+02 -0.45351812599E+02 -0.38854358940E+02  0.62500000000E+02  0.47000000000E+01 0.  1.
</event>
<event>
 3    0  0.4591805E-005  0.9118800E+02  0.7546771E-02  0.1235069E+00
         25   -1    0    0    0    0  0.00000000000E+00  0.00000000000E+00  0.99999998245E-14  0.12500000000E+03  0.12500000000E+03 0.  0.
          5    1    1    0  501    0  0.60198182446E+02  0.50923379305E+00 -0.16126980843E+02  0.62500000000E+02  0.47000000000E+01 0. -1.
         -5    1    1    0    0  501 -0.60198182446E+02 -0.50923379305E+00  0.16126980843E+02  0.62500000000E+02  0.47000000000E+01 0. -1.
</event>
<event>
 3    0  0.4591805E-005  0.9118800E+02  0.7546771E-02  0.1235069E+00
         25   -1    0    0    0    0  0.00000000000E+00  0.00000000000E+00  0.99999998245E-14  0.12500000000E+03  0.12500000000E+03 0.  0.
          5    1    1    0  501    0  0.41772576871E+02 -0.34649758549E+02 -0.30636678247E+02  0.62500000000E+02  0.47000000000E+01 0. -1.
         -5    1    1    0    0  501 -0.41772576871E+02  0.34649758549E+02  0.30636678247E+02  0.62500000000E+02  0.47000000000E+01 0. -1.
</event>
<event>
 3    0  0.4591805E-005  0.9118800E+02  0.7546771E-02  0.1235069E+00
         25   -1    0    0    0    0  0.00000000000E+00  0.00000000000E+00  0.99999998245E-14  0.12500000000E+03  0.12500000000E+03 0.  0.
          5    1    1    0  501    0  0.24750070452E+02  0.52248350925E+02 -0.23274531965E+02  0.62500000000E+02  0.47000000000E+01 0.  1.
         -5    1    1    0    0  501 -0.24750070452E+02 -0.52248350925E+02  0.23274531965E+02  0.62500000000E+02  0.47000000000E+01 0.  1.
</event>
<event>
 3    0  0.4591805E-005  0.9118800E+02  0.7546771E-02  0.1235069E+00
         25   -1    0    0    0    0  0.00000000000E+00  0.00000000000E+00  0.99999998245E-14  0.12500000000E+03  0.12500000000E+03 0.  0.
          5    1    1    0  501    0  0.89010823254E+01  0.33069504184E+02 -0.52070515904E+02  0.62500000000E+02  0.47000000000E+01 0.  1.
         -5    1    1    0    0  501 -0.89010823254E+01 -0.33069504184E+02  0.52070515904E+02  0.62500000000E+02  0.47000000000E+01 0.  1.
</event>
<event>
 3    0  0.4591805E-005  0.9118800E+02  0.7546771E-02  0.1235069E+00
         25   -1    0    0    0    0  0.00000000000E+00  0.00000000000E+00  0.99999998245E-14  0.12500000000E+03  0.12500000000E+03 0.  0.
          5    1    1    0  501    0  0.10598417269E+01 -0.18457576481E+02  0.59517683137E+02  0.62500000000E+02  0.47000000000E+01 0.  1.
         -5    1    1    0    0  501 -0.10598417269E+01  0.18457576481E+02 -0.59517683137E+02  0.62500000000E+02  0.47000000000E+01 0.  1.
</event>
<event>
 3    0  0.4591805E-005  0.9118800E+02  0.7546771E-02  0.1235069E+00
         25   -1    0    0    0    0  0.00000000000E+00  0.00000000000E+00  0.99999998245E-14  0.12500000000E+03  0.12500000000E+03 0.  0.
          5    1    1    0  501    0  0.50032658554E+02  0.11107967754E+02 -0.35461332891E+02  0.62500000000E+02  0.47000000000E+01 0.  1.
         -5    1    1    0    0  501 -0.50032658554E+02 -0.11107967754E+02  0.35461332891E+02  0.62500000000E+02  0.47000000000E+01 0.  1.
</event>
<event>
 3    0  0.4591805E-005  0.9118800E+02  0.7546771E-02  0.1235069E+00
         25   -1    0    0    0    0  0.00000000000E+00  0.00000000000E+00  0.99999998245E-14  0.12500000000E+03  0.12500000000E+03 0.  0.
          5    1    1    0  501    0  0.20254615730E+02  0.52950635338E+02 -0.25887077065E+02  0.62500000000E+02  0.47000000000E+01 0.  1.
         -5    1    1    0    0  501 -0.20254615730E+02 -0.52950635338E+02  0.25887077065E+02  0.62500000000E+02  0.47000000000E+01 0.  1.
</event>
<event>
 3    0  0.4591805E-005  0.9118800E+02  0.7546771E-02  0.1235069E+00
         25   -1    0    0    0    0  0.00000000000E+00  0.00000000000E+00  0.99999998245E-14  0.12500000000E+03  0.12500000000E+03 0.  0.
          5    1    1    0  501    0  0.19249708473E+02  0.51906853222E+02 -0.28623195355E+02  0.62500000000E+02  0.47000000000E+01 0.  1.
         -5    1    1    0    0  501 -0.19249708473E+02 -0.51906853222E+02  0.28623195355E+02  0.62500000000E+02  0.47000000000E+01 0.  1.
</event>
<event>
 3    0  0.4591805E-005  0.9118800E+02  0.7546771E-02  0.1235069E+00
         25   -1    0    0    0    0  0.00000000000E+00  0.00000000000E+00  0.99999998245E-14  0.12500000000E+03  0.12500000000E+03 0.  0.
          5    1    1    0  501    0  0.82114766155E+01 -0.57995810942E+02 -0.21288907087E+02  0.62500000000E+02  0.47000000000E+01 0.  1.
         -5    1    1    0    0  501 -0.82114766155E+01  0.57995810942E+02  0.21288907087E+02  0.62500000000E+02  0.47000000000E+01 0.  1.
</event>
<event>
 3    0  0.4591805E-005  0.9118800E+02  0.7546771E-02  0.1235069E+00
         25   -1    0    0    0    0  0.00000000000E+00  0.00000000000E+00  0.99999998245E-14  0.12500000000E+03  0.12500000000E+03 0.  0.
          5    1    1    0  501    0 -0.96481176561E+01 -0.37043704379E+02  0.49181681464E+02  0.62500000000E+02  0.47000000000E+01 0.  1.
         -5    1    1    0    0  501  0.96481176561E+01  0.37043704379E+02 -0.49181681464E+02  0.62500000000E+02  0.47000000000E+01 0.  1.
</event>
<event>
 3    0  0.4591805E-005  0.9118800E+02  0.7546771E-02  0.1235069E+00
         25   -1    0    0    0    0  0.00000000000E+00  0.00000000000E+00  0.99999998245E-14  0.12500000000E+03  0.12500000000E+03 0.  0.
          5    1    1    0  501    0 -0.26080654953E+02  0.39804739665E+02 -0.40243535350E+02  0.62500000000E+02  0.47000000000E+01 0.  1.
         -5    1    1    0    0  501  0.26080654953E+02 -0.39804739665E+02  0.40243535350E+02  0.62500000000E+02  0.47000000000E+01 0.  1.
</event>
<event>
 3    0  0.4591805E-005  0.9118800E+02  0.7546771E-02  0.1235069E+00
         25   -1    0    0    0    0  0.00000000000E+00  0.00000000000E+00  0.99999998245E-14  0.12500000000E+03  0.12500000000E+03 0.  0.
          5    1    1    0  501    0 -0.61543641950E+02  0.11650987026E+01 -0.97561611608E+01  0.62500000000E+02  0.47000000000E+01 0.  1.
         -5    1    1    0    0  501  0.61543641950E+02 -0.11650987026E+01  0.97561611608E+01  0.62500000000E+02  0.47000000000E+01 0.  1.
</event>
<event>
 3    0  0.4591805E-005  0.9118800E+02  0.7546771E-02  0.1235069E+00
         25   -1    0    0    0    0  0.00000000000E+00  0.00000000000E+00  0.99999998245E-14  0.12500000000E+03  0.12500000000E+03 0.  0.
          5    1    1    0  501    0  0.22030638289E+02 -0.38695115233E+02 -0.43606181141E+02  0.62500000000E+02  0.47000000000E+01 0. -1.
         -5    1    1    0    0  501 -0.22030638289E+02  0.38695115233E+02  0.43606181141E+02  0.62500000000E+02  0.47000000000E+01 0. -1.
</event>
<event>
 3    0  0.4591805E-005  0.9118800E+02  0.7546771E-02  0.1235069E+00
         25   -1    0    0    0    0  0.00000000000E+00  0.00000000000E+00  0.99999998245E-14  0.12500000000E+03  0.12500000000E+03 0.  0.
          5    1    1    0  501    0  0.16436428659E+02  0.53985671962E+02  0.26449027123E+02  0.62500000000E+02  0.47000000000E+01 0.  1.
         -5    1    1    0    0  501 -0.16436428659E+02 -0.53985671962E+02 -0.26449027123E+02  0.62500000000E+02  0.47000000000E+01 0.  1.
</event>
<event>
 3    0  0.4591805E-005  0.9118800E+02  0.7546771E-02  0.1235069E+00
         25   -1    0    0    0    0  0.00000000000E+00  0.00000000000E+00  0.99999998245E-14  0.12500000000E+03  0.12500000000E+03 0.  0.
          5    1    1    0  501    0 -0.34240769497E+02  0.33283525605E+02  0.40049177614E+02  0.62500000000E+02  0.47000000000E+01 0. -1.
         -5    1    1    0    0  501  0.34240769497E+02 -0.33283525605E+02 -0.40049177614E+02  0.62500000000E+02  0.47000000000E+01 0. -1.
</event>
<event>
 3    0  0.4591805E-005  0.9118800E+02  0.7546771E-02  0.1235069E+00
         25   -1    0    0    0    0  0.00000000000E+00  0.00000000000E+00  0.99999998245E-14  0.12500000000E+03  0.12500000000E+03 0.  0.
          5    1    1    0  501    0  0.37502302567E+02  0.48034752089E+02 -0.13053731034E+02  0.62500000000E+02  0.47000000000E+01 0.  1.
         -5    1    1    0    0  501 -0.37502302567E+02 -0.48034752089E+02  0.13053731034E+02  0.62500000000E+02  0.47000000000E+01 0.  1.
</event>
<event>
 3    0  0.4591805E-005  0.9118800E+02  0.7546771E-02  0.1235069E+00
         25   -1    0    0    0    0  0.00000000000E+00  0.00000000000E+00  0.99999998245E-14  0.12500000000E+03  0.12500000000E+03 0.  0.
          5    1    1    0  501    0 -0.14122696370E+02 -0.21667026685E+02  0.56703169240E+02  0.62500000000E+02  0.47000000000E+01 0. -1.
         -5    1    1    0    0  501  0.14122696370E+02  0.21667026685E+02 -0.56703169240E+02  0.62500000000E+02  0.47000000000E+01 0. -1.
</event>
<event>
 3    0  0.4591805E-005  0.9118800E+02  0.7546771E-02  0.1235069E+00
         25   -1    0    0    0    0  0.00000000000E+00  0.00000000000E+00  0.99999998245E-14  0.12500000000E+03  0.12500000000E+03 0.  0.
          5    1    1    0  501    0 -0.28753744979E+01 -0.19462983870E+02  0.59136152059E+02  0.62500000000E+02  0.47000000000E+01 0. -1.
         -5    1    1    0    0  501  0.28753744979E+01  0.19462983870E+02 -0.59136152059E+02  0.62500000000E+02  0.47000000000E+01 0. -1.
</event>
<event>
 3    0  0.4591805E-005  0.9118800E+02  0.7546771E-02  0.1235069E+00
         25   -1    0    0    0    0  0.00000000000E+00  0.00000000000E+00  0.99999998245E-14  0.12500000000E+03  0.12500000000E+03 0.  0.
          5    1    1    0  501    0 -0.28860901558E+02  0.12773069420E+02 -0.53740646245E+02  0.62500000000E+02  0.47000000000E+01 0.  1.
         -5    1    1    0    0  501  0.28860901558E+02 -0.12773069420E+02  0.53740646245E+02  0.62500000000E+02  0.47000000000E+01 0.  1.
</event>
<event>
 3    0  0.4591805E-005  0.9118800E+02  0.7546771E-02  0.1235069E+00
         25   -1    0    0    0    0  0.00000000000E+00  0.00000000000E+00  0.99999998245E-14  0.12500000000E+03  0.12500000000E+03 0.  0.
          5    1    1    0  501    0 -0.22676081214E+02 -0.47985410905E+02 -0.32670409870E+02  0.62500000000E+02  0.47000000000E+01 0.  1.
         -5    1    1    0    0  501  0.22676081214E+02  0.47985410905E+02  0.32670409870E+02  0.62500000000E+02  0.47000000000E+01 0.  1.
</event>
<event>
 3    0  0.4591805E-005  0.9118800E+02  0.7546771E-02  0.1235069E+00
         25   -1    0    0    0    0  0.00000000000E+00  0.00000000000E+00  0.99999998245E-14  0.12500000000E+03  0.12500000000E+03 0.  0.
          5    1    1    0  501    0  0.53935202952E+02 -0.31173102220E+02 -0.18416244185E+01  0.62500000000E+02  0.47000000000E+01 0.  1.
         -5    1    1    0    0  501 -0.53935202952E+02  0.31173102220E+02  0.18416244185E+01  0.62500000000E+02  0.47000000000E+01 0.  1.
</event>
<event>
 3    0  0.4591805E-005  0.9118800E+02  0.7546771E-02  0.1235069E+00
         25   -1    0    0    0    0  0.00000000000E+00  0.00000000000E+00  0.99999998245E-14  0.12500000000E+03  0.12500000000E+03 0.  0.
          5    1    1    0  501    0 -0.29297950621E+02  0.34100881651E+02  0.43161556506E+02  0.62500000000E+02  0.47000000000E+01 0. -1.
         -5    1    1    0    0  501  0.29297950621E+02 -0.34100881651E+02 -0.43161556506E+02  0.62500000000E+02  0.47000000000E+01 0. -1.
</event>
<event>
 3    0  0.4591805E-005  0.9118800E+02  0.7546771E-02  0.1235069E+00
         25   -1    0    0    0    0  0.00000000000E+00  0.00000000000E+00  0.99999998245E-14  0.12500000000E+03  0.12500000000E+03 0.  0.
          5    1    1    0  501    0  0.60051810402E+02 -0.10324655078E+02 -0.13089750379E+02  0.62500000000E+02  0.47000000000E+01 0.  1.
         -5    1    1    0    0  501 -0.60051810402E+02  0.10324655078E+02  0.13089750379E+02  0.62500000000E+02  0.47000000000E+01 0.  1.
</event>
<event>
 3    0  0.4591805E-005  0.9118800E+02  0.7546771E-02  0.1235069E+00
         25   -1    0    0    0    0  0.00000000000E+00  0.00000000000E+00  0.99999998245E-14  0.12500000000E+03  0.12500000000E+03 0.  0.
          5    1    1    0  501    0  0.11032682701E+02  0.23492500634E+01 -0.61293726731E+02  0.62500000000E+02  0.47000000000E+01 0. -1.
         -5    1    1    0    0  501 -0.11032682701E+02 -0.23492500634E+01  0.61293726731E+02  0.62500000000E+02  0.47000000000E+01 0. -1.
</event>
<event>
 3    0  0.4591805E-005  0.9118800E+02  0.7546771E-02  0.1235069E+00
         25   -1    0    0    0    0  0.00000000000E+00  0.00000000000E+00  0.99999998245E-14  0.12500000000E+03  0.12500000000E+03 0.  0.
          5    1    1    0  501    0 -0.59423637960E+02 -0.18728020246E+02  0.15008362057E+01  0.62500000000E+02  0.47000000000E+01 0.  1.
         -5    1    1    0    0  501  0.59423637960E+02  0.18728020246E+02 -0.15008362057E+01  0.62500000000E+02  0.47000000000E+01 0.  1.
</event>
<event>
 3    0  0.4591805E-005  0.9118800E+02  0.7546771E-02  0.1235069E+00
         25   -1    0    0    0    0  0.00000000000E+00  0.00000000000E+00  0.99999998245E-14  0.12500000000E+03  0.12500000000E+03 0.  0.
          5    1    1    0  501    0  0.33367482380E+02  0.47685368016E+02  0.22290733429E+02  0.62500000000E+02  0.47000000000E+01 0.  1.
         -5    1    1    0    0  501 -0.33367482380E+02 -0.47685368016E+02 -0.22290733429E+02  0.62500000000E+02  0.47000000000E+01 0.  1.
</event>
<event>
 3    0  0.4591805E-005  0.9118800E+02  0.7546771E-02  0.1235069E+00
         25   -1    0    0    0    0  0.00000000000E+00  0.00000000000E+00  0.99999998245E-14  0.12500000000E+03  0.12500000000E+03 0.  0.
          5    1    1    0  501    0  0.28987493670E+02  0.47914072700E+02  0.27351907575E+02  0.62500000000E+02  0.47000000000E+01 0. -1.
         -5    1    1    0    0  501 -0.28987493670E+02 -0.47914072700E+02 -0.27351907575E+02  0.62500000000E+02  0.47000000000E+01 0. -1.
</event>
<event>
 3    0  0.4591805E-005  0.9118800E+02  0.7546771E-02  0.1235069E+00
         25   -1    0    0    0    0  0.00000000000E+00  0.00000000000E+00  0.99999998245E-14  0.12500000000E+03  0.12500000000E+03 0.  0.
          5    1    1    0  501    0  0.36589418709E+02 -0.47203899254E+02  0.17809164319E+02  0.62500000000E+02  0.47000000000E+01 0. -1.
         -5    1    1    0    0  501 -0.36589418709E+02  0.47203899254E+02 -0.17809164319E+02  0.62500000000E+02  0.47000000000E+01 0. -1.
</event>
<event>
 3    0  0.4591805E-005  0.9118800E+02  0.7546771E-02  0.1235069E+00
         25   -1    0    0    0    0  0.00000000000E+00  0.00000000000E+00  0.99999998245E-14  0.12500000000E+03  0.12500000000E+03 0.  0.
          5    1    1    0  501    0 -0.20453317531E+02 -0.53221959868E+02  0.25164355540E+02  0.62500000000E+02  0.47000000000E+01 0.  1.
         -5    1    1    0    0  501  0.20453317531E+02  0.53221959868E+02 -0.25164355540E+02  0.62500000000E+02  0.47000000000E+01 0.  1.
</event>
<event>
 3    0  0.4591805E-005  0.9118800E+02  0.7546771E-02  0.1235069E+00
         25   -1    0    0    0    0  0.00000000000E+00  0.00000000000E+00  0.99999998245E-14  0.12500000000E+03  0.12500000000E+03 0.  0.
          5    1    1    0  501    0  0.15791378931E+02 -0.59434363310E+02  0.10116758836E+02  0.62500000000E+02  0.47000000000E+01 0. -1.
         -5    1    1    0    0  501 -0.15791378931E+02  0.59434363310E+02 -0.10116758836E+02  0.62500000000E+02  0.47000000000E+01 0. -1.
</event>
<event>
 3    0  0.4591805E-005  0.9118800E+02  0.7546771E-02  0.1235069E+00
         25   -1    0    0    0    0  0.00000000000E+00  0.00000000000E+00  0.99999998245E-14  0.12500000000E+03  0.12500000000E+03 0.  0.
          5    1    1    0  501    0 -0.41209032468E+02 -0.24859333612E+02  0.39597843066E+02  0.62500000000E+02  0.47000000000E+01 0.  1.
         -5    1    1    0    0  501  0.41209032468E+02  0.24859333612E+02 -0.39597843066E+02  0.62500000000E+02  0.47000000000E+01 0.  1.
</event>
<event>
 3    0  0.4591805E-005  0.9118800E+02  0.7546771E-02  0.1235069E+00
         25   -1    0    0    0    0  0.00000000000E+00  0.00000000000E+00  0.99999998245E-14  0.12500000000E+03  0.12500000000E+03 0.  0.
          5    1    1    0  501    0  0.88202118078E+01  0.49167297575E+02  0.37268494910E+02  0.62500000000E+02  0.47000000000E+01 0. -1.
         -5    1    1    0    0  501 -0.88202118078E+01 -0.49167297575E+02 -0.37268494910E+02  0.62500000000E+02  0.47000000000E+01 0. -1.
</event>
<event>
 3    0  0.4591805E-005  0.9118800E+02  0.7546771E-02  0.1235069E+00
         25   -1    0    0    0    0  0.00000000000E+00  0.00000000000E+00  0.99999998245E-14  0.12500000000E+03  0.12500000000E+03 0.  0.
          5    1    1    0  501    0  0.52870794757E+02  0.14678711449E+02 -0.29552910042E+02  0.62500000000E+02  0.47000000000E+01 0.  1.
         -5    1    1    0    0  501 -0.52870794757E+02 -0.14678711449E+02  0.29552910042E+02  0.62500000000E+02  0.47000000000E+01 0.  1.
</event>
<event>
 3    0  0.4591805E-005  0.9118800E+02  0.7546771E-02  0.1235069E+00
         25   -1    0    0    0    0  0.00000000000E+00  0.00000000000E+00  0.99999998245E-14  0.12500000000E+03  0.12500000000E+03 0.  0.
          5    1    1    0  501    0 -0.40316361049E+02  0.46414480825E+02  0.10219931580E+02  0.62500000000E+02  0.47000000000E+01 0. -1.
         -5    1    1    0    0  501  0.40316361049E+02 -0.46414480825E+02 -0.10219931580E+02  0.62500000000E+02  0.47000000000E+01 0. -1.
</event>
<event>
 3    0  0.4591805E-005  0.9118800E+02  0.7546771E-02  0.1235069E+00
         25   -1    0    0    0    0  0.00000000000E+00  0.00000000000E+00  0.99999998245E-14  0.12500000000E+03  0.12500000000E+03 0.  0.
          5    1    1    0  501    0  0.50795798720E+02 -0.28348645043E+02  0.22367412829E+02  0.62500000000E+02  0.47000000000E+01 0. -1.
         -5    1    1    0    0  501 -0.50795798720E+02  0.28348645043E+02 -0.22367412829E+02  0.62500000000E+02  0.47000000000E+01 0. -1.
</event>
<event>
 3    0  0.4591805E-005  0.9118800E+02  0.7546771E-02  0.1235069E+00
         25   -1    0    0    0    0  0.00000000000E+00  0.00000000000E+00  0.99999998245E-14  0.12500000000E+03  0.12500000000E+03 0.  0.
          5    1    1    0  501    0 -0.31493555810E+02  0.47859992587E+02 -0.24530329227E+02  0.62500000000E+02  0.47000000000E+01 0.  1.
         -5    1    1    0    0  501  0.31493555810E+02 -0.47859992587E+02  0.24530329227E+02  0.62500000000E+02  0.47000000000E+01 0.  1.
</event>
<event>
 3    0  0.4591805E-005  0.9118800E+02  0.7546771E-02  0.1235069E+00
         25   -1    0    0    0    0  0.00000000000E+00  0.00000000000E+00  0.99999998245E-14  0.12500000000E+03  0.12500000000E+03 0.  0.
          5    1    1    0  501    0  0.20701542085E+02 -0.43073575401E+02 -0.40003415572E+02  0.62500000000E+02  0.47000000000E+01 0.  1.
         -5    1    1    0    0  501 -0.20701542085E+02  0.43073575401E+02  0.40003415572E+02  0.62500000000E+02  0.47000000000E+01 0.  1.
</event>
<event>
 3    0  0.4591805E-005  0.9118800E+02  0.7546771E-02  0.1235069E+00
         25   -1    0    0    0    0  0.00000000000E+00  0.00000000000E+00  0.99999998245E-14  0.12500000000E+03  0.12500000000E+03 0.  0.
          5    1    1    0  501    0 -0.12564514542E+02 -0.53467562232E+02  0.29453569618E+02  0.62500000000E+02  0.47000000000E+01 0.  1.
         -5    1    1    0    0  501  0.12564514542E+02  0.53467562232E+02 -0.29453569618E+02  0.62500000000E+02  0.47000000000E+01 0.  1.
</event>
<event>
 3    0  0.4591805E-005  0.9118800E+02  0.7546771E-02  0.1235069E+00
         25   -1    0    0    0    0  0.00000000000E+00  0.00000000000E+00  0.99999998245E-14  0.12500000000E+03  0.12500000000E+03 0.  0.
          5    1    1    0  501    0 -0.53432229035E+02 -0.22100623306E+02  0.23253372870E+02  0.62500000000E+02  0.47000000000E+01 0. -1.
         -5    1    1    0    0  501  0.53432229035E+02  0.22100623306E+02 -0.23253372870E+02  0.62500000000E+02  0.47000000000E+01 0. -1.
</event>
<event>
 3    0  0.4591805E-005  0.9118800E+02  0.7546771E-02  0.1235069E+00
         25   -1    0    0    0    0  0.00000000000E+00  0.00000000000E+00  0.99999998245E-14  0.12500000000E+03  0.12500000000E+03 0.  0.
          5    1    1    0  501    0 -0.29378163045E+02 -0.54548732375E+02  0.67468016430E+01  0.62500000000E+02  0.47000000000E+01 0.  1.
         -5    1    1    0    0  501  0.29378163045E+02  0.54548732375E+02 -0.67468016430E+01  0.62500000000E+02  0.47000000000E+01 0.  1.
</event>
<event>
 3    0  0.4591805E-005  0.9118800E+02  0.7546771E-02  0.1235069E+00
         25   -1    0    0    0    0  0.00000000000E+00  0.00000000000E+00  0.99999998245E-14  0.12500000000E+03  0.12500000000E+03 0.  0.
          5    1    1    0  501    0 -0.36160912061E+02  0.20955786194E+02  0.46232060996E+02  0.62500000000E+02  0.47000000000E+01 0.  1.
         -5    1    1    0    0  501  0.36160912061E+02 -0.20955786194E+02 -0.46232060996E+02  0.62500000000E+02  0.47000000000E+01 0.  1.
</event>
<event>
 3    0  0.4591805E-005  0.9118800E+02  0.7546771E-02  0.1235069E+00
         25   -1    0    0    0    0  0.00000000000E+00  0.00000000000E+00  0.99999998245E-14  0.12500000000E+03  0.12500000000E+03 0.  0.
          5    1    1    0  501    0 -0.10217756692E+02  0.57380895431E+02 -0.22072387451E+02  0.62500000000E+02  0.47000000000E+01 0.  1.
         -5    1    1    0    0  501  0.10217756692E+02 -0.57380895431E+02  0.22072387451E+02  0.62500000000E+02  0.47000000000E+01 0.  1.
</event>
<event>
 3    0  0.4591805E-005  0.9118800E+02  0.7546771E-02  0.1235069E+00
         25   -1    0    0    0    0  0.00000000000E+00  0.00000000000E+00  0.99999998245E-14  0.12500000000E+03  0.12500000000E+03 0.  0.
          5    1    1    0  501    0  0.31104526382E+02  0.37370543268E+02  0.38988600057E+02  0.62500000000E+02  0.47000000000E+01 0. -1.
         -5    1    1    0    0  501 -0.31104526382E+02 -0.37370543268E+02 -0.38988600057E+02  0.62500000000E+02  0.47000000000E+01 0. -1.
</event>
<event>
 3    0  0.4591805E-005  0.9118800E+02  0.7546771E-02  0.1235069E+00
         25   -1    0    0    0    0  0.00000000000E+00  0.00000000000E+00  0.99999998245E-14  0.12500000000E+03  0.12500000000E+03 0.  0.
          5    1    1    0  501    0  0.34413386108E+02  0.37204980145E+02 -0.36272142328E+02  0.62500000000E+02  0.47000000000E+01 0.  1.
         -5    1    1    0    0  501 -0.34413386108E+02 -0.37204980145E+02  0.36272142328E+02  0.62500000000E+02  0.47000000000E+01 0.  1.
</event>
<event>
 3    0  0.4591805E-005  0.9118800E+02  0.7546771E-02  0.1235069E+00
         25   -1    0    0    0    0  0.00000000000E+00  0.00000000000E+00  0.99999998245E-14  0.12500000000E+03  0.12500000000E+03 0.  0.
          5    1    1    0  501    0 -0.97140620333E-01 -0.63601503782E+01 -0.61997572943E+02  0.62500000000E+02  0.47000000000E+01 0.  1.
         -5    1    1    0    0  501  0.97140620333E-01  0.63601503782E+01  0.61997572943E+02  0.62500000000E+02  0.47000000000E+01 0.  1.
</event>
<event>
 3    0  0.4591805E-005  0.9118800E+02  0.7546771E-02  0.1235069E+00
         25   -1    0    0    0    0  0.00000000000E+00  0.00000000000E+00  0.99999998245E-14  0.12500000000E+03  0.12500000000E+03 0.  0.
          5    1    1    0  501    0  0.32913297462E+02  0.20318416945E+02  0.48867543247E+02  0.62500000000E+02  0.47000000000E+01 0.  1.
         -5    1    1    0    0  501 -0.32913297462E+02 -0.20318416945E+02 -0.48867543247E+02  0.62500000000E+02  0.47000000000E+01 0.  1.
</event>
<event>
 3    0  0.4591805E-005  0.9118800E+02  0.7546771E-02  0.1235069E+00
         25   -1    0    0    0    0  0.00000000000E+00  0.00000000000E+00  0.99999998245E-14  0.12500000000E+03  0.12500000000E+03 0.  0.
          5    1    1    0  501    0  0.37622850019E+02  0.36693966979E+02  0.33499760354E+02  0.62500000000E+02  0.47000000000E+01 0.  1.
         -5    1    1    0    0  501 -0.37622850019E+02 -0.36693966979E+02 -0.33499760354E+02  0.62500000000E+02  0.47000000000E+01 0.  1.
</event>
<event>
 3    0  0.4591805E-005  0.9118800E+02  0.7546771E-02  0.1235069E+00
         25   -1    0    0    0    0  0.00000000000E+00  0.00000000000E+00  0.99999998245E-14  0.12500000000E+03  0.12500000000E+03 0.  0.
          5    1    1    0  501    0 -0.25591172947E+02 -0.53889061490E+02 -0.18033882525E+02  0.62500000000E+02  0.47000000000E+01 0. -1.
         -5    1    1    0    0  501  0.25591172947E+02  0.53889061490E+02  0.18033882525E+02  0.62500000000E+02  0.47000000000E+01 0. -1.
</event>
<event>
 3    0  0.4591805E-005  0.9118800E+02  0.7546771E-02  0.1235069E+00
         25   -1    0    0    0    0  0.00000000000E+00  0.00000000000E+00  0.99999998245E-14  0.12500000000E+03  0.12500000000E+03 0.  0.
          5    1    1    0  501    0  0.60707392473E+02 -0.99323631417E+01  0.10006031262E+02  0.62500000000E+02  0.47000000000E+01 0. -1.
         -5    1    1    0    0  501 -0.60707392473E+02  0.99323631417E+01 -0.10006031262E+02  0.62500000000E+02  0.47000000000E+01 0. -1.
</event>
<event>
 3    0  0.4591805E-005  0.9118800E+02  0.7546771E-02  0.1235069E+00
         25   -1    0    0    0    0  0.00000000000E+00  0.00000000000E+00  0.99999998245E-14  0.12500000000E+03  0.12500000000E+03 0.  0.
          5    1    1    0  501    0 -0.25499915109E+02  0.23238743530E+02 -0.51902554162E+02  0.62500000000E+02  0.47000000000E+01 0. -1.
         -5    1    1    0    0  501  0.25499915109E+02 -0.23238743530E+02  0.51902554162E+02  0.62500000000E+02  0.47000000000E+01 0. -1.
</event>
<event>
 3    0  0.4591805E-005  0.9118800E+02  0.7546771E-02  0.1235069E+00
         25   -1    0    0    0    0  0.00000000000E+00  0.00000000000E+00  0.99999998245E-14  0.12500000000E+03  0.12500000000E+03 0.  0.
          5    1    1    0  501    0  0.57247969214E+02  0.24379194890E+02 -0.35333945987E+01  0.62500000000E+02  0.47000000000E+01 0.  1.
         -5    1    1    0    0  501 -0.57247969214E+02 -0.24379194890E+02  0.35333945987E+01  0.62500000000E+02  0.47000000000E+01 0.  1.
</event>
<event>
 3    0  0.4591805E-005  0.9118800E+02  0.7546771E-02  0.1235069E+00
         25   -1    0    0    0    0  0.00000000000E+00  0.00000000000E+00  0.99999998245E-14  0.12500000000E+03  0.12500000000E+03 0.  0.
          5    1    1    0  501    0  0.54626775596E+01 -0.59373496161E+02 -0.18141309422E+02  0.62500000000E+02  0.47000000000E+01 0.  1.
         -5    1    1    0    0  501 -0.54626775596E+01  0.59373496161E+02  0.18141309422E+02  0.62500000000E+02  0.47000000000E+01 0.  1.
</event>
<event>
 3    0  0.4591805E-005  0.9118800E+02  0.7546771E-02  0.1235069E+00
         25   -1    0    0    0    0  0.00000000000E+00  0.00000000000E+00  0.99999998245E-14  0.12500000000E+03  0.12500000000E+03 0.  0.
          5    1    1    0  501    0 -0.30236719271E+02  0.28064280940E+02 -0.46715061202E+02  0.62500000000E+02  0.47000000000E+01 0.  1.
         -5    1    1    0    0  501  0.30236719271E+02 -0.28064280940E+02  0.46715061202E+02  0.62500000000E+02  0.47000000000E+01 0.  1.
</event>
<event>
 3    0  0.4591805E-005  0.9118800E+02  0.7546771E-02  0.1235069E+00
         25   -1    0    0    0    0  0.00000000000E+00  0.00000000000E+00  0.99999998245E-14  0.12500000000E+03  0.12500000000E+03 0.  0.
          5    1    1    0  501    0 -0.24374844422E+02  0.36387692150E+02 -0.44339179282E+02  0.62500000000E+02  0.47000000000E+01 0. -1.
         -5    1    1    0    0  501  0.24374844422E+02 -0.36387692150E+02  0.44339179282E+02  0.62500000000E+02  0.47000000000E+01 0. -1.
</event>
<event>
 3    0  0.4591805E-005  0.9118800E+02  0.7546771E-02  0.1235069E+00
         25   -1    0    0    0    0  0.00000000000E+00  0.00000000000E+00  0.99999998245E-14  0.12500000000E+03  0.12500000000E+03 0.  0.
          5    1    1    0  501    0 -0.44254704174E+02 -0.33544973173E+02  0.28291623023E+02  0.62500000000E+02  0.47000000000E+01 0. -1.
         -5    1    1    0    0  501  0.44254704174E+02  0.33544973173E+02 -0.28291623023E+02  0.62500000000E+02  0.47000000000E+01 0. -1.
</event>
<event>
 3    0  0.4591805E-005  0.9118800E+02  0.7546771E-02  0.1235069E+00
         25   -1    0    0    0    0  0.00000000000E+00  0.00000000000E+00  0.99999998245E-14  0.12500000000E+03  0.12500000000E+03 0.  0.
          5    1    1    0  501    0 -0.42980215954E+02  0.40352115196E+02  0.20213061019E+02  0.62500000000E+02  0.47000000000E+01 0.  1.
         -5    1    1    0    0  501  0.42980215954E+02 -0.40352115196E+02 -0.20213061019E+02  0.62500000000E+02  0.47000000000E+01 0.  1.
</event>
<event>
 3    0  0.4591805E-005  0.9118800E+02  0.7546771E-02  0.1235069E+00
         25   -1    0    0    0    0  0.00000000000E+00  0.00000000000E+00  0.99999998245E-14  0.12500000000E+03  0.12500000000E+03 0.  0.
          5    1    1    0  501    0  0.96147511518E+01  0.18533267526E+02  0.58721670234E+02  0.62500000000E+02  0.47000000000E+01 0.  1.
         -5    1    1    0    0  501 -0.96147511518E+01 -0.18533267526E+02 -0.58721670234E+02  0.62500000000E+02  0.47000000000E+01 0.  1.
</event>
