<event>
 5    0  0.5742040E-005  0.2523232E+03  0.7546771E-02  0.1111845E+00
         21   -1    0    0  502  501  0.00000000000E+00  0.00000000000E+00  0.85664047658E+03  0.85664047658E+03  0.00000000000E+00 0. -1.
         21   -1    0    0  501  502 -0.00000000000E+00 -0.00000000000E+00 -0.74321702478E+02  0.74321702478E+02  0.00000000000E+00 0. -1.
         25    1    1    2    0    0  0.87353467851E+02  0.52895138393E+02  0.23896600906E+03  0.28837176959E+03  0.12500000000E+03 0.  0.
         25    1    1    2    0    0 -0.14755615191E+03  0.13476606231E+01  0.28641735205E+03  0.34559301745E+03  0.12500000000E+03 0.  0.
         25    1    1    2    0    0  0.60202684063E+02 -0.54242799016E+02  0.25693541299E+03  0.29699739201E+03  0.12500000000E+03 0.  0.
</event>
<event>
 5    0  0.5742040E-005  0.6607691E+03  0.7546771E-02  0.9786779E-01
         21   -1    0    0  502  501  0.00000000000E+00  0.00000000000E+00  0.90317450770E+03  0.90317450770E+03  0.00000000000E+00 0.  1.
         21   -1    0    0  501  502 -0.00000000000E+00 -0.00000000000E+00 -0.48342358312E+03  0.48342358312E+03  0.00000000000E+00 0.  1.
         25    1    1    2    0    0 -0.40682067250E+03  0.25455795989E+03 -0.17734892442E+03  0.52666920881E+03  0.12500000000E+03 0.  0.
         25    1    1    2    0    0  0.21167979269E+03 -0.10189363005E+03  0.49912270957E+03  0.56563161659E+03  0.12500000000E+03 0.  0.
         25    1    1    2    0    0  0.19514087980E+03 -0.15266432984E+03  0.97977139430E+02  0.29429726541E+03  0.12500000000E+03 0.  0.
</event>
<event>
 5    0  0.5742040E-005  0.3252582E+03  0.7546771E-02  0.1073254E+00
         21   -1    0    0  502  501  0.00000000000E+00  0.00000000000E+00  0.45157930392E+03  0.45157930392E+03  0.00000000000E+00 0.  1.
         21   -1    0    0  501  502 -0.00000000000E+00 -0.00000000000E+00 -0.23427318421E+03  0.23427318421E+03  0.00000000000E+00 0.  1.
         25    1    1    2    0    0 -0.73768025248E+02  0.58625917681E+02  0.27623461066E+03  0.31750477146E+03  0.12500000000E+03 0.  0.
         25    1    1    2    0    0  0.14142790806E+00  0.50158067759E+02 -0.11651877623E+03  0.17809401163E+03  0.12500000000E+03 0.  0.
         25    1    1    2    0    0  0.73626597340E+02 -0.10878398544E+03  0.57590285285E+02  0.19025370504E+03  0.12500000000E+03 0.  0.
</event>
<event>
 5    0  0.5742040E-005  0.2108378E+03  0.7546771E-02  0.1140904E+00
         21   -1    0    0  502  501  0.00000000000E+00  0.00000000000E+00  0.35369108627E+03  0.35369108627E+03  0.00000000000E+00 0. -1.
         21   -1    0    0  501  502 -0.00000000000E+00 -0.00000000000E+00 -0.12568190972E+03  0.12568190972E+03  0.00000000000E+00 0. -1.
         25    1    1    2    0    0 -0.51723463824E+02  0.46635647738E+02  0.14112152496E+03  0.20097384197E+03  0.12500000000E+03 0.  0.
         25    1    1    2    0    0  0.21724524233E+02 -0.37895647668E+02  0.22321001935E+02  0.13428053542E+03  0.12500000000E+03 0.  0.
         25    1    1    2    0    0  0.29998939591E+02 -0.87400000696E+01  0.64566649662E+02  0.14411861860E+03  0.12500000000E+03 0.  0.
</event>
<event>
 5    0  0.5742040E-005  0.4477777E+03  0.7546771E-02  0.1028387E+00
         21   -1    0    0  502  501  0.00000000000E+00  0.00000000000E+00  0.10540904217E+04  0.10540904217E+04  0.00000000000E+00 0. -1.
         21   -1    0    0  501  502 -0.00000000000E+00 -0.00000000000E+00 -0.19021596708E+03  0.19021596708E+03  0.00000000000E+00 0. -1.
         25    1    1    2    0    0 -0.11240629479E+03  0.69807364316E+01 -0.92379405690E+02  0.19194494103E+03  0.12500000000E+03 0.  0.
         25    1    1    2    0    0 -0.76475012987E+01 -0.16235691641E+03  0.49223780629E+03  0.53323663652E+03  0.12500000000E+03 0.  0.
         25    1    1    2    0    0  0.12005379609E+03  0.15537617997E+03  0.46401605404E+03  0.51912481126E+03  0.12500000000E+03 0.  0.
</event>
<event>
 5    0  0.5742040E-005  0.4887666E+03  0.7546771E-02  0.1016753E+00
         21   -1    0    0  502  501  0.00000000000E+00  0.00000000000E+00  0.19353979113E+04  0.19353979113E+04  0.00000000000E+00 0.  1.
         21   -1    0    0  501  502 -0.00000000000E+00 -0.00000000000E+00 -0.12343340977E+03  0.12343340977E+03  0.00000000000E+00 0.  1.
         25    1    1    2    0    0 -0.41036632177E+03 -0.44244959656E+02  0.75919066132E+03  0.87312862439E+03  0.12500000000E+03 0.  0.
         25    1    1    2    0    0  0.13101362970E+03  0.81694802926E+02  0.64235363167E+03  0.67237028498E+03  0.12500000000E+03 0.  0.
         25    1    1    2    0    0  0.27935269207E+03 -0.37449843270E+02  0.41042020855E+03  0.51333241171E+03  0.12500000000E+03 0.  0.
</event>
<event>
 5    0  0.5742040E-005  0.4055774E+03  0.7546771E-02  0.1041865E+00
         21   -1    0    0  502  501  0.00000000000E+00  0.00000000000E+00  0.14238033436E+04  0.14238033436E+04  0.00000000000E+00 0. -1.
         21   -1    0    0  501  502 -0.00000000000E+00 -0.00000000000E+00 -0.11553069717E+03  0.11553069717E+03  0.00000000000E+00 0. -1.
         25    1    1    2    0    0 -0.30501471203E+03 -0.76605382813E+02  0.45496218293E+03  0.56702552599E+03  0.12500000000E+03 0.  0.
         25    1    1    2    0    0  0.14515372831E+03  0.15437200717E+02  0.16896973295E+03  0.25589779730E+03  0.12500000000E+03 0.  0.
         25    1    1    2    0    0  0.15986098372E+03  0.61168182096E+02  0.68434073054E+03  0.71641071746E+03  0.12500000000E+03 0.  0.
</event>
<event>
 5    0  0.5742040E-005  0.2213277E+03  0.7546771E-02  0.1132897E+00
         21   -1    0    0  502  501  0.00000000000E+00  0.00000000000E+00  0.43105399474E+03  0.43105399474E+03  0.00000000000E+00 0.  1.
         21   -1    0    0  501  502 -0.00000000000E+00 -0.00000000000E+00 -0.11364231137E+03  0.11364231137E+03  0.00000000000E+00 0.  1.
         25    1    1    2    0    0  0.18580798039E+02 -0.71255698770E+02  0.21681624036E+03  0.26087717943E+03  0.12500000000E+03 0.  0.
         25    1    1    2    0    0 -0.20227329939E+02  0.56888420799E+02  0.63343397516E+02  0.15258710072E+03  0.12500000000E+03 0.  0.
         25    1    1    2    0    0  0.16465318996E+01  0.14367277971E+02  0.37252045496E+02  0.13123202596E+03  0.12500000000E+03 0.  0.
</event>
<event>
 5    0  0.5742040E-005  0.3550902E+03  0.7546771E-02  0.1060545E+00
         21   -1    0    0  502  501  0.00000000000E+00  0.00000000000E+00  0.13414394636E+04  0.13414394636E+04  0.00000000000E+00 0.  1.
         21   -1    0    0  501  502 -0.00000000000E+00 -0.00000000000E+00 -0.93995313456E+02  0.93995313456E+02  0.00000000000E+00 0.  1.
         25    1    1    2    0    0  0.50404867925E+02 -0.22543976022E+02  0.27287661200E+03  0.30518113792E+03  0.12500000000E+03 0.  0.
         25    1    1    2    0    0  0.19910461568E+03  0.11756045589E+02  0.70038596156E+03  0.73888182258E+03  0.12500000000E+03 0.  0.
         25    1    1    2    0    0 -0.24950948361E+03  0.10787930433E+02  0.27418157658E+03  0.39137181654E+03  0.12500000000E+03 0.  0.
</event>
<event>
 5    0  0.5742040E-005  0.3602651E+03  0.7546771E-02  0.1058479E+00
         21   -1    0    0  502  501  0.00000000000E+00  0.00000000000E+00  0.27071638962E+03  0.27071638962E+03  0.00000000000E+00 0.  1.
         21   -1    0    0  501  502 -0.00000000000E+00 -0.00000000000E+00 -0.47943506371E+03  0.47943506371E+03  0.00000000000E+00 0.  1.
         25    1    1    2    0    0  0.17881980535E+03  0.16037459126E+03  0.34113739919E+02  0.27291991418E+03  0.12500000000E+03 0.  0.
         25    1    1    2    0    0 -0.15778742834E+03 -0.94331865373E+02 -0.24946784103E+03  0.33414753789E+03  0.12500000000E+03 0.  0.
         25    1    1    2    0    0 -0.21032377004E+02 -0.66042725884E+02  0.66354270272E+01  0.14308400126E+03  0.12500000000E+03 0.  0.
</event>
<event>
 5    0  0.5742040E-005  0.2258593E+03  0.7546771E-02  0.1129589E+00
         21   -1    0    0  502  501  0.00000000000E+00  0.00000000000E+00  0.72922414196E+02  0.72922414196E+02  0.00000000000E+00 0. -1.
         21   -1    0    0  501  502 -0.00000000000E+00 -0.00000000000E+00 -0.69954385158E+03  0.69954385158E+03  0.00000000000E+00 0. -1.
         25    1    1    2    0    0  0.43277701892E+02 -0.47901803725E+02 -0.27758106457E+03  0.31119734846E+03  0.12500000000E+03 0.  0.
         25    1    1    2    0    0 -0.85864641006E+02  0.65988196939E+02 -0.22458482742E+03  0.27890952551E+03  0.12500000000E+03 0.  0.
         25    1    1    2    0    0  0.42586939114E+02 -0.18086393214E+02 -0.12445554540E+03  0.18235939181E+03  0.12500000000E+03 0.  0.
</event>
<event>
 5    0  0.5742040E-005  0.2228210E+03  0.7546771E-02  0.1131797E+00
         21   -1    0    0  502  501  0.00000000000E+00  0.00000000000E+00  0.49951951615E+02  0.49951951615E+02  0.00000000000E+00 0.  1.
         21   -1    0    0  501  502 -0.00000000000E+00 -0.00000000000E+00 -0.99393897583E+03  0.99393897583E+03  0.00000000000E+00 0.  1.
         25    1    1    2    0    0 -0.35515963198E+02 -0.62497745136E+02 -0.35744238388E+03  0.38543145899E+03  0.12500000000E+03 0.  0.
         25    1    1    2    0    0 -0.31669469313E+01 -0.17938239235E+02 -0.38412978411E+03  0.40436679021E+03  0.12500000000E+03 0.  0.
         25    1    1    2    0    0  0.38682910129E+02  0.80435984371E+02 -0.20241485622E+03  0.25409267825E+03  0.12500000000E+03 0.  0.
</event>
<event>
 5    0  0.5742040E-005  0.7755286E+03  0.7546771E-02  0.9596130E-01
         21   -1    0    0  502  501  0.00000000000E+00  0.00000000000E+00  0.41547563199E+03  0.41547563199E+03  0.00000000000E+00 0. -1.
         21   -1    0    0  501  502 -0.00000000000E+00 -0.00000000000E+00 -0.14476048502E+04  0.14476048502E+04  0.00000000000E+00 0. -1.
         25    1    1    2    0    0  0.49222449579E+03 -0.11944027589E+03  0.45677575526E+02  0.52370065368E+03  0.12500000000E+03 0.  0.
         25    1    1    2    0    0 -0.14696770554E+03  0.21046279912E+03 -0.85255845468E+03  0.89909677729E+03  0.12500000000E+03 0.  0.
         25    1    1    2    0    0 -0.34525679025E+03 -0.91022523236E+02 -0.22524833909E+03  0.44028305124E+03  0.12500000000E+03 0.  0.
</event>
<event>
 5    0  0.5742040E-005  0.2424501E+03  0.7546771E-02  0.1118171E+00
         21   -1    0    0  502  501  0.00000000000E+00  0.00000000000E+00  0.20798265331E+03  0.20798265331E+03  0.00000000000E+00 0.  1.
         21   -1    0    0  501  502 -0.00000000000E+00 -0.00000000000E+00 -0.28262948301E+03  0.28262948301E+03  0.00000000000E+00 0.  1.
         25    1    1    2    0    0  0.24929199500E+02  0.59966155560E+02 -0.18736917372E+02  0.14210375390E+03  0.12500000000E+03 0.  0.
         25    1    1    2    0    0 -0.10874007983E+03 -0.69780766489E+02 -0.78214233524E+02  0.19605159183E+03  0.12500000000E+03 0.  0.
         25    1    1    2    0    0  0.83810880334E+02  0.98146109291E+01  0.22304321194E+02  0.15245679058E+03  0.12500000000E+03 0.  0.
</event>
<event>
 5    0  0.5742040E-005  0.3181785E+03  0.7546771E-02  0.1076491E+00
         21   -1    0    0  502  501  0.00000000000E+00  0.00000000000E+00  0.12594690813E+03  0.12594690813E+03  0.00000000000E+00 0.  1.
         21   -1    0    0  501  502 -0.00000000000E+00 -0.00000000000E+00 -0.80381158699E+03  0.80381158699E+03  0.00000000000E+00 0.  1.
         25    1    1    2    0    0 -0.15765444101E+03 -0.14182406134E+02 -0.14474645074E+03  0.24825913562E+03  0.12500000000E+03 0.  0.
         25    1    1    2    0    0  0.16619099901E+03  0.10572500226E+03 -0.44654932689E+03  0.50381397917E+03  0.12500000000E+03 0.  0.
         25    1    1    2    0    0 -0.85365580001E+01 -0.91542596122E+02 -0.86568901214E+02  0.17768538033E+03  0.12500000000E+03 0.  0.
</event>
<event>
 5    0  0.5742040E-005  0.3358775E+03  0.7546771E-02  0.1068565E+00
         21   -1    0    0  502  501  0.00000000000E+00  0.00000000000E+00  0.10966723048E+04  0.10966723048E+04  0.00000000000E+00 0. -1.
         21   -1    0    0  501  502 -0.00000000000E+00 -0.00000000000E+00 -0.10286912199E+03  0.10286912199E+03  0.00000000000E+00 0. -1.
         25    1    1    2    0    0 -0.16132816443E+03 -0.10033390691E+03  0.28091206765E+03  0.36142808312E+03  0.12500000000E+03 0.  0.
         25    1    1    2    0    0 -0.75062160771E+02 -0.18416820428E+02  0.21038125891E+03  0.25662965798E+03  0.12500000000E+03 0.  0.
         25    1    1    2    0    0  0.23639032521E+03  0.11875072734E+03  0.50250985625E+03  0.58148368569E+03  0.12500000000E+03 0.  0.
</event>
<event>
 5    0  0.6051829E-005  0.4164673E+03  0.7546771E-02  0.1038222E+00
         21   -1    0    0  502  501  0.00000000000E+00  0.00000000000E+00  0.34826776145E+03  0.34826776145E+03  0.00000000000E+00 0. -1.
         21   -1    0    0  501  502 -0.00000000000E+00 -0.00000000000E+00 -0.49802198667E+03  0.49802198667E+03  0.00000000000E+00 0. -1.
         25    1    1    2    0    0  0.17069516742E+03 -0.59570108020E+02 -0.27154073088E+03  0.34934911833E+03  0.12500000000E+03 0.  0.
         25    1    1    2    0    0 -0.43536953062E+02  0.81408949261E+02  0.23709071730E+03  0.28347820292E+03  0.12500000000E+03 0.  0.
         25    1    1    2    0    0 -0.12715821436E+03 -0.21838841241E+02 -0.11530421163E+03  0.21346242687E+03  0.12500000000E+03 0.  0.
</event>
<event>
 5    0  0.5742040E-005  0.4126866E+03  0.7546771E-02  0.1039473E+00
         21   -1    0    0  502  501  0.00000000000E+00  0.00000000000E+00  0.20284197858E+03  0.20284197858E+03  0.00000000000E+00 0.  1.
         21   -1    0    0  501  502 -0.00000000000E+00 -0.00000000000E+00 -0.83962008431E+03  0.83962008431E+03  0.00000000000E+00 0.  1.
         25    1    1    2    0    0 -0.17467085519E+03  0.73435499338E+02 -0.34227799671E+03  0.41070902991E+03  0.12500000000E+03 0.  0.
         25    1    1    2    0    0  0.12044037763E+01  0.17276643626E+03 -0.37396475009E+02  0.21650216726E+03  0.12500000000E+03 0.  0.
         25    1    1    2    0    0  0.17346645142E+03 -0.24620193560E+03 -0.25710363402E+03  0.41525086573E+03  0.12500000000E+03 0.  0.
</event>
<event>
 5    0  0.5742040E-005  0.3951590E+03  0.7546771E-02  0.1045469E+00
         21   -1    0    0  502  501  0.00000000000E+00  0.00000000000E+00  0.50711706465E+03  0.50711706465E+03  0.00000000000E+00 0. -1.
         21   -1    0    0  501  502 -0.00000000000E+00 -0.00000000000E+00 -0.30791838116E+03  0.30791838116E+03  0.00000000000E+00 0. -1.
         25    1    1    2    0    0  0.40389440696E+02  0.20354113757E+03  0.27487193296E+03  0.36638761051E+03  0.12500000000E+03 0.  0.
         25    1    1    2    0    0  0.52015054612E+02  0.48174154767E+02 -0.48006293346E+02  0.15151210940E+03  0.12500000000E+03 0.  0.
         25    1    1    2    0    0 -0.92404495308E+02 -0.25171529234E+03 -0.27666956124E+02  0.29713572591E+03  0.12500000000E+03 0.  0.
</event>
<event>
 5    0  0.5742040E-005  0.2548213E+03  0.7546771E-02  0.1110295E+00
         21   -1    0    0  502  501  0.00000000000E+00  0.00000000000E+00  0.83272585310E+03  0.83272585310E+03  0.00000000000E+00 0.  1.
         21   -1    0    0  501  502 -0.00000000000E+00 -0.00000000000E+00 -0.77977536998E+02  0.77977536998E+02  0.00000000000E+00 0.  1.
         25    1    1    2    0    0 -0.52663158937E+02 -0.13573241097E+03  0.17321888928E+03  0.25850818033E+03  0.12500000000E+03 0.  0.
         25    1    1    2    0    0  0.18751908520E+02  0.90938183096E+02  0.35131927549E+03  0.38428065337E+03  0.12500000000E+03 0.  0.
         25    1    1    2    0    0  0.33911250417E+02  0.44794227870E+02  0.23021015133E+03  0.26791455640E+03  0.12500000000E+03 0.  0.
</event>
<event>
 5    0  0.5742040E-005  0.2654135E+03  0.7546771E-02  0.1103934E+00
         21   -1    0    0  502  501  0.00000000000E+00  0.00000000000E+00  0.78014113926E+02  0.78014113926E+02  0.00000000000E+00 0. -1.
         21   -1    0    0  501  502 -0.00000000000E+00 -0.00000000000E+00 -0.90296895596E+03  0.90296895596E+03  0.00000000000E+00 0. -1.
         25    1    1    2    0    0  0.37528908530E+02  0.31631414150E+02 -0.25172963499E+03  0.28530996209E+03  0.12500000000E+03 0.  0.
         25    1    1    2    0    0  0.97969541994E+02  0.53685969121E+02 -0.37990673687E+03  0.41525214408E+03  0.12500000000E+03 0.  0.
         25    1    1    2    0    0 -0.13549845052E+03 -0.85317383272E+02 -0.19331847017E+03  0.28042096371E+03  0.12500000000E+03 0.  0.
</event>
<event>
 5    0  0.7905969E-005  0.3885084E+03  0.7546771E-02  0.1047833E+00
         21   -1    0    0  502  501  0.00000000000E+00  0.00000000000E+00  0.23704330365E+03  0.23704330365E+03  0.00000000000E+00 0. -1.
         21   -1    0    0  501  502 -0.00000000000E+00 -0.00000000000E+00 -0.63675625048E+03  0.63675625048E+03  0.00000000000E+00 0. -1.
         25    1    1    2    0    0 -0.17482406698E+03 -0.17279535895E+03 -0.60428268625E+02  0.28230881339E+03  0.12500000000E+03 0.  0.
         25    1    1    2    0    0  0.21320838483E+02  0.16462621460E+02 -0.31271627046E+03  0.33784917029E+03  0.12500000000E+03 0.  0.
         25    1    1    2    0    0  0.15350322850E+03  0.15633273749E+03 -0.26568407751E+02  0.25364157045E+03  0.12500000000E+03 0.  0.
</event>
<event>
 5    0  0.5742040E-005  0.4715417E+03  0.7546771E-02  0.1021486E+00
         21   -1    0    0  502  501  0.00000000000E+00  0.00000000000E+00  0.13475358821E+04  0.13475358821E+04  0.00000000000E+00 0. -1.
         21   -1    0    0  501  502 -0.00000000000E+00 -0.00000000000E+00 -0.16500606131E+03  0.16500606131E+03  0.00000000000E+00 0. -1.
         25    1    1    2    0    0  0.10870659955E+02 -0.43509036191E+02  0.51194385406E+03  0.52888818968E+03  0.12500000000E+03 0.  0.
         25    1    1    2    0    0  0.14551234749E+03  0.31928239761E+03  0.41524256909E+03  0.55782298615E+03  0.12500000000E+03 0.  0.
         25    1    1    2    0    0 -0.15638300744E+03 -0.27577336141E+03  0.25534339761E+03  0.42583076754E+03  0.12500000000E+03 0.  0.
</event>
<event>
 5    0  0.5742040E-005  0.2884097E+03  0.7546771E-02  0.1091182E+00
         21   -1    0    0  502  501  0.00000000000E+00  0.00000000000E+00  0.20487485873E+03  0.20487485873E+03  0.00000000000E+00 0. -1.
         21   -1    0    0  501  502 -0.00000000000E+00 -0.00000000000E+00 -0.40600455999E+03  0.40600455999E+03  0.00000000000E+00 0. -1.
         25    1    1    2    0    0  0.37907886392E+02 -0.21402516073E+02 -0.77372961713E+02  0.15331878798E+03  0.12500000000E+03 0.  0.
         25    1    1    2    0    0 -0.80486210051E+02  0.16755862075E+03  0.17219842357E+01  0.22401313941E+03  0.12500000000E+03 0.  0.
         25    1    1    2    0    0  0.42578323659E+02 -0.14615610468E+03 -0.12547872379E+03  0.23354749133E+03  0.12500000000E+03 0.  0.
</event>
<event>
 5    0  0.5742040E-005  0.3497739E+03  0.7546771E-02  0.1062708E+00
         21   -1    0    0  502  501  0.00000000000E+00  0.00000000000E+00  0.22327191733E+03  0.22327191733E+03  0.00000000000E+00 0. -1.
         21   -1    0    0  501  502 -0.00000000000E+00 -0.00000000000E+00 -0.54794961514E+03  0.54794961514E+03  0.00000000000E+00 0. -1.
         25    1    1    2    0    0  0.14294016031E+03 -0.78210409651E+02 -0.36311954535E+03  0.41716850531E+03  0.12500000000E+03 0.  0.
         25    1    1    2    0    0 -0.10203314627E+03  0.12979062957E+03  0.47606854790E+02  0.21248007691E+03  0.12500000000E+03 0.  0.
         25    1    1    2    0    0 -0.40907014041E+02 -0.51580219920E+02 -0.91650072520E+01  0.14157295025E+03  0.12500000000E+03 0.  0.
</event>
<event>
 5    0  0.5742040E-005  0.2220130E+03  0.7546771E-02  0.1132391E+00
         21   -1    0    0  502  501  0.00000000000E+00  0.00000000000E+00  0.41043290044E+03  0.41043290044E+03  0.00000000000E+00 0.  1.
         21   -1    0    0  501  502 -0.00000000000E+00 -0.00000000000E+00 -0.12009219907E+03  0.12009219907E+03  0.00000000000E+00 0. -1.
         25    1    1    2    0    0  0.26870192225E+02 -0.50517184748E+01  0.54479320366E+02  0.13907021046E+03  0.12500000000E+03 0.  0.
         25    1    1    2    0    0  0.29871980020E+02  0.77347762635E+02  0.15800600032E+03  0.21786672007E+03  0.12500000000E+03 0.  0.
         25    1    1    2    0    0 -0.56742172245E+02 -0.72296044160E+02  0.77855380678E+02  0.17358816899E+03  0.12500000000E+03 0.  0.
</event>
<event>
 5    0  0.5742040E-005  0.3612155E+03  0.7546771E-02  0.1058104E+00
         21   -1    0    0  502  501  0.00000000000E+00  0.00000000000E+00  0.51647826847E+03  0.51647826847E+03  0.00000000000E+00 0.  1.
         21   -1    0    0  501  502 -0.00000000000E+00 -0.00000000000E+00 -0.25262755785E+03  0.25262755785E+03  0.00000000000E+00 0.  1.
         25    1    1    2    0    0  0.15873118082E+03  0.39197648086E+02  0.81974222397E+02  0.22153287909E+03  0.12500000000E+03 0.  0.
         25    1    1    2    0    0  0.17667611041E+02 -0.92211461120E+02  0.26687574171E+03  0.30929396948E+03  0.12500000000E+03 0.  0.
         25    1    1    2    0    0 -0.17639879186E+03  0.53013813034E+02 -0.84999253490E+02  0.23827897775E+03  0.12500000000E+03 0.  0.
</event>
<event>
 5    0  0.5933026E-005  0.2979898E+03  0.7546771E-02  0.1086250E+00
         21   -1    0    0  502  501  0.00000000000E+00  0.00000000000E+00  0.24885539561E+03  0.24885539561E+03  0.00000000000E+00 0. -1.
         21   -1    0    0  501  502 -0.00000000000E+00 -0.00000000000E+00 -0.35682541956E+03  0.35682541956E+03  0.00000000000E+00 0. -1.
         25    1    1    2    0    0  0.24603752533E+02  0.30298102100E+02 -0.66533602003E+02  0.14688444378E+03  0.12500000000E+03 0.  0.
         25    1    1    2    0    0  0.74767840686E+02  0.12005197623E+03 -0.12244064379E+03  0.22498759577E+03  0.12500000000E+03 0.  0.
         25    1    1    2    0    0 -0.99371593219E+02 -0.15035007834E+03  0.81004221850E+02  0.23380877561E+03  0.12500000000E+03 0.  0.
</event>
<event>
 5    0  0.5742040E-005  0.2537432E+03  0.7546771E-02  0.1110962E+00
         21   -1    0    0  502  501  0.00000000000E+00  0.00000000000E+00  0.28181195836E+03  0.28181195836E+03  0.00000000000E+00 0. -1.
         21   -1    0    0  501  502 -0.00000000000E+00 -0.00000000000E+00 -0.22847013996E+03  0.22847013996E+03  0.00000000000E+00 0. -1.
         25    1    1    2    0    0  0.69279631797E+02  0.28331327420E+02 -0.81045760989E+02  0.16672056523E+03  0.12500000000E+03 0.  0.
         25    1    1    2    0    0 -0.31134322505E+02 -0.43475838680E+02 -0.23573693236E+02  0.13798628048E+03  0.12500000000E+03 0.  0.
         25    1    1    2    0    0 -0.38145309292E+02  0.15144511260E+02  0.15796127262E+03  0.20557525262E+03  0.12500000000E+03 0.  0.
</event>
<event>
 5    0  0.5742040E-005  0.3937771E+03  0.7546771E-02  0.1045956E+00
         21   -1    0    0  502  501  0.00000000000E+00  0.00000000000E+00  0.20434481228E+03  0.20434481228E+03  0.00000000000E+00 0. -1.
         21   -1    0    0  501  502 -0.00000000000E+00 -0.00000000000E+00 -0.75881723792E+03  0.75881723792E+03  0.00000000000E+00 0. -1.
         25    1    1    2    0    0 -0.17986620736E+03 -0.42187169367E+02 -0.16892803238E+03  0.27980938143E+03  0.12500000000E+03 0.  0.
         25    1    1    2    0    0  0.11225595031E+03 -0.13220883552E+03  0.24965171697E+02  0.21524133982E+03  0.12500000000E+03 0.  0.
         25    1    1    2    0    0  0.67610257044E+02  0.17439600488E+03 -0.41050956495E+03  0.46811132895E+03  0.12500000000E+03 0.  0.
</event>
<event>
 5    0  0.6470987E-005  0.2935900E+03  0.7546771E-02  0.1088490E+00
         21   -1    0    0  502  501  0.00000000000E+00  0.00000000000E+00  0.52414137589E+03  0.52414137589E+03  0.00000000000E+00 0. -1.
         21   -1    0    0  501  502 -0.00000000000E+00 -0.00000000000E+00 -0.16445010723E+03  0.16445010723E+03  0.00000000000E+00 0. -1.
         25    1    1    2    0    0  0.67857485122E+02  0.97697413570E+02  0.18855542916E+03  0.25559259138E+03  0.12500000000E+03 0.  0.
         25    1    1    2    0    0 -0.64727686960E+02 -0.12511367690E+03 -0.33829158964E+02  0.19134397718E+03  0.12500000000E+03 0.  0.
         25    1    1    2    0    0 -0.31297981622E+01  0.27416263329E+02  0.20496499847E+03  0.24165491456E+03  0.12500000000E+03 0.  0.
</event>
<event>
 5    0  0.6783245E-005  0.2676556E+03  0.7546771E-02  0.1102629E+00
         21   -1    0    0  502  501  0.00000000000E+00  0.00000000000E+00  0.15895603763E+03  0.15895603763E+03  0.00000000000E+00 0. -1.
         21   -1    0    0  501  502 -0.00000000000E+00 -0.00000000000E+00 -0.45068756932E+03  0.45068756932E+03  0.00000000000E+00 0. -1.
         25    1    1    2    0    0 -0.21562666915E+02 -0.10460899394E+03 -0.14032132496E+03  0.21615518605E+03  0.12500000000E+03 0.  0.
         25    1    1    2    0    0  0.77268661991E+02  0.28279609453E+02 -0.18012616152E+03  0.23418073469E+03  0.12500000000E+03 0.  0.
         25    1    1    2    0    0 -0.55705995076E+02  0.76329384487E+02  0.28715954800E+02  0.15930768620E+03  0.12500000000E+03 0.  0.
</event>
<event>
 5    0  0.5742040E-005  0.2147752E+03  0.7546771E-02  0.1137839E+00
         21   -1    0    0  502  501  0.00000000000E+00  0.00000000000E+00  0.15828609391E+03  0.15828609391E+03  0.00000000000E+00 0. -1.
         21   -1    0    0  501  502 -0.00000000000E+00 -0.00000000000E+00 -0.29142416638E+03  0.29142416638E+03  0.00000000000E+00 0. -1.
         25    1    1    2    0    0 -0.60359952049E+02 -0.54167878589E+02 -0.62445070548E+02  0.16156073074E+03  0.12500000000E+03 0.  0.
         25    1    1    2    0    0  0.75066335406E+02  0.18517753602E+02 -0.22247258756E+02  0.14865329607E+03  0.12500000000E+03 0.  0.
         25    1    1    2    0    0 -0.14706383357E+02  0.35650124987E+02 -0.48445743163E+02  0.13949623347E+03  0.12500000000E+03 0.  0.
</event>
<event>
 5    0  0.7623615E-005  0.6410902E+03  0.7546771E-02  0.9823643E-01
         21   -1    0    0  502  501  0.00000000000E+00  0.00000000000E+00  0.59365952054E+03  0.59365952054E+03  0.00000000000E+00 0.  1.
         21   -1    0    0  501  502 -0.00000000000E+00 -0.00000000000E+00 -0.69231027132E+03  0.69231027132E+03  0.00000000000E+00 0.  1.
         25    1    1    2    0    0 -0.98281810465E+02  0.15347344141E+03  0.32309045008E+03  0.39144073679E+03  0.12500000000E+03 0.  0.
         25    1    1    2    0    0 -0.13480085391E+03 -0.26886273591E+03  0.61719008406E+02  0.33150064400E+03  0.12500000000E+03 0.  0.
         25    1    1    2    0    0  0.23308266438E+03  0.11538929450E+03 -0.48346020927E+03  0.56302841106E+03  0.12500000000E+03 0.  0.
</event>
<event>
 5    0  0.5742040E-005  0.3696150E+03  0.7546771E-02  0.1054840E+00
         21   -1    0    0  502  501  0.00000000000E+00  0.00000000000E+00  0.70704368132E+03  0.70704368132E+03  0.00000000000E+00 0.  1.
         21   -1    0    0  501  502 -0.00000000000E+00 -0.00000000000E+00 -0.19322038526E+03  0.19322038526E+03  0.00000000000E+00 0.  1.
         25    1    1    2    0    0 -0.22893829220E+03  0.18175415309E+02 -0.11604380752E+01  0.26147549402E+03  0.12500000000E+03 0.  0.
         25    1    1    2    0    0  0.74700357585E+02  0.68632911384E+02  0.23178431057E+03  0.28220486632E+03  0.12500000000E+03 0.  0.
         25    1    1    2    0    0  0.15423793461E+03 -0.86808326692E+02  0.28319942356E+03  0.35658370625E+03  0.12500000000E+03 0.  0.
</event>
<event>
 5    0  0.5742040E-005  0.3336533E+03  0.7546771E-02  0.1069532E+00
         21   -1    0    0  502  501  0.00000000000E+00  0.00000000000E+00  0.33393763213E+03  0.33393763213E+03  0.00000000000E+00 0. -1.
         21   -1    0    0  501  502 -0.00000000000E+00 -0.00000000000E+00 -0.33336922390E+03  0.33336922390E+03  0.00000000000E+00 0. -1.
         25    1    1    2    0    0 -0.31766116004E+02  0.84211083203E+02  0.84759381722E+02  0.17581167609E+03  0.12500000000E+03 0.  0.
         25    1    1    2    0    0 -0.80654958306E+02 -0.18741072919E+03 -0.15133344201E+03  0.28311625595E+03  0.12500000000E+03 0.  0.
         25    1    1    2    0    0  0.11242107431E+03  0.10319964599E+03  0.67142468520E+02  0.20837892398E+03  0.12500000000E+03 0.  0.
</event>
<event>
 5    0  0.5742040E-005  0.4299823E+03  0.7546771E-02  0.1033866E+00
         21   -1    0    0  502  501  0.00000000000E+00  0.00000000000E+00  0.63562363364E+02  0.63562363364E+02  0.00000000000E+00 0.  1.
         21   -1    0    0  501  502 -0.00000000000E+00 -0.00000000000E+00 -0.29087147808E+04  0.29087147808E+04  0.00000000000E+00 0.  1.
         25    1    1    2    0    0 -0.11725680645E+03  0.19196132860E+03 -0.84908631688E+03  0.88722651215E+03  0.12500000000E+03 0.  0.
         25    1    1    2    0    0  0.52971043289E+02  0.16235014272E+03 -0.90165791988E+03  0.92616170551E+03  0.12500000000E+03 0.  0.
         25    1    1    2    0    0  0.64285763161E+02 -0.35431147133E+03 -0.10944081806E+04  0.11588889265E+04  0.12500000000E+03 0.  0.
</event>
<event>
 5    0  0.5742040E-005  0.2892580E+03  0.7546771E-02  0.1090737E+00
         21   -1    0    0  502  501  0.00000000000E+00  0.00000000000E+00  0.33484378006E+02  0.33484378006E+02  0.00000000000E+00 0. -1.
         21   -1    0    0  501  502 -0.00000000000E+00 -0.00000000000E+00 -0.24987823541E+04  0.24987823541E+04  0.00000000000E+00 0. -1.
         25    1    1    2    0    0  0.73090831486E+02  0.41451830774E+02 -0.13232513925E+04  0.13317956944E+04  0.12500000000E+03 0.  0.
         25    1    1    2    0    0 -0.15297596622E+03 -0.84782871401E+02 -0.63581821931E+03  0.67117776299E+03  0.12500000000E+03 0.  0.
         25    1    1    2    0    0  0.79885134737E+02  0.43331040627E+02 -0.50622836428E+03  0.52929327469E+03  0.12500000000E+03 0.  0.
</event>
<event>
 5    0  0.5742040E-005  0.2071787E+03  0.7546771E-02  0.1143820E+00
         21   -1    0    0  502  501  0.00000000000E+00  0.00000000000E+00  0.17854933970E+03  0.17854933970E+03  0.00000000000E+00 0. -1.
         21   -1    0    0  501  502 -0.00000000000E+00 -0.00000000000E+00 -0.24039858755E+03  0.24039858755E+03  0.00000000000E+00 0. -1.
         25    1    1    2    0    0 -0.57723120587E+02  0.13700468865E+01 -0.57845146141E+02  0.14934823940E+03  0.12500000000E+03 0.  0.
         25    1    1    2    0    0 -0.30681982851E+01 -0.17761067986E+02  0.19148036425E+02  0.12773612126E+03  0.12500000000E+03 0.  0.
         25    1    1    2    0    0  0.60791318872E+02  0.16391021100E+02 -0.23152138136E+02  0.14186356658E+03  0.12500000000E+03 0.  0.
</event>
<event>
 5    0  0.6717383E-005  0.4063381E+03  0.7546771E-02  0.1041607E+00
         21   -1    0    0  502  501  0.00000000000E+00  0.00000000000E+00  0.24342083639E+03  0.24342083639E+03  0.00000000000E+00 0. -1.
         21   -1    0    0  501  502 -0.00000000000E+00 -0.00000000000E+00 -0.67829306184E+03  0.67829306184E+03  0.00000000000E+00 0. -1.
         25    1    1    2    0    0  0.16772762719E+03  0.15402218331E+03 -0.10842424581E+03  0.28148926615E+03  0.12500000000E+03 0.  0.
         25    1    1    2    0    0 -0.25789418147E+03  0.50255775653E+02 -0.21140120924E+03  0.35965333738E+03  0.12500000000E+03 0.  0.
         25    1    1    2    0    0  0.90166554275E+02 -0.20427795896E+03 -0.11504677040E+03  0.28057129470E+03  0.12500000000E+03 0.  0.
</event>
<event>
 5    0  0.5742040E-005  0.2417217E+03  0.7546771E-02  0.1118651E+00
         21   -1    0    0  502  501  0.00000000000E+00  0.00000000000E+00  0.16916904172E+04  0.16916904172E+04  0.00000000000E+00 0.  1.
         21   -1    0    0  501  502 -0.00000000000E+00 -0.00000000000E+00 -0.34539054282E+02  0.34539054282E+02  0.00000000000E+00 0.  1.
         25    1    1    2    0    0  0.71430546626E+02  0.13576867772E+02  0.51141078474E+03  0.53146274100E+03  0.12500000000E+03 0.  0.
         25    1    1    2    0    0 -0.13425888999E+03  0.24247440883E+02  0.77313578878E+03  0.79497002196E+03  0.12500000000E+03 0.  0.
         25    1    1    2    0    0  0.62828343362E+02 -0.37824308655E+02  0.37260478942E+03  0.39979670853E+03  0.12500000000E+03 0.  0.
</event>
<event>
 5    0  0.5742040E-005  0.2760209E+03  0.7546771E-02  0.1097882E+00
         21   -1    0    0  502  501  0.00000000000E+00  0.00000000000E+00  0.11840558136E+04  0.11840558136E+04  0.00000000000E+00 0. -1.
         21   -1    0    0  501  502 -0.00000000000E+00 -0.00000000000E+00 -0.64344569040E+02  0.64344569040E+02  0.00000000000E+00 0. -1.
         25    1    1    2    0    0 -0.34590596155E+02 -0.32157884957E+02  0.66313114822E+03  0.67646031565E+03  0.12500000000E+03 0.  0.
         25    1    1    2    0    0 -0.77318192446E+02 -0.52786374174E+02  0.21760782427E+03  0.26784822076E+03  0.12500000000E+03 0.  0.
         25    1    1    2    0    0  0.11190878860E+03  0.84944259131E+02  0.23897227207E+03  0.30409184623E+03  0.12500000000E+03 0.  0.
</event>
<event>
 5    0  0.5742040E-005  0.4376873E+03  0.7546771E-02  0.1031459E+00
         21   -1    0    0  502  501  0.00000000000E+00  0.00000000000E+00  0.16872820615E+03  0.16872820615E+03  0.00000000000E+00 0.  1.
         21   -1    0    0  501  502 -0.00000000000E+00 -0.00000000000E+00 -0.11353772161E+04  0.11353772161E+04  0.00000000000E+00 0.  1.
         25    1    1    2    0    0 -0.92933198011E+02  0.16763264829E+03 -0.91338473132E+03  0.94161242105E+03  0.12500000000E+03 0.  0.
         25    1    1    2    0    0  0.43047289285E+02  0.12774399525E+02 -0.91741452472E+01  0.13313684441E+03  0.12500000000E+03 0.  0.
         25    1    1    2    0    0  0.49885908726E+02 -0.18040704782E+03 -0.44090133360E+02  0.22935615677E+03  0.12500000000E+03 0.  0.
</event>
<event>
 5    0  0.5742040E-005  0.3009042E+03  0.7546771E-02  0.1084790E+00
         21   -1    0    0  502  501  0.00000000000E+00  0.00000000000E+00  0.15134592071E+04  0.15134592071E+04  0.00000000000E+00 0. -1.
         21   -1    0    0  501  502 -0.00000000000E+00 -0.00000000000E+00 -0.59825408957E+02  0.59825408957E+02  0.00000000000E+00 0. -1.
         25    1    1    2    0    0  0.36405395229E+02 -0.87982783034E+02  0.69332560094E+03  0.71090907424E+03  0.12500000000E+03 0.  0.
         25    1    1    2    0    0 -0.11434567795E+03  0.14903998226E+03  0.57623799189E+03  0.61884010348E+03  0.12500000000E+03 0.  0.
         25    1    1    2    0    0  0.77940282717E+02 -0.61057199225E+02  0.18407020534E+03  0.24353543837E+03  0.12500000000E+03 0.  0.
</event>
<event>
 5    0  0.5742040E-005  0.2562202E+03  0.7546771E-02  0.1109436E+00
         21   -1    0    0  502  501  0.00000000000E+00  0.00000000000E+00  0.13709069059E+04  0.13709069059E+04  0.00000000000E+00 0.  1.
         21   -1    0    0  501  502 -0.00000000000E+00 -0.00000000000E+00 -0.47887141588E+02  0.47887141588E+02  0.00000000000E+00 0.  1.
         25    1    1    2    0    0 -0.10136586659E+03 -0.70184561152E+02  0.38442629205E+03  0.42262215459E+03  0.12500000000E+03 0.  0.
         25    1    1    2    0    0  0.14131719592E+03  0.44041186488E+02  0.64614547678E+03  0.67456589977E+03  0.12500000000E+03 0.  0.
         25    1    1    2    0    0 -0.39951329323E+02  0.26143374663E+02  0.29244799552E+03  0.32160599316E+03  0.12500000000E+03 0.  0.
</event>
<event>
 5    0  0.5742040E-005  0.2711407E+03  0.7546771E-02  0.1100629E+00
         21   -1    0    0  502  501  0.00000000000E+00  0.00000000000E+00  0.38160606419E+03  0.38160606419E+03  0.00000000000E+00 0. -1.
         21   -1    0    0  501  502 -0.00000000000E+00 -0.00000000000E+00 -0.19265231557E+03  0.19265231557E+03  0.00000000000E+00 0. -1.
         25    1    1    2    0    0 -0.15564882025E+02 -0.25470542402E+02  0.73511906785E+01  0.12872472213E+03  0.12500000000E+03 0.  0.
         25    1    1    2    0    0  0.10087981275E+03  0.10239877258E+03  0.19826618476E+03  0.27494858659E+03  0.12500000000E+03 0.  0.
         25    1    1    2    0    0 -0.85314930723E+02 -0.76928230178E+02 -0.16663626822E+02  0.17058507104E+03  0.12500000000E+03 0.  0.
</event>
<event>
 5    0  0.5742040E-005  0.3778886E+03  0.7546771E-02  0.1051717E+00
         21   -1    0    0  502  501  0.00000000000E+00  0.00000000000E+00  0.87002515759E+02  0.87002515759E+02  0.00000000000E+00 0.  1.
         21   -1    0    0  501  502 -0.00000000000E+00 -0.00000000000E+00 -0.16413294212E+04  0.16413294212E+04  0.00000000000E+00 0.  1.
         25    1    1    2    0    0  0.45787273890E+01  0.12782531224E+03 -0.19133236691E+03  0.26190332152E+03  0.12500000000E+03 0.  0.
         25    1    1    2    0    0  0.17726448545E+03 -0.12032750815E+02 -0.10175476253E+04  0.10404785700E+04  0.12500000000E+03 0.  0.
         25    1    1    2    0    0 -0.18184321284E+03 -0.11579256143E+03 -0.34544691320E+03  0.42595004540E+03  0.12500000000E+03 0.  0.
</event>
<event>
 5    0  0.5742040E-005  0.3059572E+03  0.7546771E-02  0.1082300E+00
         21   -1    0    0  502  501  0.00000000000E+00  0.00000000000E+00  0.35844052284E+03  0.35844052284E+03  0.00000000000E+00 0. -1.
         21   -1    0    0  501  502 -0.00000000000E+00 -0.00000000000E+00 -0.26115851550E+03  0.26115851550E+03  0.00000000000E+00 0. -1.
         25    1    1    2    0    0 -0.41915240238E+02  0.10583280328E+02  0.67105017604E+02  0.14831377743E+03  0.12500000000E+03 0.  0.
         25    1    1    2    0    0 -0.48518812607E+02 -0.12853824003E+03 -0.12398906243E+03  0.22332586489E+03  0.12500000000E+03 0.  0.
         25    1    1    2    0    0  0.90434052845E+02  0.11795495971E+03  0.15416605217E+03  0.24795939602E+03  0.12500000000E+03 0.  0.
</event>
<event>
 5    0  0.5742040E-005  0.3042612E+03  0.7546771E-02  0.1083130E+00
         21   -1    0    0  502  501  0.00000000000E+00  0.00000000000E+00  0.12019436990E+03  0.12019436990E+03  0.00000000000E+00 0. -1.
         21   -1    0    0  501  502 -0.00000000000E+00 -0.00000000000E+00 -0.77020998991E+03  0.77020998991E+03  0.00000000000E+00 0. -1.
         25    1    1    2    0    0  0.26213472433E+02  0.90971627272E+02 -0.55987801819E+03  0.58142185921E+03  0.12500000000E+03 0.  0.
         25    1    1    2    0    0 -0.97377354549E+01 -0.92935196426E+02 -0.95152974155E+02  0.18278638548E+03  0.12500000000E+03 0.  0.
         25    1    1    2    0    0 -0.16475736978E+02  0.19635691538E+01  0.50153723309E+01  0.12619611512E+03  0.12500000000E+03 0.  0.
</event>
<event>
 5    0  0.5742040E-005  0.4283284E+03  0.7546771E-02  0.1034389E+00
         21   -1    0    0  502  501  0.00000000000E+00  0.00000000000E+00  0.28221960445E+03  0.28221960445E+03  0.00000000000E+00 0.  1.
         21   -1    0    0  501  502 -0.00000000000E+00 -0.00000000000E+00 -0.65007972073E+03  0.65007972073E+03  0.00000000000E+00 0.  1.
         25    1    1    2    0    0  0.62420176464E+02  0.21347260329E+03 -0.97342452669E+02  0.27307029109E+03  0.12500000000E+03 0.  0.
         25    1    1    2    0    0 -0.24478248677E+03 -0.53652237143E+02 -0.26622163495E+03  0.38638838918E+03  0.12500000000E+03 0.  0.
         25    1    1    2    0    0  0.18236231031E+03 -0.15982036614E+03 -0.42960286689E+01  0.27284064491E+03  0.12500000000E+03 0.  0.
</event>
<event>
 5    0  0.5742040E-005  0.2833165E+03  0.7546771E-02  0.1093891E+00
         21   -1    0    0  502  501  0.00000000000E+00  0.00000000000E+00  0.17153269365E+03  0.17153269365E+03  0.00000000000E+00 0.  1.
         21   -1    0    0  501  502 -0.00000000000E+00 -0.00000000000E+00 -0.46794718622E+03  0.46794718622E+03  0.00000000000E+00 0.  1.
         25    1    1    2    0    0 -0.13409363639E+03  0.84758867685E+02 -0.13962710283E+03  0.24553186518E+03  0.12500000000E+03 0.  0.
         25    1    1    2    0    0  0.42183283490E+02 -0.13570977809E+03 -0.40716670173E+02  0.19359602399E+03  0.12500000000E+03 0.  0.
         25    1    1    2    0    0  0.91910352904E+02  0.50950910401E+02 -0.11607071956E+03  0.20035199071E+03  0.12500000000E+03 0.  0.
</event>
<event>
 5    0  0.5742040E-005  0.4146733E+03  0.7546771E-02  0.1038814E+00
         21   -1    0    0  502  501  0.00000000000E+00  0.00000000000E+00  0.12891959817E+03  0.12891959817E+03  0.00000000000E+00 0.  1.
         21   -1    0    0  501  502 -0.00000000000E+00 -0.00000000000E+00 -0.13338079386E+04  0.13338079386E+04  0.00000000000E+00 0.  1.
         25    1    1    2    0    0  0.18521733997E+03 -0.11713154159E+02 -0.73910248268E+03  0.77223062676E+03  0.12500000000E+03 0.  0.
         25    1    1    2    0    0 -0.15694199423E+03 -0.93628733225E+02 -0.29041007662E+02  0.22330586505E+03  0.12500000000E+03 0.  0.
         25    1    1    2    0    0 -0.28275345740E+02  0.10534188738E+03 -0.43674485012E+03  0.46719104499E+03  0.12500000000E+03 0.  0.
</event>
<event>
 5    0  0.5742040E-005  0.3160463E+03  0.7546771E-02  0.1077483E+00
         21   -1    0    0  502  501  0.00000000000E+00  0.00000000000E+00  0.14698941929E+04  0.14698941929E+04  0.00000000000E+00 0. -1.
         21   -1    0    0  501  502 -0.00000000000E+00 -0.00000000000E+00 -0.67954048828E+02  0.67954048828E+02  0.00000000000E+00 0. -1.
         25    1    1    2    0    0  0.98725939659E+02  0.55672556954E+01  0.38496553744E+03  0.41665485778E+03  0.12500000000E+03 0.  0.
         25    1    1    2    0    0  0.48335683266E+02  0.59876878406E+02  0.90225408093E+02  0.17229974785E+03  0.12500000000E+03 0.  0.
         25    1    1    2    0    0 -0.14706162292E+03 -0.65444134102E+02  0.92674919856E+03  0.94889363612E+03  0.12500000000E+03 0.  0.
</event>
<event>
 5    0  0.5742040E-005  0.3840413E+03  0.7546771E-02  0.1049450E+00
         21   -1    0    0  502  501  0.00000000000E+00  0.00000000000E+00  0.31253788966E+03  0.31253788966E+03  0.00000000000E+00 0. -1.
         21   -1    0    0  501  502 -0.00000000000E+00 -0.00000000000E+00 -0.47190359721E+03  0.47190359721E+03  0.00000000000E+00 0. -1.
         25    1    1    2    0    0 -0.96074279878E+02 -0.10957255468E+03  0.21616881125E+02  0.19320637035E+03  0.12500000000E+03 0.  0.
         25    1    1    2    0    0  0.91838631784E+02  0.28482495249E+03 -0.24840954389E+02  0.32527167240E+03  0.12500000000E+03 0.  0.
         25    1    1    2    0    0  0.42356480939E+01 -0.17525239781E+03 -0.15614163429E+03  0.26596344413E+03  0.12500000000E+03 0.  0.
</event>
<event>
 5    0  0.5742040E-005  0.2488698E+03  0.7546771E-02  0.1114021E+00
         21   -1    0    0  502  501  0.00000000000E+00  0.00000000000E+00  0.11719398430E+03  0.11719398430E+03  0.00000000000E+00 0.  1.
         21   -1    0    0  501  502 -0.00000000000E+00 -0.00000000000E+00 -0.52849283086E+03  0.52849283086E+03  0.00000000000E+00 0.  1.
         25    1    1    2    0    0 -0.33765481918E+02 -0.37521248503E+02 -0.11840351584E+03  0.17942225175E+03  0.12500000000E+03 0.  0.
         25    1    1    2    0    0 -0.61099202133E+02  0.93882034234E+02 -0.23698794686E+03  0.29040529577E+03  0.12500000000E+03 0.  0.
         25    1    1    2    0    0  0.94864684051E+02 -0.56360785731E+02 -0.55907383853E+02  0.17585926765E+03  0.12500000000E+03 0.  0.
</event>
<event>
 5    0  0.5742040E-005  0.3532393E+03  0.7546771E-02  0.1061293E+00
         21   -1    0    0  502  501  0.00000000000E+00  0.00000000000E+00  0.58734746346E+03  0.58734746346E+03  0.00000000000E+00 0. -1.
         21   -1    0    0  501  502 -0.00000000000E+00 -0.00000000000E+00 -0.21244328684E+03  0.21244328684E+03  0.00000000000E+00 0. -1.
         25    1    1    2    0    0  0.91868501494E+02  0.12867814481E+03 -0.30752993426E+02  0.20388387166E+03  0.12500000000E+03 0.  0.
         25    1    1    2    0    0 -0.11120262530E+03 -0.36775922570E+02  0.11282183386E+02  0.17167055664E+03  0.12500000000E+03 0.  0.
         25    1    1    2    0    0  0.19334123807E+02 -0.91902222243E+02  0.39437498666E+03  0.42423632199E+03  0.12500000000E+03 0.  0.
</event>
<event>
 5    0  0.5742040E-005  0.2853074E+03  0.7546771E-02  0.1092825E+00
         21   -1    0    0  502  501  0.00000000000E+00  0.00000000000E+00  0.91275571494E+03  0.91275571494E+03  0.00000000000E+00 0.  1.
         21   -1    0    0  501  502 -0.00000000000E+00 -0.00000000000E+00 -0.89180819852E+02  0.89180819852E+02  0.00000000000E+00 0.  1.
         25    1    1    2    0    0 -0.47855065537E+01  0.13893840174E+02  0.81961517253E+02  0.15019530678E+03  0.12500000000E+03 0.  0.
         25    1    1    2    0    0 -0.12137799007E+00  0.11795476056E+03  0.13518485038E+03  0.21866248888E+03  0.12500000000E+03 0.  0.
         25    1    1    2    0    0  0.49068845438E+01 -0.13184860073E+03  0.60642852746E+03  0.63307873914E+03  0.12500000000E+03 0.  0.
</event>
<event>
 5    0  0.6182673E-005  0.5086016E+03  0.7546771E-02  0.1011558E+00
         21   -1    0    0  502  501  0.00000000000E+00  0.00000000000E+00  0.29833728088E+03  0.29833728088E+03  0.00000000000E+00 0. -1.
         21   -1    0    0  501  502 -0.00000000000E+00 -0.00000000000E+00 -0.86705754304E+03  0.86705754304E+03  0.00000000000E+00 0. -1.
         25    1    1    2    0    0 -0.11474386172E+03 -0.15601711479E+03 -0.28704305338E+03  0.36813884392E+03  0.12500000000E+03 0.  0.
         25    1    1    2    0    0  0.24722290149E+03 -0.17476318531E+03 -0.26145844735E+03  0.41910243813E+03  0.12500000000E+03 0.  0.
         25    1    1    2    0    0 -0.13247903976E+03  0.33078030010E+03 -0.20218761440E+02  0.37815354186E+03  0.12500000000E+03 0.  0.
</event>
<event>
 5    0  0.5742040E-005  0.2549348E+03  0.7546771E-02  0.1110225E+00
         21   -1    0    0  502  501  0.00000000000E+00  0.00000000000E+00  0.27340229641E+03  0.27340229641E+03  0.00000000000E+00 0.  1.
         21   -1    0    0  501  502 -0.00000000000E+00 -0.00000000000E+00 -0.23771473300E+03  0.23771473300E+03  0.00000000000E+00 0.  1.
         25    1    1    2    0    0 -0.29583304097E+01  0.46275027491E+02  0.42120187972E+02  0.13981859720E+03  0.12500000000E+03 0.  0.
         25    1    1    2    0    0 -0.93451960648E+02 -0.54623743667E+02  0.87844006461E+02  0.18723939701E+03  0.12500000000E+03 0.  0.
         25    1    1    2    0    0  0.96410291058E+02  0.83487161757E+01 -0.94276631026E+02  0.18405903521E+03  0.12500000000E+03 0.  0.
</event>
<event>
 5    0  0.5742040E-005  0.5255587E+03  0.7546771E-02  0.1007315E+00
         21   -1    0    0  502  501  0.00000000000E+00  0.00000000000E+00  0.80675464981E+03  0.80675464981E+03  0.00000000000E+00 0.  1.
         21   -1    0    0  501  502 -0.00000000000E+00 -0.00000000000E+00 -0.34237413736E+03  0.34237413736E+03  0.00000000000E+00 0.  1.
         25    1    1    2    0    0  0.35252535781E+02 -0.59841249475E+02  0.53026889362E+03  0.54921199546E+03  0.12500000000E+03 0.  0.
         25    1    1    2    0    0  0.50272348972E+02  0.47976056826E+02  0.22796565186E+03  0.26911400842E+03  0.12500000000E+03 0.  0.
         25    1    1    2    0    0 -0.85524884754E+02  0.11865192650E+02 -0.29385403303E+03  0.33080278329E+03  0.12500000000E+03 0.  0.
</event>
<event>
 5    0  0.5742040E-005  0.3264592E+03  0.7546771E-02  0.1072714E+00
         21   -1    0    0  502  501  0.00000000000E+00  0.00000000000E+00  0.13153700623E+03  0.13153700623E+03  0.00000000000E+00 0.  1.
         21   -1    0    0  501  502 -0.00000000000E+00 -0.00000000000E+00 -0.81023269688E+03  0.81023269688E+03  0.00000000000E+00 0.  1.
         25    1    1    2    0    0  0.10328899810E+03 -0.42919064647E+02 -0.17098604705E+03  0.23952430257E+03  0.12500000000E+03 0.  0.
         25    1    1    2    0    0 -0.13170022142E+03  0.15362696806E+03 -0.47287731472E+03  0.52932423751E+03  0.12500000000E+03 0.  0.
         25    1    1    2    0    0  0.28411223318E+02 -0.11070790341E+03 -0.34832328893E+02  0.17292116303E+03  0.12500000000E+03 0.  0.
</event>
<event>
 5    0  0.5742040E-005  0.3948375E+03  0.7546771E-02  0.1045582E+00
         21   -1    0    0  502  501  0.00000000000E+00  0.00000000000E+00  0.10433084742E+04  0.10433084742E+04  0.00000000000E+00 0. -1.
         21   -1    0    0  501  502 -0.00000000000E+00 -0.00000000000E+00 -0.14942525193E+03  0.14942525193E+03  0.00000000000E+00 0. -1.
         25    1    1    2    0    0  0.16894709269E+03 -0.11217336263E+03  0.83406321932E+02  0.25240364092E+03  0.12500000000E+03 0.  0.
         25    1    1    2    0    0 -0.26903599377E+03  0.58231225599E+02  0.44878475006E+03  0.54111366040E+03  0.12500000000E+03 0.  0.
         25    1    1    2    0    0  0.10008890108E+03  0.53942137034E+02  0.36169215031E+03  0.39921642484E+03  0.12500000000E+03 0.  0.
</event>
<event>
 5    0  0.5742040E-005  0.2993204E+03  0.7546771E-02  0.1085581E+00
         21   -1    0    0  502  501  0.00000000000E+00  0.00000000000E+00  0.34884002783E+02  0.34884002783E+02  0.00000000000E+00 0.  1.
         21   -1    0    0  501  502 -0.00000000000E+00 -0.00000000000E+00 -0.25683027022E+04  0.25683027022E+04  0.00000000000E+00 0.  1.
         25    1    1    2    0    0 -0.60247878373E+02 -0.84592410560E+02 -0.81139983784E+03  0.82751457970E+03  0.12500000000E+03 0.  0.
         25    1    1    2    0    0  0.11075352050E+03 -0.77268634806E+02 -0.44742478775E+03  0.48378789249E+03  0.12500000000E+03 0.  0.
         25    1    1    2    0    0 -0.50505642131E+02  0.16186104537E+03 -0.12745940739E+04  0.12918842328E+04  0.12500000000E+03 0.  0.
</event>
<event>
 5    0  0.5742040E-005  0.3216830E+03  0.7546771E-02  0.1074877E+00
         21   -1    0    0  502  501  0.00000000000E+00  0.00000000000E+00  0.75131303731E+02  0.75131303731E+02  0.00000000000E+00 0. -1.
         21   -1    0    0  501  502 -0.00000000000E+00 -0.00000000000E+00 -0.13773211992E+04  0.13773211992E+04  0.00000000000E+00 0. -1.
         25    1    1    2    0    0  0.87554989415E+02 -0.86855465061E+02 -0.23777996552E+03  0.29559103502E+03  0.12500000000E+03 0.  0.
         25    1    1    2    0    0 -0.31145700697E+02 -0.13705491377E+03 -0.38533045775E+03  0.42878743654E+03  0.12500000000E+03 0.  0.
         25    1    1    2    0    0 -0.56409288718E+02  0.22391037883E+03 -0.67907947217E+03  0.72807403135E+03  0.12500000000E+03 0.  0.
</event>
<event>
 5    0  0.5742040E-005  0.4386544E+03  0.7546771E-02  0.1031160E+00
         21   -1    0    0  502  501  0.00000000000E+00  0.00000000000E+00  0.67515993805E+03  0.67515993805E+03  0.00000000000E+00 0. -1.
         21   -1    0    0  501  502 -0.00000000000E+00 -0.00000000000E+00 -0.28499572034E+03  0.28499572034E+03  0.00000000000E+00 0. -1.
         25    1    1    2    0    0 -0.10991856059E+03  0.21138816452E+03  0.17039171822E+03  0.31847352119E+03  0.12500000000E+03 0.  0.
         25    1    1    2    0    0  0.22555236947E+03 -0.31140832470E+03  0.16546004641E+03  0.43686501693E+03  0.12500000000E+03 0.  0.
         25    1    1    2    0    0 -0.11563380888E+03  0.10002016017E+03  0.54312453088E+02  0.20481712027E+03  0.12500000000E+03 0.  0.
</event>
<event>
 5    0  0.5742040E-005  0.3668904E+03  0.7546771E-02  0.1055888E+00
         21   -1    0    0  502  501  0.00000000000E+00  0.00000000000E+00  0.39514512580E+04  0.39514512580E+04  0.00000000000E+00 0. -1.
         21   -1    0    0  501  502 -0.00000000000E+00 -0.00000000000E+00 -0.34065609913E+02  0.34065609913E+02  0.00000000000E+00 0. -1.
         25    1    1    2    0    0 -0.10468526283E+03 -0.79018751989E+02  0.17351210596E+04  0.17445552610E+04  0.12500000000E+03 0.  0.
         25    1    1    2    0    0  0.14962592789E+03  0.20963055752E+03  0.17005702977E+04  0.17244991233E+04  0.12500000000E+03 0.  0.
         25    1    1    2    0    0 -0.44940665055E+02 -0.13061180553E+03  0.48169429086E+03  0.51646248360E+03  0.12500000000E+03 0.  0.
</event>
<event>
 5    0  0.6098460E-005  0.2782726E+03  0.7546771E-02  0.1096636E+00
         21   -1    0    0  502  501  0.00000000000E+00  0.00000000000E+00  0.19309674679E+03  0.19309674679E+03  0.00000000000E+00 0. -1.
         21   -1    0    0  501  502 -0.00000000000E+00 -0.00000000000E+00 -0.40101978823E+03  0.40101978823E+03  0.00000000000E+00 0. -1.
         25    1    1    2    0    0  0.49011649551E+02 -0.13861833810E+03 -0.78744480950E+02  0.20842955340E+03  0.12500000000E+03 0.  0.
         25    1    1    2    0    0 -0.58726297344E+02  0.17962978578E+02  0.38025756848E+02  0.14436898830E+03  0.12500000000E+03 0.  0.
         25    1    1    2    0    0  0.97146477929E+01  0.12065535952E+03 -0.16720431734E+03  0.24131799332E+03  0.12500000000E+03 0.  0.
</event>
<event>
 5    0  0.5742040E-005  0.3206568E+03  0.7546771E-02  0.1075347E+00
         21   -1    0    0  502  501  0.00000000000E+00  0.00000000000E+00  0.15743660078E+03  0.15743660078E+03  0.00000000000E+00 0. -1.
         21   -1    0    0  501  502 -0.00000000000E+00 -0.00000000000E+00 -0.65309341352E+03  0.65309341352E+03  0.00000000000E+00 0. -1.
         25    1    1    2    0    0  0.10397640056E+03  0.34005703168E+01 -0.28330037873E+03  0.32666000725E+03  0.12500000000E+03 0.  0.
         25    1    1    2    0    0  0.39661065701E+02  0.13950670996E+03 -0.13216333463E+03  0.23265267950E+03  0.12500000000E+03 0.  0.
         25    1    1    2    0    0 -0.14363746626E+03 -0.14290728028E+03 -0.80193099386E+02  0.25121732755E+03  0.12500000000E+03 0.  0.
</event>
<event>
 5    0  0.5742040E-005  0.3051723E+03  0.7546771E-02  0.1082683E+00
         21   -1    0    0  502  501  0.00000000000E+00  0.00000000000E+00  0.14615911070E+04  0.14615911070E+04  0.00000000000E+00 0.  1.
         21   -1    0    0  501  502 -0.00000000000E+00 -0.00000000000E+00 -0.63718302838E+02  0.63718302838E+02  0.00000000000E+00 0.  1.
         25    1    1    2    0    0 -0.56386935474E+01 -0.60400487888E+02  0.78832454080E+03  0.80047523099E+03  0.12500000000E+03 0.  0.
         25    1    1    2    0    0 -0.13548225312E+03  0.83349042306E+02  0.31509779883E+03  0.37445176804E+03  0.12500000000E+03 0.  0.
         25    1    1    2    0    0  0.14112094666E+03 -0.22948554418E+02  0.29445046453E+03  0.35038241080E+03  0.12500000000E+03 0.  0.
</event>
<event>
 5    0  0.5742040E-005  0.2654201E+03  0.7546771E-02  0.1103930E+00
         21   -1    0    0  502  501  0.00000000000E+00  0.00000000000E+00  0.13874059091E+03  0.13874059091E+03  0.00000000000E+00 0.  1.
         21   -1    0    0  501  502 -0.00000000000E+00 -0.00000000000E+00 -0.50776668769E+03  0.50776668769E+03  0.00000000000E+00 0.  1.
         25    1    1    2    0    0  0.42836408040E+02  0.80784560827E+02 -0.12361111625E+03  0.19815602737E+03  0.12500000000E+03 0.  0.
         25    1    1    2    0    0 -0.13066515859E+03  0.34165849970E+02 -0.12173537843E+03  0.22064721012E+03  0.12500000000E+03 0.  0.
         25    1    1    2    0    0  0.87828750546E+02 -0.11495041080E+03 -0.12367960211E+03  0.22770404112E+03  0.12500000000E+03 0.  0.
</event>
<event>
 5    0  0.5742040E-005  0.3090349E+03  0.7546771E-02  0.1080809E+00
         21   -1    0    0  502  501  0.00000000000E+00  0.00000000000E+00  0.11188243790E+03  0.11188243790E+03  0.00000000000E+00 0. -1.
         21   -1    0    0  501  502 -0.00000000000E+00 -0.00000000000E+00 -0.85359749643E+03  0.85359749643E+03  0.00000000000E+00 0. -1.
         25    1    1    2    0    0  0.15877814475E+03  0.77842919860E+02 -0.89542916116E+02  0.23433513021E+03  0.12500000000E+03 0.  0.
         25    1    1    2    0    0 -0.46625878858E+02 -0.40943455797E+02 -0.41761504809E+03  0.44031541824E+03  0.12500000000E+03 0.  0.
         25    1    1    2    0    0 -0.11215226590E+03 -0.36899464063E+02 -0.23455709432E+03  0.29082938588E+03  0.12500000000E+03 0.  0.
</event>
<event>
 5    0  0.5742040E-005  0.2189809E+03  0.7546771E-02  0.1134645E+00
         21   -1    0    0  502  501  0.00000000000E+00  0.00000000000E+00  0.25853319595E+03  0.25853319595E+03  0.00000000000E+00 0. -1.
         21   -1    0    0  501  502 -0.00000000000E+00 -0.00000000000E+00 -0.18547952725E+03  0.18547952725E+03  0.00000000000E+00 0. -1.
         25    1    1    2    0    0  0.17237611601E+02  0.70243771844E+01 -0.27938061212E+02  0.12942956537E+03  0.12500000000E+03 0.  0.
         25    1    1    2    0    0 -0.35631321351E+02  0.58857146284E+02  0.96060285523E+02  0.17200678238E+03  0.12500000000E+03 0.  0.
         25    1    1    2    0    0  0.18393709750E+02 -0.65881523468E+02  0.49314443911E+01  0.14257637545E+03  0.12500000000E+03 0.  0.
</event>
<event>
 5    0  0.5742040E-005  0.4321021E+03  0.7546771E-02  0.1033198E+00
         21   -1    0    0  502  501  0.00000000000E+00  0.00000000000E+00  0.62804947670E+03  0.62804947670E+03  0.00000000000E+00 0.  1.
         21   -1    0    0  501  502 -0.00000000000E+00 -0.00000000000E+00 -0.29728899299E+03  0.29728899299E+03  0.00000000000E+00 0.  1.
         25    1    1    2    0    0 -0.19633128637E+03 -0.18686938157E+03 -0.54812179331E+02  0.30347242837E+03  0.12500000000E+03 0.  0.
         25    1    1    2    0    0  0.15036943854E+03  0.83297928343E+02  0.13078494203E+02  0.21294496923E+03  0.12500000000E+03 0.  0.
         25    1    1    2    0    0  0.45961847838E+02  0.10357145323E+03  0.37249416883E+03  0.40892107209E+03  0.12500000000E+03 0.  0.
</event>
<event>
 5    0  0.5742040E-005  0.2344985E+03  0.7546771E-02  0.1123513E+00
         21   -1    0    0  502  501  0.00000000000E+00  0.00000000000E+00  0.21657491470E+03  0.21657491470E+03  0.00000000000E+00 0. -1.
         21   -1    0    0  501  502 -0.00000000000E+00 -0.00000000000E+00 -0.25390547178E+03  0.25390547178E+03  0.00000000000E+00 0. -1.
         25    1    1    2    0    0  0.46067628134E+02  0.26862818471E+02  0.38526022208E+02  0.14125541322E+03  0.12500000000E+03 0.  0.
         25    1    1    2    0    0 -0.53772455821E+01 -0.74704947975E+02 -0.11309830036E+03  0.18446129558E+03  0.12500000000E+03 0.  0.
         25    1    1    2    0    0 -0.40690382552E+02  0.47842129504E+02  0.37241721071E+02  0.14476367768E+03  0.12500000000E+03 0.  0.
</event>
<event>
 5    0  0.5742040E-005  0.2892475E+03  0.7546771E-02  0.1090743E+00
         21   -1    0    0  502  501  0.00000000000E+00  0.00000000000E+00  0.30772438679E+03  0.30772438679E+03  0.00000000000E+00 0. -1.
         21   -1    0    0  501  502 -0.00000000000E+00 -0.00000000000E+00 -0.27188012288E+03  0.27188012288E+03  0.00000000000E+00 0. -1.
         25    1    1    2    0    0 -0.14275131907E+03 -0.88603307924E+02 -0.49034312762E+02  0.21507637969E+03  0.12500000000E+03 0.  0.
         25    1    1    2    0    0  0.88550617647E+02  0.57424435528E+02 -0.49214033724E+02  0.17083851673E+03  0.12500000000E+03 0.  0.
         25    1    1    2    0    0  0.54200701420E+02  0.31178872397E+02  0.13409261040E+03  0.19368961325E+03  0.12500000000E+03 0.  0.
</event>
<event>
 5    0  0.5742040E-005  0.2466208E+03  0.7546771E-02  0.1115459E+00
         21   -1    0    0  502  501  0.00000000000E+00  0.00000000000E+00  0.43576225584E+03  0.43576225584E+03  0.00000000000E+00 0.  1.
         21   -1    0    0  501  502 -0.00000000000E+00 -0.00000000000E+00 -0.13957566938E+03  0.13957566938E+03  0.00000000000E+00 0.  1.
         25    1    1    2    0    0  0.45115948726E+02  0.10581817877E+03  0.85339613827E+02  0.19010729990E+03  0.12500000000E+03 0.  0.
         25    1    1    2    0    0  0.11239482442E+02 -0.99823478726E+02  0.18628775007E+03  0.24580312996E+03  0.12500000000E+03 0.  0.
         25    1    1    2    0    0 -0.56355431168E+02 -0.59947000462E+01  0.24559222570E+02  0.13942749537E+03  0.12500000000E+03 0.  0.
</event>
<event>
 5    0  0.5777653E-005  0.2740254E+03  0.7546771E-02  0.1098998E+00
         21   -1    0    0  502  501  0.00000000000E+00  0.00000000000E+00  0.77039688450E+02  0.77039688450E+02  0.00000000000E+00 0.  1.
         21   -1    0    0  501  502 -0.00000000000E+00 -0.00000000000E+00 -0.97469161501E+03  0.97469161501E+03  0.00000000000E+00 0.  1.
         25    1    1    2    0    0  0.16188442764E+03 -0.41833075516E+01 -0.55783459834E+03  0.59416202090E+03  0.12500000000E+03 0.  0.
         25    1    1    2    0    0 -0.10730470166E+03 -0.16095831336E+02 -0.21688909435E+03  0.27283558058E+03  0.12500000000E+03 0.  0.
         25    1    1    2    0    0 -0.54579725984E+02  0.20279138888E+02 -0.12292823387E+03  0.18473370197E+03  0.12500000000E+03 0.  0.
</event>
<event>
 5    0  0.5742040E-005  0.3999501E+03  0.7546771E-02  0.1043797E+00
         21   -1    0    0  502  501  0.00000000000E+00  0.00000000000E+00  0.79749336430E+03  0.79749336430E+03  0.00000000000E+00 0. -1.
         21   -1    0    0  501  502 -0.00000000000E+00 -0.00000000000E+00 -0.20057860786E+03  0.20057860786E+03  0.00000000000E+00 0. -1.
         25    1    1    2    0    0  0.90031346054E+02  0.17151044576E+01  0.30981443967E+02  0.15714144815E+03  0.12500000000E+03 0.  0.
         25    1    1    2    0    0  0.16161170967E+03 -0.18996310743E+03  0.30817993634E+03  0.41569724566E+03  0.12500000000E+03 0.  0.
         25    1    1    2    0    0 -0.25164305572E+03  0.18824800297E+03  0.25775337612E+03  0.42523327835E+03  0.12500000000E+03 0.  0.
</event>
<event>
 5    0  0.5742040E-005  0.4669927E+03  0.7546771E-02  0.1022772E+00
         21   -1    0    0  502  501  0.00000000000E+00  0.00000000000E+00  0.43732236342E+03  0.43732236342E+03  0.00000000000E+00 0. -1.
         21   -1    0    0  501  502 -0.00000000000E+00 -0.00000000000E+00 -0.49867595756E+03  0.49867595756E+03  0.00000000000E+00 0. -1.
         25    1    1    2    0    0  0.28420130290E+03 -0.12414766306E+03  0.19562209160E+03  0.38739647074E+03  0.12500000000E+03 0.  0.
         25    1    1    2    0    0 -0.85356615660E+02  0.62254044891E+02  0.36465373657E+02  0.16767838685E+03  0.12500000000E+03 0.  0.
         25    1    1    2    0    0 -0.19884468724E+03  0.61893618172E+02 -0.29344105941E+03  0.38092346339E+03  0.12500000000E+03 0.  0.
</event>
<event>
 5    0  0.5742040E-005  0.4699531E+03  0.7546771E-02  0.1021933E+00
         21   -1    0    0  502  501  0.00000000000E+00  0.00000000000E+00  0.24543895221E+03  0.24543895221E+03  0.00000000000E+00 0.  1.
         21   -1    0    0  501  502 -0.00000000000E+00 -0.00000000000E+00 -0.89984052793E+03  0.89984052793E+03  0.00000000000E+00 0.  1.
         25    1    1    2    0    0  0.56677311308E+02  0.28578922061E+02 -0.15474104814E+03  0.20880341085E+03  0.12500000000E+03 0.  0.
         25    1    1    2    0    0  0.13189980914E+03 -0.21549594947E+03  0.74583276456E+02  0.29158828683E+03  0.12500000000E+03 0.  0.
         25    1    1    2    0    0 -0.18857712045E+03  0.18691702740E+03 -0.57424380404E+03  0.64488778246E+03  0.12500000000E+03 0.  0.
</event>
<event>
 5    0  0.5742040E-005  0.2983128E+03  0.7546771E-02  0.1086087E+00
         21   -1    0    0  502  501  0.00000000000E+00  0.00000000000E+00  0.17084827100E+04  0.17084827100E+04  0.00000000000E+00 0. -1.
         21   -1    0    0  501  502 -0.00000000000E+00 -0.00000000000E+00 -0.52087446092E+02  0.52087446092E+02  0.00000000000E+00 0. -1.
         25    1    1    2    0    0  0.55451323576E+02  0.65780363788E+02  0.68228409214E+03  0.69895528321E+03  0.12500000000E+03 0.  0.
         25    1    1    2    0    0 -0.15736476302E+03  0.50508406215E+02  0.64113583961E+03  0.67379146074E+03  0.12500000000E+03 0.  0.
         25    1    1    2    0    0  0.10191343945E+03 -0.11628877000E+03  0.33297533213E+03  0.38782341210E+03  0.12500000000E+03 0.  0.
</event>
<event>
 5    0  0.5742040E-005  0.3293592E+03  0.7546771E-02  0.1071421E+00
         21   -1    0    0  502  501  0.00000000000E+00  0.00000000000E+00  0.81527284188E+02  0.81527284188E+02  0.00000000000E+00 0. -1.
         21   -1    0    0  501  502 -0.00000000000E+00 -0.00000000000E+00 -0.13305663379E+04  0.13305663379E+04  0.00000000000E+00 0. -1.
         25    1    1    2    0    0 -0.13071612890E+02 -0.77916408601E+02 -0.53477234225E+03  0.55484078061E+03  0.12500000000E+03 0.  0.
         25    1    1    2    0    0 -0.68159497069E+02  0.10699073449E+03 -0.63625220653E+02  0.18911875373E+03  0.12500000000E+03 0.  0.
         25    1    1    2    0    0  0.81231109960E+02 -0.29074325894E+02 -0.65064149082E+03  0.66813408776E+03  0.12500000000E+03 0.  0.
</event>
<event>
 5    0  0.5742040E-005  0.3086026E+03  0.7546771E-02  0.1081018E+00
         21   -1    0    0  502  501  0.00000000000E+00  0.00000000000E+00  0.18760362139E+03  0.18760362139E+03  0.00000000000E+00 0.  1.
         21   -1    0    0  501  502 -0.00000000000E+00 -0.00000000000E+00 -0.50764256713E+03  0.50764256713E+03  0.00000000000E+00 0.  1.
         25    1    1    2    0    0 -0.30251191158E+02  0.20060577190E+03 -0.19332582203E+03  0.30685124043E+03  0.12500000000E+03 0.  0.
         25    1    1    2    0    0  0.14862101792E+02 -0.20452884385E+03 -0.69551372627E+02  0.25003064506E+03  0.12500000000E+03 0.  0.
         25    1    1    2    0    0  0.15389089366E+02  0.39230719458E+01 -0.57161751083E+02  0.13836430303E+03  0.12500000000E+03 0.  0.
</event>
<event>
 5    0  0.5742040E-005  0.4887321E+03  0.7546771E-02  0.1016763E+00
         21   -1    0    0  502  501  0.00000000000E+00  0.00000000000E+00  0.49923978784E+03  0.49923978784E+03  0.00000000000E+00 0.  1.
         21   -1    0    0  501  502 -0.00000000000E+00 -0.00000000000E+00 -0.47844561712E+03  0.47844561712E+03  0.00000000000E+00 0.  1.
         25    1    1    2    0    0  0.39953288896E+02  0.12371863326E+03 -0.16876611487E+03  0.24700114785E+03  0.12500000000E+03 0.  0.
         25    1    1    2    0    0 -0.13579607413E+03  0.17923106610E+03  0.27717212641E+03  0.37817157015E+03  0.12500000000E+03 0.  0.
         25    1    1    2    0    0  0.95842785235E+02 -0.30294969936E+03 -0.87611840820E+02  0.35251268697E+03  0.12500000000E+03 0.  0.
</event>
<event>
 5    0  0.5742040E-005  0.2716326E+03  0.7546771E-02  0.1100349E+00
         21   -1    0    0  502  501  0.00000000000E+00  0.00000000000E+00  0.83311990754E+03  0.83311990754E+03  0.00000000000E+00 0. -1.
         21   -1    0    0  501  502 -0.00000000000E+00 -0.00000000000E+00 -0.88563803905E+02  0.88563803905E+02  0.00000000000E+00 0. -1.
         25    1    1    2    0    0  0.60017129693E+02 -0.36442884116E+02  0.29718469105E+02  0.14641832899E+03  0.12500000000E+03 0.  0.
         25    1    1    2    0    0 -0.53035804991E+02 -0.52935377967E+02  0.37034208650E+03  0.39798644686E+03  0.12500000000E+03 0.  0.
         25    1    1    2    0    0 -0.69813247016E+01  0.89378262083E+02  0.34449554802E+03  0.37727893559E+03  0.12500000000E+03 0.  0.
</event>
<event>
 5    0  0.5742040E-005  0.2595238E+03  0.7546771E-02  0.1107430E+00
         21   -1    0    0  502  501  0.00000000000E+00  0.00000000000E+00  0.12917043460E+03  0.12917043460E+03  0.00000000000E+00 0. -1.
         21   -1    0    0  501  502 -0.00000000000E+00 -0.00000000000E+00 -0.52142444667E+03  0.52142444667E+03  0.00000000000E+00 0. -1.
         25    1    1    2    0    0  0.13499690800E+03  0.51568779488E+02 -0.16800997750E+03  0.25443242075E+03  0.12500000000E+03 0.  0.
         25    1    1    2    0    0 -0.12363606925E+03 -0.20719908314E+01 -0.18594111112E+03  0.25590870944E+03  0.12500000000E+03 0.  0.
         25    1    1    2    0    0 -0.11360838749E+02 -0.49496788656E+02 -0.38302923451E+02  0.14025375107E+03  0.12500000000E+03 0.  0.
</event>
<event>
 5    0  0.5742040E-005  0.4398286E+03  0.7546771E-02  0.1030799E+00
         21   -1    0    0  502  501  0.00000000000E+00  0.00000000000E+00  0.10323040896E+04  0.10323040896E+04  0.00000000000E+00 0.  1.
         21   -1    0    0  501  502 -0.00000000000E+00 -0.00000000000E+00 -0.18739558168E+03  0.18739558168E+03  0.00000000000E+00 0.  1.
         25    1    1    2    0    0 -0.28135622710E+03  0.12055508747E+03  0.41985591303E+03  0.53441448648E+03  0.12500000000E+03 0.  0.
         25    1    1    2    0    0  0.45690319973E+02 -0.21637481748E+03  0.20585591989E+03  0.32696685877E+03  0.12500000000E+03 0.  0.
         25    1    1    2    0    0  0.23566590713E+03  0.95819730006E+02  0.21919667498E+03  0.35831832602E+03  0.12500000000E+03 0.  0.
</event>
<event>
 5    0  0.5742040E-005  0.4157555E+03  0.7546771E-02  0.1038457E+00
         21   -1    0    0  502  501  0.00000000000E+00  0.00000000000E+00  0.16574996105E+03  0.16574996105E+03  0.00000000000E+00 0.  1.
         21   -1    0    0  501  502 -0.00000000000E+00 -0.00000000000E+00 -0.10428516658E+04  0.10428516658E+04  0.00000000000E+00 0.  1.
         25    1    1    2    0    0  0.18896079702E+03  0.62919857197E+01 -0.52180956383E+03  0.56890771906E+03  0.12500000000E+03 0.  0.
         25    1    1    2    0    0 -0.10771372910E+03 -0.91138850494E+02  0.53852470406E+02  0.19604495932E+03  0.12500000000E+03 0.  0.
         25    1    1    2    0    0 -0.81247067919E+02  0.84846864775E+02 -0.40914461133E+03  0.44364894848E+03  0.12500000000E+03 0.  0.
</event>
<event>
 5    0  0.5742040E-005  0.2387242E+03  0.7546771E-02  0.1120646E+00
         21   -1    0    0  502  501  0.00000000000E+00  0.00000000000E+00  0.16036313512E+03  0.16036313512E+03  0.00000000000E+00 0.  1.
         21   -1    0    0  501  502 -0.00000000000E+00 -0.00000000000E+00 -0.35537615138E+03  0.35537615138E+03  0.00000000000E+00 0.  1.
         25    1    1    2    0    0  0.86335771569E+02  0.74544416536E+02 -0.10870320901E+03  0.20112713178E+03  0.12500000000E+03 0.  0.
         25    1    1    2    0    0 -0.52933422121E+01  0.81094396111E+01 -0.40834650527E+01  0.12544105058E+03  0.12500000000E+03 0.  0.
         25    1    1    2    0    0 -0.81042429357E+02 -0.82653856147E+02 -0.82226342191E+02  0.18917110414E+03  0.12500000000E+03 0.  0.
</event>
<event>
 5    0  0.5742040E-005  0.2576414E+03  0.7546771E-02  0.1108569E+00
         21   -1    0    0  502  501  0.00000000000E+00  0.00000000000E+00  0.83996197144E+03  0.83996197144E+03  0.00000000000E+00 0. -1.
         21   -1    0    0  501  502 -0.00000000000E+00 -0.00000000000E+00 -0.79026318309E+02  0.79026318309E+02  0.00000000000E+00 0. -1.
         25    1    1    2    0    0 -0.12731269661E+02  0.93399951259E+02  0.29025729638E+03  0.32978771084E+03  0.12500000000E+03 0.  0.
         25    1    1    2    0    0  0.58981207358E+02  0.58640758489E+02  0.16933028528E+03  0.22630790285E+03  0.12500000000E+03 0.  0.
         25    1    1    2    0    0 -0.46249937697E+02 -0.15204070975E+03  0.30134807148E+03  0.36289267606E+03  0.12500000000E+03 0.  0.
</event>
<event>
 5    0  0.5742040E-005  0.3437705E+03  0.7546771E-02  0.1065201E+00
         21   -1    0    0  502  501  0.00000000000E+00  0.00000000000E+00  0.18479910301E+04  0.18479910301E+04  0.00000000000E+00 0.  1.
         21   -1    0    0  501  502 -0.00000000000E+00 -0.00000000000E+00 -0.63949530512E+02  0.63949530512E+02  0.00000000000E+00 0.  1.
         25    1    1    2    0    0  0.17942341747E+03  0.18204546479E+03  0.90358350300E+03  0.94732331381E+03  0.12500000000E+03 0.  0.
         25    1    1    2    0    0 -0.11770341745E+03 -0.33205680724E+02  0.54153968082E+03  0.56907551135E+03  0.12500000000E+03 0.  0.
         25    1    1    2    0    0 -0.61720000013E+02 -0.14883978407E+03  0.33891831574E+03  0.39554173543E+03  0.12500000000E+03 0.  0.
</event>
<event>
 5    0  0.5742040E-005  0.2173127E+03  0.7546771E-02  0.1135903E+00
         21   -1    0    0  502  501  0.00000000000E+00  0.00000000000E+00  0.60620484724E+03  0.60620484724E+03  0.00000000000E+00 0.  1.
         21   -1    0    0  501  502 -0.00000000000E+00 -0.00000000000E+00 -0.77902423375E+02  0.77902423375E+02  0.00000000000E+00 0.  1.
         25    1    1    2    0    0 -0.72795554377E+02  0.53759030913E+01  0.98125636071E+02  0.17487633781E+03  0.12500000000E+03 0.  0.
         25    1    1    2    0    0  0.58761520220E+02  0.12804113794E+02  0.16794629267E+03  0.21782520243E+03  0.12500000000E+03 0.  0.
         25    1    1    2    0    0  0.14034034157E+02 -0.18180016885E+02  0.26223049512E+03  0.29140573039E+03  0.12500000000E+03 0.  0.
</event>
<event>
 5    0  0.5742040E-005  0.3130695E+03  0.7546771E-02  0.1078884E+00
         21   -1    0    0  502  501  0.00000000000E+00  0.00000000000E+00  0.40486660969E+03  0.40486660969E+03  0.00000000000E+00 0.  1.
         21   -1    0    0  501  502 -0.00000000000E+00 -0.00000000000E+00 -0.24208600562E+03  0.24208600562E+03  0.00000000000E+00 0.  1.
         25    1    1    2    0    0 -0.18209933399E+03 -0.11343344958E+03 -0.49892275282E+02  0.25326182906E+03  0.12500000000E+03 0.  0.
         25    1    1    2    0    0  0.91593557165E+02  0.74502695437E+02  0.10360917039E+03  0.20074832884E+03  0.12500000000E+03 0.  0.
         25    1    1    2    0    0  0.90505776828E+02  0.38930754144E+02  0.10906370896E+03  0.19294245741E+03  0.12500000000E+03 0.  0.
</event>
<event>
 5    0  0.5742040E-005  0.2728582E+03  0.7546771E-02  0.1099655E+00
         21   -1    0    0  502  501  0.00000000000E+00  0.00000000000E+00  0.57896029525E+02  0.57896029525E+02  0.00000000000E+00 0.  1.
         21   -1    0    0  501  502 -0.00000000000E+00 -0.00000000000E+00 -0.12859529777E+04  0.12859529777E+04  0.00000000000E+00 0.  1.
         25    1    1    2    0    0 -0.31647416683E+01 -0.55695332427E+02 -0.15362151586E+03  0.20575848896E+03  0.12500000000E+03 0.  0.
         25    1    1    2    0    0  0.50369526997E+02  0.13115750225E+03 -0.34735926153E+03  0.39499726103E+03  0.12500000000E+03 0.  0.
         25    1    1    2    0    0 -0.47204785329E+02 -0.75462169825E+02 -0.72707617082E+03  0.74309325727E+03  0.12500000000E+03 0.  0.
</event>
<event>
 5    0  0.5742040E-005  0.2607177E+03  0.7546771E-02  0.1106713E+00
         21   -1    0    0  502  501  0.00000000000E+00  0.00000000000E+00  0.11572179306E+03  0.11572179306E+03  0.00000000000E+00 0.  1.
         21   -1    0    0  501  502 -0.00000000000E+00 -0.00000000000E+00 -0.58738903298E+03  0.58738903298E+03  0.00000000000E+00 0.  1.
         25    1    1    2    0    0  0.57312313329E+02  0.75739726331E+02 -0.21554135568E+03  0.26665386442E+03  0.12500000000E+03 0.  0.
         25    1    1    2    0    0  0.56574385938E+01  0.58341052151E+02 -0.18313426905E+03  0.22934438183E+03  0.12500000000E+03 0.  0.
         25    1    1    2    0    0 -0.62969751923E+02 -0.13408077848E+03 -0.72991615195E+02  0.20711257978E+03  0.12500000000E+03 0.  0.
</event>
<event>
 5    0  0.5742040E-005  0.3423336E+03  0.7546771E-02  0.1065806E+00
         21   -1    0    0  502  501  0.00000000000E+00  0.00000000000E+00  0.22605556319E+03  0.22605556319E+03  0.00000000000E+00 0. -1.
         21   -1    0    0  501  502 -0.00000000000E+00 -0.00000000000E+00 -0.51842252566E+03  0.51842252566E+03  0.00000000000E+00 0. -1.
         25    1    1    2    0    0 -0.49905918583E+02 -0.19946114324E+03 -0.17147611356E+02  0.24123513207E+03  0.12500000000E+03 0.  0.
         25    1    1    2    0    0  0.11439433978E+02  0.49193191892E+02  0.30614945386E+02  0.13825015609E+03  0.12500000000E+03 0.  0.
         25    1    1    2    0    0  0.38466484605E+02  0.15026795135E+03 -0.30583429650E+03  0.36499280069E+03  0.12500000000E+03 0.  0.
</event>
<event>
 5    0  0.5742040E-005  0.2832485E+03  0.7546771E-02  0.1093928E+00
         21   -1    0    0  502  501  0.00000000000E+00  0.00000000000E+00  0.37624270598E+02  0.37624270598E+02  0.00000000000E+00 0.  1.
         21   -1    0    0  501  502 -0.00000000000E+00 -0.00000000000E+00 -0.21323926775E+04  0.21323926775E+04  0.00000000000E+00 0.  1.
         25    1    1    2    0    0 -0.57412761563E+02  0.18322300265E+03 -0.92249415040E+03  0.95051951658E+03  0.12500000000E+03 0.  0.
         25    1    1    2    0    0  0.11033976185E+02 -0.66281641864E+02 -0.33804070112E+03  0.36662176735E+03  0.12500000000E+03 0.  0.
         25    1    1    2    0    0  0.46378785379E+02 -0.11694136079E+03 -0.83423355535E+03  0.85287566413E+03  0.12500000000E+03 0.  0.
</event>
<event>
 5    0  0.5742040E-005  0.2358767E+03  0.7546771E-02  0.1122571E+00
         21   -1    0    0  502  501  0.00000000000E+00  0.00000000000E+00  0.78685636832E+03  0.78685636832E+03  0.00000000000E+00 0. -1.
         21   -1    0    0  501  502 -0.00000000000E+00 -0.00000000000E+00 -0.70708982922E+02  0.70708982922E+02  0.00000000000E+00 0. -1.
         25    1    1    2    0    0 -0.60706167231E+02  0.32467810504E+02  0.26681377771E+03  0.30257889787E+03  0.12500000000E+03 0.  0.
         25    1    1    2    0    0 -0.43746387336E+01  0.27315334469E+02  0.69963093540E+02  0.14589413771E+03  0.12500000000E+03 0.  0.
         25    1    1    2    0    0  0.65080805964E+02 -0.59783144974E+02  0.37937051414E+03  0.40909231566E+03  0.12500000000E+03 0.  0.
</event>
<event>
 5    0  0.5742040E-005  0.4800511E+03  0.7546771E-02  0.1019121E+00
         21   -1    0    0  502  501  0.00000000000E+00  0.00000000000E+00  0.39093267185E+03  0.39093267185E+03  0.00000000000E+00 0. -1.
         21   -1    0    0  501  502 -0.00000000000E+00 -0.00000000000E+00 -0.58948540761E+03  0.58948540761E+03  0.00000000000E+00 0. -1.
         25    1    1    2    0    0 -0.87820397588E+02 -0.21501850457E+03 -0.22847314446E+03  0.34895609649E+03  0.12500000000E+03 0.  0.
         25    1    1    2    0    0 -0.14485012011E+03  0.17561270725E+02 -0.16077170264E+03  0.25052444172E+03  0.12500000000E+03 0.  0.
         25    1    1    2    0    0  0.23267051770E+03  0.19745723384E+03  0.19069211135E+03  0.38093754125E+03  0.12500000000E+03 0.  0.
</event>
<event>
 5    0  0.5742040E-005  0.2259063E+03  0.7546771E-02  0.1129555E+00
         21   -1    0    0  502  501  0.00000000000E+00  0.00000000000E+00  0.65991436086E+03  0.65991436086E+03  0.00000000000E+00 0. -1.
         21   -1    0    0  501  502 -0.00000000000E+00 -0.00000000000E+00 -0.77333745758E+02  0.77333745758E+02  0.00000000000E+00 0. -1.
         25    1    1    2    0    0 -0.86106311252E+01 -0.39971433633E+01  0.89993036960E+02  0.15431742230E+03  0.12500000000E+03 0.  0.
         25    1    1    2    0    0 -0.31811801943E+02 -0.69515513281E+02  0.33155571852E+03  0.36248943683E+03  0.12500000000E+03 0.  0.
         25    1    1    2    0    0  0.40422433068E+02  0.73512656644E+02  0.16103185963E+03  0.22044124749E+03  0.12500000000E+03 0.  0.
</event>
<event>
 5    0  0.5742040E-005  0.2419928E+03  0.7546771E-02  0.1118472E+00
         21   -1    0    0  502  501  0.00000000000E+00  0.00000000000E+00  0.11644096845E+03  0.11644096845E+03  0.00000000000E+00 0. -1.
         21   -1    0    0  501  502 -0.00000000000E+00 -0.00000000000E+00 -0.50292006471E+03  0.50292006471E+03  0.00000000000E+00 0. -1.
         25    1    1    2    0    0  0.53352438212E+02 -0.91008702140E+02 -0.14441029530E+03  0.21819349192E+03  0.12500000000E+03 0.  0.
         25    1    1    2    0    0 -0.39528493786E+02  0.26255754551E+02 -0.16229277980E+02  0.13468576737E+03  0.12500000000E+03 0.  0.
         25    1    1    2    0    0 -0.13823944425E+02  0.64752947589E+02 -0.22583952299E+03  0.26648177387E+03  0.12500000000E+03 0.  0.
</event>
<event>
 5    0  0.5742040E-005  0.2982429E+03  0.7546771E-02  0.1086122E+00
         21   -1    0    0  502  501  0.00000000000E+00  0.00000000000E+00  0.86891230336E+03  0.86891230336E+03  0.00000000000E+00 0.  1.
         21   -1    0    0  501  502 -0.00000000000E+00 -0.00000000000E+00 -0.10236803211E+03  0.10236803211E+03  0.00000000000E+00 0.  1.
         25    1    1    2    0    0  0.83813328894E+02 -0.93050189522E+02  0.24783164167E+03  0.30451360312E+03  0.12500000000E+03 0.  0.
         25    1    1    2    0    0 -0.18399248027E+03  0.10686368958E+03  0.38669394760E+03  0.45872681420E+03  0.12500000000E+03 0.  0.
         25    1    1    2    0    0  0.10017915138E+03 -0.13813500060E+02  0.13201868198E+03  0.20803991816E+03  0.12500000000E+03 0.  0.
</event>
<event>
 5    0  0.8742406E-005  0.4959798E+03  0.7546771E-02  0.1014834E+00
         21   -1    0    0  502  501  0.00000000000E+00  0.00000000000E+00  0.26387594714E+03  0.26387594714E+03  0.00000000000E+00 0. -1.
         21   -1    0    0  501  502 -0.00000000000E+00 -0.00000000000E+00 -0.93224077950E+03  0.93224077950E+03  0.00000000000E+00 0. -1.
         25    1    1    2    0    0 -0.27155123385E+03 -0.13437596564E+03 -0.30045271928E+03  0.44462771986E+03  0.12500000000E+03 0.  0.
         25    1    1    2    0    0  0.14487690600E+03  0.11235302766E+03  0.10517296862E+03  0.24555829052E+03  0.12500000000E+03 0.  0.
         25    1    1    2    0    0  0.12667432785E+03  0.22022937981E+02 -0.47308508170E+03  0.50593071626E+03  0.12500000000E+03 0.  0.
</event>
<event>
 5    0  0.6102468E-005  0.2759151E+03  0.7546771E-02  0.1097941E+00
         21   -1    0    0  502  501  0.00000000000E+00  0.00000000000E+00  0.81079082607E+03  0.81079082607E+03  0.00000000000E+00 0.  1.
         21   -1    0    0  501  502 -0.00000000000E+00 -0.00000000000E+00 -0.93894900832E+02  0.93894900832E+02  0.00000000000E+00 0. -1.
         25    1    1    2    0    0 -0.42726422007E+01  0.71938046339E+02  0.22602086852E+03  0.26814878517E+03  0.12500000000E+03 0.  0.
         25    1    1    2    0    0  0.61961240149E+02  0.10947954896E+03  0.20602798297E+03  0.27184094005E+03  0.12500000000E+03 0.  0.
         25    1    1    2    0    0 -0.57688597948E+02 -0.18141759530E+03  0.28484707374E+03  0.36469600167E+03  0.12500000000E+03 0.  0.
</event>
<event>
 5    0  0.5742040E-005  0.2930762E+03  0.7546771E-02  0.1088754E+00
         21   -1    0    0  502  501  0.00000000000E+00  0.00000000000E+00  0.63383469645E+03  0.63383469645E+03  0.00000000000E+00 0.  1.
         21   -1    0    0  501  502 -0.00000000000E+00 -0.00000000000E+00 -0.13551429082E+03  0.13551429082E+03  0.00000000000E+00 0.  1.
         25    1    1    2    0    0 -0.18525090140E+02  0.72501013857E+01  0.22783489507E+03  0.26063284971E+03  0.12500000000E+03 0.  0.
         25    1    1    2    0    0 -0.14026352480E+03  0.47184418325E+02  0.22056770564E+03  0.29355636340E+03  0.12500000000E+03 0.  0.
         25    1    1    2    0    0  0.15878861494E+03 -0.54434519711E+02  0.49917804926E+02  0.21515977417E+03  0.12500000000E+03 0.  0.
</event>
<event>
 5    0  0.5742040E-005  0.3064306E+03  0.7546771E-02  0.1082069E+00
         21   -1    0    0  502  501  0.00000000000E+00  0.00000000000E+00  0.43235299823E+03  0.43235299823E+03  0.00000000000E+00 0.  1.
         21   -1    0    0  501  502 -0.00000000000E+00 -0.00000000000E+00 -0.21718297486E+03  0.21718297486E+03  0.00000000000E+00 0.  1.
         25    1    1    2    0    0  0.18475429167E+03 -0.11064998609E+03  0.77327653745E+02  0.26073383698E+03  0.12500000000E+03 0.  0.
         25    1    1    2    0    0 -0.97058123533E+02  0.80750861524E+02  0.15029364434E+03  0.23271046498E+03  0.12500000000E+03 0.  0.
         25    1    1    2    0    0 -0.87696168135E+02  0.29899124570E+02 -0.12451274724E+02  0.15609167114E+03  0.12500000000E+03 0.  0.
</event>
<event>
 5    0  0.5742040E-005  0.3623921E+03  0.7546771E-02  0.1057641E+00
         21   -1    0    0  502  501  0.00000000000E+00  0.00000000000E+00  0.51051624904E+03  0.51051624904E+03  0.00000000000E+00 0.  1.
         21   -1    0    0  501  502 -0.00000000000E+00 -0.00000000000E+00 -0.25724553276E+03  0.25724553276E+03  0.00000000000E+00 0.  1.
         25    1    1    2    0    0 -0.18817561382E+03 -0.94507932065E+02 -0.24376953492E+02  0.24609154134E+03  0.12500000000E+03 0.  0.
         25    1    1    2    0    0  0.24588979411E+03  0.10142723383E+03  0.13540465019E+03  0.32358722766E+03  0.12500000000E+03 0.  0.
         25    1    1    2    0    0 -0.57714180291E+02 -0.69193017649E+01  0.14224301958E+03  0.19808301281E+03  0.12500000000E+03 0.  0.
</event>
<event>
 5    0  0.5991348E-005  0.3301200E+03  0.7546771E-02  0.1071084E+00
         21   -1    0    0  502  501  0.00000000000E+00  0.00000000000E+00  0.14683486216E+04  0.14683486216E+04  0.00000000000E+00 0.  1.
         21   -1    0    0  501  502 -0.00000000000E+00 -0.00000000000E+00 -0.74218901833E+02  0.74218901833E+02  0.00000000000E+00 0.  1.
         25    1    1    2    0    0 -0.99483091518E+02  0.16054253345E+02  0.96472173944E+03  0.97799164572E+03  0.12500000000E+03 0.  0.
         25    1    1    2    0    0 -0.58128258266E+02 -0.31612625257E+02  0.83829963555E+02  0.16441020429E+03  0.12500000000E+03 0.  0.
         25    1    1    2    0    0  0.15761134978E+03  0.15558371912E+02  0.34557801682E+03  0.40016567347E+03  0.12500000000E+03 0.  0.
</event>
<event>
 5    0  0.5742040E-005  0.5826844E+03  0.7546771E-02  0.9941996E-01
         21   -1    0    0  502  501  0.00000000000E+00  0.00000000000E+00  0.80367109869E+03  0.80367109869E+03  0.00000000000E+00 0. -1.
         21   -1    0    0  501  502 -0.00000000000E+00 -0.00000000000E+00 -0.42246270942E+03  0.42246270942E+03  0.00000000000E+00 0. -1.
         25    1    1    2    0    0 -0.18737822285E+02 -0.22021966663E+03  0.51434192471E+03  0.57360301871E+03  0.12500000000E+03 0.  0.
         25    1    1    2    0    0  0.15890008359E+03 -0.41165467768E+02  0.12387213205E+03  0.24065148535E+03  0.12500000000E+03 0.  0.
         25    1    1    2    0    0 -0.14016226131E+03  0.26138513440E+03 -0.25700566749E+03  0.41187930405E+03  0.12500000000E+03 0.  0.
</event>
<event>
 5    0  0.5742040E-005  0.3058751E+03  0.7546771E-02  0.1082340E+00
         21   -1    0    0  502  501  0.00000000000E+00  0.00000000000E+00  0.30659422880E+03  0.30659422880E+03  0.00000000000E+00 0.  1.
         21   -1    0    0  501  502 -0.00000000000E+00 -0.00000000000E+00 -0.30515766254E+03  0.30515766254E+03  0.00000000000E+00 0.  1.
         25    1    1    2    0    0 -0.52249057799E+01 -0.39233654107E+02 -0.14182397927E+02  0.13188146066E+03  0.12500000000E+03 0.  0.
         25    1    1    2    0    0 -0.14827112684E+03 -0.79934458575E+02 -0.86956062556E+02  0.22706871545E+03  0.12500000000E+03 0.  0.
         25    1    1    2    0    0  0.15349603262E+03  0.11916811268E+03  0.10257502674E+03  0.25280171522E+03  0.12500000000E+03 0.  0.
</event>
<event>
 5    0  0.5873418E-005  0.4358434E+03  0.7546771E-02  0.1032030E+00
         21   -1    0    0  502  501  0.00000000000E+00  0.00000000000E+00  0.95539369043E+03  0.95539369043E+03  0.00000000000E+00 0.  1.
         21   -1    0    0  501  502 -0.00000000000E+00 -0.00000000000E+00 -0.19882849182E+03  0.19882849182E+03  0.00000000000E+00 0.  1.
         25    1    1    2    0    0 -0.11655665507E+01 -0.74230234041E+02 -0.60542141985E+02  0.15748599032E+03  0.12500000000E+03 0.  0.
         25    1    1    2    0    0 -0.87717536147E+02  0.27375604937E+03  0.52201860769E+03  0.60890489200E+03  0.12500000000E+03 0.  0.
         25    1    1    2    0    0  0.88883102698E+02 -0.19952581533E+03  0.29508873290E+03  0.38783129994E+03  0.12500000000E+03 0.  0.
</event>
<event>
 5    0  0.5742040E-005  0.3141826E+03  0.7546771E-02  0.1078358E+00
         21   -1    0    0  502  501  0.00000000000E+00  0.00000000000E+00  0.12133896291E+03  0.12133896291E+03  0.00000000000E+00 0. -1.
         21   -1    0    0  501  502 -0.00000000000E+00 -0.00000000000E+00 -0.81351219181E+03  0.81351219181E+03  0.00000000000E+00 0. -1.
         25    1    1    2    0    0 -0.28848736631E+02 -0.16385470829E+03 -0.24709305839E+03  0.32304890426E+03  0.12500000000E+03 0.  0.
         25    1    1    2    0    0  0.13532627141E+03  0.78715666931E+01 -0.13836788855E+03  0.23053380203E+03  0.12500000000E+03 0.  0.
         25    1    1    2    0    0 -0.10647753478E+03  0.15598314160E+03 -0.30671228195E+03  0.38126844844E+03  0.12500000000E+03 0.  0.
</event>
<event>
 5    0  0.5742040E-005  0.2674505E+03  0.7546771E-02  0.1102748E+00
         21   -1    0    0  502  501  0.00000000000E+00  0.00000000000E+00  0.58662541800E+02  0.58662541800E+02  0.00000000000E+00 0. -1.
         21   -1    0    0  501  502 -0.00000000000E+00 -0.00000000000E+00 -0.12193431437E+04  0.12193431437E+04  0.00000000000E+00 0. -1.
         25    1    1    2    0    0  0.29287557003E+02  0.63958569964E+02 -0.68817321056E+03  0.70296218063E+03  0.12500000000E+03 0.  0.
         25    1    1    2    0    0  0.54127503236E+02 -0.57954012118E+02 -0.35354570487E+03  0.38328581967E+03  0.12500000000E+03 0.  0.
         25    1    1    2    0    0 -0.83415060239E+02 -0.60045578461E+01 -0.11896168650E+03  0.19175768523E+03  0.12500000000E+03 0.  0.
</event>
<event>
 5    0  0.5742040E-005  0.2625296E+03  0.7546771E-02  0.1105633E+00
         21   -1    0    0  502  501  0.00000000000E+00  0.00000000000E+00  0.64843748985E+03  0.64843748985E+03  0.00000000000E+00 0. -1.
         21   -1    0    0  501  502 -0.00000000000E+00 -0.00000000000E+00 -0.10628905955E+03  0.10628905955E+03  0.00000000000E+00 0. -1.
         25    1    1    2    0    0 -0.85657524480E+02 -0.56260489998E+02  0.16758578380E+03  0.23283566988E+03  0.12500000000E+03 0.  0.
         25    1    1    2    0    0  0.13490890652E+03  0.11343812979E+03  0.24504579785E+03  0.32671251184E+03  0.12500000000E+03 0.  0.
         25    1    1    2    0    0 -0.49251382037E+02 -0.57177639793E+02  0.12951684866E+03  0.19517836768E+03  0.12500000000E+03 0.  0.
</event>
<event>
 5    0  0.5742040E-005  0.6438412E+03  0.7546771E-02  0.9818405E-01
         21   -1    0    0  502  501  0.00000000000E+00  0.00000000000E+00  0.62200269092E+03  0.62200269092E+03  0.00000000000E+00 0. -1.
         21   -1    0    0  501  502 -0.00000000000E+00 -0.00000000000E+00 -0.66644640107E+03  0.66644640107E+03  0.00000000000E+00 0. -1.
         25    1    1    2    0    0  0.46172703720E+03 -0.11739971097E+03  0.24598761470E+03  0.55055377176E+03  0.12500000000E+03 0.  0.
         25    1    1    2    0    0  0.32346738092E+02 -0.49814539276E+02 -0.91080384795E+02  0.16567569611E+03  0.12500000000E+03 0.  0.
         25    1    1    2    0    0 -0.49407377529E+03  0.16721425025E+03 -0.19935094006E+03  0.57221962411E+03  0.12500000000E+03 0.  0.
</event>
<event>
 5    0  0.5742040E-005  0.3042063E+03  0.7546771E-02  0.1083157E+00
         21   -1    0    0  502  501  0.00000000000E+00  0.00000000000E+00  0.11434371441E+04  0.11434371441E+04  0.00000000000E+00 0. -1.
         21   -1    0    0  501  502 -0.00000000000E+00 -0.00000000000E+00 -0.80932706667E+02  0.80932706667E+02  0.00000000000E+00 0. -1.
         25    1    1    2    0    0  0.92507909777E+02 -0.40899850633E+02  0.53642395683E+03  0.56000551123E+03  0.12500000000E+03 0.  0.
         25    1    1    2    0    0 -0.37773076974E+02  0.28421052784E+02  0.14120557548E+02  0.13438359919E+03  0.12500000000E+03 0.  0.
         25    1    1    2    0    0 -0.54734832803E+02  0.12478797849E+02  0.51195992302E+03  0.52998074030E+03  0.12500000000E+03 0.  0.
</event>
<event>
 5    0  0.5742040E-005  0.3553784E+03  0.7546771E-02  0.1060429E+00
         21   -1    0    0  502  501  0.00000000000E+00  0.00000000000E+00  0.16049839177E+03  0.16049839177E+03  0.00000000000E+00 0. -1.
         21   -1    0    0  501  502 -0.00000000000E+00 -0.00000000000E+00 -0.78688539259E+03  0.78688539259E+03  0.00000000000E+00 0. -1.
         25    1    1    2    0    0  0.19537388374E+03 -0.14377464191E+03 -0.39823950479E+03  0.48276475149E+03  0.12500000000E+03 0.  0.
         25    1    1    2    0    0 -0.18257302898E+03  0.11082029213E+02 -0.11399366163E+03  0.24914910631E+03  0.12500000000E+03 0.  0.
         25    1    1    2    0    0 -0.12800854753E+02  0.13269261269E+03 -0.11415383440E+03  0.21546992657E+03  0.12500000000E+03 0.  0.
</event>
<event>
 5    0  0.5742040E-005  0.3378730E+03  0.7546771E-02  0.1067705E+00
         21   -1    0    0  502  501  0.00000000000E+00  0.00000000000E+00  0.52256199917E+03  0.52256199917E+03  0.00000000000E+00 0.  1.
         21   -1    0    0  501  502 -0.00000000000E+00 -0.00000000000E+00 -0.21845857957E+03  0.21845857957E+03  0.00000000000E+00 0.  1.
         25    1    1    2    0    0  0.78688439055E+01  0.11577734090E+03 -0.12603016703E+03  0.21207289872E+03  0.12500000000E+03 0.  0.
         25    1    1    2    0    0  0.37254424625E+02 -0.15786779816E+01  0.15289039647E+03  0.20097476884E+03  0.12500000000E+03 0.  0.
         25    1    1    2    0    0 -0.45123268531E+02 -0.11419866292E+03  0.27724319016E+03  0.32797291118E+03  0.12500000000E+03 0.  0.
</event>
<event>
 5    0  0.6019048E-005  0.3488356E+03  0.7546771E-02  0.1063094E+00
         21   -1    0    0  502  501  0.00000000000E+00  0.00000000000E+00  0.13077651345E+03  0.13077651345E+03  0.00000000000E+00 0. -1.
         21   -1    0    0  501  502 -0.00000000000E+00 -0.00000000000E+00 -0.93049002287E+03  0.93049002287E+03  0.00000000000E+00 0. -1.
         25    1    1    2    0    0 -0.31364861146E+02 -0.14806529046E+03 -0.11823971778E+03  0.22915653081E+03  0.12500000000E+03 0.  0.
         25    1    1    2    0    0  0.16710757758E+01 -0.91220062280E+02 -0.44793345933E+03  0.47391273062E+03  0.12500000000E+03 0.  0.
         25    1    1    2    0    0  0.29693785370E+02  0.23928535274E+03 -0.23354033230E+03  0.35819727489E+03  0.12500000000E+03 0.  0.
</event>
<event>
 5    0  0.5742040E-005  0.3389497E+03  0.7546771E-02  0.1067244E+00
         21   -1    0    0  502  501  0.00000000000E+00  0.00000000000E+00  0.18810866039E+03  0.18810866039E+03  0.00000000000E+00 0. -1.
         21   -1    0    0  501  502 -0.00000000000E+00 -0.00000000000E+00 -0.61074764978E+03  0.61074764978E+03  0.00000000000E+00 0. -1.
         25    1    1    2    0    0 -0.11375380888E+03 -0.24900931449E+02  0.27906441584E+02  0.17310041855E+03  0.12500000000E+03 0.  0.
         25    1    1    2    0    0 -0.38519026595E+01  0.10142210126E+03 -0.28165571284E+02  0.16346124673E+03  0.12500000000E+03 0.  0.
         25    1    1    2    0    0  0.11760571154E+03 -0.76521169812E+02 -0.42237985969E+03  0.46229464489E+03  0.12500000000E+03 0.  0.
</event>
<event>
 5    0  0.5742040E-005  0.3824653E+03  0.7546771E-02  0.1050026E+00
         21   -1    0    0  502  501  0.00000000000E+00  0.00000000000E+00  0.37351629695E+03  0.37351629695E+03  0.00000000000E+00 0. -1.
         21   -1    0    0  501  502 -0.00000000000E+00 -0.00000000000E+00 -0.39162876061E+03  0.39162876061E+03  0.00000000000E+00 0. -1.
         25    1    1    2    0    0 -0.15731523192E+02 -0.18340509145E+03  0.52317920044E+02  0.22857618675E+03  0.12500000000E+03 0.  0.
         25    1    1    2    0    0  0.53168713016E+02  0.30553233208E+03 -0.11282002452E+03  0.35288847519E+03  0.12500000000E+03 0.  0.
         25    1    1    2    0    0 -0.37437189824E+02 -0.12212724063E+03  0.42389640815E+02  0.18368039562E+03  0.12500000000E+03 0.  0.
</event>
<event>
 5    0  0.5742040E-005  0.2175876E+03  0.7546771E-02  0.1135694E+00
         21   -1    0    0  502  501  0.00000000000E+00  0.00000000000E+00  0.10802830032E+02  0.10802830032E+02  0.00000000000E+00 0.  1.
         21   -1    0    0  501  502 -0.00000000000E+00 -0.00000000000E+00 -0.43825878066E+04  0.43825878066E+04  0.00000000000E+00 0.  1.
         25    1    1    2    0    0 -0.49523301831E+02 -0.66909633720E+02 -0.12394347395E+04  0.12485002723E+04  0.12500000000E+03 0.  0.
         25    1    1    2    0    0 -0.12674474015E+02  0.33451445339E+02 -0.11443336153E+04  0.11516961685E+04  0.12500000000E+03 0.  0.
         25    1    1    2    0    0  0.62197775846E+02  0.33458188381E+02 -0.19880166218E+04  0.19931941958E+04  0.12500000000E+03 0.  0.
</event>
<event>
 5    0  0.5742040E-005  0.1981269E+03  0.7546771E-02  0.1151329E+00
         21   -1    0    0  502  501  0.00000000000E+00  0.00000000000E+00  0.26297520133E+02  0.26297520133E+02  0.00000000000E+00 0. -1.
         21   -1    0    0  501  502 -0.00000000000E+00 -0.00000000000E+00 -0.14926983495E+04  0.14926983495E+04  0.00000000000E+00 0. -1.
         25    1    1    2    0    0  0.78313410973E+01 -0.80759898692E+01 -0.36584334317E+03  0.38677241791E+03  0.12500000000E+03 0.  0.
         25    1    1    2    0    0  0.40529597476E+02  0.10478922257E+02 -0.53767550535E+03  0.55359949886E+03  0.12500000000E+03 0.  0.
         25    1    1    2    0    0 -0.48360938574E+02 -0.24029323881E+01 -0.56288198085E+03  0.57862395286E+03  0.12500000000E+03 0.  0.
</event>
<event>
 5    0  0.5742040E-005  0.2612728E+03  0.7546771E-02  0.1106381E+00
         21   -1    0    0  502  501  0.00000000000E+00  0.00000000000E+00  0.11167695033E+04  0.11167695033E+04  0.00000000000E+00 0. -1.
         21   -1    0    0  501  502 -0.00000000000E+00 -0.00000000000E+00 -0.61125820550E+02  0.61125820550E+02  0.00000000000E+00 0. -1.
         25    1    1    2    0    0 -0.60302123910E+02 -0.10555806192E+03  0.22807115223E+03  0.28708936076E+03  0.12500000000E+03 0.  0.
         25    1    1    2    0    0  0.49721296847E+02 -0.37183293793E+02  0.35666032877E+03  0.38299659896E+03  0.12500000000E+03 0.  0.
         25    1    1    2    0    0  0.10580827063E+02  0.14274135572E+03  0.47091220173E+03  0.50780936410E+03  0.12500000000E+03 0.  0.
</event>
<event>
 5    0  0.5742040E-005  0.3866517E+03  0.7546771E-02  0.1048502E+00
         21   -1    0    0  502  501  0.00000000000E+00  0.00000000000E+00  0.13308446849E+03  0.13308446849E+03  0.00000000000E+00 0.  1.
         21   -1    0    0  501  502 -0.00000000000E+00 -0.00000000000E+00 -0.11233430622E+04  0.11233430622E+04  0.00000000000E+00 0.  1.
         25    1    1    2    0    0  0.62291633156E+01  0.92376147267E+01 -0.63654156666E+03  0.64879449911E+03  0.12500000000E+03 0.  0.
         25    1    1    2    0    0 -0.10443718882E+03 -0.14159841361E+03 -0.33688720634E+03  0.40009402263E+03  0.12500000000E+03 0.  0.
         25    1    1    2    0    0  0.98208025502E+02  0.13236079888E+03 -0.16829820661E+02  0.20753900891E+03  0.12500000000E+03 0.  0.
</event>
<event>
 5    0  0.5742040E-005  0.2079655E+03  0.7546771E-02  0.1143187E+00
         21   -1    0    0  502  501  0.00000000000E+00  0.00000000000E+00  0.37350462475E+03  0.37350462475E+03  0.00000000000E+00 0. -1.
         21   -1    0    0  501  502 -0.00000000000E+00 -0.00000000000E+00 -0.11579410692E+03  0.11579410692E+03  0.00000000000E+00 0. -1.
         25    1    1    2    0    0  0.11820834905E+02 -0.32712670903E+02  0.81760796099E+02  0.15336126876E+03  0.12500000000E+03 0.  0.
         25    1    1    2    0    0  0.53494310610E+02  0.39423119491E+01  0.50801625778E+02  0.14519982188E+03  0.12500000000E+03 0.  0.
         25    1    1    2    0    0 -0.65315145514E+02  0.28770358953E+02  0.12514809595E+03  0.19073764104E+03  0.12500000000E+03 0.  0.
</event>
<event>
 5    0  0.5742040E-005  0.2748228E+03  0.7546771E-02  0.1098551E+00
         21   -1    0    0  502  501  0.00000000000E+00  0.00000000000E+00  0.15120741080E+03  0.15120741080E+03  0.00000000000E+00 0.  1.
         21   -1    0    0  501  502 -0.00000000000E+00 -0.00000000000E+00 -0.49949655548E+03  0.49949655548E+03  0.00000000000E+00 0.  1.
         25    1    1    2    0    0 -0.17756116364E+01  0.57069607416E+02 -0.18888659152E+03  0.23358775084E+03  0.12500000000E+03 0.  0.
         25    1    1    2    0    0  0.13146887619E+03 -0.82734886626E+02 -0.52862419578E+02  0.20627302847E+03  0.12500000000E+03 0.  0.
         25    1    1    2    0    0 -0.12969326455E+03  0.25665279210E+02 -0.10654013358E+03  0.21084318697E+03  0.12500000000E+03 0.  0.
</event>
<event>
 5    0  0.5879092E-005  0.3916948E+03  0.7546771E-02  0.1046694E+00
         21   -1    0    0  502  501  0.00000000000E+00  0.00000000000E+00  0.60343969756E+03  0.60343969756E+03  0.00000000000E+00 0.  1.
         21   -1    0    0  501  502 -0.00000000000E+00 -0.00000000000E+00 -0.25425038830E+03  0.25425038830E+03  0.00000000000E+00 0.  1.
         25    1    1    2    0    0 -0.13748335017E+03 -0.56399403407E+00 -0.79402740549E+02  0.20206876272E+03  0.12500000000E+03 0.  0.
         25    1    1    2    0    0  0.16853085724E+03  0.15957366663E+03  0.13074443719E+03  0.29425416357E+03  0.12500000000E+03 0.  0.
         25    1    1    2    0    0 -0.31047507077E+02 -0.15900967259E+03  0.29784761262E+03  0.36136715957E+03  0.12500000000E+03 0.  0.
</event>
<event>
 5    0  0.5742040E-005  0.2452001E+03  0.7546771E-02  0.1116376E+00
         21   -1    0    0  502  501  0.00000000000E+00  0.00000000000E+00  0.14506125255E+03  0.14506125255E+03  0.00000000000E+00 0.  1.
         21   -1    0    0  501  502 -0.00000000000E+00 -0.00000000000E+00 -0.41446682847E+03  0.41446682847E+03  0.00000000000E+00 0.  1.
         25    1    1    2    0    0 -0.47495398581E+02 -0.51762810105E+02 -0.16831468746E+03  0.22111091201E+03  0.12500000000E+03 0.  0.
         25    1    1    2    0    0  0.54772744813E+01  0.11598145580E+03 -0.22715467912E+02  0.17211243740E+03  0.12500000000E+03 0.  0.
         25    1    1    2    0    0  0.42018124100E+02 -0.64218645691E+02 -0.78375420544E+02  0.16630473160E+03  0.12500000000E+03 0.  0.
</event>
<event>
 5    0  0.5742040E-005  0.2568701E+03  0.7546771E-02  0.1109038E+00
         21   -1    0    0  502  501  0.00000000000E+00  0.00000000000E+00  0.34115132593E+03  0.34115132593E+03  0.00000000000E+00 0.  1.
         21   -1    0    0  501  502 -0.00000000000E+00 -0.00000000000E+00 -0.19341050977E+03  0.19341050977E+03  0.00000000000E+00 0.  1.
         25    1    1    2    0    0  0.87173894512E+02 -0.94285863258E+02 -0.79600735700E+01  0.17938080908E+03  0.12500000000E+03 0.  0.
         25    1    1    2    0    0 -0.50978175893E+02  0.10648120176E+03  0.14341978101E+03  0.22390009900E+03  0.12500000000E+03 0.  0.
         25    1    1    2    0    0 -0.36195718619E+02 -0.12195338503E+02  0.12281108726E+02  0.13128092763E+03  0.12500000000E+03 0.  0.
</event>
<event>
 5    0  0.5742040E-005  0.3349493E+03  0.7546771E-02  0.1068968E+00
         21   -1    0    0  502  501  0.00000000000E+00  0.00000000000E+00  0.10493675818E+04  0.10493675818E+04  0.00000000000E+00 0.  1.
         21   -1    0    0  501  502 -0.00000000000E+00 -0.00000000000E+00 -0.10691298136E+03  0.10691298136E+03  0.00000000000E+00 0.  1.
         25    1    1    2    0    0 -0.19698050977E+03  0.12915860010E+03  0.23710348921E+03  0.35682815164E+03  0.12500000000E+03 0.  0.
         25    1    1    2    0    0  0.58491580075E+02 -0.11181132476E+03  0.24653520599E+03  0.30385464465E+03  0.12500000000E+03 0.  0.
         25    1    1    2    0    0  0.13848892970E+03 -0.17347275335E+02  0.45881590528E+03  0.49559776689E+03  0.12500000000E+03 0.  0.
</event>
<event>
 5    0  0.5742040E-005  0.3038316E+03  0.7546771E-02  0.1083341E+00
         21   -1    0    0  502  501  0.00000000000E+00  0.00000000000E+00  0.16278083328E+03  0.16278083328E+03  0.00000000000E+00 0.  1.
         21   -1    0    0  501  502 -0.00000000000E+00 -0.00000000000E+00 -0.56710388356E+03  0.56710388356E+03  0.00000000000E+00 0.  1.
         25    1    1    2    0    0  0.81702351431E+02 -0.68146744158E+02  0.27161170382E+02  0.16637903157E+03  0.12500000000E+03 0.  0.
         25    1    1    2    0    0  0.70927605523E+02  0.34350405620E+02 -0.26390012527E+03  0.30245487550E+03  0.12500000000E+03 0.  0.
         25    1    1    2    0    0 -0.15262995695E+03  0.33796338539E+02 -0.16758409538E+03  0.26105080977E+03  0.12500000000E+03 0.  0.
</event>
<event>
 5    0  0.5742040E-005  0.3470926E+03  0.7546771E-02  0.1063815E+00
         21   -1    0    0  502  501  0.00000000000E+00  0.00000000000E+00  0.48541996893E+03  0.48541996893E+03  0.00000000000E+00 0.  1.
         21   -1    0    0  501  502 -0.00000000000E+00 -0.00000000000E+00 -0.24818363000E+03  0.24818363000E+03  0.00000000000E+00 0.  1.
         25    1    1    2    0    0  0.78509333469E+02  0.15777113861E+03  0.10966893952E+03  0.24229676827E+03  0.12500000000E+03 0.  0.
         25    1    1    2    0    0 -0.14990832072E+03  0.56395026276E+01 -0.59591853098E+02  0.20415802106E+03  0.12500000000E+03 0.  0.
         25    1    1    2    0    0  0.71398987247E+02 -0.16341064123E+03  0.18715925250E+03  0.28714880959E+03  0.12500000000E+03 0.  0.
</event>
<event>
 5    0  0.5742040E-005  0.2420472E+03  0.7546771E-02  0.1118436E+00
         21   -1    0    0  502  501  0.00000000000E+00  0.00000000000E+00  0.75337217442E+03  0.75337217442E+03  0.00000000000E+00 0.  1.
         21   -1    0    0  501  502 -0.00000000000E+00 -0.00000000000E+00 -0.77766150268E+02  0.77766150268E+02  0.00000000000E+00 0.  1.
         25    1    1    2    0    0  0.45010978305E+01  0.50530322017E+02  0.11285101958E+03  0.17588043082E+03  0.12500000000E+03 0.  0.
         25    1    1    2    0    0 -0.46302652160E+02 -0.80467109103E+02  0.13308500474E+03  0.20483044142E+03  0.12500000000E+03 0.  0.
         25    1    1    2    0    0  0.41801554330E+02  0.29936787086E+02  0.42966999983E+03  0.45042745245E+03  0.12500000000E+03 0.  0.
</event>
<event>
 5    0  0.5742040E-005  0.5145849E+03  0.7546771E-02  0.1010041E+00
         21   -1    0    0  502  501  0.00000000000E+00  0.00000000000E+00  0.32971856296E+04  0.32971856296E+04  0.00000000000E+00 0.  1.
         21   -1    0    0  501  502 -0.00000000000E+00 -0.00000000000E+00 -0.80310181519E+02  0.80310181519E+02  0.00000000000E+00 0.  1.
         25    1    1    2    0    0 -0.32844929723E+03  0.11302676265E+03  0.10964989820E+04  0.11569740738E+04  0.12500000000E+03 0.  0.
         25    1    1    2    0    0  0.29527307816E+03 -0.29227190621E+03  0.12783135836E+04  0.13499332116E+04  0.12500000000E+03 0.  0.
         25    1    1    2    0    0  0.33176219068E+02  0.17924514356E+03  0.84206288247E+03  0.87058852567E+03  0.12500000000E+03 0.  0.
</event>
<event>
 5    0  0.5742040E-005  0.2620233E+03  0.7546771E-02  0.1105934E+00
         21   -1    0    0  502  501  0.00000000000E+00  0.00000000000E+00  0.19529571197E+03  0.19529571197E+03  0.00000000000E+00 0.  1.
         21   -1    0    0  501  502 -0.00000000000E+00 -0.00000000000E+00 -0.35154991859E+03  0.35154991859E+03  0.00000000000E+00 0.  1.
         25    1    1    2    0    0  0.22587828953E+02 -0.77127826852E+02 -0.47124619617E+02  0.15589945948E+03  0.12500000000E+03 0.  0.
         25    1    1    2    0    0  0.68629404480E+02  0.67450222362E+02  0.53191533450E+02  0.16647482358E+03  0.12500000000E+03 0.  0.
         25    1    1    2    0    0 -0.91217233433E+02  0.96776044902E+01 -0.16232112046E+03  0.22447134750E+03  0.12500000000E+03 0.  0.
</event>
<event>
 5    0  0.5742040E-005  0.3132272E+03  0.7546771E-02  0.1078809E+00
         21   -1    0    0  502  501  0.00000000000E+00  0.00000000000E+00  0.17029857597E+03  0.17029857597E+03  0.00000000000E+00 0. -1.
         21   -1    0    0  501  502 -0.00000000000E+00 -0.00000000000E+00 -0.57611335748E+03  0.57611335748E+03  0.00000000000E+00 0. -1.
         25    1    1    2    0    0  0.18507535070E+03  0.21475321691E+02 -0.19585148655E+03  0.29782021366E+03  0.12500000000E+03 0.  0.
         25    1    1    2    0    0  0.52319665054E+01  0.73109934842E+02 -0.11260047957E+03  0.18351104611E+03  0.12500000000E+03 0.  0.
         25    1    1    2    0    0 -0.19030731721E+03 -0.94585256533E+02 -0.97362815385E+02  0.26508067367E+03  0.12500000000E+03 0.  0.
</event>
<event>
 5    0  0.5742040E-005  0.5005475E+03  0.7546771E-02  0.1013636E+00
         21   -1    0    0  502  501  0.00000000000E+00  0.00000000000E+00  0.22713111606E+04  0.22713111606E+04  0.00000000000E+00 0. -1.
         21   -1    0    0  501  502 -0.00000000000E+00 -0.00000000000E+00 -0.11030977835E+03  0.11030977835E+03  0.00000000000E+00 0. -1.
         25    1    1    2    0    0  0.63742818055E+02 -0.74381386562E+02  0.19962777758E+02  0.16006014500E+03  0.12500000000E+03 0.  0.
         25    1    1    2    0    0 -0.28190830187E+03  0.12263395249E+03  0.13463089076E+04  0.13866088315E+04  0.12500000000E+03 0.  0.
         25    1    1    2    0    0  0.21816548382E+03 -0.48252565926E+02  0.79472969686E+03  0.83495196240E+03  0.12500000000E+03 0.  0.
</event>
<event>
 5    0  0.9291592E-005  0.3839026E+03  0.7546771E-02  0.1049501E+00
         21   -1    0    0  502  501  0.00000000000E+00  0.00000000000E+00  0.34011096029E+03  0.34011096029E+03  0.00000000000E+00 0.  1.
         21   -1    0    0  501  502 -0.00000000000E+00 -0.00000000000E+00 -0.43333262197E+03  0.43333262197E+03  0.00000000000E+00 0.  1.
         25    1    1    2    0    0  0.59653902980E+02  0.44143264030E+02 -0.19941600390E+03  0.24677714341E+03  0.12500000000E+03 0.  0.
         25    1    1    2    0    0 -0.23874593695E+03 -0.97970540262E+02  0.26242814283E+02  0.28794363072E+03  0.12500000000E+03 0.  0.
         25    1    1    2    0    0  0.17909203397E+03  0.53827276232E+02  0.79951527944E+02  0.23872280813E+03  0.12500000000E+03 0.  0.
</event>
<event>
 5    0  0.6287931E-005  0.3670956E+03  0.7546771E-02  0.1055809E+00
         21   -1    0    0  502  501  0.00000000000E+00  0.00000000000E+00  0.37473195169E+03  0.37473195169E+03  0.00000000000E+00 0.  1.
         21   -1    0    0  501  502 -0.00000000000E+00 -0.00000000000E+00 -0.35961495751E+03  0.35961495751E+03  0.00000000000E+00 0.  1.
         25    1    1    2    0    0 -0.37629774268E+02 -0.15068558644E+03  0.59685747639E+02  0.20810942877E+03  0.12500000000E+03 0.  0.
         25    1    1    2    0    0 -0.99551388448E+02  0.25881336087E+03 -0.63105135771E+02  0.31064785991E+03  0.12500000000E+03 0.  0.
         25    1    1    2    0    0  0.13718116272E+03 -0.10812777442E+03  0.18536382315E+02  0.21558962052E+03  0.12500000000E+03 0.  0.
</event>
<event>
 5    0  0.5742040E-005  0.3580173E+03  0.7546771E-02  0.1059372E+00
         21   -1    0    0  502  501  0.00000000000E+00  0.00000000000E+00  0.41565161187E+03  0.41565161187E+03  0.00000000000E+00 0.  1.
         21   -1    0    0  501  502 -0.00000000000E+00 -0.00000000000E+00 -0.30837458010E+03  0.30837458010E+03  0.00000000000E+00 0.  1.
         25    1    1    2    0    0 -0.77520874164E+02 -0.35078264025E+02  0.30975684562E+03  0.34469446463E+03  0.12500000000E+03 0.  0.
         25    1    1    2    0    0 -0.41281346521E+02 -0.31760179850E+02 -0.95037605867E+02  0.16543882593E+03  0.12500000000E+03 0.  0.
         25    1    1    2    0    0  0.11880222068E+03  0.66838443875E+02 -0.10744220798E+03  0.21389290141E+03  0.12500000000E+03 0.  0.
</event>
<event>
 5    0  0.5742040E-005  0.4832415E+03  0.7546771E-02  0.1018248E+00
         21   -1    0    0  502  501  0.00000000000E+00  0.00000000000E+00  0.75798439934E+03  0.75798439934E+03  0.00000000000E+00 0. -1.
         21   -1    0    0  501  502 -0.00000000000E+00 -0.00000000000E+00 -0.30808327909E+03  0.30808327909E+03  0.00000000000E+00 0. -1.
         25    1    1    2    0    0  0.70811842096E+02  0.35393444403E+03  0.14848458241E+03  0.40982505886E+03  0.12500000000E+03 0.  0.
         25    1    1    2    0    0  0.64611553009E+02 -0.37078437619E+03  0.22549617964E+03  0.45621182958E+03  0.12500000000E+03 0.  0.
         25    1    1    2    0    0 -0.13542339511E+03  0.16849932161E+02  0.75920358193E+02  0.20003078999E+03  0.12500000000E+03 0.  0.
</event>
<event>
 5    0  0.6083962E-005  0.2932904E+03  0.7546771E-02  0.1088644E+00
         21   -1    0    0  502  501  0.00000000000E+00  0.00000000000E+00  0.15424978941E+03  0.15424978941E+03  0.00000000000E+00 0.  1.
         21   -1    0    0  501  502 -0.00000000000E+00 -0.00000000000E+00 -0.55766211061E+03  0.55766211061E+03  0.00000000000E+00 0.  1.
         25    1    1    2    0    0  0.26907622839E+01 -0.12949347969E+02 -0.24483522470E+03  0.27521666568E+03  0.12500000000E+03 0.  0.
         25    1    1    2    0    0 -0.10333289233E+03 -0.10701608760E+03 -0.25049224406E+02  0.19591476025E+03  0.12500000000E+03 0.  0.
         25    1    1    2    0    0  0.10064213005E+03  0.11996543557E+03 -0.13352787210E+03  0.24078047408E+03  0.12500000000E+03 0.  0.
</event>
<event>
 5    0  0.5742040E-005  0.4475324E+03  0.7546771E-02  0.1028460E+00
         21   -1    0    0  502  501  0.00000000000E+00  0.00000000000E+00  0.16580181107E+04  0.16580181107E+04  0.00000000000E+00 0.  1.
         21   -1    0    0  501  502 -0.00000000000E+00 -0.00000000000E+00 -0.12079799736E+03  0.12079799736E+03  0.00000000000E+00 0. -1.
         25    1    1    2    0    0 -0.80890470642E+02 -0.18456840110E+03  0.30001495629E+03  0.38241696735E+03  0.12500000000E+03 0.  0.
         25    1    1    2    0    0  0.96136646222E+02  0.23846495385E+03  0.19694598270E+03  0.34716063870E+03  0.12500000000E+03 0.  0.
         25    1    1    2    0    0 -0.15246175580E+02 -0.53896552751E+02  0.10402591743E+04  0.10492385020E+04  0.12500000000E+03 0.  0.
</event>
<event>
 5    0  0.6579138E-005  0.2971194E+03  0.7546771E-02  0.1086690E+00
         21   -1    0    0  502  501  0.00000000000E+00  0.00000000000E+00  0.37015843069E+03  0.37015843069E+03  0.00000000000E+00 0. -1.
         21   -1    0    0  501  502 -0.00000000000E+00 -0.00000000000E+00 -0.23849232673E+03  0.23849232673E+03  0.00000000000E+00 0. -1.
         25    1    1    2    0    0 -0.10503472193E+03 -0.24611118310E+02  0.11112090001E+03  0.19902475820E+03  0.12500000000E+03 0.  0.
         25    1    1    2    0    0  0.15619622850E+03  0.12336905918E+03  0.48498479011E+02  0.23998810184E+03  0.12500000000E+03 0.  0.
         25    1    1    2    0    0 -0.51161506575E+02 -0.98757940865E+02 -0.27953275063E+02  0.16963789737E+03  0.12500000000E+03 0.  0.
</event>
<event>
 5    0  0.5742040E-005  0.2580276E+03  0.7546771E-02  0.1108334E+00
         21   -1    0    0  502  501  0.00000000000E+00  0.00000000000E+00  0.14862985988E+03  0.14862985988E+03  0.00000000000E+00 0.  1.
         21   -1    0    0  501  502 -0.00000000000E+00 -0.00000000000E+00 -0.44794660453E+03  0.44794660453E+03  0.00000000000E+00 0.  1.
         25    1    1    2    0    0  0.84781189962E+02 -0.44652122074E+02 -0.71356068760E+02  0.17291139559E+03  0.12500000000E+03 0.  0.
         25    1    1    2    0    0  0.69840204997E+02  0.44232481415E+02 -0.14400381734E+03  0.20783711424E+03  0.12500000000E+03 0.  0.
         25    1    1    2    0    0 -0.15462139496E+03  0.41964065836E+00 -0.83956858550E+02  0.21582795457E+03  0.12500000000E+03 0.  0.
</event>
<event>
 5    0  0.5742040E-005  0.3487164E+03  0.7546771E-02  0.1063143E+00
         21   -1    0    0  502  501  0.00000000000E+00  0.00000000000E+00  0.48606131925E+03  0.48606131925E+03  0.00000000000E+00 0.  1.
         21   -1    0    0  501  502 -0.00000000000E+00 -0.00000000000E+00 -0.25018064063E+03  0.25018064063E+03  0.00000000000E+00 0.  1.
         25    1    1    2    0    0  0.16863094905E+02 -0.15670837888E+03 -0.11409833722E+03  0.23126891391E+03  0.12500000000E+03 0.  0.
         25    1    1    2    0    0 -0.47511966920E+02  0.86857873144E+02  0.43464181851E+02  0.16527495948E+03  0.12500000000E+03 0.  0.
         25    1    1    2    0    0  0.30648872016E+02  0.69850505740E+02  0.30651483399E+03  0.33969808649E+03  0.12500000000E+03 0.  0.
</event>
<event>
 5    0  0.5742040E-005  0.2906846E+03  0.7546771E-02  0.1089992E+00
         21   -1    0    0  502  501  0.00000000000E+00  0.00000000000E+00  0.10408435119E+03  0.10408435119E+03  0.00000000000E+00 0. -1.
         21   -1    0    0  501  502 -0.00000000000E+00 -0.00000000000E+00 -0.81181806238E+03  0.81181806238E+03  0.00000000000E+00 0. -1.
         25    1    1    2    0    0 -0.14182752991E+03 -0.90289993738E+01 -0.24025563122E+03  0.30585019111E+03  0.12500000000E+03 0.  0.
         25    1    1    2    0    0  0.17501079481E+03  0.63477830226E+02 -0.38971157537E+03  0.44962020107E+03  0.12500000000E+03 0.  0.
         25    1    1    2    0    0 -0.33183264903E+02 -0.54448830852E+02 -0.77766504602E+02  0.16043202139E+03  0.12500000000E+03 0.  0.
</event>
<event>
 5    0  0.5742040E-005  0.3113968E+03  0.7546771E-02  0.1079678E+00
         21   -1    0    0  502  501  0.00000000000E+00  0.00000000000E+00  0.93498274048E+02  0.93498274048E+02  0.00000000000E+00 0. -1.
         21   -1    0    0  501  502 -0.00000000000E+00 -0.00000000000E+00 -0.10371094708E+04  0.10371094708E+04  0.00000000000E+00 0. -1.
         25    1    1    2    0    0 -0.38818389597E+02  0.22622038410E+02 -0.18328445084E+03  0.22635550339E+03  0.12500000000E+03 0.  0.
         25    1    1    2    0    0 -0.12822418196E+03  0.11196109664E+03 -0.50852414340E+03  0.55063466329E+03  0.12500000000E+03 0.  0.
         25    1    1    2    0    0  0.16704257156E+03 -0.13458313505E+03 -0.25180260247E+03  0.35361757813E+03  0.12500000000E+03 0.  0.
</event>
<event>
 5    0  0.5742040E-005  0.3228882E+03  0.7546771E-02  0.1074328E+00
         21   -1    0    0  502  501  0.00000000000E+00  0.00000000000E+00  0.15368056320E+03  0.15368056320E+03  0.00000000000E+00 0. -1.
         21   -1    0    0  501  502 -0.00000000000E+00 -0.00000000000E+00 -0.67839915016E+03  0.67839915016E+03  0.00000000000E+00 0. -1.
         25    1    1    2    0    0  0.66644278343E+02 -0.14109268940E+03 -0.45864706341E+03  0.50033062630E+03  0.12500000000E+03 0.  0.
         25    1    1    2    0    0 -0.46747040050E+02  0.24745219684E+02  0.23724667737E+02  0.13778777707E+03  0.12500000000E+03 0.  0.
         25    1    1    2    0    0 -0.19897238292E+02  0.11634746972E+03 -0.89796191288E+02  0.19396130998E+03  0.12500000000E+03 0.  0.
</event>
<event>
 5    0  0.5742040E-005  0.2832188E+03  0.7546771E-02  0.1093944E+00
         21   -1    0    0  502  501  0.00000000000E+00  0.00000000000E+00  0.15316655365E+03  0.15316655365E+03  0.00000000000E+00 0.  1.
         21   -1    0    0  501  502 -0.00000000000E+00 -0.00000000000E+00 -0.52369725970E+03  0.52369725970E+03  0.00000000000E+00 0.  1.
         25    1    1    2    0    0  0.92523835373E+02  0.26637331067E+02 -0.13371841040E+03  0.20682316311E+03  0.12500000000E+03 0.  0.
         25    1    1    2    0    0 -0.70207726836E+02  0.10239295693E+03 -0.54369417602E+01  0.17626117801E+03  0.12500000000E+03 0.  0.
         25    1    1    2    0    0 -0.22316108537E+02 -0.12903028800E+03 -0.23137535388E+03  0.29377947224E+03  0.12500000000E+03 0.  0.
</event>
<event>
 5    0  0.6426147E-005  0.2642908E+03  0.7546771E-02  0.1104592E+00
         21   -1    0    0  502  501  0.00000000000E+00  0.00000000000E+00  0.36747152429E+03  0.36747152429E+03  0.00000000000E+00 0.  1.
         21   -1    0    0  501  502 -0.00000000000E+00 -0.00000000000E+00 -0.19008179742E+03  0.19008179742E+03  0.00000000000E+00 0.  1.
         25    1    1    2    0    0 -0.44299655535E+02  0.36189114038E+02  0.23217606685E+03  0.26982000940E+03  0.12500000000E+03 0.  0.
         25    1    1    2    0    0 -0.77244945199E+01 -0.63143989105E+02 -0.29989320384E+01  0.14028836291E+03  0.12500000000E+03 0.  0.
         25    1    1    2    0    0  0.52024150055E+02  0.26954875067E+02 -0.51787407946E+02  0.14744494939E+03  0.12500000000E+03 0.  0.
</event>
<event>
 5    0  0.5742040E-005  0.2946319E+03  0.7546771E-02  0.1087955E+00
         21   -1    0    0  502  501  0.00000000000E+00  0.00000000000E+00  0.42079885388E+03  0.42079885388E+03  0.00000000000E+00 0. -1.
         21   -1    0    0  501  502 -0.00000000000E+00 -0.00000000000E+00 -0.20629318523E+03  0.20629318523E+03  0.00000000000E+00 0. -1.
         25    1    1    2    0    0 -0.24589316256E+02 -0.13420924849E+03  0.18174884619E+03  0.25937309025E+03  0.12500000000E+03 0.  0.
         25    1    1    2    0    0 -0.20199755519E+02  0.12601936549E+03  0.11392379918E+03  0.21187860350E+03  0.12500000000E+03 0.  0.
         25    1    1    2    0    0  0.44789071775E+02  0.81898830058E+01 -0.81166976711E+02  0.15584034536E+03  0.12500000000E+03 0.  0.
</event>
<event>
 5    0  0.5742040E-005  0.5980054E+03  0.7546771E-02  0.9909553E-01
         21   -1    0    0  502  501  0.00000000000E+00  0.00000000000E+00  0.28198725835E+04  0.28198725835E+04  0.00000000000E+00 0.  1.
         21   -1    0    0  501  502 -0.00000000000E+00 -0.00000000000E+00 -0.12681795615E+03  0.12681795615E+03  0.00000000000E+00 0.  1.
         25    1    1    2    0    0  0.43201444183E+02  0.21356009046E+02  0.13313207860E+03  0.18886925174E+03  0.12500000000E+03 0.  0.
         25    1    1    2    0    0  0.19927984294E+03  0.40639807714E+03  0.16556208128E+04  0.17209233361E+04  0.12500000000E+03 0.  0.
         25    1    1    2    0    0 -0.24248128713E+03 -0.42775408619E+03  0.90430173594E+03  0.10368979518E+04  0.12500000000E+03 0.  0.
</event>
<event>
 5    0  0.5742040E-005  0.5863140E+03  0.7546771E-02  0.9934214E-01
         21   -1    0    0  502  501  0.00000000000E+00  0.00000000000E+00  0.71006172353E+03  0.71006172353E+03  0.00000000000E+00 0. -1.
         21   -1    0    0  501  502 -0.00000000000E+00 -0.00000000000E+00 -0.48413266021E+03  0.48413266021E+03  0.00000000000E+00 0. -1.
         25    1    1    2    0    0 -0.36519511763E+02  0.11190756713E+03  0.15795712252E+03  0.23330758855E+03  0.12500000000E+03 0.  0.
         25    1    1    2    0    0 -0.11704473064E+03  0.38147122537E+03 -0.34155119266E+02  0.41953705072E+03  0.12500000000E+03 0.  0.
         25    1    1    2    0    0  0.15356424241E+03 -0.49337879250E+03  0.10212706006E+03  0.54134974447E+03  0.12500000000E+03 0.  0.
</event>
<event>
 5    0  0.5742040E-005  0.3019632E+03  0.7546771E-02  0.1084263E+00
         21   -1    0    0  502  501  0.00000000000E+00  0.00000000000E+00  0.14825176208E+03  0.14825176208E+03  0.00000000000E+00 0.  1.
         21   -1    0    0  501  502 -0.00000000000E+00 -0.00000000000E+00 -0.61504693106E+03  0.61504693106E+03  0.00000000000E+00 0.  1.
         25    1    1    2    0    0  0.19520175601E+02 -0.10473124042E+02 -0.65446363287E+02  0.14282489296E+03  0.12500000000E+03 0.  0.
         25    1    1    2    0    0  0.93162991160E+01  0.34557499184E+02  0.58414312371E+02  0.14254208526E+03  0.12500000000E+03 0.  0.
         25    1    1    2    0    0 -0.28836474717E+02 -0.24084375142E+02 -0.45976311806E+03  0.47793171492E+03  0.12500000000E+03 0.  0.
</event>
<event>
 5    0  0.5742040E-005  0.2908739E+03  0.7546771E-02  0.1089894E+00
         21   -1    0    0  502  501  0.00000000000E+00  0.00000000000E+00  0.53849062550E+03  0.53849062550E+03  0.00000000000E+00 0. -1.
         21   -1    0    0  501  502 -0.00000000000E+00 -0.00000000000E+00 -0.15711995466E+03  0.15711995466E+03  0.00000000000E+00 0. -1.
         25    1    1    2    0    0 -0.94301850938E+02 -0.10304012086E+02  0.38549730930E+02  0.16158617982E+03  0.12500000000E+03 0.  0.
         25    1    1    2    0    0 -0.96979815648E+02  0.37122094299E+02  0.69454179427E+02  0.17672582598E+03  0.12500000000E+03 0.  0.
         25    1    1    2    0    0  0.19128166659E+03 -0.26818082213E+02  0.27336676048E+03  0.35729857436E+03  0.12500000000E+03 0.  0.
</event>
<event>
 5    0  0.5742040E-005  0.2552187E+03  0.7546771E-02  0.1110050E+00
         21   -1    0    0  502  501  0.00000000000E+00  0.00000000000E+00  0.10637782811E+03  0.10637782811E+03  0.00000000000E+00 0.  1.
         21   -1    0    0  501  502 -0.00000000000E+00 -0.00000000000E+00 -0.61231375570E+03  0.61231375570E+03  0.00000000000E+00 0.  1.
         25    1    1    2    0    0  0.24311373692E+02  0.10785402363E+03 -0.11710283417E+03  0.20386664042E+03  0.12500000000E+03 0.  0.
         25    1    1    2    0    0  0.38295054460E+02  0.16079121108E+02 -0.24819138715E+03  0.28097867177E+03  0.12500000000E+03 0.  0.
         25    1    1    2    0    0 -0.62606428152E+02 -0.12393314474E+03 -0.14064170626E+03  0.23384627162E+03  0.12500000000E+03 0.  0.
</event>
<event>
 5    0  0.5742040E-005  0.3222868E+03  0.7546771E-02  0.1074602E+00
         21   -1    0    0  502  501  0.00000000000E+00  0.00000000000E+00  0.32036332980E+03  0.32036332980E+03  0.00000000000E+00 0. -1.
         21   -1    0    0  501  502 -0.00000000000E+00 -0.00000000000E+00 -0.32422186934E+03  0.32422186934E+03  0.00000000000E+00 0. -1.
         25    1    1    2    0    0  0.59568246570E+01 -0.12363838450E+03  0.10751774378E+03  0.20617225591E+03  0.12500000000E+03 0.  0.
         25    1    1    2    0    0  0.37388787691E+02 -0.71397043944E+02 -0.13589710818E+03  0.20146583666E+03  0.12500000000E+03 0.  0.
         25    1    1    2    0    0 -0.43345612348E+02  0.19503542844E+03  0.24520824862E+02  0.23694710657E+03  0.12500000000E+03 0.  0.
</event>
<event>
 5    0  0.5742040E-005  0.4062573E+03  0.7546771E-02  0.1041634E+00
         21   -1    0    0  502  501  0.00000000000E+00  0.00000000000E+00  0.85525752248E+03  0.85525752248E+03  0.00000000000E+00 0. -1.
         21   -1    0    0  501  502 -0.00000000000E+00 -0.00000000000E+00 -0.19297692255E+03  0.19297692255E+03  0.00000000000E+00 0. -1.
         25    1    1    2    0    0 -0.98959886876E+02 -0.11774525263E+03 -0.88071591567E+02  0.21688386055E+03  0.12500000000E+03 0.  0.
         25    1    1    2    0    0  0.96247535411E+02 -0.31630710845E+02  0.29369749415E+03  0.33488402174E+03  0.12500000000E+03 0.  0.
         25    1    1    2    0    0  0.27123514651E+01  0.14937596347E+03  0.45665469735E+03  0.49646656275E+03  0.12500000000E+03 0.  0.
</event>
<event>
 5    0  0.6095945E-005  0.2857208E+03  0.7546771E-02  0.1092605E+00
         21   -1    0    0  502  501  0.00000000000E+00  0.00000000000E+00  0.20805030295E+03  0.20805030295E+03  0.00000000000E+00 0. -1.
         21   -1    0    0  501  502 -0.00000000000E+00 -0.00000000000E+00 -0.39238768823E+03  0.39238768823E+03  0.00000000000E+00 0. -1.
         25    1    1    2    0    0 -0.16661736964E+02 -0.12464094134E+03 -0.23642425052E+02  0.17887689062E+03  0.12500000000E+03 0.  0.
         25    1    1    2    0    0 -0.58614934132E+02  0.77745263191E+02 -0.20771098691E+03  0.26124488614E+03  0.12500000000E+03 0.  0.
         25    1    1    2    0    0  0.75276671096E+02  0.46895678147E+02  0.47016026685E+02  0.16031621442E+03  0.12500000000E+03 0.  0.
</event>
<event>
 5    0  0.5742040E-005  0.3349673E+03  0.7546771E-02  0.1068960E+00
         21   -1    0    0  502  501  0.00000000000E+00  0.00000000000E+00  0.77474507707E+03  0.77474507707E+03  0.00000000000E+00 0. -1.
         21   -1    0    0  501  502 -0.00000000000E+00 -0.00000000000E+00 -0.14482585269E+03  0.14482585269E+03  0.00000000000E+00 0. -1.
         25    1    1    2    0    0 -0.54507334553E+01  0.99758221670E+02  0.16897113087E+03  0.23271797600E+03  0.12500000000E+03 0.  0.
         25    1    1    2    0    0  0.12135644882E+03  0.20079868001E+02 -0.60477344354E+01  0.17547696105E+03  0.12500000000E+03 0.  0.
         25    1    1    2    0    0 -0.11590571536E+03 -0.11983808967E+03  0.46699582795E+03  0.51137599270E+03  0.12500000000E+03 0.  0.
</event>
<event>
 5    0  0.5742040E-005  0.4125402E+03  0.7546771E-02  0.1039522E+00
         21   -1    0    0  502  501  0.00000000000E+00  0.00000000000E+00  0.12428141714E+03  0.12428141714E+03  0.00000000000E+00 0. -1.
         21   -1    0    0  501  502 -0.00000000000E+00 -0.00000000000E+00 -0.13693873835E+04  0.13693873835E+04  0.00000000000E+00 0. -1.
         25    1    1    2    0    0 -0.24328750826E+03 -0.11485782369E+02 -0.23796781215E+03  0.36273187686E+03  0.12500000000E+03 0.  0.
         25    1    1    2    0    0  0.14485574429E+03  0.11941503677E+03 -0.85931587917E+03  0.88842102511E+03  0.12500000000E+03 0.  0.
         25    1    1    2    0    0  0.98431763968E+02 -0.10792925440E+03 -0.14782227507E+03  0.24251589869E+03  0.12500000000E+03 0.  0.
</event>
<event>
 5    0  0.5742040E-005  0.3064655E+03  0.7546771E-02  0.1082052E+00
         21   -1    0    0  502  501  0.00000000000E+00  0.00000000000E+00  0.19584471051E+03  0.19584471051E+03  0.00000000000E+00 0.  1.
         21   -1    0    0  501  502 -0.00000000000E+00 -0.00000000000E+00 -0.47956931145E+03  0.47956931145E+03  0.00000000000E+00 0.  1.
         25    1    1    2    0    0 -0.81205916672E+02  0.88403243097E+02  0.53024809276E+02  0.18123510888E+03  0.12500000000E+03 0.  0.
         25    1    1    2    0    0  0.80871790353E+01 -0.85240215798E+02 -0.29305532146E+02  0.15432145369E+03  0.12500000000E+03 0.  0.
         25    1    1    2    0    0  0.73118737637E+02 -0.31630272988E+01 -0.30744387808E+03  0.33985745939E+03  0.12500000000E+03 0.  0.
</event>
<event>
 5    0  0.5742040E-005  0.3474622E+03  0.7546771E-02  0.1063661E+00
         21   -1    0    0  502  501  0.00000000000E+00  0.00000000000E+00  0.20477327415E+03  0.20477327415E+03  0.00000000000E+00 0.  1.
         21   -1    0    0  501  502 -0.00000000000E+00 -0.00000000000E+00 -0.58957879324E+03  0.58957879324E+03  0.00000000000E+00 0.  1.
         25    1    1    2    0    0 -0.10485477736E+03 -0.82313876686E+02 -0.10534980748E+03  0.21093525207E+03  0.12500000000E+03 0.  0.
         25    1    1    2    0    0  0.26829247793E+03  0.70579707053E+02 -0.19012125145E+03  0.35879442445E+03  0.12500000000E+03 0.  0.
         25    1    1    2    0    0 -0.16343770058E+03  0.11734169633E+02 -0.89334460155E+02  0.22462239087E+03  0.12500000000E+03 0.  0.
</event>
<event>
 5    0  0.5742040E-005  0.3652363E+03  0.7546771E-02  0.1056530E+00
         21   -1    0    0  502  501  0.00000000000E+00  0.00000000000E+00  0.80241999637E+03  0.80241999637E+03  0.00000000000E+00 0.  1.
         21   -1    0    0  501  502 -0.00000000000E+00 -0.00000000000E+00 -0.16624402401E+03  0.16624402401E+03  0.00000000000E+00 0.  1.
         25    1    1    2    0    0  0.13584634756E+03 -0.14643961722E+03  0.27087273337E+03  0.35902065306E+03  0.12500000000E+03 0.  0.
         25    1    1    2    0    0 -0.22890773943E+03  0.22240514461E+02  0.30396774607E+03  0.40114185060E+03  0.12500000000E+03 0.  0.
         25    1    1    2    0    0  0.93061391875E+02  0.12419910276E+03  0.61335492923E+02  0.20850151673E+03  0.12500000000E+03 0.  0.
</event>
<event>
 5    0  0.5742040E-005  0.2495818E+03  0.7546771E-02  0.1113569E+00
         21   -1    0    0  502  501  0.00000000000E+00  0.00000000000E+00  0.75339783149E+03  0.75339783149E+03  0.00000000000E+00 0.  1.
         21   -1    0    0  501  502 -0.00000000000E+00 -0.00000000000E+00 -0.82680196833E+02  0.82680196833E+02  0.00000000000E+00 0.  1.
         25    1    1    2    0    0 -0.11150319607E+03 -0.33392774975E+02  0.29723421340E+03  0.34281367792E+03  0.12500000000E+03 0.  0.
         25    1    1    2    0    0 -0.14854581221E+02 -0.13303043117E+02  0.89572173659E+02  0.15506709462E+03  0.12500000000E+03 0.  0.
         25    1    1    2    0    0  0.12635777729E+03  0.46695818092E+02  0.28391124760E+03  0.33819725579E+03  0.12500000000E+03 0.  0.
</event>
<event>
 5    0  0.5742040E-005  0.3187774E+03  0.7546771E-02  0.1076213E+00
         21   -1    0    0  502  501  0.00000000000E+00  0.00000000000E+00  0.11424743743E+03  0.11424743743E+03  0.00000000000E+00 0.  1.
         21   -1    0    0  501  502 -0.00000000000E+00 -0.00000000000E+00 -0.88946439496E+03  0.88946439496E+03  0.00000000000E+00 0.  1.
         25    1    1    2    0    0  0.86733041353E+02  0.16326306449E+02 -0.10233498155E+03  0.18408318009E+03  0.12500000000E+03 0.  0.
         25    1    1    2    0    0  0.87259796843E+02  0.11156381466E+03 -0.15344583886E+03  0.24337498300E+03  0.12500000000E+03 0.  0.
         25    1    1    2    0    0 -0.17399283820E+03 -0.12789012111E+03 -0.51943613713E+03  0.57625366929E+03  0.12500000000E+03 0.  0.
</event>
<event>
 5    0  0.5742040E-005  0.2354144E+03  0.7546771E-02  0.1122886E+00
         21   -1    0    0  502  501  0.00000000000E+00  0.00000000000E+00  0.28733952595E+03  0.28733952595E+03  0.00000000000E+00 0. -1.
         21   -1    0    0  501  502 -0.00000000000E+00 -0.00000000000E+00 -0.19287274192E+03  0.19287274192E+03  0.00000000000E+00 0. -1.
         25    1    1    2    0    0  0.31674653527E+02 -0.27955652216E+02  0.14936818194E+03  0.19930041631E+03  0.12500000000E+03 0.  0.
         25    1    1    2    0    0  0.20352605141E+02  0.56989236637E+01  0.13688606158E+02  0.12751111405E+03  0.12500000000E+03 0.  0.
         25    1    1    2    0    0 -0.52027258668E+02  0.22256728552E+02 -0.68590004071E+02  0.15340073751E+03  0.12500000000E+03 0.  0.
</event>
<event>
 5    0  0.5742040E-005  0.2914357E+03  0.7546771E-02  0.1089602E+00
         21   -1    0    0  502  501  0.00000000000E+00  0.00000000000E+00  0.72807283083E+03  0.72807283083E+03  0.00000000000E+00 0. -1.
         21   -1    0    0  501  502 -0.00000000000E+00 -0.00000000000E+00 -0.11665696532E+03  0.11665696532E+03  0.00000000000E+00 0. -1.
         25    1    1    2    0    0  0.33218038441E+02  0.16102055919E+03  0.29997005310E+03  0.36419512808E+03  0.12500000000E+03 0.  0.
         25    1    1    2    0    0 -0.91020922666E+02 -0.54314552648E+01  0.16586053747E+03  0.22682377953E+03  0.12500000000E+03 0.  0.
         25    1    1    2    0    0  0.57802884225E+02 -0.15558910393E+03  0.14558527493E+03  0.25371088854E+03  0.12500000000E+03 0.  0.
</event>
<event>
 5    0  0.5742040E-005  0.2952387E+03  0.7546771E-02  0.1087645E+00
         21   -1    0    0  502  501  0.00000000000E+00  0.00000000000E+00  0.21539455319E+04  0.21539455319E+04  0.00000000000E+00 0.  1.
         21   -1    0    0  501  502 -0.00000000000E+00 -0.00000000000E+00 -0.40468006982E+02  0.40468006982E+02  0.00000000000E+00 0.  1.
         25    1    1    2    0    0  0.11274716046E+03 -0.18054537661E+02  0.74724542789E+03  0.76618445431E+03  0.12500000000E+03 0.  0.
         25    1    1    2    0    0 -0.82059230710E+01 -0.92165065405E+02  0.24731922193E+03  0.29215327140E+03  0.12500000000E+03 0.  0.
         25    1    1    2    0    0 -0.10454123738E+03  0.11021960307E+03  0.11189128751E+04  0.11360758132E+04  0.12500000000E+03 0.  0.
</event>
<event>
 5    0  0.5742040E-005  0.3751047E+03  0.7546771E-02  0.1052758E+00
         21   -1    0    0  502  501  0.00000000000E+00  0.00000000000E+00  0.56447226845E+03  0.56447226845E+03  0.00000000000E+00 0.  1.
         21   -1    0    0  501  502 -0.00000000000E+00 -0.00000000000E+00 -0.24926564733E+03  0.24926564733E+03  0.00000000000E+00 0.  1.
         25    1    1    2    0    0  0.13641513566E+03  0.20993296306E+03 -0.16854693336E+02  0.28033911412E+03  0.12500000000E+03 0.  0.
         25    1    1    2    0    0 -0.13583293290E+03 -0.19359782853E+02  0.18560602926E+03  0.26248806630E+03  0.12500000000E+03 0.  0.
         25    1    1    2    0    0 -0.58220276449E+00 -0.19057318021E+03  0.14645528520E+03  0.27091073537E+03  0.12500000000E+03 0.  0.
</event>
<event>
 5    0  0.5742040E-005  0.3548048E+03  0.7546771E-02  0.1060660E+00
         21   -1    0    0  502  501  0.00000000000E+00  0.00000000000E+00  0.12486779451E+03  0.12486779451E+03  0.00000000000E+00 0.  1.
         21   -1    0    0  501  502 -0.00000000000E+00 -0.00000000000E+00 -0.10081577944E+04  0.10081577944E+04  0.00000000000E+00 0.  1.
         25    1    1    2    0    0  0.77181393821E+02 -0.26204959301E+03 -0.26981391073E+03  0.40379636349E+03  0.12500000000E+03 0.  0.
         25    1    1    2    0    0  0.47097396749E+01  0.50132583827E+02 -0.19974900826E+03  0.24095668471E+03  0.12500000000E+03 0.  0.
         25    1    1    2    0    0 -0.81891133496E+02  0.21191700918E+03 -0.41372708085E+03  0.48827254065E+03  0.12500000000E+03 0.  0.
</event>
<event>
 5    0  0.5742040E-005  0.3779165E+03  0.7546771E-02  0.1051707E+00
         21   -1    0    0  502  501  0.00000000000E+00  0.00000000000E+00  0.12175811025E+03  0.12175811025E+03  0.00000000000E+00 0. -1.
         21   -1    0    0  501  502 -0.00000000000E+00 -0.00000000000E+00 -0.11729885737E+04  0.11729885737E+04  0.00000000000E+00 0. -1.
         25    1    1    2    0    0 -0.86523121297E+02  0.26218895930E+02 -0.15888321252E+03  0.22145554011E+03  0.12500000000E+03 0.  0.
         25    1    1    2    0    0  0.10521557028E+03 -0.27325667871E+03 -0.45458724774E+03  0.55499017514E+03  0.12500000000E+03 0.  0.
         25    1    1    2    0    0 -0.18692448987E+02  0.24703778278E+03 -0.43776000317E+03  0.51830096869E+03  0.12500000000E+03 0.  0.
</event>
<event>
 5    0  0.5742040E-005  0.2995205E+03  0.7546771E-02  0.1085481E+00
         21   -1    0    0  502  501  0.00000000000E+00  0.00000000000E+00  0.66831117971E+03  0.66831117971E+03  0.00000000000E+00 0.  1.
         21   -1    0    0  501  502 -0.00000000000E+00 -0.00000000000E+00 -0.13423763261E+03  0.13423763261E+03  0.00000000000E+00 0.  1.
         25    1    1    2    0    0 -0.18880451520E+03  0.57130017442E+01  0.19815775136E+03  0.30095062348E+03  0.12500000000E+03 0.  0.
         25    1    1    2    0    0  0.81716889833E+02 -0.30144237053E+02  0.32848759837E+02  0.15585366898E+03  0.12500000000E+03 0.  0.
         25    1    1    2    0    0  0.10708762537E+03  0.24431235309E+02  0.30306703591E+03  0.34574451987E+03  0.12500000000E+03 0.  0.
</event>
<event>
 5    0  0.5742040E-005  0.2944859E+03  0.7546771E-02  0.1088030E+00
         21   -1    0    0  502  501  0.00000000000E+00  0.00000000000E+00  0.52509647321E+02  0.52509647321E+02  0.00000000000E+00 0.  1.
         21   -1    0    0  501  502 -0.00000000000E+00 -0.00000000000E+00 -0.16515427775E+04  0.16515427775E+04  0.00000000000E+00 0.  1.
         25    1    1    2    0    0  0.60559327304E+02  0.24846599699E+02 -0.72931758667E+03  0.74284179195E+03  0.12500000000E+03 0.  0.
         25    1    1    2    0    0 -0.18374165908E+03 -0.46779732149E+02 -0.56427611324E+03  0.60826135221E+03  0.12500000000E+03 0.  0.
         25    1    1    2    0    0  0.12318233177E+03  0.21933132450E+02 -0.30543943031E+03  0.35294928070E+03  0.12500000000E+03 0.  0.
</event>
<event>
 5    0  0.5742040E-005  0.4292304E+03  0.7546771E-02  0.1034103E+00
         21   -1    0    0  502  501  0.00000000000E+00  0.00000000000E+00  0.10850621928E+03  0.10850621928E+03  0.00000000000E+00 0.  1.
         21   -1    0    0  501  502 -0.00000000000E+00 -0.00000000000E+00 -0.16979555082E+04  0.16979555082E+04  0.00000000000E+00 0.  1.
         25    1    1    2    0    0  0.13831229648E+03  0.18717885111E+03 -0.94236579888E+03  0.97869531140E+03  0.12500000000E+03 0.  0.
         25    1    1    2    0    0 -0.11524877569E+03 -0.30075124746E+03 -0.42042772810E+03  0.54416731591E+03  0.12500000000E+03 0.  0.
         25    1    1    2    0    0 -0.23063520790E+02  0.11357239635E+03 -0.22665576197E+03  0.28359910021E+03  0.12500000000E+03 0.  0.
</event>
<event>
 5    0  0.5742040E-005  0.3108963E+03  0.7546771E-02  0.1079917E+00
         21   -1    0    0  502  501  0.00000000000E+00  0.00000000000E+00  0.84770897885E+03  0.84770897885E+03  0.00000000000E+00 0.  1.
         21   -1    0    0  501  502 -0.00000000000E+00 -0.00000000000E+00 -0.11402085948E+03  0.11402085948E+03  0.00000000000E+00 0.  1.
         25    1    1    2    0    0  0.11524326543E+03  0.28751013309E+02  0.57530203390E+03  0.60058726360E+03  0.12500000000E+03 0.  0.
         25    1    1    2    0    0 -0.82537793364E+02  0.13112488451E+02 -0.27646664110E+01  0.15038972062E+03  0.12500000000E+03 0.  0.
         25    1    1    2    0    0 -0.32705472065E+02 -0.41863501761E+02  0.16115075188E+03  0.21075285411E+03  0.12500000000E+03 0.  0.
</event>
<event>
 5    0  0.5742040E-005  0.3750614E+03  0.7546771E-02  0.1052774E+00
         21   -1    0    0  502  501  0.00000000000E+00  0.00000000000E+00  0.41304181341E+03  0.41304181341E+03  0.00000000000E+00 0. -1.
         21   -1    0    0  501  502 -0.00000000000E+00 -0.00000000000E+00 -0.34057337294E+03  0.34057337294E+03  0.00000000000E+00 0.  1.
         25    1    1    2    0    0  0.91837260709E+01 -0.16868395232E+02  0.29209522198E+02  0.12979630106E+03  0.12500000000E+03 0.  0.
         25    1    1    2    0    0 -0.22278632900E+03 -0.11137871494E+03 -0.11704821896E+03  0.30226520159E+03  0.12500000000E+03 0.  0.
         25    1    1    2    0    0  0.21360260293E+03  0.12824711017E+03  0.16030713724E+03  0.32155368369E+03  0.12500000000E+03 0.  0.
</event>
<event>
 5    0  0.5742040E-005  0.2256373E+03  0.7546771E-02  0.1129749E+00
         21   -1    0    0  502  501  0.00000000000E+00  0.00000000000E+00  0.16733414206E+03  0.16733414206E+03  0.00000000000E+00 0.  1.
         21   -1    0    0  501  502 -0.00000000000E+00 -0.00000000000E+00 -0.30425471034E+03  0.30425471034E+03  0.00000000000E+00 0.  1.
         25    1    1    2    0    0  0.71746718120E+02  0.61254026072E+02 -0.11002662295E+02  0.15698950872E+03  0.12500000000E+03 0.  0.
         25    1    1    2    0    0  0.20071436645E+02 -0.26003888330E+02 -0.57141046264E+02  0.14131229227E+03  0.12500000000E+03 0.  0.
         25    1    1    2    0    0 -0.91818154765E+02 -0.35250137743E+02 -0.68776859714E+02  0.17328705141E+03  0.12500000000E+03 0.  0.
</event>
<event>
 5    0  0.5742040E-005  0.3137919E+03  0.7546771E-02  0.1078542E+00
         21   -1    0    0  502  501  0.00000000000E+00  0.00000000000E+00  0.12417413591E+04  0.12417413591E+04  0.00000000000E+00 0. -1.
         21   -1    0    0  501  502 -0.00000000000E+00 -0.00000000000E+00 -0.79296184348E+02  0.79296184348E+02  0.00000000000E+00 0. -1.
         25    1    1    2    0    0  0.13254720656E+02  0.13391478461E+03  0.11335836762E+03  0.21583321493E+03  0.12500000000E+03 0.  0.
         25    1    1    2    0    0 -0.83618462544E+02 -0.69685430408E+01  0.56174553243E+03  0.58156998812E+03  0.12500000000E+03 0.  0.
         25    1    1    2    0    0  0.70363741887E+02 -0.12694624157E+03  0.48734127466E+03  0.52363434037E+03  0.12500000000E+03 0.  0.
</event>
<event>
 5    0  0.5742040E-005  0.2833904E+03  0.7546771E-02  0.1093851E+00
         21   -1    0    0  502  501  0.00000000000E+00  0.00000000000E+00  0.67408802587E+03  0.67408802587E+03  0.00000000000E+00 0.  1.
         21   -1    0    0  501  502 -0.00000000000E+00 -0.00000000000E+00 -0.11913890166E+03  0.11913890166E+03  0.00000000000E+00 0.  1.
         25    1    1    2    0    0 -0.43962134884E+02  0.60724236220E+02  0.27214651880E+03  0.30872128184E+03  0.12500000000E+03 0.  0.
         25    1    1    2    0    0 -0.50030053453E+02 -0.10513237553E+03  0.27248107644E+03  0.32160031040E+03  0.12500000000E+03 0.  0.
         25    1    1    2    0    0  0.93992188337E+02  0.44408139310E+02  0.10321528976E+02  0.16290533529E+03  0.12500000000E+03 0.  0.
</event>
<event>
 5    0  0.5742040E-005  0.2611037E+03  0.7546771E-02  0.1106482E+00
         21   -1    0    0  502  501  0.00000000000E+00  0.00000000000E+00  0.20502477011E+03  0.20502477011E+03  0.00000000000E+00 0.  1.
         21   -1    0    0  501  502 -0.00000000000E+00 -0.00000000000E+00 -0.33252138490E+03  0.33252138490E+03  0.00000000000E+00 0.  1.
         25    1    1    2    0    0  0.24633231756E+02 -0.16133493693E+02 -0.25342263314E+01  0.12844651816E+03  0.12500000000E+03 0.  0.
         25    1    1    2    0    0 -0.60186546828E+02  0.14884077973E+03 -0.73760229901E+02  0.21642913308E+03  0.12500000000E+03 0.  0.
         25    1    1    2    0    0  0.35553315071E+02 -0.13270728604E+03 -0.51202158552E+02  0.19267050376E+03  0.12500000000E+03 0.  0.
</event>
<event>
 5    0  0.6251026E-005  0.3292355E+03  0.7546771E-02  0.1071476E+00
         21   -1    0    0  502  501  0.00000000000E+00  0.00000000000E+00  0.45755176728E+03  0.45755176728E+03  0.00000000000E+00 0.  1.
         21   -1    0    0  501  502 -0.00000000000E+00 -0.00000000000E+00 -0.23690434257E+03  0.23690434257E+03  0.00000000000E+00 0.  1.
         25    1    1    2    0    0  0.62761891085E+01 -0.12148479362E+03  0.24346794067E+03  0.29949888775E+03  0.12500000000E+03 0.  0.
         25    1    1    2    0    0  0.12077843452E+03  0.75168283151E+02  0.51685666302E+02  0.19630106760E+03  0.12500000000E+03 0.  0.
         25    1    1    2    0    0 -0.12705462363E+03  0.46316510467E+02 -0.74506182259E+02  0.19865615451E+03  0.12500000000E+03 0.  0.
</event>
<event>
 5    0  0.5742040E-005  0.5606045E+03  0.7546771E-02  0.9990688E-01
         21   -1    0    0  502  501  0.00000000000E+00  0.00000000000E+00  0.17010361407E+04  0.17010361407E+04  0.00000000000E+00 0. -1.
         21   -1    0    0  501  502 -0.00000000000E+00 -0.00000000000E+00 -0.18475645383E+03  0.18475645383E+03  0.00000000000E+00 0. -1.
         25    1    1    2    0    0  0.11597894154E+03  0.11149531352E+03  0.12149497965E+03  0.23720950634E+03  0.12500000000E+03 0.  0.
         25    1    1    2    0    0 -0.48854853210E+02 -0.24788870122E+03  0.46121887830E+02  0.28563584056E+03  0.12500000000E+03 0.  0.
         25    1    1    2    0    0 -0.67124088327E+02  0.13639338770E+03  0.13486628194E+04  0.13629472476E+04  0.12500000000E+03 0.  0.
</event>
<event>
 5    0  0.5742040E-005  0.2856304E+03  0.7546771E-02  0.1092653E+00
         21   -1    0    0  502  501  0.00000000000E+00  0.00000000000E+00  0.54689762597E+03  0.54689762597E+03  0.00000000000E+00 0.  1.
         21   -1    0    0  501  502 -0.00000000000E+00 -0.00000000000E+00 -0.14917735712E+03  0.14917735712E+03  0.00000000000E+00 0.  1.
         25    1    1    2    0    0 -0.98037618124E+01  0.44774224999E+02 -0.77248309611E+01  0.13336235595E+03  0.12500000000E+03 0.  0.
         25    1    1    2    0    0  0.64870529701E+01 -0.10004715852E+03  0.39421440122E+03  0.42553673156E+03  0.12500000000E+03 0.  0.
         25    1    1    2    0    0  0.33167088424E+01  0.55272933522E+02  0.11230698602E+02  0.13717589558E+03  0.12500000000E+03 0.  0.
</event>
<event>
 5    0  0.5742040E-005  0.2604346E+03  0.7546771E-02  0.1106882E+00
         21   -1    0    0  502  501  0.00000000000E+00  0.00000000000E+00  0.13009222993E+03  0.13009222993E+03  0.00000000000E+00 0. -1.
         21   -1    0    0  501  502 -0.00000000000E+00 -0.00000000000E+00 -0.52136989682E+03  0.52136989682E+03  0.00000000000E+00 0. -1.
         25    1    1    2    0    0  0.43692555992E+02 -0.83158113801E+02 -0.17707573633E+03  0.23623108969E+03  0.12500000000E+03 0.  0.
         25    1    1    2    0    0  0.45981065381E+02  0.13747926752E+03 -0.13223970782E+03  0.23265241820E+03  0.12500000000E+03 0.  0.
         25    1    1    2    0    0 -0.89673621372E+02 -0.54321153714E+02 -0.81962222750E+02  0.18257861887E+03  0.12500000000E+03 0.  0.
</event>
<event>
 5    0  0.5742040E-005  0.3065724E+03  0.7546771E-02  0.1082001E+00
         21   -1    0    0  502  501  0.00000000000E+00  0.00000000000E+00  0.24364341037E+03  0.24364341037E+03  0.00000000000E+00 0.  1.
         21   -1    0    0  501  502 -0.00000000000E+00 -0.00000000000E+00 -0.38575478005E+03  0.38575478005E+03  0.00000000000E+00 0.  1.
         25    1    1    2    0    0 -0.10718719103E+03 -0.31151676551E+02 -0.79418682287E+01  0.16777244751E+03  0.12500000000E+03 0.  0.
         25    1    1    2    0    0  0.11297523039E+03  0.13182470324E+03  0.47504046417E+02  0.21914102649E+03  0.12500000000E+03 0.  0.
         25    1    1    2    0    0 -0.57880393628E+01 -0.10067302669E+03 -0.18167354786E+03  0.24248471642E+03  0.12500000000E+03 0.  0.
</event>
<event>
 5    0  0.5742040E-005  0.4053226E+03  0.7546771E-02  0.1041952E+00
         21   -1    0    0  502  501  0.00000000000E+00  0.00000000000E+00  0.38254654283E+03  0.38254654283E+03  0.00000000000E+00 0. -1.
         21   -1    0    0  501  502 -0.00000000000E+00 -0.00000000000E+00 -0.42945470478E+03  0.42945470478E+03  0.00000000000E+00 0. -1.
         25    1    1    2    0    0 -0.22179925960E+03 -0.14888634119E+03 -0.13568161403E+03  0.32464835521E+03  0.12500000000E+03 0.  0.
         25    1    1    2    0    0 -0.29681941116E+02  0.53611240637E+02 -0.64614585408E+02  0.15347712337E+03  0.12500000000E+03 0.  0.
         25    1    1    2    0    0  0.25148120072E+03  0.95275100552E+02  0.15338803749E+03  0.33387576903E+03  0.12500000000E+03 0.  0.
</event>
<event>
 5    0  0.5742040E-005  0.2953155E+03  0.7546771E-02  0.1087606E+00
         21   -1    0    0  502  501  0.00000000000E+00  0.00000000000E+00  0.49314685881E+03  0.49314685881E+03  0.00000000000E+00 0.  1.
         21   -1    0    0  501  502 -0.00000000000E+00 -0.00000000000E+00 -0.17684643239E+03  0.17684643239E+03  0.00000000000E+00 0.  1.
         25    1    1    2    0    0 -0.16245724857E+03 -0.82818758748E+02  0.68327253653E+02  0.23139774849E+03  0.12500000000E+03 0.  0.
         25    1    1    2    0    0  0.34823706637E+02  0.10742395377E+03  0.61887173554E+02  0.17946481170E+03  0.12500000000E+03 0.  0.
         25    1    1    2    0    0  0.12763354194E+03 -0.24605195024E+02  0.18608599922E+03  0.25913073101E+03  0.12500000000E+03 0.  0.
</event>
<event>
 5    0  0.5742040E-005  0.3201278E+03  0.7546771E-02  0.1075590E+00
         21   -1    0    0  502  501  0.00000000000E+00  0.00000000000E+00  0.99303256426E+03  0.99303256426E+03  0.00000000000E+00 0. -1.
         21   -1    0    0  501  502 -0.00000000000E+00 -0.00000000000E+00 -0.10320085989E+03  0.10320085989E+03  0.00000000000E+00 0. -1.
         25    1    1    2    0    0 -0.17989959904E+02 -0.19563983851E+02  0.25025519986E+02  0.13022159872E+03  0.12500000000E+03 0.  0.
         25    1    1    2    0    0  0.64427003789E+02  0.15610629126E+03  0.62594692816E+03  0.66026855889E+03  0.12500000000E+03 0.  0.
         25    1    1    2    0    0 -0.46437043884E+02 -0.13654230741E+03  0.23885925622E+03  0.30574326655E+03  0.12500000000E+03 0.  0.
</event>
<event>
 5    0  0.5742040E-005  0.3679831E+03  0.7546771E-02  0.1055467E+00
         21   -1    0    0  502  501  0.00000000000E+00  0.00000000000E+00  0.34719563466E+03  0.34719563466E+03  0.00000000000E+00 0. -1.
         21   -1    0    0  501  502 -0.00000000000E+00 -0.00000000000E+00 -0.39001514572E+03  0.39001514572E+03  0.00000000000E+00 0. -1.
         25    1    1    2    0    0  0.10164616835E+03 -0.14577599313E+03 -0.82671796408E+02  0.23246980371E+03  0.12500000000E+03 0.  0.
         25    1    1    2    0    0 -0.13874959061E+03  0.25428592689E+03  0.89580617046E+02  0.32796717589E+03  0.12500000000E+03 0.  0.
         25    1    1    2    0    0  0.37103422260E+02 -0.10850993376E+03 -0.49728331701E+02  0.17677380078E+03  0.12500000000E+03 0.  0.
</event>
<event>
 5    0  0.5742040E-005  0.2451277E+03  0.7546771E-02  0.1116423E+00
         21   -1    0    0  502  501  0.00000000000E+00  0.00000000000E+00  0.46341145935E+03  0.46341145935E+03  0.00000000000E+00 0. -1.
         21   -1    0    0  501  502 -0.00000000000E+00 -0.00000000000E+00 -0.12966355924E+03  0.12966355924E+03  0.00000000000E+00 0.  1.
         25    1    1    2    0    0 -0.13686865434E+03 -0.58839546768E+02  0.98245927666E+02  0.21788158047E+03  0.12500000000E+03 0.  0.
         25    1    1    2    0    0  0.81803665385E+02  0.32006116187E+02  0.11840324565E+03  0.19328879875E+03  0.12500000000E+03 0.  0.
         25    1    1    2    0    0  0.55064988954E+02  0.26833430581E+02  0.11709872680E+03  0.18190463937E+03  0.12500000000E+03 0.  0.
</event>
<event>
 5    0  0.5742040E-005  0.6024835E+03  0.7546771E-02  0.9900267E-01
         21   -1    0    0  502  501  0.00000000000E+00  0.00000000000E+00  0.51895615879E+03  0.51895615879E+03  0.00000000000E+00 0. -1.
         21   -1    0    0  501  502 -0.00000000000E+00 -0.00000000000E+00 -0.69945467923E+03  0.69945467923E+03  0.00000000000E+00 0. -1.
         25    1    1    2    0    0 -0.44182546825E+03  0.16815729134E+03 -0.20425080563E+03  0.52993396818E+03  0.12500000000E+03 0.  0.
         25    1    1    2    0    0  0.10799072530E+03  0.29292892014E+02 -0.16861072730E+03  0.23785425713E+03  0.12500000000E+03 0.  0.
         25    1    1    2    0    0  0.33383474296E+03 -0.19745018335E+03  0.19236301249E+03  0.45062261271E+03  0.12500000000E+03 0.  0.
</event>
<event>
 5    0  0.5742040E-005  0.3405498E+03  0.7546771E-02  0.1066562E+00
         21   -1    0    0  502  501  0.00000000000E+00  0.00000000000E+00  0.53901952170E+03  0.53901952170E+03  0.00000000000E+00 0. -1.
         21   -1    0    0  501  502 -0.00000000000E+00 -0.00000000000E+00 -0.21515764784E+03  0.21515764784E+03  0.00000000000E+00 0. -1.
         25    1    1    2    0    0 -0.20964611061E+03  0.14052500830E+03  0.29861430785E+02  0.28322336538E+03  0.12500000000E+03 0.  0.
         25    1    1    2    0    0  0.93771478923E+02 -0.47998082908E+02  0.19084933921E+03  0.25128743800E+03  0.12500000000E+03 0.  0.
         25    1    1    2    0    0  0.11587463168E+03 -0.92526925396E+02  0.10315110386E+03  0.21966636615E+03  0.12500000000E+03 0.  0.
</event>
<event>
 5    0  0.5742040E-005  0.3093330E+03  0.7546771E-02  0.1080666E+00
         21   -1    0    0  502  501  0.00000000000E+00  0.00000000000E+00  0.52189502978E+03  0.52189502978E+03  0.00000000000E+00 0. -1.
         21   -1    0    0  501  502 -0.00000000000E+00 -0.00000000000E+00 -0.18334516949E+03  0.18334516949E+03  0.00000000000E+00 0. -1.
         25    1    1    2    0    0  0.62957401936E+02 -0.12064365274E+03  0.46189614417E+02  0.19046523537E+03  0.12500000000E+03 0.  0.
         25    1    1    2    0    0 -0.17445334490E+03  0.20084432179E+02  0.90271206446E+02  0.23369048906E+03  0.12500000000E+03 0.  0.
         25    1    1    2    0    0  0.11149594297E+03  0.10055922057E+03  0.20208903942E+03  0.28108447484E+03  0.12500000000E+03 0.  0.
</event>
<event>
 5    0  0.5742040E-005  0.3323336E+03  0.7546771E-02  0.1070109E+00
         21   -1    0    0  502  501  0.00000000000E+00  0.00000000000E+00  0.23535907629E+03  0.23535907629E+03  0.00000000000E+00 0.  1.
         21   -1    0    0  501  502 -0.00000000000E+00 -0.00000000000E+00 -0.46926430191E+03  0.46926430191E+03  0.00000000000E+00 0.  1.
         25    1    1    2    0    0  0.32083007767E+02 -0.94356092720E+02  0.21159111240E+02  0.16126096741E+03  0.12500000000E+03 0.  0.
         25    1    1    2    0    0 -0.14047413792E+03 -0.97988161343E+02 -0.18174452810E+03  0.27926821639E+03  0.12500000000E+03 0.  0.
         25    1    1    2    0    0  0.10839113015E+03  0.19234425406E+03 -0.73319808752E+02  0.26409419441E+03  0.12500000000E+03 0.  0.
</event>
<event>
 5    0  0.5742040E-005  0.3407535E+03  0.7546771E-02  0.1066475E+00
         21   -1    0    0  502  501  0.00000000000E+00  0.00000000000E+00  0.49318321767E+02  0.49318321767E+02  0.00000000000E+00 0.  1.
         21   -1    0    0  501  502 -0.00000000000E+00 -0.00000000000E+00 -0.23543568199E+04  0.23543568199E+04  0.00000000000E+00 0.  1.
         25    1    1    2    0    0 -0.21321858220E+03  0.68902220632E+02 -0.68418422944E+03  0.73071385619E+03  0.12500000000E+03 0.  0.
         25    1    1    2    0    0  0.70349161088E+02 -0.14358359083E+03 -0.96513107964E+03  0.98623945009E+03  0.12500000000E+03 0.  0.
         25    1    1    2    0    0  0.14286942111E+03  0.74681370203E+02 -0.65572318900E+03  0.68672183535E+03  0.12500000000E+03 0.  0.
</event>
<event>
 5    0  0.5742040E-005  0.2905684E+03  0.7546771E-02  0.1090053E+00
         21   -1    0    0  502  501  0.00000000000E+00  0.00000000000E+00  0.12464272190E+03  0.12464272190E+03  0.00000000000E+00 0.  1.
         21   -1    0    0  501  502 -0.00000000000E+00 -0.00000000000E+00 -0.67737614357E+03  0.67737614357E+03  0.00000000000E+00 0.  1.
         25    1    1    2    0    0 -0.62712405796E+02 -0.78452028493E+02 -0.96178723847E+02  0.18698372532E+03  0.12500000000E+03 0.  0.
         25    1    1    2    0    0  0.55988243804E+02  0.19091015756E+03 -0.20182467970E+03  0.30974113876E+03  0.12500000000E+03 0.  0.
         25    1    1    2    0    0  0.67241619925E+01 -0.11245812907E+03 -0.25473001812E+03  0.30529400139E+03  0.12500000000E+03 0.  0.
</event>
<event>
 5    0  0.5742040E-005  0.3851556E+03  0.7546771E-02  0.1049044E+00
         21   -1    0    0  502  501  0.00000000000E+00  0.00000000000E+00  0.76205940609E+02  0.76205940609E+02  0.00000000000E+00 0.  1.
         21   -1    0    0  501  502 -0.00000000000E+00 -0.00000000000E+00 -0.19466312991E+04  0.19466312991E+04  0.00000000000E+00 0.  1.
         25    1    1    2    0    0 -0.25940420419E+02  0.13229870359E+03 -0.69264488931E+03  0.71662946846E+03  0.12500000000E+03 0.  0.
         25    1    1    2    0    0  0.11622563198E+03 -0.22996097067E+03 -0.32091567636E+03  0.43011895668E+03  0.12500000000E+03 0.  0.
         25    1    1    2    0    0 -0.90285211558E+02  0.97662267079E+02 -0.85686479287E+03  0.87608881462E+03  0.12500000000E+03 0.  0.
</event>
<event>
 5    0  0.5742040E-005  0.2852267E+03  0.7546771E-02  0.1092868E+00
         21   -1    0    0  502  501  0.00000000000E+00  0.00000000000E+00  0.64796805552E+02  0.64796805552E+02  0.00000000000E+00 0.  1.
         21   -1    0    0  501  502 -0.00000000000E+00 -0.00000000000E+00 -0.12555289719E+04  0.12555289719E+04  0.00000000000E+00 0.  1.
         25    1    1    2    0    0 -0.87953912248E+02 -0.54984775030E+01 -0.30060182423E+03  0.33727226489E+03  0.12500000000E+03 0.  0.
         25    1    1    2    0    0  0.72180362076E+02  0.12864106742E+03 -0.23329584919E+03  0.30300244577E+03  0.12500000000E+03 0.  0.
         25    1    1    2    0    0  0.15773550172E+02 -0.12314258992E+03 -0.65683449293E+03  0.68005106679E+03  0.12500000000E+03 0.  0.
</event>
<event>
 5    0  0.5742040E-005  0.3074844E+03  0.7546771E-02  0.1081558E+00
         21   -1    0    0  502  501  0.00000000000E+00  0.00000000000E+00  0.53641763204E+03  0.53641763204E+03  0.00000000000E+00 0. -1.
         21   -1    0    0  501  502 -0.00000000000E+00 -0.00000000000E+00 -0.17625563237E+03  0.17625563237E+03  0.00000000000E+00 0. -1.
         25    1    1    2    0    0 -0.29086201257E+01 -0.14516141552E+03  0.18731521247E+03  0.26794082453E+03  0.12500000000E+03 0.  0.
         25    1    1    2    0    0 -0.10985927201E+03  0.38273583029E+02  0.17609213415E+03  0.24529037184E+03  0.12500000000E+03 0.  0.
         25    1    1    2    0    0  0.11276789214E+03  0.10688783249E+03 -0.32453469452E+01  0.19944206805E+03  0.12500000000E+03 0.  0.
</event>
<event>
 5    0  0.5742040E-005  0.3530709E+03  0.7546771E-02  0.1061362E+00
         21   -1    0    0  502  501  0.00000000000E+00  0.00000000000E+00  0.12635476330E+03  0.12635476330E+03  0.00000000000E+00 0. -1.
         21   -1    0    0  501  502 -0.00000000000E+00 -0.00000000000E+00 -0.98657968679E+03  0.98657968679E+03  0.00000000000E+00 0. -1.
         25    1    1    2    0    0 -0.22513507942E+03 -0.79705326281E+02 -0.34620142809E+03  0.43877006717E+03  0.12500000000E+03 0.  0.
         25    1    1    2    0    0  0.67231029888E+02  0.15561003406E+03 -0.32742146646E+03  0.38931261317E+03  0.12500000000E+03 0.  0.
         25    1    1    2    0    0  0.15790404954E+03 -0.75904707774E+02 -0.18660202894E+03  0.28485176974E+03  0.12500000000E+03 0.  0.
</event>
<event>
 5    0  0.7328962E-005  0.2711419E+03  0.7546771E-02  0.1100628E+00
         21   -1    0    0  502  501  0.00000000000E+00  0.00000000000E+00  0.17765237810E+03  0.17765237810E+03  0.00000000000E+00 0. -1.
         21   -1    0    0  501  502 -0.00000000000E+00 -0.00000000000E+00 -0.41383035787E+03  0.41383035787E+03  0.00000000000E+00 0. -1.
         25    1    1    2    0    0  0.91523753902E+02 -0.63942256315E+02 -0.16002327828E+03  0.23172755395E+03  0.12500000000E+03 0.  0.
         25    1    1    2    0    0 -0.21756052408E+02  0.13688489013E+03 -0.12906119949E+02  0.18708919502E+03  0.12500000000E+03 0.  0.
         25    1    1    2    0    0 -0.69767701493E+02 -0.72942633812E+02 -0.63248581547E+02  0.17266598700E+03  0.12500000000E+03 0.  0.
</event>
<event>
 5    0  0.5742040E-005  0.3129759E+03  0.7546771E-02  0.1078928E+00
         21   -1    0    0  502  501  0.00000000000E+00  0.00000000000E+00  0.76470766079E+02  0.76470766079E+02  0.00000000000E+00 0.  1.
         21   -1    0    0  501  502 -0.00000000000E+00 -0.00000000000E+00 -0.12809330797E+04  0.12809330797E+04  0.00000000000E+00 0.  1.
         25    1    1    2    0    0  0.91690141430E+02 -0.29977069547E+01 -0.41721042819E+03  0.44509056345E+03  0.12500000000E+03 0.  0.
         25    1    1    2    0    0  0.96577035674E+02 -0.11230574086E+03 -0.45270065802E+03  0.49244551884E+03  0.12500000000E+03 0.  0.
         25    1    1    2    0    0 -0.18826717710E+03  0.11530344781E+03 -0.33455122738E+03  0.41986776346E+03  0.12500000000E+03 0.  0.
</event>
<event>
 5    0  0.5742040E-005  0.4044856E+03  0.7546771E-02  0.1042237E+00
         21   -1    0    0  502  501  0.00000000000E+00  0.00000000000E+00  0.60147834690E+03  0.60147834690E+03  0.00000000000E+00 0.  1.
         21   -1    0    0  501  502 -0.00000000000E+00 -0.00000000000E+00 -0.27201081875E+03  0.27201081875E+03  0.00000000000E+00 0.  1.
         25    1    1    2    0    0 -0.23745672421E+03  0.16444641661E+03  0.19025142818E+03  0.36776205043E+03  0.12500000000E+03 0.  0.
         25    1    1    2    0    0 -0.14259104480E+02  0.45652152223E+02  0.56120813176E+02  0.14512748442E+03  0.12500000000E+03 0.  0.
         25    1    1    2    0    0  0.25171582869E+03 -0.21009856883E+03  0.83095286796E+02  0.36059963080E+03  0.12500000000E+03 0.  0.
</event>
<event>
 5    0  0.5742040E-005  0.4463055E+03  0.7546771E-02  0.1028830E+00
         21   -1    0    0  502  501  0.00000000000E+00  0.00000000000E+00  0.12247728516E+03  0.12247728516E+03  0.00000000000E+00 0. -1.
         21   -1    0    0  501  502 -0.00000000000E+00 -0.00000000000E+00 -0.16263312998E+04  0.16263312998E+04  0.00000000000E+00 0. -1.
         25    1    1    2    0    0 -0.10386459673E+03 -0.14905593321E+03 -0.34441781691E+03  0.40896718485E+03  0.12500000000E+03 0.  0.
         25    1    1    2    0    0  0.16641320024E+03  0.18042447098E+03 -0.11643669332E+04  0.11965039482E+04  0.12500000000E+03 0.  0.
         25    1    1    2    0    0 -0.62548603506E+02 -0.31368537775E+02  0.49307354739E+01  0.14333745189E+03  0.12500000000E+03 0.  0.
</event>
<event>
 5    0  0.5742040E-005  0.3199112E+03  0.7546771E-02  0.1075690E+00
         21   -1    0    0  502  501  0.00000000000E+00  0.00000000000E+00  0.18558431699E+03  0.18558431699E+03  0.00000000000E+00 0. -1.
         21   -1    0    0  501  502 -0.00000000000E+00 -0.00000000000E+00 -0.55146457686E+03  0.55146457686E+03  0.00000000000E+00 0. -1.
         25    1    1    2    0    0  0.17732909202E+03 -0.14990418417E+03 -0.19081291881E+03  0.32550182994E+03  0.12500000000E+03 0.  0.
         25    1    1    2    0    0 -0.19124844796E+02  0.53434031899E+02 -0.11758994264E+03  0.18075771094E+03  0.12500000000E+03 0.  0.
         25    1    1    2    0    0 -0.15820424723E+03  0.96470152269E+02 -0.57477398420E+02  0.23078935298E+03  0.12500000000E+03 0.  0.
</event>
<event>
 5    0  0.5933382E-005  0.3262009E+03  0.7546771E-02  0.1072830E+00
         21   -1    0    0  502  501  0.00000000000E+00  0.00000000000E+00  0.57442665893E+03  0.57442665893E+03  0.00000000000E+00 0.  1.
         21   -1    0    0  501  502 -0.00000000000E+00 -0.00000000000E+00 -0.18524036980E+03  0.18524036980E+03  0.00000000000E+00 0.  1.
         25    1    1    2    0    0 -0.22605023530E+02  0.10410984201E+02 -0.74275874598E+02  0.14751705402E+03  0.12500000000E+03 0.  0.
         25    1    1    2    0    0  0.96471943888E+02 -0.87092380912E+02  0.84493449227E+02  0.19913829801E+03  0.12500000000E+03 0.  0.
         25    1    1    2    0    0 -0.73866920358E+02  0.76681396711E+02  0.37896871450E+03  0.41301167670E+03  0.12500000000E+03 0.  0.
</event>
<event>
 5    0  0.5742040E-005  0.2679372E+03  0.7546771E-02  0.1102466E+00
         21   -1    0    0  502  501  0.00000000000E+00  0.00000000000E+00  0.26762729399E+03  0.26762729399E+03  0.00000000000E+00 0. -1.
         21   -1    0    0  501  502 -0.00000000000E+00 -0.00000000000E+00 -0.26824742361E+03  0.26824742361E+03  0.00000000000E+00 0. -1.
         25    1    1    2    0    0 -0.15518550873E+03  0.75044214118E+01  0.42613282217E+02  0.20391113330E+03  0.12500000000E+03 0.  0.
         25    1    1    2    0    0  0.95422324745E+02  0.16957495188E+02 -0.92091580824E+02  0.18302687224E+03  0.12500000000E+03 0.  0.
         25    1    1    2    0    0  0.59763183986E+02 -0.24461916600E+02  0.48858168990E+02  0.14893671207E+03  0.12500000000E+03 0.  0.
</event>
<event>
 5    0  0.5742040E-005  0.2608948E+03  0.7546771E-02  0.1106607E+00
         21   -1    0    0  502  501  0.00000000000E+00  0.00000000000E+00  0.15467511635E+03  0.15467511635E+03  0.00000000000E+00 0.  1.
         21   -1    0    0  501  502 -0.00000000000E+00 -0.00000000000E+00 -0.44005850975E+03  0.44005850975E+03  0.00000000000E+00 0.  1.
         25    1    1    2    0    0  0.45866643747E+02  0.64093104487E+02  0.51830703031E+02  0.15659852116E+03  0.12500000000E+03 0.  0.
         25    1    1    2    0    0 -0.12168094351E+02 -0.61544566512E+02 -0.11553744683E+03  0.18141030237E+03  0.12500000000E+03 0.  0.
         25    1    1    2    0    0 -0.33698549396E+02 -0.25485379753E+01 -0.22167664960E+03  0.25672480257E+03  0.12500000000E+03 0.  0.
</event>
<event>
 5    0  0.5742040E-005  0.3784598E+03  0.7546771E-02  0.1051504E+00
         21   -1    0    0  502  501  0.00000000000E+00  0.00000000000E+00  0.16146617934E+03  0.16146617934E+03  0.00000000000E+00 0.  1.
         21   -1    0    0  501  502 -0.00000000000E+00 -0.00000000000E+00 -0.88707022810E+03  0.88707022810E+03  0.00000000000E+00 0.  1.
         25    1    1    2    0    0  0.93169252248E+02  0.14221360803E+03 -0.11542061971E+03  0.24052471667E+03  0.12500000000E+03 0.  0.
         25    1    1    2    0    0 -0.19912238336E+03  0.34809857190E+02 -0.47586221089E+03  0.53191286266E+03  0.12500000000E+03 0.  0.
         25    1    1    2    0    0  0.10595313111E+03 -0.17702346522E+03 -0.13432121816E+03  0.27609882810E+03  0.12500000000E+03 0.  0.
</event>
<event>
 5    0  0.5742040E-005  0.3307281E+03  0.7546771E-02  0.1070815E+00
         21   -1    0    0  502  501  0.00000000000E+00  0.00000000000E+00  0.70513882084E+03  0.70513882084E+03  0.00000000000E+00 0.  1.
         21   -1    0    0  501  502 -0.00000000000E+00 -0.00000000000E+00 -0.15511991724E+03  0.15511991724E+03  0.00000000000E+00 0.  1.
         25    1    1    2    0    0 -0.11683708136E+03 -0.12636570942E+03  0.26382868119E+03  0.33889492341E+03  0.12500000000E+03 0.  0.
         25    1    1    2    0    0 -0.56527383853E+02 -0.54867010928E+02  0.53552018126E+02  0.15715773178E+03  0.12500000000E+03 0.  0.
         25    1    1    2    0    0  0.17336446521E+03  0.18123272034E+03  0.23263820429E+03  0.36420608289E+03  0.12500000000E+03 0.  0.
</event>
<event>
 5    0  0.5742040E-005  0.4469700E+03  0.7546771E-02  0.1028629E+00
         21   -1    0    0  502  501  0.00000000000E+00  0.00000000000E+00  0.42933394551E+03  0.42933394551E+03  0.00000000000E+00 0. -1.
         21   -1    0    0  501  502 -0.00000000000E+00 -0.00000000000E+00 -0.46533051800E+03  0.46533051800E+03  0.00000000000E+00 0. -1.
         25    1    1    2    0    0 -0.11975156353E+03  0.28947651708E+03  0.15675119899E+03  0.37193148467E+03  0.12500000000E+03 0.  0.
         25    1    1    2    0    0  0.13951936983E+03 -0.30542368890E+03 -0.14548112218E+03  0.38670278149E+03  0.12500000000E+03 0.  0.
         25    1    1    2    0    0 -0.19767806299E+02  0.15947171822E+02 -0.47266649298E+02  0.13603019735E+03  0.12500000000E+03 0.  0.
</event>
<event>
 5    0  0.5742040E-005  0.3438857E+03  0.7546771E-02  0.1065153E+00
         21   -1    0    0  502  501  0.00000000000E+00  0.00000000000E+00  0.63277174337E+03  0.63277174337E+03  0.00000000000E+00 0.  1.
         21   -1    0    0  501  502 -0.00000000000E+00 -0.00000000000E+00 -0.18688788452E+03  0.18688788452E+03  0.00000000000E+00 0.  1.
         25    1    1    2    0    0  0.11455884819E+03  0.14200072547E+03 -0.36604292402E+02  0.22417138523E+03  0.12500000000E+03 0.  0.
         25    1    1    2    0    0 -0.91823539569E+02 -0.15580416529E+03  0.33006083574E+03  0.39657490545E+03  0.12500000000E+03 0.  0.
         25    1    1    2    0    0 -0.22735308625E+02  0.13803439815E+02  0.15242731551E+03  0.19891333722E+03  0.12500000000E+03 0.  0.
</event>
<event>
 5    0  0.5742040E-005  0.2865515E+03  0.7546771E-02  0.1092163E+00
         21   -1    0    0  502  501  0.00000000000E+00  0.00000000000E+00  0.10456873466E+04  0.10456873466E+04  0.00000000000E+00 0.  1.
         21   -1    0    0  501  502 -0.00000000000E+00 -0.00000000000E+00 -0.78524226833E+02  0.78524226833E+02  0.00000000000E+00 0.  1.
         25    1    1    2    0    0 -0.14125800393E+03 -0.76638630896E+02  0.34591458487E+03  0.40138410961E+03  0.12500000000E+03 0.  0.
         25    1    1    2    0    0  0.34345124257E+02  0.10922263003E+03  0.45981811465E+03  0.49006822895E+03  0.12500000000E+03 0.  0.
         25    1    1    2    0    0  0.10691287967E+03 -0.32583999135E+02  0.16143042026E+03  0.23275923489E+03  0.12500000000E+03 0.  0.
</event>
<event>
 5    0  0.5742040E-005  0.3766104E+03  0.7546771E-02  0.1052194E+00
         21   -1    0    0  502  501  0.00000000000E+00  0.00000000000E+00  0.10197073329E+04  0.10197073329E+04  0.00000000000E+00 0.  1.
         21   -1    0    0  501  502 -0.00000000000E+00 -0.00000000000E+00 -0.13909420534E+03  0.13909420534E+03  0.00000000000E+00 0.  1.
         25    1    1    2    0    0 -0.70546505479E+02  0.82303627922E+02  0.66716689727E+03  0.68737716388E+03  0.12500000000E+03 0.  0.
         25    1    1    2    0    0 -0.12677803976E+02 -0.86477171762E+02 -0.56366801185E+02  0.16260763889E+03  0.12500000000E+03 0.  0.
         25    1    1    2    0    0  0.83224309455E+02  0.41735438401E+01  0.26981303144E+03  0.30881673544E+03  0.12500000000E+03 0.  0.
</event>
<event>
 5    0  0.5742040E-005  0.2340374E+03  0.7546771E-02  0.1123830E+00
         21   -1    0    0  502  501  0.00000000000E+00  0.00000000000E+00  0.14803791851E+03  0.14803791851E+03  0.00000000000E+00 0.  1.
         21   -1    0    0  501  502 -0.00000000000E+00 -0.00000000000E+00 -0.36999644522E+03  0.36999644522E+03  0.00000000000E+00 0.  1.
         25    1    1    2    0    0  0.99683194673E+02 -0.51968094847E+02 -0.36649297099E+02  0.17206275936E+03  0.12500000000E+03 0.  0.
         25    1    1    2    0    0 -0.25434121226E+01 -0.15821259277E+01 -0.80208546168E+02  0.14855094394E+03  0.12500000000E+03 0.  0.
         25    1    1    2    0    0 -0.97139782551E+02  0.53550220775E+02 -0.10510068345E+03  0.19742066042E+03  0.12500000000E+03 0.  0.
</event>
<event>
 5    0  0.5742040E-005  0.2405782E+03  0.7546771E-02  0.1119408E+00
         21   -1    0    0  502  501  0.00000000000E+00  0.00000000000E+00  0.37852320827E+03  0.37852320827E+03  0.00000000000E+00 0.  1.
         21   -1    0    0  501  502 -0.00000000000E+00 -0.00000000000E+00 -0.15290442559E+03  0.15290442559E+03  0.00000000000E+00 0.  1.
         25    1    1    2    0    0  0.98708983696E+02  0.40972895889E+01  0.36010832007E+02  0.16334635370E+03  0.12500000000E+03 0.  0.
         25    1    1    2    0    0 -0.11502677907E+03 -0.28733881946E+02  0.16245271640E+03  0.23679670805E+03  0.12500000000E+03 0.  0.
         25    1    1    2    0    0  0.16317795375E+02  0.24636592357E+02  0.27155234270E+02  0.13128457212E+03  0.12500000000E+03 0.  0.
</event>
<event>
 5    0  0.5742040E-005  0.3284334E+03  0.7546771E-02  0.1071832E+00
         21   -1    0    0  502  501  0.00000000000E+00  0.00000000000E+00  0.10824915771E+03  0.10824915771E+03  0.00000000000E+00 0. -1.
         21   -1    0    0  501  502 -0.00000000000E+00 -0.00000000000E+00 -0.99648367584E+03  0.99648367584E+03  0.00000000000E+00 0. -1.
         25    1    1    2    0    0 -0.25705496862E+02 -0.12178803679E+03 -0.62617280951E+03  0.65054629800E+03  0.12500000000E+03 0.  0.
         25    1    1    2    0    0 -0.65279875394E+02  0.59319445446E+02 -0.24190491827E+03  0.28622237548E+03  0.12500000000E+03 0.  0.
         25    1    1    2    0    0  0.90985372256E+02  0.62468591344E+02 -0.20156790345E+02  0.16796416006E+03  0.12500000000E+03 0.  0.
</event>
<event>
 5    0  0.6107475E-005  0.3080305E+03  0.7546771E-02  0.1081294E+00
         21   -1    0    0  502  501  0.00000000000E+00  0.00000000000E+00  0.14407760269E+03  0.14407760269E+03  0.00000000000E+00 0.  1.
         21   -1    0    0  501  502 -0.00000000000E+00 -0.00000000000E+00 -0.65855337416E+03  0.65855337416E+03  0.00000000000E+00 0.  1.
         25    1    1    2    0    0 -0.75694366310E+02  0.61118132638E+02 -0.31689247600E+03  0.35427518199E+03  0.12500000000E+03 0.  0.
         25    1    1    2    0    0  0.15879134607E+03  0.91470481856E+01 -0.16632963877E+02  0.20297786964E+03  0.12500000000E+03 0.  0.
         25    1    1    2    0    0 -0.83096979756E+02 -0.70265180824E+02 -0.18095033160E+03  0.24537792522E+03  0.12500000000E+03 0.  0.
</event>
<event>
 5    0  0.5742040E-005  0.2527254E+03  0.7546771E-02  0.1111594E+00
         21   -1    0    0  502  501  0.00000000000E+00  0.00000000000E+00  0.29368727465E+03  0.29368727465E+03  0.00000000000E+00 0. -1.
         21   -1    0    0  501  502 -0.00000000000E+00 -0.00000000000E+00 -0.21747661429E+03  0.21747661429E+03  0.00000000000E+00 0. -1.
         25    1    1    2    0    0  0.11645623620E+03  0.19042790974E+02 -0.55500553013E+02  0.18063774307E+03  0.12500000000E+03 0.  0.
         25    1    1    2    0    0 -0.10033380354E+03 -0.59066690016E+02  0.70284992631E+02  0.18471796391E+03  0.12500000000E+03 0.  0.
         25    1    1    2    0    0 -0.16122432664E+02  0.40023899041E+02  0.61426220740E+02  0.14580818195E+03  0.12500000000E+03 0.  0.
</event>
<event>
 5    0  0.5742040E-005  0.3060568E+03  0.7546771E-02  0.1082251E+00
         21   -1    0    0  502  501  0.00000000000E+00  0.00000000000E+00  0.50457841026E+03  0.50457841026E+03  0.00000000000E+00 0. -1.
         21   -1    0    0  501  502 -0.00000000000E+00 -0.00000000000E+00 -0.18564159701E+03  0.18564159701E+03  0.00000000000E+00 0. -1.
         25    1    1    2    0    0 -0.15074522311E+03  0.75884274054E+02  0.76292823752E+02  0.22344605679E+03  0.12500000000E+03 0.  0.
         25    1    1    2    0    0  0.15575338631E+02  0.80683336078E+02  0.50053861713E+02  0.15774276835E+03  0.12500000000E+03 0.  0.
         25    1    1    2    0    0  0.13516988448E+03 -0.15656761013E+03  0.19259012778E+03  0.30903118214E+03  0.12500000000E+03 0.  0.
</event>
<event>
 5    0  0.5742040E-005  0.2358630E+03  0.7546771E-02  0.1122580E+00
         21   -1    0    0  502  501  0.00000000000E+00  0.00000000000E+00  0.12498431100E+03  0.12498431100E+03  0.00000000000E+00 0.  1.
         21   -1    0    0  501  502 -0.00000000000E+00 -0.00000000000E+00 -0.44510670825E+03  0.44510670825E+03  0.00000000000E+00 0.  1.
         25    1    1    2    0    0 -0.66577398825E+01  0.22613358631E+02 -0.12275699539E+03  0.17677660877E+03  0.12500000000E+03 0.  0.
         25    1    1    2    0    0 -0.52736219749E+02 -0.11130093842E+03 -0.92909182652E+02  0.19856012688E+03  0.12500000000E+03 0.  0.
         25    1    1    2    0    0  0.59393959632E+02  0.88687579792E+02 -0.10445621920E+03  0.19475428360E+03  0.12500000000E+03 0.  0.
</event>
<event>
 5    0  0.5742040E-005  0.4650783E+03  0.7546771E-02  0.1023319E+00
         21   -1    0    0  502  501  0.00000000000E+00  0.00000000000E+00  0.16690406182E+04  0.16690406182E+04  0.00000000000E+00 0. -1.
         21   -1    0    0  501  502 -0.00000000000E+00 -0.00000000000E+00 -0.12959409040E+03  0.12959409040E+03  0.00000000000E+00 0. -1.
         25    1    1    2    0    0 -0.69233498553E+02 -0.26284939101E+03  0.13995099307E+03  0.33029435378E+03  0.12500000000E+03 0.  0.
         25    1    1    2    0    0 -0.13985189773E+02  0.11505019851E+03  0.10211609500E+04  0.10352906932E+04  0.12500000000E+03 0.  0.
         25    1    1    2    0    0  0.83218688326E+02  0.14779919250E+03  0.37833458474E+03  0.43304966159E+03  0.12500000000E+03 0.  0.
</event>
<event>
 5    0  0.5742040E-005  0.4755561E+03  0.7546771E-02  0.1020364E+00
         21   -1    0    0  502  501  0.00000000000E+00  0.00000000000E+00  0.14110347437E+03  0.14110347437E+03  0.00000000000E+00 0.  1.
         21   -1    0    0  501  502 -0.00000000000E+00 -0.00000000000E+00 -0.16027500548E+04  0.16027500548E+04  0.00000000000E+00 0.  1.
         25    1    1    2    0    0 -0.13471062150E+03 -0.11402970285E+03 -0.53797808775E+03  0.57982337619E+03  0.12500000000E+03 0.  0.
         25    1    1    2    0    0  0.98653876920E+02 -0.25789606972E+03 -0.50600370976E+03  0.58983703215E+03  0.12500000000E+03 0.  0.
         25    1    1    2    0    0  0.36056744578E+02  0.37192577257E+03 -0.41766478296E+03  0.57419312087E+03  0.12500000000E+03 0.  0.
</event>
<event>
 5    0  0.5742040E-005  0.2759790E+03  0.7546771E-02  0.1097906E+00
         21   -1    0    0  502  501  0.00000000000E+00  0.00000000000E+00  0.24147439364E+03  0.24147439364E+03  0.00000000000E+00 0.  1.
         21   -1    0    0  501  502 -0.00000000000E+00 -0.00000000000E+00 -0.31541398081E+03  0.31541398081E+03  0.00000000000E+00 0.  1.
         25    1    1    2    0    0 -0.35553473767E+02 -0.67561914278E+02  0.92117123620E+02  0.17302955303E+03  0.12500000000E+03 0.  0.
         25    1    1    2    0    0 -0.40142048242E+02  0.26061466696E+02  0.28670786344E+02  0.13688534645E+03  0.12500000000E+03 0.  0.
         25    1    1    2    0    0  0.75695522009E+02  0.41500447582E+02 -0.19472749713E+03  0.24697347497E+03  0.12500000000E+03 0.  0.
</event>
<event>
 5    0  0.5742040E-005  0.6862536E+03  0.7546771E-02  0.9741033E-01
         21   -1    0    0  502  501  0.00000000000E+00  0.00000000000E+00  0.66067863143E+03  0.66067863143E+03  0.00000000000E+00 0. -1.
         21   -1    0    0  501  502 -0.00000000000E+00 -0.00000000000E+00 -0.71281859690E+03  0.71281859690E+03  0.00000000000E+00 0. -1.
         25    1    1    2    0    0  0.58973630152E+02  0.51616828194E+03  0.12409723059E+03  0.54857333783E+03  0.12500000000E+03 0.  0.
         25    1    1    2    0    0  0.10046907372E+03 -0.12131374908E+02  0.12506056258E+03  0.20373107113E+03  0.12500000000E+03 0.  0.
         25    1    1    2    0    0 -0.15944270387E+03 -0.50403690704E+03 -0.30129775864E+03  0.62119281937E+03  0.12500000000E+03 0.  0.
</event>
<event>
 5    0  0.5742040E-005  0.3396898E+03  0.7546771E-02  0.1066928E+00
         21   -1    0    0  502  501  0.00000000000E+00  0.00000000000E+00  0.42615921645E+03  0.42615921645E+03  0.00000000000E+00 0.  1.
         21   -1    0    0  501  502 -0.00000000000E+00 -0.00000000000E+00 -0.27076532846E+03  0.27076532846E+03  0.00000000000E+00 0.  1.
         25    1    1    2    0    0 -0.53538183174E+02 -0.93767962295E+02 -0.11296617039E+03  0.20011277686E+03  0.12500000000E+03 0.  0.
         25    1    1    2    0    0  0.12121577329E+03  0.10945836970E+03  0.15422849650E+02  0.20624563676E+03  0.12500000000E+03 0.  0.
         25    1    1    2    0    0 -0.67677590117E+02 -0.15690407403E+02  0.25293720873E+03  0.29056613128E+03  0.12500000000E+03 0.  0.
</event>
<event>
 5    0  0.5742040E-005  0.4144406E+03  0.7546771E-02  0.1038891E+00
         21   -1    0    0  502  501  0.00000000000E+00  0.00000000000E+00  0.16162025457E+03  0.16162025457E+03  0.00000000000E+00 0. -1.
         21   -1    0    0  501  502 -0.00000000000E+00 -0.00000000000E+00 -0.10627444204E+04  0.10627444204E+04  0.00000000000E+00 0. -1.
         25    1    1    2    0    0  0.15295533129E+03  0.59882262579E+02  0.53662516884E+01  0.20648248206E+03  0.12500000000E+03 0.  0.
         25    1    1    2    0    0 -0.10808317176E+03  0.20612730064E+02 -0.82665859927E+03  0.84326525863E+03  0.12500000000E+03 0.  0.
         25    1    1    2    0    0 -0.44872159528E+02 -0.80494992642E+02 -0.79831818276E+02  0.17461693432E+03  0.12500000000E+03 0.  0.
</event>
<event>
 5    0  0.5742040E-005  0.2691482E+03  0.7546771E-02  0.1101768E+00
         21   -1    0    0  502  501  0.00000000000E+00  0.00000000000E+00  0.11382241106E+04  0.11382241106E+04  0.00000000000E+00 0.  1.
         21   -1    0    0  501  502 -0.00000000000E+00 -0.00000000000E+00 -0.63643644867E+02  0.63643644867E+02  0.00000000000E+00 0.  1.
         25    1    1    2    0    0 -0.10538689939E+03 -0.75399852795E+02  0.30366054617E+03  0.35302445193E+03  0.12500000000E+03 0.  0.
         25    1    1    2    0    0  0.13787380169E+03 -0.29244234504E+02  0.38366146995E+03  0.42741728319E+03  0.12500000000E+03 0.  0.
         25    1    1    2    0    0 -0.32486902305E+02  0.10464408730E+03  0.38725844965E+03  0.42142602038E+03  0.12500000000E+03 0.  0.
</event>
<event>
 5    0  0.5742040E-005  0.4181715E+03  0.7546771E-02  0.1037663E+00
         21   -1    0    0  502  501  0.00000000000E+00  0.00000000000E+00  0.61838442858E+03  0.61838442858E+03  0.00000000000E+00 0.  1.
         21   -1    0    0  501  502 -0.00000000000E+00 -0.00000000000E+00 -0.28278105989E+03  0.28278105989E+03  0.00000000000E+00 0.  1.
         25    1    1    2    0    0 -0.64752494252E+01 -0.18406157681E+03  0.15798164922E+03  0.27295383200E+03  0.12500000000E+03 0.  0.
         25    1    1    2    0    0  0.16210526567E+03  0.30562173395E+03  0.90723594174E+02  0.37886479377E+03  0.12500000000E+03 0.  0.
         25    1    1    2    0    0 -0.15563001624E+03 -0.12156015714E+03  0.86898125294E+02  0.24934686270E+03  0.12500000000E+03 0.  0.
</event>
<event>
 5    0  0.5742040E-005  0.3214207E+03  0.7546771E-02  0.1074997E+00
         21   -1    0    0  502  501  0.00000000000E+00  0.00000000000E+00  0.66508999348E+02  0.66508999348E+02  0.00000000000E+00 0.  1.
         21   -1    0    0  501  502 -0.00000000000E+00 -0.00000000000E+00 -0.15533429029E+04  0.15533429029E+04  0.00000000000E+00 0.  1.
         25    1    1    2    0    0  0.22542535561E+03 -0.51202749952E+02 -0.65079843297E+03  0.70185604857E+03  0.12500000000E+03 0.  0.
         25    1    1    2    0    0 -0.38496840876E+02  0.75768631042E+02 -0.29195159378E+03  0.32876074176E+03  0.12500000000E+03 0.  0.
         25    1    1    2    0    0 -0.18692851473E+03 -0.24565881090E+02 -0.54408387681E+03  0.58923511193E+03  0.12500000000E+03 0.  0.
</event>
<event>
 5    0  0.5742040E-005  0.2242600E+03  0.7546771E-02  0.1130746E+00
         21   -1    0    0  502  501  0.00000000000E+00  0.00000000000E+00  0.10053945407E+03  0.10053945407E+03  0.00000000000E+00 0.  1.
         21   -1    0    0  501  502 -0.00000000000E+00 -0.00000000000E+00 -0.50022711577E+03  0.50022711577E+03  0.00000000000E+00 0.  1.
         25    1    1    2    0    0  0.51014949909E+02 -0.38847892709E+02 -0.20999010744E+03  0.25265100258E+03  0.12500000000E+03 0.  0.
         25    1    1    2    0    0 -0.23310069532E+02  0.38923105175E+02 -0.18382849572E+02  0.13424342299E+03  0.12500000000E+03 0.  0.
         25    1    1    2    0    0 -0.27704880377E+02 -0.75212465996E-01 -0.17131470468E+03  0.21387214427E+03  0.12500000000E+03 0.  0.
</event>
<event>
 5    0  0.5742040E-005  0.3567488E+03  0.7546771E-02  0.1059879E+00
         21   -1    0    0  502  501  0.00000000000E+00  0.00000000000E+00  0.77939939769E+02  0.77939939769E+02  0.00000000000E+00 0. -1.
         21   -1    0    0  501  502 -0.00000000000E+00 -0.00000000000E+00 -0.16329201512E+04  0.16329201512E+04  0.00000000000E+00 0. -1.
         25    1    1    2    0    0 -0.15947845991E+03  0.16479871502E+02 -0.69133663003E+03  0.72060828566E+03  0.12500000000E+03 0.  0.
         25    1    1    2    0    0  0.93362544155E+01 -0.85990440188E+02 -0.72510729790E+03  0.74086916181E+03  0.12500000000E+03 0.  0.
         25    1    1    2    0    0  0.15014220549E+03  0.69510568686E+02 -0.13853628347E+03  0.24938264348E+03  0.12500000000E+03 0.  0.
</event>
<event>
 5    0  0.5742040E-005  0.2929821E+03  0.7546771E-02  0.1088802E+00
         21   -1    0    0  502  501  0.00000000000E+00  0.00000000000E+00  0.79902925162E+03  0.79902925162E+03  0.00000000000E+00 0.  1.
         21   -1    0    0  501  502 -0.00000000000E+00 -0.00000000000E+00 -0.10742846654E+03  0.10742846654E+03  0.00000000000E+00 0.  1.
         25    1    1    2    0    0  0.12873729034E+02 -0.15382827590E+03  0.13226293985E+03  0.23863645284E+03  0.12500000000E+03 0.  0.
         25    1    1    2    0    0 -0.43390959612E+02 -0.20500873592E+02  0.30884867605E+03  0.33662377500E+03  0.12500000000E+03 0.  0.
         25    1    1    2    0    0  0.30517230578E+02  0.17432914949E+03  0.25048916918E+03  0.33119749033E+03  0.12500000000E+03 0.  0.
</event>
<event>
 5    0  0.5742040E-005  0.2904701E+03  0.7546771E-02  0.1090104E+00
         21   -1    0    0  502  501  0.00000000000E+00  0.00000000000E+00  0.35440911939E+02  0.35440911939E+02  0.00000000000E+00 0.  1.
         21   -1    0    0  501  502 -0.00000000000E+00 -0.00000000000E+00 -0.23806631670E+04  0.23806631670E+04  0.00000000000E+00 0.  1.
         25    1    1    2    0    0  0.55233920309E+02 -0.16310734626E+03 -0.11157228025E+04  0.11358332467E+04  0.12500000000E+03 0.  0.
         25    1    1    2    0    0  0.54417089240E+02  0.34153133299E+02 -0.61103686478E+03  0.62699179121E+03  0.12500000000E+03 0.  0.
         25    1    1    2    0    0 -0.10965100955E+03  0.12895421296E+03 -0.61846258782E+03  0.65327904105E+03  0.12500000000E+03 0.  0.
</event>
<event>
 5    0  0.5742040E-005  0.3880731E+03  0.7546771E-02  0.1047990E+00
         21   -1    0    0  502  501  0.00000000000E+00  0.00000000000E+00  0.21578906656E+03  0.21578906656E+03  0.00000000000E+00 0. -1.
         21   -1    0    0  501  502 -0.00000000000E+00 -0.00000000000E+00 -0.69790717146E+03  0.69790717146E+03  0.00000000000E+00 0. -1.
         25    1    1    2    0    0 -0.47205176503E+02 -0.26384936355E+03 -0.15840719094E+03  0.33550358191E+03  0.12500000000E+03 0.  0.
         25    1    1    2    0    0  0.23616548036E+02  0.30329918433E+01  0.19516568317E+02  0.12873553052E+03  0.12500000000E+03 0.  0.
         25    1    1    2    0    0  0.23588628467E+02  0.26081637171E+03 -0.34322748227E+03  0.44945712558E+03  0.12500000000E+03 0.  0.
</event>
<event>
 5    0  0.5742040E-005  0.2456501E+03  0.7546771E-02  0.1116085E+00
         21   -1    0    0  502  501  0.00000000000E+00  0.00000000000E+00  0.38156431361E+03  0.38156431361E+03  0.00000000000E+00 0.  1.
         21   -1    0    0  501  502 -0.00000000000E+00 -0.00000000000E+00 -0.15814884447E+03  0.15814884447E+03  0.00000000000E+00 0.  1.
         25    1    1    2    0    0 -0.32911501576E+02 -0.32460149729E+02  0.90760600275E+02  0.16124303030E+03  0.12500000000E+03 0.  0.
         25    1    1    2    0    0  0.63014501980E+02  0.78452231630E+02  0.17311548509E+03  0.23604989152E+03  0.12500000000E+03 0.  0.
         25    1    1    2    0    0 -0.30103000403E+02 -0.45992081902E+02 -0.40460616234E+02  0.14242023626E+03  0.12500000000E+03 0.  0.
</event>
<event>
 5    0  0.5742040E-005  0.2863954E+03  0.7546771E-02  0.1092246E+00
         21   -1    0    0  502  501  0.00000000000E+00  0.00000000000E+00  0.33451124599E+02  0.33451124599E+02  0.00000000000E+00 0.  1.
         21   -1    0    0  501  502 -0.00000000000E+00 -0.00000000000E+00 -0.24520047368E+04  0.24520047368E+04  0.00000000000E+00 0.  1.
         25    1    1    2    0    0  0.15192847204E+03 -0.12799524507E+02 -0.52158045703E+03  0.55759955308E+03  0.12500000000E+03 0.  0.
         25    1    1    2    0    0 -0.15662830973E+03  0.45678288231E+02 -0.94180207030E+03  0.96396839836E+03  0.12500000000E+03 0.  0.
         25    1    1    2    0    0  0.46998376923E+01 -0.32878763725E+02 -0.95517108490E+03  0.96388790998E+03  0.12500000000E+03 0.  0.
</event>
<event>
 5    0  0.5742040E-005  0.4610950E+03  0.7546771E-02  0.1024464E+00
         21   -1    0    0  502  501  0.00000000000E+00  0.00000000000E+00  0.15280669088E+04  0.15280669088E+04  0.00000000000E+00 0.  1.
         21   -1    0    0  501  502 -0.00000000000E+00 -0.00000000000E+00 -0.13913565531E+03  0.13913565531E+03  0.00000000000E+00 0.  1.
         25    1    1    2    0    0  0.12474353712E+03 -0.78107420245E+02  0.10969522261E+04  0.11138181654E+04  0.12500000000E+03 0.  0.
         25    1    1    2    0    0 -0.24064982491E+03  0.10979569301E+03  0.14723925136E+03  0.32752378475E+03  0.12500000000E+03 0.  0.
         25    1    1    2    0    0  0.11590628779E+03 -0.31688272765E+02  0.14473977598E+03  0.22586061394E+03  0.12500000000E+03 0.  0.
</event>
<event>
 5    0  0.5742040E-005  0.4373796E+03  0.7546771E-02  0.1031554E+00
         21   -1    0    0  502  501  0.00000000000E+00  0.00000000000E+00  0.18142264548E+03  0.18142264548E+03  0.00000000000E+00 0.  1.
         21   -1    0    0  501  502 -0.00000000000E+00 -0.00000000000E+00 -0.10544489452E+04  0.10544489452E+04  0.00000000000E+00 0.  1.
         25    1    1    2    0    0  0.10420202661E+03  0.26339452610E+03 -0.46073138978E+03  0.55509742592E+03  0.12500000000E+03 0.  0.
         25    1    1    2    0    0 -0.55532958582E+02  0.89947600858E+02 -0.12974086088E+03  0.20888315243E+03  0.12500000000E+03 0.  0.
         25    1    1    2    0    0 -0.48669068029E+02 -0.35334212696E+03 -0.28255404905E+03  0.47189101231E+03  0.12500000000E+03 0.  0.
</event>
<event>
 5    0  0.5742040E-005  0.2473713E+03  0.7546771E-02  0.1114977E+00
         21   -1    0    0  502  501  0.00000000000E+00  0.00000000000E+00  0.94834893329E+02  0.94834893329E+02  0.00000000000E+00 0.  1.
         21   -1    0    0  501  502 -0.00000000000E+00 -0.00000000000E+00 -0.64525340086E+03  0.64525340086E+03  0.00000000000E+00 0.  1.
         25    1    1    2    0    0 -0.20139270093E+02  0.12822263106E+03 -0.21794326812E+03  0.28279126832E+03  0.12500000000E+03 0.  0.
         25    1    1    2    0    0  0.81885127987E+01 -0.27946432839E+02 -0.23928912678E+03  0.27153699756E+03  0.12500000000E+03 0.  0.
         25    1    1    2    0    0  0.11950757294E+02 -0.10027619822E+03 -0.93186112628E+02  0.18576002831E+03  0.12500000000E+03 0.  0.
</event>
<event>
 5    0  0.5742040E-005  0.3605821E+03  0.7546771E-02  0.1058354E+00
         21   -1    0    0  502  501  0.00000000000E+00  0.00000000000E+00  0.13798793193E+04  0.13798793193E+04  0.00000000000E+00 0.  1.
         21   -1    0    0  501  502 -0.00000000000E+00 -0.00000000000E+00 -0.94225233851E+02  0.94225233851E+02  0.00000000000E+00 0.  1.
         25    1    1    2    0    0 -0.70384516349E+02 -0.16229831018E+03  0.24724179449E+03  0.32870690071E+03  0.12500000000E+03 0.  0.
         25    1    1    2    0    0 -0.30399763307E+02 -0.22964886556E+02  0.73713447184E+02  0.15003400921E+03  0.12500000000E+03 0.  0.
         25    1    1    2    0    0  0.10078427966E+03  0.18526319674E+03  0.96469884378E+03  0.99536364323E+03  0.12500000000E+03 0.  0.
</event>
<event>
 5    0  0.5742040E-005  0.2612491E+03  0.7546771E-02  0.1106395E+00
         21   -1    0    0  502  501  0.00000000000E+00  0.00000000000E+00  0.44532995357E+03  0.44532995357E+03  0.00000000000E+00 0. -1.
         21   -1    0    0  501  502 -0.00000000000E+00 -0.00000000000E+00 -0.15325957052E+03  0.15325957052E+03  0.00000000000E+00 0. -1.
         25    1    1    2    0    0  0.11217648260E+03 -0.16726555623E+02  0.42237752688E+02  0.17398956481E+03  0.12500000000E+03 0.  0.
         25    1    1    2    0    0  0.12119681130E+02 -0.70011845990E+02  0.77912866358E+02  0.16353580646E+03  0.12500000000E+03 0.  0.
         25    1    1    2    0    0 -0.12429616373E+03  0.86738401612E+02  0.17191976400E+03  0.26106415282E+03  0.12500000000E+03 0.  0.
</event>
<event>
 5    0  0.5742040E-005  0.2639511E+03  0.7546771E-02  0.1104792E+00
         21   -1    0    0  502  501  0.00000000000E+00  0.00000000000E+00  0.17222570984E+04  0.17222570984E+04  0.00000000000E+00 0.  1.
         21   -1    0    0  501  502 -0.00000000000E+00 -0.00000000000E+00 -0.40452836584E+02  0.40452836584E+02  0.00000000000E+00 0.  1.
         25    1    1    2    0    0 -0.59889950593E+02  0.76116650661E+02  0.89563207469E+03  0.90948466942E+03  0.12500000000E+03 0.  0.
         25    1    1    2    0    0 -0.54774996001E+02  0.78734411721E+01  0.40867359178E+03  0.43093084815E+03  0.12500000000E+03 0.  0.
         25    1    1    2    0    0  0.11466494659E+03 -0.83990091834E+02  0.37749859538E+03  0.42229441746E+03  0.12500000000E+03 0.  0.
</event>
<event>
 5    0  0.5742040E-005  0.2766806E+03  0.7546771E-02  0.1097516E+00
         21   -1    0    0  502  501  0.00000000000E+00  0.00000000000E+00  0.83402417367E+02  0.83402417367E+02  0.00000000000E+00 0.  1.
         21   -1    0    0  501  502 -0.00000000000E+00 -0.00000000000E+00 -0.91786474155E+03  0.91786474155E+03  0.00000000000E+00 0.  1.
         25    1    1    2    0    0 -0.71450756460E+02 -0.50203892484E+02 -0.44518012791E+03  0.47056985423E+03  0.12500000000E+03 0.  0.
         25    1    1    2    0    0  0.66371303348E+02  0.47739336670E+02 -0.32839932118E+02  0.15293023022E+03  0.12500000000E+03 0.  0.
         25    1    1    2    0    0  0.50794531123E+01  0.24645558133E+01 -0.35644226415E+03  0.37776707447E+03  0.12500000000E+03 0.  0.
</event>
<event>
 5    0  0.5742040E-005  0.2485631E+03  0.7546771E-02  0.1114216E+00
         21   -1    0    0  502  501  0.00000000000E+00  0.00000000000E+00  0.44271478074E+03  0.44271478074E+03  0.00000000000E+00 0.  1.
         21   -1    0    0  501  502 -0.00000000000E+00 -0.00000000000E+00 -0.13955624388E+03  0.13955624388E+03  0.00000000000E+00 0.  1.
         25    1    1    2    0    0 -0.53579021881E+02  0.94882326485E+02  0.22977066486E+03  0.28336006404E+03  0.12500000000E+03 0.  0.
         25    1    1    2    0    0  0.10445838946E+02 -0.21208317080E+02 -0.72086326240E+01  0.12742006376E+03  0.12500000000E+03 0.  0.
         25    1    1    2    0    0  0.43133182935E+02 -0.73674009405E+02  0.80596504622E+02  0.17149089681E+03  0.12500000000E+03 0.  0.
</event>
<event>
 5    0  0.5742040E-005  0.2625910E+03  0.7546771E-02  0.1105596E+00
         21   -1    0    0  502  501  0.00000000000E+00  0.00000000000E+00  0.43955751202E+02  0.43955751202E+02  0.00000000000E+00 0.  1.
         21   -1    0    0  501  502 -0.00000000000E+00 -0.00000000000E+00 -0.15687143031E+04  0.15687143031E+04  0.00000000000E+00 0.  1.
         25    1    1    2    0    0  0.18320335133E+02  0.22541034747E+01 -0.94839732813E+02  0.15798826090E+03  0.12500000000E+03 0.  0.
         25    1    1    2    0    0 -0.23240491993E+01  0.43162669550E+02 -0.77486359070E+03  0.78607060844E+03  0.12500000000E+03 0.  0.
         25    1    1    2    0    0 -0.15996285934E+02 -0.45416773025E+02 -0.65505522842E+03  0.66861118501E+03  0.12500000000E+03 0.  0.
</event>
<event>
 5    0  0.5742040E-005  0.3150411E+03  0.7546771E-02  0.1077954E+00
         21   -1    0    0  502  501  0.00000000000E+00  0.00000000000E+00  0.22510883978E+03  0.22510883978E+03  0.00000000000E+00 0.  1.
         21   -1    0    0  501  502 -0.00000000000E+00 -0.00000000000E+00 -0.44090189454E+03  0.44090189454E+03  0.00000000000E+00 0.  1.
         25    1    1    2    0    0  0.66435775943E+02  0.70081374871E+02 -0.11313481485E+01  0.15796009426E+03  0.12500000000E+03 0.  0.
         25    1    1    2    0    0  0.14183885365E+03 -0.73597680257E+02 -0.16164541609E+03  0.25940146392E+03  0.12500000000E+03 0.  0.
         25    1    1    2    0    0 -0.20827462959E+03  0.35163053860E+01 -0.53016290518E+02  0.24864917614E+03  0.12500000000E+03 0.  0.
</event>
<event>
 5    0  0.5742040E-005  0.2812783E+03  0.7546771E-02  0.1094993E+00
         21   -1    0    0  502  501  0.00000000000E+00  0.00000000000E+00  0.12960241666E+03  0.12960241666E+03  0.00000000000E+00 0. -1.
         21   -1    0    0  501  502 -0.00000000000E+00 -0.00000000000E+00 -0.61046279900E+03  0.61046279900E+03  0.00000000000E+00 0. -1.
         25    1    1    2    0    0  0.20669641318E+02  0.13242718747E+03 -0.11362065054E+03  0.21563591139E+03  0.12500000000E+03 0.  0.
         25    1    1    2    0    0 -0.95027163049E+02  0.75951134698E-01 -0.79889342518E+02  0.17617455700E+03  0.12500000000E+03 0.  0.
         25    1    1    2    0    0  0.74357521731E+02 -0.13250313861E+03 -0.28735038928E+03  0.34825474727E+03  0.12500000000E+03 0.  0.
</event>
<event>
 5    0  0.5742040E-005  0.4879920E+03  0.7546771E-02  0.1016962E+00
         21   -1    0    0  502  501  0.00000000000E+00  0.00000000000E+00  0.24634605191E+03  0.24634605191E+03  0.00000000000E+00 0. -1.
         21   -1    0    0  501  502 -0.00000000000E+00 -0.00000000000E+00 -0.96667347056E+03  0.96667347056E+03  0.00000000000E+00 0. -1.
         25    1    1    2    0    0  0.67967692691E+02  0.30085356569E+02  0.12693722136E+03  0.19303573269E+03  0.12500000000E+03 0.  0.
         25    1    1    2    0    0 -0.88992110599E+02 -0.17455554635E+03 -0.78387951064E+03  0.81760707049E+03  0.12500000000E+03 0.  0.
         25    1    1    2    0    0  0.21024417908E+02  0.14447018978E+03 -0.63385129360E+02  0.20237671928E+03  0.12500000000E+03 0.  0.
</event>
<event>
 5    0  0.5742040E-005  0.2262297E+03  0.7546771E-02  0.1129322E+00
         21   -1    0    0  502  501  0.00000000000E+00  0.00000000000E+00  0.19174132682E+03  0.19174132682E+03  0.00000000000E+00 0.  1.
         21   -1    0    0  501  502 -0.00000000000E+00 -0.00000000000E+00 -0.26692148828E+03  0.26692148828E+03  0.00000000000E+00 0.  1.
         25    1    1    2    0    0  0.38573092910E+02  0.41187162924E+02 -0.18428649994E+02  0.13837948196E+03  0.12500000000E+03 0.  0.
         25    1    1    2    0    0  0.46423835929E+02  0.44321131129E+02 -0.38267036733E+02  0.14563276179E+03  0.12500000000E+03 0.  0.
         25    1    1    2    0    0 -0.84996928839E+02 -0.85508294053E+02 -0.18484474735E+02  0.17465057134E+03  0.12500000000E+03 0.  0.
</event>
<event>
 5    0  0.5742040E-005  0.2767701E+03  0.7546771E-02  0.1097466E+00
         21   -1    0    0  502  501  0.00000000000E+00  0.00000000000E+00  0.42598629144E+03  0.42598629144E+03  0.00000000000E+00 0. -1.
         21   -1    0    0  501  502 -0.00000000000E+00 -0.00000000000E+00 -0.17982193305E+03  0.17982193305E+03  0.00000000000E+00 0. -1.
         25    1    1    2    0    0  0.52508419033E+02 -0.42549127080E+02  0.31632076315E+02  0.14557867473E+03  0.12500000000E+03 0.  0.
         25    1    1    2    0    0 -0.35025610977E+01  0.60960820590E+02 -0.61975728299E+02  0.15229734233E+03  0.12500000000E+03 0.  0.
         25    1    1    2    0    0 -0.49005857935E+02 -0.18411693510E+02  0.27650801037E+03  0.30793220743E+03  0.12500000000E+03 0.  0.
</event>
<event>
 5    0  0.5742040E-005  0.2567470E+03  0.7546771E-02  0.1109114E+00
         21   -1    0    0  502  501  0.00000000000E+00  0.00000000000E+00  0.90687000231E+02  0.90687000231E+02  0.00000000000E+00 0.  1.
         21   -1    0    0  501  502 -0.00000000000E+00 -0.00000000000E+00 -0.72688503248E+03  0.72688503248E+03  0.00000000000E+00 0.  1.
         25    1    1    2    0    0 -0.58881177730E+02 -0.29210741996E+02 -0.43369259073E+03  0.45610801768E+03  0.12500000000E+03 0.  0.
         25    1    1    2    0    0  0.44615710880E+01 -0.35397635272E+02 -0.15711075625E+03  0.20391588445E+03  0.12500000000E+03 0.  0.
         25    1    1    2    0    0  0.54419606642E+02  0.64608377268E+02 -0.45394685268E+02  0.15754813059E+03  0.12500000000E+03 0.  0.
</event>
<event>
 5    0  0.5742040E-005  0.4230027E+03  0.7546771E-02  0.1036093E+00
         21   -1    0    0  502  501  0.00000000000E+00  0.00000000000E+00  0.28243878742E+03  0.28243878742E+03  0.00000000000E+00 0. -1.
         21   -1    0    0  501  502 -0.00000000000E+00 -0.00000000000E+00 -0.63352227429E+03  0.63352227429E+03  0.00000000000E+00 0. -1.
         25    1    1    2    0    0 -0.24389951252E+03  0.10275514460E+03  0.61839227557E+02  0.29915661787E+03  0.12500000000E+03 0.  0.
         25    1    1    2    0    0  0.27615402753E+03 -0.12258918529E+03 -0.30918213066E+03  0.45000860568E+03  0.12500000000E+03 0.  0.
         25    1    1    2    0    0 -0.32254515008E+02  0.19834040693E+02 -0.10374058376E+03  0.16679583816E+03  0.12500000000E+03 0.  0.
</event>
<event>
 5    0  0.5742040E-005  0.2578363E+03  0.7546771E-02  0.1108450E+00
         21   -1    0    0  502  501  0.00000000000E+00  0.00000000000E+00  0.36749907225E+03  0.36749907225E+03  0.00000000000E+00 0.  1.
         21   -1    0    0  501  502 -0.00000000000E+00 -0.00000000000E+00 -0.18089727928E+03  0.18089727928E+03  0.00000000000E+00 0.  1.
         25    1    1    2    0    0 -0.14208090126E+03 -0.52151008472E+02  0.74799596403E+02  0.21006353756E+03  0.12500000000E+03 0.  0.
         25    1    1    2    0    0  0.10714308533E+03  0.34278967452E+02  0.32617112066E+01  0.16819728625E+03  0.12500000000E+03 0.  0.
         25    1    1    2    0    0  0.34937815936E+02  0.17872041020E+02  0.10854048536E+03  0.17013552773E+03  0.12500000000E+03 0.  0.
</event>
<event>
 5    0  0.6709236E-005  0.4648793E+03  0.7546771E-02  0.1023376E+00
         21   -1    0    0  502  501  0.00000000000E+00  0.00000000000E+00  0.12539865329E+04  0.12539865329E+04  0.00000000000E+00 0.  1.
         21   -1    0    0  501  502 -0.00000000000E+00 -0.00000000000E+00 -0.17234054648E+03  0.17234054648E+03  0.00000000000E+00 0. -1.
         25    1    1    2    0    0  0.58062902430E+02 -0.19564860927E+03  0.61166969122E+03  0.65682150551E+03  0.12500000000E+03 0.  0.
         25    1    1    2    0    0  0.61333707544E+02  0.29329915380E+03  0.46967629795E+03  0.57097026382E+03  0.12500000000E+03 0.  0.
         25    1    1    2    0    0 -0.11939660997E+03 -0.97650544538E+02  0.29999721327E+00  0.19853531001E+03  0.12500000000E+03 0.  0.
</event>
<event>
 5    0  0.5742040E-005  0.2812422E+03  0.7546771E-02  0.1095012E+00
         21   -1    0    0  502  501  0.00000000000E+00  0.00000000000E+00  0.41585436377E+02  0.41585436377E+02  0.00000000000E+00 0.  1.
         21   -1    0    0  501  502 -0.00000000000E+00 -0.00000000000E+00 -0.19020397845E+04  0.19020397845E+04  0.00000000000E+00 0.  1.
         25    1    1    2    0    0 -0.83114822925E+01  0.24218951248E+02 -0.25172226725E+03  0.28221399357E+03  0.12500000000E+03 0.  0.
         25    1    1    2    0    0 -0.70286919711E+02 -0.12783055923E+03 -0.45848377331E+03  0.49710489169E+03  0.12500000000E+03 0.  0.
         25    1    1    2    0    0  0.78598402003E+02  0.10361160798E+03 -0.11502483076E+04  0.11643063357E+04  0.12500000000E+03 0.  0.
</event>
<event>
 5    0  0.5742040E-005  0.3033221E+03  0.7546771E-02  0.1083592E+00
         21   -1    0    0  502  501  0.00000000000E+00  0.00000000000E+00  0.45203749423E+03  0.45203749423E+03  0.00000000000E+00 0.  1.
         21   -1    0    0  501  502 -0.00000000000E+00 -0.00000000000E+00 -0.20353246859E+03  0.20353246859E+03  0.00000000000E+00 0.  1.
         25    1    1    2    0    0  0.66963102087E+02  0.84690010775E+02  0.28462780859E+03  0.32908121245E+03  0.12500000000E+03 0.  0.
         25    1    1    2    0    0 -0.50760718084E+02  0.89045027376E+01  0.53854146341E+02  0.14553765749E+03  0.12500000000E+03 0.  0.
         25    1    1    2    0    0 -0.16202384003E+02 -0.93594513512E+02 -0.89976929291E+02  0.18095109287E+03  0.12500000000E+03 0.  0.
</event>
<event>
 5    0  0.5742040E-005  0.3400696E+03  0.7546771E-02  0.1066766E+00
         21   -1    0    0  502  501  0.00000000000E+00  0.00000000000E+00  0.10635618121E+03  0.10635618121E+03  0.00000000000E+00 0.  1.
         21   -1    0    0  501  502 -0.00000000000E+00 -0.00000000000E+00 -0.10873587863E+04  0.10873587863E+04  0.00000000000E+00 0.  1.
         25    1    1    2    0    0 -0.53282729596E+01 -0.34022361441E+02 -0.30248569716E+03  0.32910258060E+03  0.12500000000E+03 0.  0.
         25    1    1    2    0    0  0.10524833152E+03 -0.14355652303E+03 -0.55380894804E+03  0.59499162811E+03  0.12500000000E+03 0.  0.
         25    1    1    2    0    0 -0.99920058556E+02  0.17757888448E+03 -0.12470795987E+03  0.26962075878E+03  0.12500000000E+03 0.  0.
</event>
<event>
 5    0  0.5742040E-005  0.3296967E+03  0.7546771E-02  0.1071271E+00
         21   -1    0    0  502  501  0.00000000000E+00  0.00000000000E+00  0.18342000525E+04  0.18342000525E+04  0.00000000000E+00 0.  1.
         21   -1    0    0  501  502 -0.00000000000E+00 -0.00000000000E+00 -0.59262843443E+02  0.59262843443E+02  0.00000000000E+00 0.  1.
         25    1    1    2    0    0 -0.90199416215E+02  0.60804750534E+02  0.21250760502E+03  0.26947659372E+03  0.12500000000E+03 0.  0.
         25    1    1    2    0    0 -0.11364386280E+03 -0.12578907289E+02  0.94597649842E+03  0.96102533370E+03  0.12500000000E+03 0.  0.
         25    1    1    2    0    0  0.20384327901E+03 -0.48225843245E+02  0.61645310566E+03  0.66296096856E+03  0.12500000000E+03 0.  0.
</event>
<event>
 5    0  0.5742040E-005  0.2368747E+03  0.7546771E-02  0.1121893E+00
         21   -1    0    0  502  501  0.00000000000E+00  0.00000000000E+00  0.66205263450E+03  0.66205263450E+03  0.00000000000E+00 0.  1.
         21   -1    0    0  501  502 -0.00000000000E+00 -0.00000000000E+00 -0.84750971020E+02  0.84750971020E+02  0.00000000000E+00 0.  1.
         25    1    1    2    0    0  0.30312496785E+02 -0.76714151254E+02  0.20100824777E+03  0.25066556232E+03  0.12500000000E+03 0.  0.
         25    1    1    2    0    0 -0.56460388227E+02 -0.47296172083E+02  0.15916376950E+03  0.21536668464E+03  0.12500000000E+03 0.  0.
         25    1    1    2    0    0  0.26147891442E+02  0.12401032334E+03  0.21712964621E+03  0.28077135856E+03  0.12500000000E+03 0.  0.
</event>
<event>
 5    0  0.5970063E-005  0.2695420E+03  0.7546771E-02  0.1101542E+00
         21   -1    0    0  502  501  0.00000000000E+00  0.00000000000E+00  0.86459692875E+02  0.86459692875E+02  0.00000000000E+00 0. -1.
         21   -1    0    0  501  502 -0.00000000000E+00 -0.00000000000E+00 -0.84030931619E+03  0.84030931619E+03  0.00000000000E+00 0. -1.
         25    1    1    2    0    0  0.20229622742E+02 -0.43347713211E+01 -0.30165505145E+02  0.13024202693E+03  0.12500000000E+03 0.  0.
         25    1    1    2    0    0  0.82307865773E+02 -0.50604495927E+02 -0.28639960904E+03  0.32708582335E+03  0.12500000000E+03 0.  0.
         25    1    1    2    0    0 -0.10253748851E+03  0.54939267248E+02 -0.43728450912E+03  0.46944115878E+03  0.12500000000E+03 0.  0.
</event>
<event>
 5    0  0.5742040E-005  0.2834792E+03  0.7546771E-02  0.1093804E+00
         21   -1    0    0  502  501  0.00000000000E+00  0.00000000000E+00  0.48707379619E+03  0.48707379619E+03  0.00000000000E+00 0. -1.
         21   -1    0    0  501  502 -0.00000000000E+00 -0.00000000000E+00 -0.16498616293E+03  0.16498616293E+03  0.00000000000E+00 0. -1.
         25    1    1    2    0    0  0.14820675622E+03 -0.54559138425E+02  0.71458531814E+02  0.21371304112E+03  0.12500000000E+03 0.  0.
         25    1    1    2    0    0 -0.15633937650E+03 -0.34760860241E+02  0.11622605983E+03  0.23405942629E+03  0.12500000000E+03 0.  0.
         25    1    1    2    0    0  0.81326202817E+01  0.89319998666E+02  0.13440304162E+03  0.20428749171E+03  0.12500000000E+03 0.  0.
</event>
<event>
 5    0  0.5742040E-005  0.2860762E+03  0.7546771E-02  0.1092416E+00
         21   -1    0    0  502  501  0.00000000000E+00  0.00000000000E+00  0.48673328245E+03  0.48673328245E+03  0.00000000000E+00 0.  1.
         21   -1    0    0  501  502 -0.00000000000E+00 -0.00000000000E+00 -0.16814050215E+03  0.16814050215E+03  0.00000000000E+00 0.  1.
         25    1    1    2    0    0 -0.34985451309E+02  0.12509764518E+03  0.15942698773E+03  0.24065611783E+03  0.12500000000E+03 0.  0.
         25    1    1    2    0    0  0.57903625231E+01  0.32607473832E+02 -0.34046311242E+02  0.13371958330E+03  0.12500000000E+03 0.  0.
         25    1    1    2    0    0  0.29195088786E+02 -0.15770511901E+03  0.19321210381E+03  0.28049808347E+03  0.12500000000E+03 0.  0.
</event>
<event>
 5    0  0.5742040E-005  0.2362105E+03  0.7546771E-02  0.1122343E+00
         21   -1    0    0  502  501  0.00000000000E+00  0.00000000000E+00  0.10887577706E+03  0.10887577706E+03  0.00000000000E+00 0.  1.
         21   -1    0    0  501  502 -0.00000000000E+00 -0.00000000000E+00 -0.51246863484E+03  0.51246863484E+03  0.00000000000E+00 0.  1.
         25    1    1    2    0    0  0.15426772389E+02 -0.56369924947E+02 -0.15996215390E+03  0.21125445421E+03  0.12500000000E+03 0.  0.
         25    1    1    2    0    0  0.60556868687E+02 -0.50988568202E+02 -0.98632807994E+02  0.17782125645E+03  0.12500000000E+03 0.  0.
         25    1    1    2    0    0 -0.75983641076E+02  0.10735849315E+03 -0.14499789589E+03  0.23226870124E+03  0.12500000000E+03 0.  0.
</event>
<event>
 5    0  0.5742040E-005  0.2771006E+03  0.7546771E-02  0.1097283E+00
         21   -1    0    0  502  501  0.00000000000E+00  0.00000000000E+00  0.12511223356E+04  0.12511223356E+04  0.00000000000E+00 0. -1.
         21   -1    0    0  501  502 -0.00000000000E+00 -0.00000000000E+00 -0.61372687789E+02  0.61372687789E+02  0.00000000000E+00 0. -1.
         25    1    1    2    0    0 -0.18819201116E+03 -0.18108749118E+02  0.40353127190E+03  0.46282463985E+03  0.12500000000E+03 0.  0.
         25    1    1    2    0    0  0.13038747384E+03  0.29886835554E+02  0.47872274715E+03  0.51253739855E+03  0.12500000000E+03 0.  0.
         25    1    1    2    0    0  0.57804537321E+02 -0.11778086435E+02  0.30749562876E+03  0.33713298498E+03  0.12500000000E+03 0.  0.
</event>
<event>
 5    0  0.6345362E-005  0.2536625E+03  0.7546771E-02  0.1111012E+00
         21   -1    0    0  502  501  0.00000000000E+00  0.00000000000E+00  0.22209754653E+03  0.22209754653E+03  0.00000000000E+00 0. -1.
         21   -1    0    0  501  502 -0.00000000000E+00 -0.00000000000E+00 -0.28971347983E+03  0.28971347983E+03  0.00000000000E+00 0. -1.
         25    1    1    2    0    0 -0.45969632287E+00 -0.68222588955E+02 -0.87074175762E+01  0.14267218399E+03  0.12500000000E+03 0.  0.
         25    1    1    2    0    0 -0.38733600664E+02  0.15658497816E+03 -0.53794203976E+02  0.21104019424E+03  0.12500000000E+03 0.  0.
         25    1    1    2    0    0  0.39193296987E+02 -0.88362389202E+02 -0.51143117434E+01  0.15809864812E+03  0.12500000000E+03 0.  0.
</event>
<event>
 5    0  0.5742040E-005  0.3479041E+03  0.7546771E-02  0.1063479E+00
         21   -1    0    0  502  501  0.00000000000E+00  0.00000000000E+00  0.11793432047E+03  0.11793432047E+03  0.00000000000E+00 0. -1.
         21   -1    0    0  501  502 -0.00000000000E+00 -0.00000000000E+00 -0.10263106278E+04  0.10263106278E+04  0.00000000000E+00 0. -1.
         25    1    1    2    0    0 -0.13074594709E+03  0.12607600304E+02 -0.73314096591E+02  0.19558479242E+03  0.12500000000E+03 0.  0.
         25    1    1    2    0    0  0.18143855962E+03  0.73497154021E+02 -0.70553031537E+03  0.74277843834E+03  0.12500000000E+03 0.  0.
         25    1    1    2    0    0 -0.50692612524E+02 -0.86104754325E+02 -0.12953189534E+03  0.20588171748E+03  0.12500000000E+03 0.  0.
</event>
<event>
 5    0  0.5937804E-005  0.3829191E+03  0.7546771E-02  0.1049860E+00
         21   -1    0    0  502  501  0.00000000000E+00  0.00000000000E+00  0.18829687283E+03  0.18829687283E+03  0.00000000000E+00 0. -1.
         21   -1    0    0  501  502 -0.00000000000E+00 -0.00000000000E+00 -0.77870138767E+03  0.77870138767E+03  0.00000000000E+00 0. -1.
         25    1    1    2    0    0  0.11877707045E+03  0.17685474168E+03 -0.25291770552E+02  0.24829471556E+03  0.12500000000E+03 0.  0.
         25    1    1    2    0    0 -0.60722443217E+02 -0.93589724542E+02 -0.52733089576E+03  0.55330744191E+03  0.12500000000E+03 0.  0.
         25    1    1    2    0    0 -0.58054627236E+02 -0.83265017134E+02 -0.37781848533E+02  0.16539610304E+03  0.12500000000E+03 0.  0.
</event>
<event>
 5    0  0.5742040E-005  0.5745020E+03  0.7546771E-02  0.9959765E-01
         21   -1    0    0  502  501  0.00000000000E+00  0.00000000000E+00  0.17956491601E+04  0.17956491601E+04  0.00000000000E+00 0. -1.
         21   -1    0    0  501  502 -0.00000000000E+00 -0.00000000000E+00 -0.18380683777E+03  0.18380683777E+03  0.00000000000E+00 0. -1.
         25    1    1    2    0    0 -0.31008139343E+02  0.10302154962E+02  0.21321774165E+03  0.24930793100E+03  0.12500000000E+03 0.  0.
         25    1    1    2    0    0  0.33958693142E+03  0.27776507653E+03  0.11194676343E+04  0.12088446989E+04  0.12500000000E+03 0.  0.
         25    1    1    2    0    0 -0.30857879207E+03 -0.28806723149E+03  0.27915694634E+03  0.52130336798E+03  0.12500000000E+03 0.  0.
</event>
<event>
 5    0  0.5742040E-005  0.3015690E+03  0.7546771E-02  0.1084459E+00
         21   -1    0    0  502  501  0.00000000000E+00  0.00000000000E+00  0.83413358453E+03  0.83413358453E+03  0.00000000000E+00 0. -1.
         21   -1    0    0  501  502 -0.00000000000E+00 -0.00000000000E+00 -0.10902790760E+03  0.10902790760E+03  0.00000000000E+00 0. -1.
         25    1    1    2    0    0  0.13534061942E+03 -0.21482457836E+02  0.13723446050E+03  0.23073117780E+03  0.12500000000E+03 0.  0.
         25    1    1    2    0    0 -0.64189688849E+02  0.75300161041E+02  0.73363194551E+02  0.17549241785E+03  0.12500000000E+03 0.  0.
         25    1    1    2    0    0 -0.71150930569E+02 -0.53817703205E+02  0.51450802188E+03  0.53693789648E+03  0.12500000000E+03 0.  0.
</event>
<event>
 5    0  0.6626889E-005  0.2755448E+03  0.7546771E-02  0.1098147E+00
         21   -1    0    0  502  501  0.00000000000E+00  0.00000000000E+00  0.12196731299E+03  0.12196731299E+03  0.00000000000E+00 0.  1.
         21   -1    0    0  501  502 -0.00000000000E+00 -0.00000000000E+00 -0.62250219200E+03  0.62250219200E+03  0.00000000000E+00 0.  1.
         25    1    1    2    0    0 -0.94074604066E+02  0.16016622676E+03 -0.24187691955E+03  0.32959474440E+03  0.12500000000E+03 0.  0.
         25    1    1    2    0    0  0.21853797996E+02 -0.96071825134E+02 -0.86164313813E+02  0.18098804669E+03  0.12500000000E+03 0.  0.
         25    1    1    2    0    0  0.72220806070E+02 -0.64094401625E+02 -0.17249364565E+03  0.23388671390E+03  0.12500000000E+03 0.  0.
</event>
<event>
 5    0  0.5742040E-005  0.3900421E+03  0.7546771E-02  0.1047283E+00
         21   -1    0    0  502  501  0.00000000000E+00  0.00000000000E+00  0.11375496155E+04  0.11375496155E+04  0.00000000000E+00 0.  1.
         21   -1    0    0  501  502 -0.00000000000E+00 -0.00000000000E+00 -0.13373730168E+03  0.13373730168E+03  0.00000000000E+00 0.  1.
         25    1    1    2    0    0 -0.51249506176E+02 -0.86619368391E+02  0.42047785466E+02  0.16589889429E+03  0.12500000000E+03 0.  0.
         25    1    1    2    0    0  0.11003110359E+03  0.25794079621E+03  0.69336322159E+03  0.75829931766E+03  0.12500000000E+03 0.  0.
         25    1    1    2    0    0 -0.58781597416E+02 -0.17132142782E+03  0.26840130673E+03  0.34708870521E+03  0.12500000000E+03 0.  0.
</event>
<event>
 5    0  0.5742040E-005  0.2612286E+03  0.7546771E-02  0.1106407E+00
         21   -1    0    0  502  501  0.00000000000E+00  0.00000000000E+00  0.96835116940E+02  0.96835116940E+02  0.00000000000E+00 0. -1.
         21   -1    0    0  501  502 -0.00000000000E+00 -0.00000000000E+00 -0.70470681269E+03  0.70470681269E+03  0.00000000000E+00 0. -1.
         25    1    1    2    0    0  0.83183110726E+02 -0.49154560270E+02 -0.11806077295E+03  0.19722815928E+03  0.12500000000E+03 0.  0.
         25    1    1    2    0    0 -0.32129009384E+02 -0.11812223678E+02 -0.42186809692E+03  0.44132696843E+03  0.12500000000E+03 0.  0.
         25    1    1    2    0    0 -0.51054101342E+02  0.60966783948E+02 -0.67942825892E+02  0.16298680192E+03  0.12500000000E+03 0.  0.
</event>
<event>
 5    0  0.5742040E-005  0.3325840E+03  0.7546771E-02  0.1069999E+00
         21   -1    0    0  502  501  0.00000000000E+00  0.00000000000E+00  0.18099247402E+04  0.18099247402E+04  0.00000000000E+00 0.  1.
         21   -1    0    0  501  502 -0.00000000000E+00 -0.00000000000E+00 -0.61114200445E+02  0.61114200445E+02  0.00000000000E+00 0.  1.
         25    1    1    2    0    0 -0.50340090343E+02 -0.55800895825E+02  0.20321299735E+03  0.25013673653E+03  0.12500000000E+03 0.  0.
         25    1    1    2    0    0  0.19729504549E+01 -0.26562415969E+02  0.14022806060E+04  0.14080928067E+04  0.12500000000E+03 0.  0.
         25    1    1    2    0    0  0.48367139888E+02  0.82363311794E+02  0.14331693646E+03  0.21280939741E+03  0.12500000000E+03 0.  0.
</event>
<event>
 5    0  0.5742040E-005  0.3499794E+03  0.7546771E-02  0.1062624E+00
         21   -1    0    0  502  501  0.00000000000E+00  0.00000000000E+00  0.12274687761E+03  0.12274687761E+03  0.00000000000E+00 0.  1.
         21   -1    0    0  501  502 -0.00000000000E+00 -0.00000000000E+00 -0.99787099452E+03  0.99787099452E+03  0.00000000000E+00 0.  1.
         25    1    1    2    0    0 -0.14999353322E+03  0.52843608143E+02 -0.35974938011E+03  0.41271675931E+03  0.12500000000E+03 0.  0.
         25    1    1    2    0    0 -0.97539599565E+02 -0.34499984358E+02 -0.34674090542E+03  0.38282956769E+03  0.12500000000E+03 0.  0.
         25    1    1    2    0    0  0.24753313279E+03 -0.18343623786E+02 -0.16863383138E+03  0.32507154512E+03  0.12500000000E+03 0.  0.
</event>
<event>
 5    0  0.5742040E-005  0.4860498E+03  0.7546771E-02  0.1017486E+00
         21   -1    0    0  502  501  0.00000000000E+00  0.00000000000E+00  0.28755893656E+03  0.28755893656E+03  0.00000000000E+00 0.  1.
         21   -1    0    0  501  502 -0.00000000000E+00 -0.00000000000E+00 -0.82155132446E+03  0.82155132446E+03  0.00000000000E+00 0.  1.
         25    1    1    2    0    0  0.24708199186E+03 -0.13758145218E+03 -0.18975199322E+03  0.36277952756E+03  0.12500000000E+03 0.  0.
         25    1    1    2    0    0 -0.41114475158E+03  0.33566755540E+02 -0.21617090972E+03  0.48220493158E+03  0.12500000000E+03 0.  0.
         25    1    1    2    0    0  0.16406275972E+03  0.10401469664E+03 -0.12806948496E+03  0.26412580188E+03  0.12500000000E+03 0.  0.
</event>
<event>
 5    0  0.5742040E-005  0.2867030E+03  0.7546771E-02  0.1092083E+00
         21   -1    0    0  502  501  0.00000000000E+00  0.00000000000E+00  0.12748047280E+04  0.12748047280E+04  0.00000000000E+00 0.  1.
         21   -1    0    0  501  502 -0.00000000000E+00 -0.00000000000E+00 -0.64479356631E+02  0.64479356631E+02  0.00000000000E+00 0.  1.
         25    1    1    2    0    0  0.40135901399E+02 -0.31005560341E+02  0.46546139498E+03  0.48461484250E+03  0.12500000000E+03 0.  0.
         25    1    1    2    0    0  0.13121439338E+03  0.40657854427E+02  0.48343078027E+03  0.51788087188E+03  0.12500000000E+03 0.  0.
         25    1    1    2    0    0 -0.17135029478E+03 -0.96522940860E+01  0.26143319615E+03  0.33678837027E+03  0.12500000000E+03 0.  0.
</event>
<event>
 5    0  0.5742040E-005  0.3762708E+03  0.7546771E-02  0.1052321E+00
         21   -1    0    0  502  501  0.00000000000E+00  0.00000000000E+00  0.15162880990E+03  0.15162880990E+03  0.00000000000E+00 0.  1.
         21   -1    0    0  501  502 -0.00000000000E+00 -0.00000000000E+00 -0.93372589818E+03  0.93372589818E+03  0.00000000000E+00 0.  1.
         25    1    1    2    0    0 -0.10399115600E+03 -0.72911964588E+02 -0.28210925154E+03  0.33367790594E+03  0.12500000000E+03 0.  0.
         25    1    1    2    0    0  0.12253354344E+03 -0.19384381958E+03 -0.28455918046E+03  0.38624968976E+03  0.12500000000E+03 0.  0.
         25    1    1    2    0    0 -0.18542387448E+02  0.26675578417E+03 -0.21542865628E+03  0.36542711238E+03  0.12500000000E+03 0.  0.
</event>
<event>
 5    0  0.6303164E-005  0.3044110E+03  0.7546771E-02  0.1083056E+00
         21   -1    0    0  502  501  0.00000000000E+00  0.00000000000E+00  0.20144715956E+03  0.20144715956E+03  0.00000000000E+00 0.  1.
         21   -1    0    0  501  502 -0.00000000000E+00 -0.00000000000E+00 -0.46000192847E+03  0.46000192847E+03  0.00000000000E+00 0.  1.
         25    1    1    2    0    0  0.15321201550E+03  0.10679272384E+03  0.22271689452E+02  0.22583098926E+03  0.12500000000E+03 0.  0.
         25    1    1    2    0    0 -0.47735923434E+02 -0.10386308969E+03 -0.13909108805E+03  0.21917479454E+03  0.12500000000E+03 0.  0.
         25    1    1    2    0    0 -0.10547609206E+03 -0.29296341485E+01 -0.14173537031E+03  0.21644330424E+03  0.12500000000E+03 0.  0.
</event>
<event>
 5    0  0.5742040E-005  0.2920747E+03  0.7546771E-02  0.1089271E+00
         21   -1    0    0  502  501  0.00000000000E+00  0.00000000000E+00  0.12470643477E+04  0.12470643477E+04  0.00000000000E+00 0.  1.
         21   -1    0    0  501  502 -0.00000000000E+00 -0.00000000000E+00 -0.68406771169E+02  0.68406771169E+02  0.00000000000E+00 0.  1.
         25    1    1    2    0    0 -0.11349457656E+03 -0.45312965625E+02  0.56502779845E+03  0.59145219315E+03  0.12500000000E+03 0.  0.
         25    1    1    2    0    0  0.15034375345E+03  0.11171599976E+03  0.27697426626E+03  0.35696421805E+03  0.12500000000E+03 0.  0.
         25    1    1    2    0    0 -0.36849176889E+02 -0.66403034134E+02  0.33665551187E+03  0.36705470771E+03  0.12500000000E+03 0.  0.
</event>
<event>
 5    0  0.5742040E-005  0.2574612E+03  0.7546771E-02  0.1108678E+00
         21   -1    0    0  502  501  0.00000000000E+00  0.00000000000E+00  0.19382432432E+04  0.19382432432E+04  0.00000000000E+00 0. -1.
         21   -1    0    0  501  502 -0.00000000000E+00 -0.00000000000E+00 -0.34199143947E+02  0.34199143947E+02  0.00000000000E+00 0. -1.
         25    1    1    2    0    0 -0.12627761793E+02 -0.92266001941E+01  0.54336291952E+03  0.55777491233E+03  0.12500000000E+03 0.  0.
         25    1    1    2    0    0  0.45724025623E+02 -0.95436541078E+02  0.30719425722E+03  0.34812660278E+03  0.12500000000E+03 0.  0.
         25    1    1    2    0    0 -0.33096263830E+02  0.10466314127E+03  0.10534869225E+04  0.10665408720E+04  0.12500000000E+03 0.  0.
</event>
<event>
 5    0  0.5742040E-005  0.7691249E+03  0.7546771E-02  0.9605815E-01
         21   -1    0    0  502  501  0.00000000000E+00  0.00000000000E+00  0.11896973259E+04  0.11896973259E+04  0.00000000000E+00 0.  1.
         21   -1    0    0  501  502 -0.00000000000E+00 -0.00000000000E+00 -0.49722996483E+03  0.49722996483E+03  0.00000000000E+00 0.  1.
         25    1    1    2    0    0  0.10791051332E+03 -0.23928273778E+03  0.11811042496E+03  0.31380882710E+03  0.12500000000E+03 0.  0.
         25    1    1    2    0    0  0.54251822806E+03  0.16465064528E+03  0.27736047603E+03  0.64342031086E+03  0.12500000000E+03 0.  0.
         25    1    1    2    0    0 -0.65042874138E+03  0.74632092495E+02  0.29699646007E+03  0.72969815276E+03  0.12500000000E+03 0.  0.
</event>
<event>
 5    0  0.5742040E-005  0.3795248E+03  0.7546771E-02  0.1051110E+00
         21   -1    0    0  502  501  0.00000000000E+00  0.00000000000E+00  0.89569090666E+02  0.89569090666E+02  0.00000000000E+00 0.  1.
         21   -1    0    0  501  502 -0.00000000000E+00 -0.00000000000E+00 -0.16081333077E+04  0.16081333077E+04  0.00000000000E+00 0. -1.
         25    1    1    2    0    0  0.95310143326E+02  0.27168508320E+03 -0.79578342465E+03  0.85544904395E+03  0.12500000000E+03 0.  0.
         25    1    1    2    0    0 -0.10446831451E+03 -0.25823226009E+03 -0.48440132644E+03  0.57259686861E+03  0.12500000000E+03 0.  0.
         25    1    1    2    0    0  0.91581711829E+01 -0.13452823112E+02 -0.23837946592E+03  0.26965648578E+03  0.12500000000E+03 0.  0.
</event>
<event>
 5    0  0.5742040E-005  0.6810830E+03  0.7546771E-02  0.9750141E-01
         21   -1    0    0  502  501  0.00000000000E+00  0.00000000000E+00  0.34885628016E+03  0.34885628016E+03  0.00000000000E+00 0.  1.
         21   -1    0    0  501  502 -0.00000000000E+00 -0.00000000000E+00 -0.13296993996E+04  0.13296993996E+04  0.00000000000E+00 0.  1.
         25    1    1    2    0    0  0.24335644064E+03 -0.93467641947E+02  0.74955666774E+02  0.29866688681E+03  0.12500000000E+03 0.  0.
         25    1    1    2    0    0  0.16175232864E+03  0.14420610576E+03 -0.10095336320E+02  0.25037198840E+03  0.12500000000E+03 0.  0.
         25    1    1    2    0    0 -0.40510876928E+03 -0.50738463808E+02 -0.10457034499E+04  0.11295168046E+04  0.12500000000E+03 0.  0.
</event>
<event>
 5    0  0.5742040E-005  0.4924790E+03  0.7546771E-02  0.1015761E+00
         21   -1    0    0  502  501  0.00000000000E+00  0.00000000000E+00  0.36582143647E+03  0.36582143647E+03  0.00000000000E+00 0.  1.
         21   -1    0    0  501  502 -0.00000000000E+00 -0.00000000000E+00 -0.66298890891E+03  0.66298890891E+03  0.00000000000E+00 0.  1.
         25    1    1    2    0    0  0.82003766249E+02 -0.15859108251E+03 -0.23525895427E+03  0.32069849500E+03  0.12500000000E+03 0.  0.
         25    1    1    2    0    0 -0.44140047931E+02  0.19350044434E+03  0.26527350560E+03  0.35409857182E+03  0.12500000000E+03 0.  0.
         25    1    1    2    0    0 -0.37863718318E+02 -0.34909361826E+02 -0.32718202378E+03  0.35401327855E+03  0.12500000000E+03 0.  0.
</event>
<event>
 5    0  0.5742040E-005  0.2841244E+03  0.7546771E-02  0.1093457E+00
         21   -1    0    0  502  501  0.00000000000E+00  0.00000000000E+00  0.89345176404E+02  0.89345176404E+02  0.00000000000E+00 0. -1.
         21   -1    0    0  501  502 -0.00000000000E+00 -0.00000000000E+00 -0.90353692189E+03  0.90353692189E+03  0.00000000000E+00 0. -1.
         25    1    1    2    0    0  0.55551984027E+02 -0.16995552350E+02 -0.18001511969E+02  0.13901052536E+03  0.12500000000E+03 0.  0.
         25    1    1    2    0    0 -0.90446600122E+02 -0.50300664779E+02 -0.41231122348E+03  0.44309850977E+03  0.12500000000E+03 0.  0.
         25    1    1    2    0    0  0.34894616095E+02  0.67296217128E+02 -0.38387901003E+03  0.41077306316E+03  0.12500000000E+03 0.  0.
</event>
<event>
 5    0  0.5742040E-005  0.3773851E+03  0.7546771E-02  0.1051904E+00
         21   -1    0    0  502  501  0.00000000000E+00  0.00000000000E+00  0.18248639768E+03  0.18248639768E+03  0.00000000000E+00 0. -1.
         21   -1    0    0  501  502 -0.00000000000E+00 -0.00000000000E+00 -0.78043914736E+03  0.78043914736E+03  0.00000000000E+00 0. -1.
         25    1    1    2    0    0 -0.38130902335E+02  0.89237409403E+02 -0.25897344125E+03  0.30349550940E+03  0.12500000000E+03 0.  0.
         25    1    1    2    0    0  0.17813756622E+03 -0.23958202505E+03 -0.17068433526E+03  0.36591075624E+03  0.12500000000E+03 0.  0.
         25    1    1    2    0    0 -0.14000666389E+03  0.15034461565E+03 -0.16829497316E+03  0.29351927940E+03  0.12500000000E+03 0.  0.
</event>
<event>
 5    0  0.5742040E-005  0.2590905E+03  0.7546771E-02  0.1107691E+00
         21   -1    0    0  502  501  0.00000000000E+00  0.00000000000E+00  0.80769100329E+03  0.80769100329E+03  0.00000000000E+00 0. -1.
         21   -1    0    0  501  502 -0.00000000000E+00 -0.00000000000E+00 -0.83110837714E+02  0.83110837714E+02  0.00000000000E+00 0. -1.
         25    1    1    2    0    0 -0.54482944461E+02 -0.11139331343E+03  0.28548172288E+03  0.33541269447E+03  0.12500000000E+03 0.  0.
         25    1    1    2    0    0 -0.64530123161E+02  0.44716235415E+02  0.25332519400E+03  0.29319333625E+03  0.12500000000E+03 0.  0.
         25    1    1    2    0    0  0.11901306762E+03  0.66677078018E+02  0.18577324868E+03  0.26219581027E+03  0.12500000000E+03 0.  0.
</event>
<event>
 5    0  0.5742040E-005  0.3558300E+03  0.7546771E-02  0.1060247E+00
         21   -1    0    0  502  501  0.00000000000E+00  0.00000000000E+00  0.21574913279E+04  0.21574913279E+04  0.00000000000E+00 0. -1.
         21   -1    0    0  501  502 -0.00000000000E+00 -0.00000000000E+00 -0.58686210134E+02  0.58686210134E+02  0.00000000000E+00 0. -1.
         25    1    1    2    0    0 -0.92142684472E+02 -0.62945457646E+02  0.11890327516E+04  0.12007815327E+04  0.12500000000E+03 0.  0.
         25    1    1    2    0    0  0.22016354924E+03  0.12616232713E+02  0.63436450460E+03  0.68313577160E+03  0.12500000000E+03 0.  0.
         25    1    1    2    0    0 -0.12802086476E+03  0.50329224933E+02  0.27540786156E+03  0.33226023371E+03  0.12500000000E+03 0.  0.
</event>
<event>
 5    0  0.5742040E-005  0.3055058E+03  0.7546771E-02  0.1082520E+00
         21   -1    0    0  502  501  0.00000000000E+00  0.00000000000E+00  0.16237987875E+03  0.16237987875E+03  0.00000000000E+00 0. -1.
         21   -1    0    0  501  502 -0.00000000000E+00 -0.00000000000E+00 -0.57478660524E+03  0.57478660524E+03  0.00000000000E+00 0. -1.
         25    1    1    2    0    0 -0.13422526861E+03 -0.18004180867E+03 -0.17400663962E+03  0.31037845646E+03  0.12500000000E+03 0.  0.
         25    1    1    2    0    0  0.37894641618E+02  0.97738244147E+02 -0.57405657331E+02  0.17294270070E+03  0.12500000000E+03 0.  0.
         25    1    1    2    0    0  0.96330626993E+02  0.82303564519E+02 -0.18099442954E+03  0.25384532683E+03  0.12500000000E+03 0.  0.
</event>
<event>
 5    0  0.5742040E-005  0.2491785E+03  0.7546771E-02  0.1113825E+00
         21   -1    0    0  502  501  0.00000000000E+00  0.00000000000E+00  0.43871469004E+03  0.43871469004E+03  0.00000000000E+00 0.  1.
         21   -1    0    0  501  502 -0.00000000000E+00 -0.00000000000E+00 -0.14152689903E+03  0.14152689903E+03  0.00000000000E+00 0.  1.
         25    1    1    2    0    0 -0.40427126226E+02  0.72950795768E+02  0.68057537808E+02  0.16496363111E+03  0.12500000000E+03 0.  0.
         25    1    1    2    0    0  0.11209991024E+03 -0.37501142656E+02  0.20043191076E+03  0.26414139476E+03  0.12500000000E+03 0.  0.
         25    1    1    2    0    0 -0.71672784013E+02 -0.35449653112E+02  0.28698342448E+02  0.15113656319E+03  0.12500000000E+03 0.  0.
</event>
<event>
 5    0  0.5742040E-005  0.2657655E+03  0.7546771E-02  0.1103728E+00
         21   -1    0    0  502  501  0.00000000000E+00  0.00000000000E+00  0.31491471097E+02  0.31491471097E+02  0.00000000000E+00 0. -1.
         21   -1    0    0  501  502 -0.00000000000E+00 -0.00000000000E+00 -0.22428710596E+04  0.22428710596E+04  0.00000000000E+00 0. -1.
         25    1    1    2    0    0 -0.52376919432E+02  0.17051679499E+02 -0.52541667022E+03  0.54288284078E+03  0.12500000000E+03 0.  0.
         25    1    1    2    0    0 -0.99301015811E+02 -0.81822213768E+02 -0.61153529719E+03  0.63730368438E+03  0.12500000000E+03 0.  0.
         25    1    1    2    0    0  0.15167793524E+03  0.64770534269E+02 -0.10744276211E+04  0.10941760055E+04  0.12500000000E+03 0.  0.
</event>
<event>
 5    0  0.5742040E-005  0.3316381E+03  0.7546771E-02  0.1070414E+00
         21   -1    0    0  502  501  0.00000000000E+00  0.00000000000E+00  0.17424177309E+04  0.17424177309E+04  0.00000000000E+00 0.  1.
         21   -1    0    0  501  502 -0.00000000000E+00 -0.00000000000E+00 -0.63121372984E+02  0.63121372984E+02  0.00000000000E+00 0.  1.
         25    1    1    2    0    0  0.68430765372E+02  0.11967178403E+03  0.11081099064E+04  0.11236265707E+04  0.12500000000E+03 0.  0.
         25    1    1    2    0    0  0.56893823678E+02  0.28598193379E+02  0.18867980249E+03  0.23511663426E+03  0.12500000000E+03 0.  0.
         25    1    1    2    0    0 -0.12532458905E+03 -0.14826997741E+03  0.38250664904E+03  0.44679589902E+03  0.12500000000E+03 0.  0.
</event>
<event>
 5    0  0.5813517E-005  0.3081388E+03  0.7546771E-02  0.1081241E+00
         21   -1    0    0  502  501  0.00000000000E+00  0.00000000000E+00  0.28833531691E+03  0.28833531691E+03  0.00000000000E+00 0. -1.
         21   -1    0    0  501  502 -0.00000000000E+00 -0.00000000000E+00 -0.32930236167E+03  0.32930236167E+03  0.00000000000E+00 0. -1.
         25    1    1    2    0    0  0.72209228023E+02  0.90493976872E+01 -0.14894676289E+03  0.20762033230E+03  0.12500000000E+03 0.  0.
         25    1    1    2    0    0 -0.58468899659E+02  0.14252395505E+03  0.60878536908E+02  0.20751599034E+03  0.12500000000E+03 0.  0.
         25    1    1    2    0    0 -0.13740328364E+02 -0.15157335274E+03  0.47101181223E+02  0.20250135594E+03  0.12500000000E+03 0.  0.
</event>
<event>
 5    0  0.5742040E-005  0.3439468E+03  0.7546771E-02  0.1065127E+00
         21   -1    0    0  502  501  0.00000000000E+00  0.00000000000E+00  0.35003214575E+03  0.35003214575E+03  0.00000000000E+00 0.  1.
         21   -1    0    0  501  502 -0.00000000000E+00 -0.00000000000E+00 -0.33796721626E+03  0.33796721626E+03  0.00000000000E+00 0.  1.
         25    1    1    2    0    0  0.16047576270E+03 -0.45512440382E+02 -0.11627069599E+03  0.23867913061E+03  0.12500000000E+03 0.  0.
         25    1    1    2    0    0 -0.13113813140E+03  0.16476548525E+03  0.25677686836E+02  0.24623001084E+03  0.12500000000E+03 0.  0.
         25    1    1    2    0    0 -0.29337631308E+02 -0.11925304487E+03  0.10265793865E+03  0.20309022056E+03  0.12500000000E+03 0.  0.
</event>
<event>
 5    0  0.5742040E-005  0.2991128E+03  0.7546771E-02  0.1085685E+00
         21   -1    0    0  502  501  0.00000000000E+00  0.00000000000E+00  0.23780340338E+03  0.23780340338E+03  0.00000000000E+00 0.  1.
         21   -1    0    0  501  502 -0.00000000000E+00 -0.00000000000E+00 -0.37622882623E+03  0.37622882623E+03  0.00000000000E+00 0.  1.
         25    1    1    2    0    0 -0.16391030186E+03  0.51069307430E+02 -0.16390028411E+03  0.26825913656E+03  0.12500000000E+03 0.  0.
         25    1    1    2    0    0  0.78252793391E+02 -0.10421999406E+03 -0.11632652747E+02  0.18095752387E+03  0.12500000000E+03 0.  0.
         25    1    1    2    0    0  0.85657508467E+02  0.53150686633E+02  0.37107514007E+02  0.16481556917E+03  0.12500000000E+03 0.  0.
</event>
<event>
 5    0  0.5742040E-005  0.3188992E+03  0.7546771E-02  0.1076157E+00
         21   -1    0    0  502  501  0.00000000000E+00  0.00000000000E+00  0.68314313357E+03  0.68314313357E+03  0.00000000000E+00 0.  1.
         21   -1    0    0  501  502 -0.00000000000E+00 -0.00000000000E+00 -0.14886587714E+03  0.14886587714E+03  0.00000000000E+00 0.  1.
         25    1    1    2    0    0 -0.31819156356E+02 -0.54080958538E+02  0.23931656053E+03  0.27719059315E+03  0.12500000000E+03 0.  0.
         25    1    1    2    0    0  0.10891780163E+03 -0.14363625547E+03  0.17631153164E+03  0.28143421538E+03  0.12500000000E+03 0.  0.
         25    1    1    2    0    0 -0.77098645269E+02  0.19771721401E+03  0.11864916426E+03  0.27338420218E+03  0.12500000000E+03 0.  0.
</event>
<event>
 5    0  0.7103582E-005  0.3929568E+03  0.7546771E-02  0.1046246E+00
         21   -1    0    0  502  501  0.00000000000E+00  0.00000000000E+00  0.34384051439E+03  0.34384051439E+03  0.00000000000E+00 0. -1.
         21   -1    0    0  501  502 -0.00000000000E+00 -0.00000000000E+00 -0.44908908679E+03  0.44908908679E+03  0.00000000000E+00 0. -1.
         25    1    1    2    0    0  0.15149508399E+03 -0.11266353055E+03 -0.38591419665E+02  0.22969137829E+03  0.12500000000E+03 0.  0.
         25    1    1    2    0    0  0.11334705168E+03  0.17382866242E+03 -0.10024756844E+03  0.26218034438E+03  0.12500000000E+03 0.  0.
         25    1    1    2    0    0 -0.26484213567E+03 -0.61165131870E+02  0.33590415695E+02  0.30105787851E+03  0.12500000000E+03 0.  0.
</event>
<event>
 5    0  0.5742040E-005  0.2657495E+03  0.7546771E-02  0.1103737E+00
         21   -1    0    0  502  501  0.00000000000E+00  0.00000000000E+00  0.20840398843E+03  0.20840398843E+03  0.00000000000E+00 0. -1.
         21   -1    0    0  501  502 -0.00000000000E+00 -0.00000000000E+00 -0.33887449009E+03  0.33887449009E+03  0.00000000000E+00 0. -1.
         25    1    1    2    0    0  0.67715566478E+01  0.84506609791E+00  0.12659190599E+02  0.12582457321E+03  0.12500000000E+03 0.  0.
         25    1    1    2    0    0 -0.41597840134E+02  0.21708602296E+01  0.86545998064E+02  0.15763978787E+03  0.12500000000E+03 0.  0.
         25    1    1    2    0    0  0.34826283486E+02 -0.30159263275E+01 -0.22967569032E+03  0.26381411744E+03  0.12500000000E+03 0.  0.
</event>
<event>
 5    0  0.5742040E-005  0.2267576E+03  0.7546771E-02  0.1128943E+00
         21   -1    0    0  502  501  0.00000000000E+00  0.00000000000E+00  0.17751050791E+03  0.17751050791E+03  0.00000000000E+00 0. -1.
         21   -1    0    0  501  502 -0.00000000000E+00 -0.00000000000E+00 -0.28966742843E+03  0.28966742843E+03  0.00000000000E+00 0. -1.
         25    1    1    2    0    0  0.60731364443E+01 -0.98226026320E+01 -0.13111332104E+02  0.12621518743E+03  0.12500000000E+03 0.  0.
         25    1    1    2    0    0  0.37154049143E+02  0.39768202516E+02  0.44574134460E+02  0.14343565373E+03  0.12500000000E+03 0.  0.
         25    1    1    2    0    0 -0.43227185587E+02 -0.29945599884E+02 -0.14361972288E+03  0.19752709517E+03  0.12500000000E+03 0.  0.
</event>
<event>
 5    0  0.5742040E-005  0.2622900E+03  0.7546771E-02  0.1105775E+00
         21   -1    0    0  502  501  0.00000000000E+00  0.00000000000E+00  0.18465317177E+03  0.18465317177E+03  0.00000000000E+00 0. -1.
         21   -1    0    0  501  502 -0.00000000000E+00 -0.00000000000E+00 -0.37256909425E+03  0.37256909425E+03  0.00000000000E+00 0. -1.
         25    1    1    2    0    0  0.98615208636E+02 -0.12899632433E+03 -0.94454988571E+02  0.22563633557E+03  0.12500000000E+03 0.  0.
         25    1    1    2    0    0 -0.44932937765E+02  0.27093910806E+02  0.40546770432E+01  0.13562628545E+03  0.12500000000E+03 0.  0.
         25    1    1    2    0    0 -0.53682270871E+02  0.10190241352E+03 -0.97515610953E+02  0.19595964500E+03  0.12500000000E+03 0.  0.
</event>
<event>
 5    0  0.7937556E-005  0.4167276E+03  0.7546771E-02  0.1038137E+00
         21   -1    0    0  502  501  0.00000000000E+00  0.00000000000E+00  0.30027367446E+03  0.30027367446E+03  0.00000000000E+00 0.  1.
         21   -1    0    0  501  502 -0.00000000000E+00 -0.00000000000E+00 -0.57834539532E+03  0.57834539532E+03  0.00000000000E+00 0.  1.
         25    1    1    2    0    0 -0.11005891391E+03 -0.78195846691E+02 -0.21478066240E+03  0.28281316785E+03  0.12500000000E+03 0.  0.
         25    1    1    2    0    0  0.14782749062E+03 -0.19057577861E+03 -0.11052971834E+03  0.29328128650E+03  0.12500000000E+03 0.  0.
         25    1    1    2    0    0 -0.37768576716E+02  0.26877162530E+03  0.47238659878E+02  0.30252461543E+03  0.12500000000E+03 0.  0.
</event>
<event>
 5    0  0.5742040E-005  0.3542302E+03  0.7546771E-02  0.1060892E+00
         21   -1    0    0  502  501  0.00000000000E+00  0.00000000000E+00  0.31475321207E+03  0.31475321207E+03  0.00000000000E+00 0. -1.
         21   -1    0    0  501  502 -0.00000000000E+00 -0.00000000000E+00 -0.39865840018E+03  0.39865840018E+03  0.00000000000E+00 0. -1.
         25    1    1    2    0    0 -0.10084375566E+02  0.15855520426E+03 -0.83034186731E+02  0.21854318474E+03  0.12500000000E+03 0.  0.
         25    1    1    2    0    0 -0.19771507312E+02 -0.11647955208E+03 -0.19389505156E+03  0.25918852130E+03  0.12500000000E+03 0.  0.
         25    1    1    2    0    0  0.29855882878E+02 -0.42075652179E+02  0.19302405018E+03  0.23567990622E+03  0.12500000000E+03 0.  0.
</event>
<event>
 5    0  0.5742040E-005  0.2540099E+03  0.7546771E-02  0.1110797E+00
         21   -1    0    0  502  501  0.00000000000E+00  0.00000000000E+00  0.15864341674E+04  0.15864341674E+04  0.00000000000E+00 0. -1.
         21   -1    0    0  501  502 -0.00000000000E+00 -0.00000000000E+00 -0.40670458292E+02  0.40670458292E+02  0.00000000000E+00 0. -1.
         25    1    1    2    0    0 -0.44288620958E+02  0.79572909323E+02  0.52146031612E+03  0.54391101399E+03  0.12500000000E+03 0.  0.
         25    1    1    2    0    0 -0.68864060534E+02 -0.40740745052E+02  0.25839220021E+03  0.29798254356E+03  0.12500000000E+03 0.  0.
         25    1    1    2    0    0  0.11315268149E+03 -0.38832164272E+02  0.76591119277E+03  0.78521106813E+03  0.12500000000E+03 0.  0.
</event>
<event>
 5    0  0.5742040E-005  0.4427609E+03  0.7546771E-02  0.1029903E+00
         21   -1    0    0  502  501  0.00000000000E+00  0.00000000000E+00  0.34205647579E+04  0.34205647579E+04  0.00000000000E+00 0.  1.
         21   -1    0    0  501  502 -0.00000000000E+00 -0.00000000000E+00 -0.57311367392E+02  0.57311367392E+02  0.00000000000E+00 0.  1.
         25    1    1    2    0    0 -0.71597324924E+02 -0.31563453607E+02  0.13618022961E+04  0.13697638199E+04  0.12500000000E+03 0.  0.
         25    1    1    2    0    0  0.18337133209E+03 -0.22439087689E+03  0.13772211656E+04  0.14129187698E+04  0.12500000000E+03 0.  0.
         25    1    1    2    0    0 -0.11177400717E+03  0.25595433049E+03  0.62422992886E+03  0.69519353569E+03  0.12500000000E+03 0.  0.
</event>
<event>
 5    0  0.5742040E-005  0.2674635E+03  0.7546771E-02  0.1102740E+00
         21   -1    0    0  502  501  0.00000000000E+00  0.00000000000E+00  0.32736035048E+03  0.32736035048E+03  0.00000000000E+00 0.  1.
         21   -1    0    0  501  502 -0.00000000000E+00 -0.00000000000E+00 -0.21852593263E+03  0.21852593263E+03  0.00000000000E+00 0.  1.
         25    1    1    2    0    0  0.92512529336E+02 -0.85872375309E+02  0.16236629361E+02  0.17838514809E+03  0.12500000000E+03 0.  0.
         25    1    1    2    0    0 -0.57235304802E+02 -0.64308755354E+02  0.71665243244E+02  0.16784636791E+03  0.12500000000E+03 0.  0.
         25    1    1    2    0    0 -0.35277224534E+02  0.15018113066E+03  0.20932545246E+02  0.19965476711E+03  0.12500000000E+03 0.  0.
</event>
<event>
 5    0  0.5742040E-005  0.5155009E+03  0.7546771E-02  0.1009810E+00
         21   -1    0    0  502  501  0.00000000000E+00  0.00000000000E+00  0.33677443548E+03  0.33677443548E+03  0.00000000000E+00 0. -1.
         21   -1    0    0  501  502 -0.00000000000E+00 -0.00000000000E+00 -0.78907777682E+03  0.78907777682E+03  0.00000000000E+00 0. -1.
         25    1    1    2    0    0 -0.29704417291E+03 -0.75877358480E+01  0.35530315021E+02  0.32431499762E+03  0.12500000000E+03 0.  0.
         25    1    1    2    0    0  0.37701543280E+03 -0.14349811585E+03 -0.29528038861E+03  0.51531335489E+03  0.12500000000E+03 0.  0.
         25    1    1    2    0    0 -0.79971259899E+02  0.15108585170E+03 -0.19255326775E+03  0.28622385979E+03  0.12500000000E+03 0.  0.
</event>
<event>
 5    0  0.5742040E-005  0.2977158E+03  0.7546771E-02  0.1086388E+00
         21   -1    0    0  502  501  0.00000000000E+00  0.00000000000E+00  0.75130022236E+02  0.75130022236E+02  0.00000000000E+00 0.  1.
         21   -1    0    0  501  502 -0.00000000000E+00 -0.00000000000E+00 -0.11797506500E+04  0.11797506500E+04  0.00000000000E+00 0.  1.
         25    1    1    2    0    0 -0.10234016942E+03  0.14146221249E+03 -0.26464891009E+03  0.34080656310E+03  0.12500000000E+03 0.  0.
         25    1    1    2    0    0  0.92366517053E+01 -0.42066891209E+02 -0.15084810144E+03  0.20058686093E+03  0.12500000000E+03 0.  0.
         25    1    1    2    0    0  0.93103517717E+02 -0.99395321279E+02 -0.68912361627E+03  0.71348724825E+03  0.12500000000E+03 0.  0.
</event>
<event>
 5    0  0.5742040E-005  0.3503296E+03  0.7546771E-02  0.1062480E+00
         21   -1    0    0  502  501  0.00000000000E+00  0.00000000000E+00  0.17114034929E+04  0.17114034929E+04  0.00000000000E+00 0. -1.
         21   -1    0    0  501  502 -0.00000000000E+00 -0.00000000000E+00 -0.71713571015E+02  0.71713571015E+02  0.00000000000E+00 0. -1.
         25    1    1    2    0    0  0.50801761062E+01  0.86244292617E+02  0.56674703104E+02  0.16217554739E+03  0.12500000000E+03 0.  0.
         25    1    1    2    0    0 -0.84413683730E+02  0.22984674611E+02  0.93288640702E+03  0.94528091786E+03  0.12500000000E+03 0.  0.
         25    1    1    2    0    0  0.79333507623E+02 -0.10922896723E+03  0.65012881181E+03  0.67566059871E+03  0.12500000000E+03 0.  0.
</event>
<event>
 5    0  0.6900078E-005  0.4524467E+03  0.7546771E-02  0.1026995E+00
         21   -1    0    0  502  501  0.00000000000E+00  0.00000000000E+00  0.27631421271E+03  0.27631421271E+03  0.00000000000E+00 0. -1.
         21   -1    0    0  501  502 -0.00000000000E+00 -0.00000000000E+00 -0.74085243587E+03  0.74085243587E+03  0.00000000000E+00 0. -1.
         25    1    1    2    0    0  0.29224275630E+03  0.89980823279E+02 -0.22476713440E+03  0.39955930958E+03  0.12500000000E+03 0.  0.
         25    1    1    2    0    0 -0.20280278302E+03 -0.67779984541E+02 -0.34884473593E+03  0.42783261317E+03  0.12500000000E+03 0.  0.
         25    1    1    2    0    0 -0.89439973278E+02 -0.22200838737E+02  0.10907364717E+03  0.18977472584E+03  0.12500000000E+03 0.  0.
</event>
<event>
 5    0  0.5742040E-005  0.2615925E+03  0.7546771E-02  0.1106190E+00
         21   -1    0    0  502  501  0.00000000000E+00  0.00000000000E+00  0.14256659872E+04  0.14256659872E+04  0.00000000000E+00 0. -1.
         21   -1    0    0  501  502 -0.00000000000E+00 -0.00000000000E+00 -0.47999057694E+02  0.47999057694E+02  0.00000000000E+00 0. -1.
         25    1    1    2    0    0 -0.40085755051E+02 -0.49550930000E+02  0.15609817626E+03  0.20988997845E+03  0.12500000000E+03 0.  0.
         25    1    1    2    0    0 -0.28857523068E+02 -0.32461152163E+02  0.80586748265E+03  0.81666020023E+03  0.12500000000E+03 0.  0.
         25    1    1    2    0    0  0.68943278119E+02  0.82012082163E+02  0.41570127057E+03  0.44711486619E+03  0.12500000000E+03 0.  0.
</event>
<event>
 5    0  0.5742040E-005  0.2525245E+03  0.7546771E-02  0.1111720E+00
         21   -1    0    0  502  501  0.00000000000E+00  0.00000000000E+00  0.86128508257E+03  0.86128508257E+03  0.00000000000E+00 0.  1.
         21   -1    0    0  501  502 -0.00000000000E+00 -0.00000000000E+00 -0.74038937409E+02  0.74038937409E+02  0.00000000000E+00 0.  1.
         25    1    1    2    0    0  0.28428214945E+02 -0.75876315535E+02  0.43488254299E+03  0.45968816045E+03  0.12500000000E+03 0.  0.
         25    1    1    2    0    0  0.22362740711E+02 -0.40620994886E+02  0.99976953168E+02  0.16664497761E+03  0.12500000000E+03 0.  0.
         25    1    1    2    0    0 -0.50790955656E+02  0.11649731042E+03  0.25238664900E+03  0.30899088192E+03  0.12500000000E+03 0.  0.
</event>
<event>
 5    0  0.5742040E-005  0.2567167E+03  0.7546771E-02  0.1109132E+00
         21   -1    0    0  502  501  0.00000000000E+00  0.00000000000E+00  0.68179340108E+03  0.68179340108E+03  0.00000000000E+00 0. -1.
         21   -1    0    0  501  502 -0.00000000000E+00 -0.00000000000E+00 -0.96661950902E+02  0.96661950902E+02  0.00000000000E+00 0. -1.
         25    1    1    2    0    0  0.81078814681E+01 -0.12444415419E+03  0.12324932983E+03  0.21533109984E+03  0.12500000000E+03 0.  0.
         25    1    1    2    0    0 -0.64361528246E+02  0.60456317547E+02  0.32449025714E+03  0.35877053896E+03  0.12500000000E+03 0.  0.
         25    1    1    2    0    0  0.56253646778E+02  0.63987836646E+02  0.13739186321E+03  0.20435371318E+03  0.12500000000E+03 0.  0.
</event>
<event>
 5    0  0.5742040E-005  0.4552674E+03  0.7546771E-02  0.1026163E+00
         21   -1    0    0  502  501  0.00000000000E+00  0.00000000000E+00  0.94186064618E+03  0.94186064618E+03  0.00000000000E+00 0. -1.
         21   -1    0    0  501  502 -0.00000000000E+00 -0.00000000000E+00 -0.22006269071E+03  0.22006269071E+03  0.00000000000E+00 0. -1.
         25    1    1    2    0    0  0.57769634908E+02 -0.86168099549E+01 -0.87111939559E+02  0.16317190366E+03  0.12500000000E+03 0.  0.
         25    1    1    2    0    0 -0.16339883378E+01  0.19238633170E+03  0.93920577512E+02  0.24791378627E+03  0.12500000000E+03 0.  0.
         25    1    1    2    0    0 -0.56135646570E+02 -0.18376952174E+03  0.71498931752E+03  0.75083764696E+03  0.12500000000E+03 0.  0.
</event>
<event>
 5    0  0.5742040E-005  0.3677993E+03  0.7546771E-02  0.1055538E+00
         21   -1    0    0  502  501  0.00000000000E+00  0.00000000000E+00  0.76265020664E+02  0.76265020664E+02  0.00000000000E+00 0.  1.
         21   -1    0    0  501  502 -0.00000000000E+00 -0.00000000000E+00 -0.17737667786E+04  0.17737667786E+04  0.00000000000E+00 0.  1.
         25    1    1    2    0    0 -0.20724034908E+03  0.63555448463E+02 -0.43199019209E+03  0.49922778707E+03  0.12500000000E+03 0.  0.
         25    1    1    2    0    0  0.62262961350E+02 -0.18444433977E+03 -0.80601595376E+03  0.83856014009E+03  0.12500000000E+03 0.  0.
         25    1    1    2    0    0  0.14497738773E+03  0.12088889131E+03 -0.45949561213E+03  0.51224387216E+03  0.12500000000E+03 0.  0.
</event>
<event>
 5    0  0.5742040E-005  0.4035794E+03  0.7546771E-02  0.1042547E+00
         21   -1    0    0  502  501  0.00000000000E+00  0.00000000000E+00  0.52989589538E+03  0.52989589538E+03  0.00000000000E+00 0.  1.
         21   -1    0    0  501  502 -0.00000000000E+00 -0.00000000000E+00 -0.30737419900E+03  0.30737419900E+03  0.00000000000E+00 0.  1.
         25    1    1    2    0    0  0.12182501923E+03 -0.46320869308E+02  0.36170289929E+03  0.40427830216E+03  0.12500000000E+03 0.  0.
         25    1    1    2    0    0 -0.26236115238E+02  0.39476512863E+01 -0.21744100701E+03  0.25220925681E+03  0.12500000000E+03 0.  0.
         25    1    1    2    0    0 -0.95588903995E+02  0.42373218022E+02  0.78259804096E+02  0.18078253541E+03  0.12500000000E+03 0.  0.
</event>
<event>
 5    0  0.5742040E-005  0.2692514E+03  0.7546771E-02  0.1101709E+00
         21   -1    0    0  502  501  0.00000000000E+00  0.00000000000E+00  0.88539861140E+03  0.88539861140E+03  0.00000000000E+00 0. -1.
         21   -1    0    0  501  502 -0.00000000000E+00 -0.00000000000E+00 -0.81879873094E+02  0.81879873094E+02  0.00000000000E+00 0. -1.
         25    1    1    2    0    0  0.46738982876E+02  0.63016510315E+02  0.11863304421E+03  0.18935261359E+03  0.12500000000E+03 0.  0.
         25    1    1    2    0    0  0.43904612937E+02 -0.14241318308E+03  0.33648093518E+03  0.38865608125E+03  0.12500000000E+03 0.  0.
         25    1    1    2    0    0 -0.90643595813E+02  0.79396672762E+02  0.34840475891E+03  0.38926978965E+03  0.12500000000E+03 0.  0.
</event>
<event>
 5    0  0.6431711E-005  0.2563091E+03  0.7546771E-02  0.1109381E+00
         21   -1    0    0  502  501  0.00000000000E+00  0.00000000000E+00  0.16857006592E+03  0.16857006592E+03  0.00000000000E+00 0. -1.
         21   -1    0    0  501  502 -0.00000000000E+00 -0.00000000000E+00 -0.38971528097E+03  0.38971528097E+03  0.00000000000E+00 0. -1.
         25    1    1    2    0    0 -0.15777969427E+03 -0.64514502067E+01 -0.57237746780E+02  0.20937338128E+03  0.12500000000E+03 0.  0.
         25    1    1    2    0    0  0.31521610583E+02  0.89023816324E+00 -0.85090892336E+02  0.15446638604E+03  0.12500000000E+03 0.  0.
         25    1    1    2    0    0  0.12625808368E+03  0.55612120435E+01 -0.78816575934E+02  0.19444557958E+03  0.12500000000E+03 0.  0.
</event>
<event>
 5    0  0.5945774E-005  0.3017238E+03  0.7546771E-02  0.1084382E+00
         21   -1    0    0  502  501  0.00000000000E+00  0.00000000000E+00  0.13380173200E+03  0.13380173200E+03  0.00000000000E+00 0.  1.
         21   -1    0    0  501  502 -0.00000000000E+00 -0.00000000000E+00 -0.68038937731E+03  0.68038937731E+03  0.00000000000E+00 0.  1.
         25    1    1    2    0    0 -0.56994394166E+02  0.44079392569E+02 -0.27482321992E+02  0.14687284241E+03  0.12500000000E+03 0.  0.
         25    1    1    2    0    0  0.96286644579E+02 -0.17043833887E+03 -0.34149282181E+03  0.41299236389E+03  0.12500000000E+03 0.  0.
         25    1    1    2    0    0 -0.39292250413E+02  0.12635894630E+03 -0.17761250151E+03  0.25432590302E+03  0.12500000000E+03 0.  0.
</event>
<event>
 5    0  0.5742040E-005  0.3828127E+03  0.7546771E-02  0.1049899E+00
         21   -1    0    0  502  501  0.00000000000E+00  0.00000000000E+00  0.79093898626E+03  0.79093898626E+03  0.00000000000E+00 0.  1.
         21   -1    0    0  501  502 -0.00000000000E+00 -0.00000000000E+00 -0.18528044956E+03  0.18528044956E+03  0.00000000000E+00 0.  1.
         25    1    1    2    0    0  0.16920878535E+03 -0.12363305878E+03  0.10155049742E+03  0.26429954557E+03  0.12500000000E+03 0.  0.
         25    1    1    2    0    0 -0.20766721196E+03  0.29705841590E+02  0.49342837189E+03  0.55054942207E+03  0.12500000000E+03 0.  0.
         25    1    1    2    0    0  0.38458426608E+02  0.93927217191E+02  0.10679667392E+02  0.16137046818E+03  0.12500000000E+03 0.  0.
</event>
<event>
 5    0  0.5742040E-005  0.4221605E+03  0.7546771E-02  0.1036365E+00
         21   -1    0    0  502  501  0.00000000000E+00  0.00000000000E+00  0.32926410507E+03  0.32926410507E+03  0.00000000000E+00 0. -1.
         21   -1    0    0  501  502 -0.00000000000E+00 -0.00000000000E+00 -0.54126608127E+03  0.54126608127E+03  0.00000000000E+00 0. -1.
         25    1    1    2    0    0  0.28024794493E+03 -0.61730226100E+02  0.34956681798E+02  0.31495476033E+03  0.12500000000E+03 0.  0.
         25    1    1    2    0    0 -0.27626729837E+03  0.15148605373E+03 -0.20455719089E+03  0.39590439372E+03  0.12500000000E+03 0.  0.
         25    1    1    2    0    0 -0.39806465550E+01 -0.89755827628E+02 -0.42401467114E+02  0.15967103229E+03  0.12500000000E+03 0.  0.
</event>
<event>
 5    0  0.5742040E-005  0.3860838E+03  0.7546771E-02  0.1048708E+00
         21   -1    0    0  502  501  0.00000000000E+00  0.00000000000E+00  0.49399783642E+03  0.49399783642E+03  0.00000000000E+00 0. -1.
         21   -1    0    0  501  502 -0.00000000000E+00 -0.00000000000E+00 -0.30174358174E+03  0.30174358174E+03  0.00000000000E+00 0. -1.
         25    1    1    2    0    0  0.24254924871E+02  0.91206997250E+02  0.11280792379E+03  0.19302239610E+03  0.12500000000E+03 0.  0.
         25    1    1    2    0    0  0.18051846329E+01 -0.27508015828E+03  0.18597776515E+03  0.35480287668E+03  0.12500000000E+03 0.  0.
         25    1    1    2    0    0 -0.26060109503E+02  0.18387316103E+03 -0.10653143426E+03  0.24791614538E+03  0.12500000000E+03 0.  0.
</event>
<event>
 5    0  0.5742040E-005  0.3920802E+03  0.7546771E-02  0.1046557E+00
         21   -1    0    0  502  501  0.00000000000E+00  0.00000000000E+00  0.65083677349E+02  0.65083677349E+02  0.00000000000E+00 0. -1.
         21   -1    0    0  501  502 -0.00000000000E+00 -0.00000000000E+00 -0.23619885720E+04  0.23619885720E+04  0.00000000000E+00 0. -1.
         25    1    1    2    0    0  0.15625361642E+03 -0.69274908749E+02 -0.10362775724E+04  0.10576910762E+04  0.12500000000E+03 0.  0.
         25    1    1    2    0    0 -0.10573340527E+03  0.24994626568E+03 -0.84934006159E+03  0.90036449782E+03  0.12500000000E+03 0.  0.
         25    1    1    2    0    0 -0.50520211144E+02 -0.18067135693E+03 -0.41128726067E+03  0.46901667533E+03  0.12500000000E+03 0.  0.
</event>
<event>
 5    0  0.5742040E-005  0.2508527E+03  0.7546771E-02  0.1112767E+00
         21   -1    0    0  502  501  0.00000000000E+00  0.00000000000E+00  0.66453143866E+02  0.66453143866E+02  0.00000000000E+00 0.  1.
         21   -1    0    0  501  502 -0.00000000000E+00 -0.00000000000E+00 -0.94693909111E+03  0.94693909111E+03  0.00000000000E+00 0.  1.
         25    1    1    2    0    0 -0.65632549236E+02  0.26708800059E+02 -0.73441184136E+02  0.16136789968E+03  0.12500000000E+03 0.  0.
         25    1    1    2    0    0  0.26174117079E+02 -0.53915580705E+02 -0.38059215905E+03  0.40505230005E+03  0.12500000000E+03 0.  0.
         25    1    1    2    0    0  0.39458432157E+02  0.27206780646E+02 -0.42645260407E+03  0.44697203525E+03  0.12500000000E+03 0.  0.
</event>
<event>
 5    0  0.5742040E-005  0.2255445E+03  0.7546771E-02  0.1129816E+00
         21   -1    0    0  502  501  0.00000000000E+00  0.00000000000E+00  0.44109355220E+03  0.44109355220E+03  0.00000000000E+00 0. -1.
         21   -1    0    0  501  502 -0.00000000000E+00 -0.00000000000E+00 -0.11532776473E+03  0.11532776473E+03  0.00000000000E+00 0. -1.
         25    1    1    2    0    0  0.51198940597E+01  0.77073437283E+01  0.14153095512E+03  0.18905456281E+03  0.12500000000E+03 0.  0.
         25    1    1    2    0    0  0.51644596027E+02  0.35442774596E+01  0.18552212603E+03  0.22961529881E+03  0.12500000000E+03 0.  0.
         25    1    1    2    0    0 -0.56764490087E+02 -0.11251621188E+02 -0.12872936745E+01  0.13775145531E+03  0.12500000000E+03 0.  0.
</event>
<event>
 5    0  0.5742040E-005  0.2841852E+03  0.7546771E-02  0.1093425E+00
         21   -1    0    0  502  501  0.00000000000E+00  0.00000000000E+00  0.25540233928E+03  0.25540233928E+03  0.00000000000E+00 0.  1.
         21   -1    0    0  501  502 -0.00000000000E+00 -0.00000000000E+00 -0.31621174097E+03  0.31621174097E+03  0.00000000000E+00 0.  1.
         25    1    1    2    0    0  0.71054419396E+02  0.20680556498E+02 -0.18340098900E+02  0.14641644430E+03  0.12500000000E+03 0.  0.
         25    1    1    2    0    0  0.82948191866E+02 -0.71940168142E+01 -0.13860004421E+03  0.20437007772E+03  0.12500000000E+03 0.  0.
         25    1    1    2    0    0 -0.15400261126E+03 -0.13486539684E+02  0.96130741424E+02  0.22082755823E+03  0.12500000000E+03 0.  0.
</event>
<event>
 5    0  0.5742040E-005  0.2450576E+03  0.7546771E-02  0.1116469E+00
         21   -1    0    0  502  501  0.00000000000E+00  0.00000000000E+00  0.58374952734E+03  0.58374952734E+03  0.00000000000E+00 0. -1.
         21   -1    0    0  501  502 -0.00000000000E+00 -0.00000000000E+00 -0.10287501195E+03  0.10287501195E+03  0.00000000000E+00 0. -1.
         25    1    1    2    0    0  0.10191621375E+03 -0.91949581582E+02  0.28125424886E+03  0.33700236302E+03  0.12500000000E+03 0.  0.
         25    1    1    2    0    0 -0.65519144216E+02  0.38609519953E+02  0.10390016082E+03  0.17945388463E+03  0.12500000000E+03 0.  0.
         25    1    1    2    0    0 -0.36397069531E+02  0.53340061629E+02  0.95720105698E+02  0.17016829164E+03  0.12500000000E+03 0.  0.
</event>
<event>
 5    0  0.5742040E-005  0.3760919E+03  0.7546771E-02  0.1052388E+00
         21   -1    0    0  502  501  0.00000000000E+00  0.00000000000E+00  0.55775069322E+03  0.55775069322E+03  0.00000000000E+00 0. -1.
         21   -1    0    0  501  502 -0.00000000000E+00 -0.00000000000E+00 -0.25359913092E+03  0.25359913092E+03  0.00000000000E+00 0. -1.
         25    1    1    2    0    0  0.90074507797E+02 -0.14730822492E+03  0.26862438048E+03  0.34292446380E+03  0.12500000000E+03 0.  0.
         25    1    1    2    0    0  0.15085268622E+02 -0.53000173210E+02  0.13444886129E+03  0.19167180281E+03  0.12500000000E+03 0.  0.
         25    1    1    2    0    0 -0.10515977642E+03  0.20030839813E+03 -0.98921679472E+02  0.27675355754E+03  0.12500000000E+03 0.  0.
</event>
<event>
 5    0  0.5742040E-005  0.3117581E+03  0.7546771E-02  0.1079506E+00
         21   -1    0    0  502  501  0.00000000000E+00  0.00000000000E+00  0.72512169135E+03  0.72512169135E+03  0.00000000000E+00 0. -1.
         21   -1    0    0  501  502 -0.00000000000E+00 -0.00000000000E+00 -0.13403693952E+03  0.13403693952E+03  0.00000000000E+00 0. -1.
         25    1    1    2    0    0 -0.81572985787E+02 -0.14879900351E+02  0.13061275564E+03  0.19889760024E+03  0.12500000000E+03 0.  0.
         25    1    1    2    0    0  0.10845511203E+03  0.16745957933E+03  0.11613343709E+03  0.26252085107E+03  0.12500000000E+03 0.  0.
         25    1    1    2    0    0 -0.26882126248E+02 -0.15257967898E+03  0.34433855911E+03  0.39774017956E+03  0.12500000000E+03 0.  0.
</event>
<event>
 5    0  0.5742040E-005  0.3474142E+03  0.7546771E-02  0.1063681E+00
         21   -1    0    0  502  501  0.00000000000E+00  0.00000000000E+00  0.73191485001E+03  0.73191485001E+03  0.00000000000E+00 0.  1.
         21   -1    0    0  501  502 -0.00000000000E+00 -0.00000000000E+00 -0.16490533159E+03  0.16490533159E+03  0.00000000000E+00 0.  1.
         25    1    1    2    0    0  0.74139898798E+02 -0.17791112315E+03  0.41544155604E+03  0.47472705718E+03  0.12500000000E+03 0.  0.
         25    1    1    2    0    0  0.26973974367E+01 -0.11698991675E+02  0.13099052125E+03  0.18145980000E+03  0.12500000000E+03 0.  0.
         25    1    1    2    0    0 -0.76837296235E+02  0.18961011483E+03  0.20577441130E+02  0.24063332442E+03  0.12500000000E+03 0.  0.
</event>
<event>
 5    0  0.5742040E-005  0.2546752E+03  0.7546771E-02  0.1110385E+00
         21   -1    0    0  502  501  0.00000000000E+00  0.00000000000E+00  0.93735687958E+02  0.93735687958E+02  0.00000000000E+00 0.  1.
         21   -1    0    0  501  502 -0.00000000000E+00 -0.00000000000E+00 -0.69193992579E+03  0.69193992579E+03  0.00000000000E+00 0.  1.
         25    1    1    2    0    0 -0.56497284165E+02  0.43191258713E+02 -0.31537600753E+03  0.34661860030E+03  0.12500000000E+03 0.  0.
         25    1    1    2    0    0  0.40892066133E+02  0.70861732904E+02 -0.65350286541E+02  0.16306197047E+03  0.12500000000E+03 0.  0.
         25    1    1    2    0    0  0.15605218032E+02 -0.11405299162E+03 -0.21747794376E+03  0.27599504298E+03  0.12500000000E+03 0.  0.
</event>
<event>
 5    0  0.5742040E-005  0.4698089E+03  0.7546771E-02  0.1021974E+00
         21   -1    0    0  502  501  0.00000000000E+00  0.00000000000E+00  0.15253372297E+03  0.15253372297E+03  0.00000000000E+00 0. -1.
         21   -1    0    0  501  502 -0.00000000000E+00 -0.00000000000E+00 -0.14470271863E+04  0.14470271863E+04  0.00000000000E+00 0. -1.
         25    1    1    2    0    0  0.24262332598E+02  0.25280462470E+03 -0.98034782630E+03  0.10203948743E+04  0.12500000000E+03 0.  0.
         25    1    1    2    0    0  0.11466829396E+03 -0.13801831828E+03 -0.28299205269E+03  0.35764140659E+03  0.12500000000E+03 0.  0.
         25    1    1    2    0    0 -0.13893062656E+03 -0.11478630642E+03 -0.31153584324E+02  0.22152462832E+03  0.12500000000E+03 0.  0.
</event>
<event>
 5    0  0.6284531E-005  0.4540607E+03  0.7546771E-02  0.1026518E+00
         21   -1    0    0  502  501  0.00000000000E+00  0.00000000000E+00  0.16373360778E+03  0.16373360778E+03  0.00000000000E+00 0. -1.
         21   -1    0    0  501  502 -0.00000000000E+00 -0.00000000000E+00 -0.12591862418E+04  0.12591862418E+04  0.00000000000E+00 0. -1.
         25    1    1    2    0    0 -0.12207198358E+03 -0.38121079154E+02 -0.82566523372E+03  0.84480936549E+03  0.12500000000E+03 0.  0.
         25    1    1    2    0    0  0.20418107838E+03  0.20864602060E+02 -0.33645328824E+03  0.41346228311E+03  0.12500000000E+03 0.  0.
         25    1    1    2    0    0 -0.82109094806E+02  0.17256477094E+02  0.66665887985E+02  0.16464820094E+03  0.12500000000E+03 0.  0.
</event>
<event>
 5    0  0.5742040E-005  0.3577295E+03  0.7546771E-02  0.1059487E+00
         21   -1    0    0  502  501  0.00000000000E+00  0.00000000000E+00  0.13753637950E+04  0.13753637950E+04  0.00000000000E+00 0. -1.
         21   -1    0    0  501  502 -0.00000000000E+00 -0.00000000000E+00 -0.93044741737E+02  0.93044741737E+02  0.00000000000E+00 0. -1.
         25    1    1    2    0    0  0.21425586276E+03 -0.23517426612E+01  0.25238665662E+03  0.35388575820E+03  0.12500000000E+03 0.  0.
         25    1    1    2    0    0 -0.15349155690E+01  0.13586186611E+02  0.12819013933E+03  0.17956795998E+03  0.12500000000E+03 0.  0.
         25    1    1    2    0    0 -0.21272094719E+03 -0.11234443950E+02  0.90174225736E+03  0.93495481860E+03  0.12500000000E+03 0.  0.
</event>
<event>
 5    0  0.5742040E-005  0.2330492E+03  0.7546771E-02  0.1124512E+00
         21   -1    0    0  502  501  0.00000000000E+00  0.00000000000E+00  0.10955358454E+03  0.10955358454E+03  0.00000000000E+00 0. -1.
         21   -1    0    0  501  502 -0.00000000000E+00 -0.00000000000E+00 -0.49575663633E+03  0.49575663633E+03  0.00000000000E+00 0. -1.
         25    1    1    2    0    0  0.13963331580E+02 -0.25681817085E+02 -0.12586846991E+03  0.17978432099E+03  0.12500000000E+03 0.  0.
         25    1    1    2    0    0 -0.46281250972E+02  0.10458024490E+03 -0.20130133209E+03  0.26310873820E+03  0.12500000000E+03 0.  0.
         25    1    1    2    0    0  0.32317919391E+02 -0.78898427813E+02 -0.59033249792E+02  0.16241716167E+03  0.12500000000E+03 0.  0.
</event>
<event>
 5    0  0.5742040E-005  0.3544268E+03  0.7546771E-02  0.1060813E+00
         21   -1    0    0  502  501  0.00000000000E+00  0.00000000000E+00  0.11058831480E+04  0.11058831480E+04  0.00000000000E+00 0. -1.
         21   -1    0    0  501  502 -0.00000000000E+00 -0.00000000000E+00 -0.11359096794E+03  0.11359096794E+03  0.00000000000E+00 0. -1.
         25    1    1    2    0    0  0.70566221432E+02 -0.15880370622E+03  0.24371934768E+03  0.32437991483E+03  0.12500000000E+03 0.  0.
         25    1    1    2    0    0  0.11649566267E+03  0.17880190881E+02  0.11121278156E+03  0.20465635448E+03  0.12500000000E+03 0.  0.
         25    1    1    2    0    0 -0.18706188410E+03  0.14092351534E+03  0.63736005081E+03  0.69043784661E+03  0.12500000000E+03 0.  0.
</event>
<event>
 5    0  0.5742040E-005  0.2642337E+03  0.7546771E-02  0.1104626E+00
         21   -1    0    0  502  501  0.00000000000E+00  0.00000000000E+00  0.19287378626E+03  0.19287378626E+03  0.00000000000E+00 0. -1.
         21   -1    0    0  501  502 -0.00000000000E+00 -0.00000000000E+00 -0.36199548952E+03  0.36199548952E+03  0.00000000000E+00 0. -1.
         25    1    1    2    0    0  0.13736061527E+03  0.14465458430E+01 -0.16635691624E+03  0.24933843406E+03  0.12500000000E+03 0.  0.
         25    1    1    2    0    0 -0.10723440381E+03 -0.40557558617E+02  0.13516326416E+02  0.17015235527E+03  0.12500000000E+03 0.  0.
         25    1    1    2    0    0 -0.30126211453E+02  0.39111012774E+02 -0.16281113439E+02  0.13537848644E+03  0.12500000000E+03 0.  0.
</event>
<event>
 5    0  0.5742040E-005  0.3092417E+03  0.7546771E-02  0.1080710E+00
         21   -1    0    0  502  501  0.00000000000E+00  0.00000000000E+00  0.17430766627E+04  0.17430766627E+04  0.00000000000E+00 0.  1.
         21   -1    0    0  501  502 -0.00000000000E+00 -0.00000000000E+00 -0.54863025316E+02  0.54863025316E+02  0.00000000000E+00 0.  1.
         25    1    1    2    0    0  0.67566545921E+02 -0.54421468655E+02  0.11130864334E+04  0.11234381793E+04  0.12500000000E+03 0.  0.
         25    1    1    2    0    0  0.73697050627E+02  0.79191325907E+00  0.16388296258E+03  0.21889382774E+03  0.12500000000E+03 0.  0.
         25    1    1    2    0    0 -0.14126359655E+03  0.53629555396E+02  0.41124424139E+03  0.45560768101E+03  0.12500000000E+03 0.  0.
</event>
<event>
 5    0  0.5742040E-005  0.5490734E+03  0.7546771E-02  0.1001709E+00
         21   -1    0    0  502  501  0.00000000000E+00  0.00000000000E+00  0.62399938906E+03  0.62399938906E+03  0.00000000000E+00 0. -1.
         21   -1    0    0  501  502 -0.00000000000E+00 -0.00000000000E+00 -0.48314407922E+03  0.48314407922E+03  0.00000000000E+00 0. -1.
         25    1    1    2    0    0 -0.16810615501E+03 -0.40078612899E+03 -0.23956959230E+02  0.45286657686E+03  0.12500000000E+03 0.  0.
         25    1    1    2    0    0 -0.10218674131E+03  0.48200338290E+02  0.73419550611E+02  0.18379562868E+03  0.12500000000E+03 0.  0.
         25    1    1    2    0    0  0.27029289632E+03  0.35258579070E+03  0.91392718463E+02  0.47048126274E+03  0.12500000000E+03 0.  0.
</event>
<event>
 5    0  0.5742040E-005  0.4065727E+03  0.7546771E-02  0.1041527E+00
         21   -1    0    0  502  501  0.00000000000E+00  0.00000000000E+00  0.10641129765E+04  0.10641129765E+04  0.00000000000E+00 0.  1.
         21   -1    0    0  501  502 -0.00000000000E+00 -0.00000000000E+00 -0.15534192913E+03  0.15534192913E+03  0.00000000000E+00 0.  1.
         25    1    1    2    0    0  0.67557321495E+02  0.24396959383E+03  0.73256016606E+03  0.78508251242E+03  0.12500000000E+03 0.  0.
         25    1    1    2    0    0 -0.88294023734E+02 -0.20504605487E+03  0.15764268701E+03  0.30052609872E+03  0.12500000000E+03 0.  0.
         25    1    1    2    0    0  0.20736702239E+02 -0.38923538966E+02  0.18568194268E+02  0.13384629447E+03  0.12500000000E+03 0.  0.
</event>
<event>
 5    0  0.5742040E-005  0.2501736E+03  0.7546771E-02  0.1113195E+00
         21   -1    0    0  502  501  0.00000000000E+00  0.00000000000E+00  0.80630943286E+03  0.80630943286E+03  0.00000000000E+00 0.  1.
         21   -1    0    0  501  502 -0.00000000000E+00 -0.00000000000E+00 -0.77621325501E+02  0.77621325501E+02  0.00000000000E+00 0.  1.
         25    1    1    2    0    0  0.17541564910E+02  0.35875231558E+02  0.16550034367E+03  0.21121103781E+03  0.12500000000E+03 0.  0.
         25    1    1    2    0    0  0.11350906321E+03 -0.12163926159E+02  0.17378286547E+03  0.24260616822E+03  0.12500000000E+03 0.  0.
         25    1    1    2    0    0 -0.13105062812E+03 -0.23711305399E+02  0.38940489822E+03  0.43011355233E+03  0.12500000000E+03 0.  0.
</event>
<event>
 5    0  0.5742040E-005  0.3625130E+03  0.7546771E-02  0.1057593E+00
         21   -1    0    0  502  501  0.00000000000E+00  0.00000000000E+00  0.16831204252E+03  0.16831204252E+03  0.00000000000E+00 0.  1.
         21   -1    0    0  501  502 -0.00000000000E+00 -0.00000000000E+00 -0.78078576192E+03  0.78078576192E+03  0.00000000000E+00 0.  1.
         25    1    1    2    0    0 -0.67080481435E+02  0.61749437954E+02 -0.88743145131E+02  0.17836235557E+03  0.12500000000E+03 0.  0.
         25    1    1    2    0    0 -0.14702385939E+03  0.14204906125E+03 -0.27461738593E+03  0.36446352312E+03  0.12500000000E+03 0.  0.
         25    1    1    2    0    0  0.21410434083E+03 -0.20379849921E+03 -0.24911318834E+03  0.40627192574E+03  0.12500000000E+03 0.  0.
</event>
<event>
 5    0  0.5742040E-005  0.2813994E+03  0.7546771E-02  0.1094927E+00
         21   -1    0    0  502  501  0.00000000000E+00  0.00000000000E+00  0.24165134908E+03  0.24165134908E+03  0.00000000000E+00 0. -1.
         21   -1    0    0  501  502 -0.00000000000E+00 -0.00000000000E+00 -0.32768551613E+03  0.32768551613E+03  0.00000000000E+00 0. -1.
         25    1    1    2    0    0 -0.21442797802E+02 -0.96470542862E+02 -0.21425792426E+03  0.26701651134E+03  0.12500000000E+03 0.  0.
         25    1    1    2    0    0 -0.88801016746E+00  0.36565043999E+02  0.38949666588E+02  0.13594067652E+03  0.12500000000E+03 0.  0.
         25    1    1    2    0    0  0.22330807970E+02  0.59905498863E+02  0.89274090628E+02  0.16637967735E+03  0.12500000000E+03 0.  0.
</event>
<event>
 5    0  0.5742040E-005  0.2441684E+03  0.7546771E-02  0.1117047E+00
         21   -1    0    0  502  501  0.00000000000E+00  0.00000000000E+00  0.12422062997E+04  0.12422062997E+04  0.00000000000E+00 0. -1.
         21   -1    0    0  501  502 -0.00000000000E+00 -0.00000000000E+00 -0.47993815463E+02  0.47993815463E+02  0.00000000000E+00 0. -1.
         25    1    1    2    0    0 -0.22895706204E+00  0.10016947718E+03  0.25193761640E+03  0.29854905650E+03  0.12500000000E+03 0.  0.
         25    1    1    2    0    0 -0.15941841356E+02 -0.26241982121E+02  0.22123994912E+03  0.25595878383E+03  0.12500000000E+03 0.  0.
         25    1    1    2    0    0  0.16170798418E+02 -0.73927495056E+02  0.72103491874E+03  0.73569227486E+03  0.12500000000E+03 0.  0.
</event>
<event>
 5    0  0.5742040E-005  0.5135709E+03  0.7546771E-02  0.1010296E+00
         21   -1    0    0  502  501  0.00000000000E+00  0.00000000000E+00  0.12971169219E+03  0.12971169219E+03  0.00000000000E+00 0.  1.
         21   -1    0    0  501  502 -0.00000000000E+00 -0.00000000000E+00 -0.20333949908E+04  0.20333949908E+04  0.00000000000E+00 0.  1.
         25    1    1    2    0    0 -0.20528532839E+03 -0.50293133282E+01 -0.13963902887E+04  0.14169326725E+04  0.12500000000E+03 0.  0.
         25    1    1    2    0    0  0.12684731558E+03  0.10272400611E+02  0.37021777341E+02  0.18218500400E+03  0.12500000000E+03 0.  0.
         25    1    1    2    0    0  0.78438012805E+02 -0.52430872829E+01 -0.54431478720E+03  0.56398900643E+03  0.12500000000E+03 0.  0.
</event>
<event>
 5    0  0.5742040E-005  0.4220766E+03  0.7546771E-02  0.1036393E+00
         21   -1    0    0  502  501  0.00000000000E+00  0.00000000000E+00  0.16070281406E+04  0.16070281406E+04  0.00000000000E+00 0.  1.
         21   -1    0    0  501  502 -0.00000000000E+00 -0.00000000000E+00 -0.11085594680E+03  0.11085594680E+03  0.00000000000E+00 0.  1.
         25    1    1    2    0    0 -0.17481576849E+03 -0.13668020541E+02  0.73577688205E+03  0.76664202067E+03  0.12500000000E+03 0.  0.
         25    1    1    2    0    0  0.30974527988E+03  0.12458969262E+03  0.46062992126E+03  0.58246858652E+03  0.12500000000E+03 0.  0.
         25    1    1    2    0    0 -0.13492951140E+03 -0.11092167208E+03  0.29976539053E+03  0.36877348026E+03  0.12500000000E+03 0.  0.
</event>
<event>
 5    0  0.5742040E-005  0.2594223E+03  0.7546771E-02  0.1107491E+00
         21   -1    0    0  502  501  0.00000000000E+00  0.00000000000E+00  0.27412970312E+03  0.27412970312E+03  0.00000000000E+00 0.  1.
         21   -1    0    0  501  502 -0.00000000000E+00 -0.00000000000E+00 -0.24550389890E+03  0.24550389890E+03  0.00000000000E+00 0.  1.
         25    1    1    2    0    0 -0.47502241297E+02  0.35485889238E+02  0.13217337011E+03  0.19133873374E+03  0.12500000000E+03 0.  0.
         25    1    1    2    0    0  0.59702507888E+02  0.32084722932E+02 -0.11822902028E+03  0.18492409289E+03  0.12500000000E+03 0.  0.
         25    1    1    2    0    0 -0.12200266592E+02 -0.67570612170E+02  0.14681454389E+02  0.14337077539E+03  0.12500000000E+03 0.  0.
</event>
<event>
 5    0  0.5837014E-005  0.4697754E+03  0.7546771E-02  0.1021984E+00
         21   -1    0    0  502  501  0.00000000000E+00  0.00000000000E+00  0.51645383994E+03  0.51645383994E+03  0.00000000000E+00 0. -1.
         21   -1    0    0  501  502 -0.00000000000E+00 -0.00000000000E+00 -0.42731593029E+03  0.42731593029E+03  0.00000000000E+00 0. -1.
         25    1    1    2    0    0  0.20641313554E+03 -0.13689533285E+03 -0.23511918668E+01  0.27744772982E+03  0.12500000000E+03 0.  0.
         25    1    1    2    0    0 -0.10176516725E+03 -0.16574685625E+03 -0.12225403245E+03  0.26153244172E+03  0.12500000000E+03 0.  0.
         25    1    1    2    0    0 -0.10464796828E+03  0.30264218910E+03  0.21374313396E+03  0.40478959869E+03  0.12500000000E+03 0.  0.
</event>
<event>
 5    0  0.5742040E-005  0.2925064E+03  0.7546771E-02  0.1089048E+00
         21   -1    0    0  502  501  0.00000000000E+00  0.00000000000E+00  0.29471607760E+03  0.29471607760E+03  0.00000000000E+00 0. -1.
         21   -1    0    0  501  502 -0.00000000000E+00 -0.00000000000E+00 -0.29031334681E+03  0.29031334681E+03  0.00000000000E+00 0. -1.
         25    1    1    2    0    0  0.15182244247E+03 -0.32499204764E+02 -0.27425679757E+02  0.20120492106E+03  0.12500000000E+03 0.  0.
         25    1    1    2    0    0 -0.17724953963E+03  0.43934676331E+02 -0.56317137733E+02  0.22835120995E+03  0.12500000000E+03 0.  0.
         25    1    1    2    0    0  0.25427097154E+02 -0.11435471566E+02  0.88145548283E+02  0.15547329340E+03  0.12500000000E+03 0.  0.
</event>
<event>
 5    0  0.7329697E-005  0.3928148E+03  0.7546771E-02  0.1046296E+00
         21   -1    0    0  502  501  0.00000000000E+00  0.00000000000E+00  0.61492667281E+03  0.61492667281E+03  0.00000000000E+00 0.  1.
         21   -1    0    0  501  502 -0.00000000000E+00 -0.00000000000E+00 -0.25092990104E+03  0.25092990104E+03  0.00000000000E+00 0.  1.
         25    1    1    2    0    0  0.20596956937E+02 -0.21116557968E+02 -0.12100973994E+03  0.17646104617E+03  0.12500000000E+03 0.  0.
         25    1    1    2    0    0 -0.97314639291E+02  0.20187505721E+03  0.23800092066E+03  0.34999016555E+03  0.12500000000E+03 0.  0.
         25    1    1    2    0    0  0.76717682354E+02 -0.18075849925E+03  0.24700559104E+03  0.33940536213E+03  0.12500000000E+03 0.  0.
</event>
<event>
 5    0  0.5742040E-005  0.2350442E+03  0.7546771E-02  0.1123139E+00
         21   -1    0    0  502  501  0.00000000000E+00  0.00000000000E+00  0.34076911931E+02  0.34076911931E+02  0.00000000000E+00 0. -1.
         21   -1    0    0  501  502 -0.00000000000E+00 -0.00000000000E+00 -0.16212078778E+04  0.16212078778E+04  0.00000000000E+00 0. -1.
         25    1    1    2    0    0 -0.96762620848E+02 -0.49587016061E+02 -0.55561912016E+03  0.57979262124E+03  0.12500000000E+03 0.  0.
         25    1    1    2    0    0  0.32976155868E+02 -0.32440080324E+02 -0.34139735500E+03  0.36649275527E+03  0.12500000000E+03 0.  0.
         25    1    1    2    0    0  0.63786464980E+02  0.82027096385E+02 -0.69011449067E+03  0.70899941318E+03  0.12500000000E+03 0.  0.
</event>
<event>
 5    0  0.7327165E-005  0.2691345E+03  0.7546771E-02  0.1101776E+00
         21   -1    0    0  502  501  0.00000000000E+00  0.00000000000E+00  0.82419540593E+03  0.82419540593E+03  0.00000000000E+00 0. -1.
         21   -1    0    0  501  502 -0.00000000000E+00 -0.00000000000E+00 -0.87883740706E+02  0.87883740706E+02  0.00000000000E+00 0. -1.
         25    1    1    2    0    0 -0.12103940514E+03 -0.31109595759E+02  0.25726592738E+03  0.31213635151E+03  0.12500000000E+03 0.  0.
         25    1    1    2    0    0 -0.13780792804E+02  0.23612288478E+02  0.35675351564E+03  0.37900596478E+03  0.12500000000E+03 0.  0.
         25    1    1    2    0    0  0.13482019794E+03  0.74973072812E+01  0.12229222220E+03  0.22093683034E+03  0.12500000000E+03 0.  0.
</event>
<event>
 5    0  0.5742040E-005  0.2080447E+03  0.7546771E-02  0.1143124E+00
         21   -1    0    0  502  501  0.00000000000E+00  0.00000000000E+00  0.36745544180E+03  0.36745544180E+03  0.00000000000E+00 0. -1.
         21   -1    0    0  501  502 -0.00000000000E+00 -0.00000000000E+00 -0.11779000961E+03  0.11779000961E+03  0.00000000000E+00 0. -1.
         25    1    1    2    0    0  0.12810476043E+02 -0.29278179343E+02  0.15132875683E+03  0.19886355303E+03  0.12500000000E+03 0.  0.
         25    1    1    2    0    0  0.74100691660E+01  0.47073488233E+02  0.83400014338E+02  0.15764322000E+03  0.12500000000E+03 0.  0.
         25    1    1    2    0    0 -0.20220545209E+02 -0.17795308890E+02  0.14936661027E+02  0.12873867837E+03  0.12500000000E+03 0.  0.
</event>
<event>
 5    0  0.5742040E-005  0.3892949E+03  0.7546771E-02  0.1047551E+00
         21   -1    0    0  502  501  0.00000000000E+00  0.00000000000E+00  0.23516636376E+03  0.23516636376E+03  0.00000000000E+00 0.  1.
         21   -1    0    0  501  502 -0.00000000000E+00 -0.00000000000E+00 -0.64443949879E+03  0.64443949879E+03  0.00000000000E+00 0.  1.
         25    1    1    2    0    0 -0.37489283194E+02  0.24473935399E+03 -0.12257948731E+03  0.30323840201E+03  0.12500000000E+03 0.  0.
         25    1    1    2    0    0 -0.44646267845E+01  0.20120637969E+02 -0.24733966089E+03  0.27789688882E+03  0.12500000000E+03 0.  0.
         25    1    1    2    0    0  0.41953909979E+02 -0.26485999196E+03 -0.39353986835E+02  0.29847057172E+03  0.12500000000E+03 0.  0.
</event>
<event>
 5    0  0.5742040E-005  0.3302212E+03  0.7546771E-02  0.1071039E+00
         21   -1    0    0  502  501  0.00000000000E+00  0.00000000000E+00  0.83497017262E+02  0.83497017262E+02  0.00000000000E+00 0.  1.
         21   -1    0    0  501  502 -0.00000000000E+00 -0.00000000000E+00 -0.13059875476E+04  0.13059875476E+04  0.00000000000E+00 0.  1.
         25    1    1    2    0    0 -0.14542196079E+03  0.45018122105E+02 -0.67519312651E+03  0.70333842216E+03  0.12500000000E+03 0.  0.
         25    1    1    2    0    0  0.15810283652E+02  0.11659929257E+03 -0.23794821936E+03  0.29341048923E+03  0.12500000000E+03 0.  0.
         25    1    1    2    0    0  0.12961167714E+03 -0.16161741467E+03 -0.30934918447E+03  0.39273565347E+03  0.12500000000E+03 0.  0.
</event>
<event>
 5    0  0.5828791E-005  0.2960122E+03  0.7546771E-02  0.1087251E+00
         21   -1    0    0  502  501  0.00000000000E+00  0.00000000000E+00  0.12298655639E+03  0.12298655639E+03  0.00000000000E+00 0. -1.
         21   -1    0    0  501  502 -0.00000000000E+00 -0.00000000000E+00 -0.71246193246E+03  0.71246193246E+03  0.00000000000E+00 0. -1.
         25    1    1    2    0    0 -0.13173753097E+03 -0.46615433936E+02 -0.18000002924E+03  0.25990918851E+03  0.12500000000E+03 0.  0.
         25    1    1    2    0    0  0.11255322489E+03  0.13231690515E+03 -0.35272412657E+03  0.41257157110E+03  0.12500000000E+03 0.  0.
         25    1    1    2    0    0  0.19184306080E+02 -0.85701471216E+02 -0.56751220263E+02  0.16296772923E+03  0.12500000000E+03 0.  0.
</event>
<event>
 5    0  0.6850748E-005  0.3023939E+03  0.7546771E-02  0.1084050E+00
         21   -1    0    0  502  501  0.00000000000E+00  0.00000000000E+00  0.30775260254E+03  0.30775260254E+03  0.00000000000E+00 0.  1.
         21   -1    0    0  501  502 -0.00000000000E+00 -0.00000000000E+00 -0.29712846836E+03  0.29712846836E+03  0.00000000000E+00 0.  1.
         25    1    1    2    0    0  0.80914194720E+01 -0.10554974929E+03 -0.15404546518E+03  0.22485823531E+03  0.12500000000E+03 0.  0.
         25    1    1    2    0    0 -0.10098790460E+03  0.22141494472E+02  0.10638447614E+03  0.19398829711E+03  0.12500000000E+03 0.  0.
         25    1    1    2    0    0  0.92896485126E+02  0.83408254817E+02  0.58285123225E+02  0.18603453849E+03  0.12500000000E+03 0.  0.
</event>
<event>
 5    0  0.8051822E-005  0.2649232E+03  0.7546771E-02  0.1104221E+00
         21   -1    0    0  502  501  0.00000000000E+00  0.00000000000E+00  0.34454730527E+03  0.34454730527E+03  0.00000000000E+00 0. -1.
         21   -1    0    0  501  502 -0.00000000000E+00 -0.00000000000E+00 -0.20370008784E+03  0.20370008784E+03  0.00000000000E+00 0. -1.
         25    1    1    2    0    0 -0.21250799003E+02 -0.38158230739E+01 -0.11445613331E+03  0.17085480214E+03  0.12500000000E+03 0.  0.
         25    1    1    2    0    0 -0.43878473575E+02 -0.15837072913E+02  0.14726340237E+03  0.19871497931E+03  0.12500000000E+03 0.  0.
         25    1    1    2    0    0  0.65129272578E+02  0.19652895987E+02  0.10803994836E+03  0.17867761166E+03  0.12500000000E+03 0.  0.
</event>
<event>
 5    0  0.5742040E-005  0.2434828E+03  0.7546771E-02  0.1117494E+00
         21   -1    0    0  502  501  0.00000000000E+00  0.00000000000E+00  0.14117886610E+03  0.14117886610E+03  0.00000000000E+00 0.  1.
         21   -1    0    0  501  502 -0.00000000000E+00 -0.00000000000E+00 -0.41992044590E+03  0.41992044590E+03  0.00000000000E+00 0.  1.
         25    1    1    2    0    0  0.33929102568E+02 -0.50546480476E+02 -0.15330831660E+03  0.20696514351E+03  0.12500000000E+03 0.  0.
         25    1    1    2    0    0  0.20764238400E+02  0.11817098923E+03 -0.34175325567E+02  0.17660263070E+03  0.12500000000E+03 0.  0.
         25    1    1    2    0    0 -0.54693340968E+02 -0.67624508756E+02 -0.91257937626E+02  0.17753153779E+03  0.12500000000E+03 0.  0.
</event>
<event>
 5    0  0.5742040E-005  0.2526233E+03  0.7546771E-02  0.1111658E+00
         21   -1    0    0  502  501  0.00000000000E+00  0.00000000000E+00  0.15749856774E+03  0.15749856774E+03  0.00000000000E+00 0.  1.
         21   -1    0    0  501  502 -0.00000000000E+00 -0.00000000000E+00 -0.40520057452E+03  0.40520057452E+03  0.00000000000E+00 0.  1.
         25    1    1    2    0    0  0.15569901395E+02  0.49188632824E+01  0.31079047417E+02  0.12983652889E+03  0.12500000000E+03 0.  0.
         25    1    1    2    0    0  0.30750771866E+00  0.10100603837E+03 -0.97396075032E+02  0.18791835935E+03  0.12500000000E+03 0.  0.
         25    1    1    2    0    0 -0.15877409113E+02 -0.10592490165E+03 -0.18138497917E+03  0.24494425402E+03  0.12500000000E+03 0.  0.
</event>
<event>
 5    0  0.5742040E-005  0.3058629E+03  0.7546771E-02  0.1082346E+00
         21   -1    0    0  502  501  0.00000000000E+00  0.00000000000E+00  0.78651047623E+03  0.78651047623E+03  0.00000000000E+00 0.  1.
         21   -1    0    0  501  502 -0.00000000000E+00 -0.00000000000E+00 -0.11894576626E+03  0.11894576626E+03  0.00000000000E+00 0.  1.
         25    1    1    2    0    0  0.86420282868E+02 -0.18362672445E+02  0.10225804782E+03  0.18408520140E+03  0.12500000000E+03 0.  0.
         25    1    1    2    0    0 -0.10272431206E+03  0.75305320962E+02  0.55463260727E+03  0.58263668328E+03  0.12500000000E+03 0.  0.
         25    1    1    2    0    0  0.16304029190E+02 -0.56942648516E+02  0.10674054880E+02  0.13873435780E+03  0.12500000000E+03 0.  0.
</event>
<event>
 5    0  0.5742040E-005  0.2548486E+03  0.7546771E-02  0.1110278E+00
         21   -1    0    0  502  501  0.00000000000E+00  0.00000000000E+00  0.47619435521E+03  0.47619435521E+03  0.00000000000E+00 0.  1.
         21   -1    0    0  501  502 -0.00000000000E+00 -0.00000000000E+00 -0.13638933388E+03  0.13638933388E+03  0.00000000000E+00 0.  1.
         25    1    1    2    0    0 -0.19292010264E+02 -0.17544878299E+02  0.23195258405E+03  0.26477727558E+03  0.12500000000E+03 0.  0.
         25    1    1    2    0    0  0.82027663398E+02  0.26642374439E+02  0.13714035610E+03  0.20462363243E+03  0.12500000000E+03 0.  0.
         25    1    1    2    0    0 -0.62735653134E+02 -0.90974961399E+01 -0.29287918819E+02  0.14318278108E+03  0.12500000000E+03 0.  0.
</event>
<event>
 5    0  0.5742040E-005  0.3851416E+03  0.7546771E-02  0.1049050E+00
         21   -1    0    0  502  501  0.00000000000E+00  0.00000000000E+00  0.55112514828E+03  0.55112514828E+03  0.00000000000E+00 0.  1.
         21   -1    0    0  501  502 -0.00000000000E+00 -0.00000000000E+00 -0.26914769157E+03  0.26914769157E+03  0.00000000000E+00 0.  1.
         25    1    1    2    0    0 -0.20274671107E+03 -0.14889270719E+03  0.15694593445E+02  0.28133003282E+03  0.12500000000E+03 0.  0.
         25    1    1    2    0    0  0.19639380401E+03 -0.12581844944E+02  0.23718013612E+03  0.33257818035E+03  0.12500000000E+03 0.  0.
         25    1    1    2    0    0  0.63529070666E+01  0.16147455214E+03  0.29102727131E+02  0.20636462667E+03  0.12500000000E+03 0.  0.
</event>
<event>
 5    0  0.5742040E-005  0.2428210E+03  0.7546771E-02  0.1117928E+00
         21   -1    0    0  502  501  0.00000000000E+00  0.00000000000E+00  0.32677031674E+03  0.32677031674E+03  0.00000000000E+00 0.  1.
         21   -1    0    0  501  502 -0.00000000000E+00 -0.00000000000E+00 -0.18043881656E+03  0.18043881656E+03  0.00000000000E+00 0.  1.
         25    1    1    2    0    0  0.16545927798E+02  0.50899216017E+02  0.42727200853E+02  0.14253108998E+03  0.12500000000E+03 0.  0.
         25    1    1    2    0    0 -0.22839842344E+01 -0.21876036534E+02 -0.72611127052E+02  0.14622295760E+03  0.12500000000E+03 0.  0.
         25    1    1    2    0    0 -0.14261943564E+02 -0.29023179483E+02  0.17621542638E+03  0.21845508572E+03  0.12500000000E+03 0.  0.
</event>
<event>
 5    0  0.5819581E-005  0.2693218E+03  0.7546771E-02  0.1101668E+00
         21   -1    0    0  502  501  0.00000000000E+00  0.00000000000E+00  0.15270510404E+03  0.15270510404E+03  0.00000000000E+00 0.  1.
         21   -1    0    0  501  502 -0.00000000000E+00 -0.00000000000E+00 -0.47499546564E+03  0.47499546564E+03  0.00000000000E+00 0.  1.
         25    1    1    2    0    0 -0.49147178563E+02  0.95974886914E+02 -0.10570558544E+03  0.19602370997E+03  0.12500000000E+03 0.  0.
         25    1    1    2    0    0  0.10016673260E+03 -0.11379395249E+03 -0.22062287624E+03  0.29543508841E+03  0.12500000000E+03 0.  0.
         25    1    1    2    0    0 -0.51019554040E+02  0.17819065579E+02  0.40381000744E+01  0.13624177129E+03  0.12500000000E+03 0.  0.
</event>
<event>
 5    0  0.5742040E-005  0.3708098E+03  0.7546771E-02  0.1054384E+00
         21   -1    0    0  502  501  0.00000000000E+00  0.00000000000E+00  0.53962554394E+02  0.53962554394E+02  0.00000000000E+00 0.  1.
         21   -1    0    0  501  502 -0.00000000000E+00 -0.00000000000E+00 -0.25480612854E+04  0.25480612854E+04  0.00000000000E+00 0.  1.
         25    1    1    2    0    0  0.20362042285E+02  0.59453318504E+02 -0.26474789800E+03  0.29944241406E+03  0.12500000000E+03 0.  0.
         25    1    1    2    0    0  0.99984016427E+02 -0.12530586747E+03 -0.28876537880E+03  0.35314134274E+03  0.12500000000E+03 0.  0.
         25    1    1    2    0    0 -0.12034605871E+03  0.65852548963E+02 -0.19405854542E+04  0.19494400830E+04  0.12500000000E+03 0.  0.
</event>
<event>
 5    0  0.5742040E-005  0.2611521E+03  0.7546771E-02  0.1106453E+00
         21   -1    0    0  502  501  0.00000000000E+00  0.00000000000E+00  0.12260380379E+04  0.12260380379E+04  0.00000000000E+00 0. -1.
         21   -1    0    0  501  502 -0.00000000000E+00 -0.00000000000E+00 -0.55626668492E+02  0.55626668492E+02  0.00000000000E+00 0. -1.
         25    1    1    2    0    0 -0.33184611151E+02 -0.26141863056E+02  0.41085476803E+03  0.43152202242E+03  0.12500000000E+03 0.  0.
         25    1    1    2    0    0 -0.63215971379E+02 -0.85396678121E+02  0.20314884096E+03  0.26111932762E+03  0.12500000000E+03 0.  0.
         25    1    1    2    0    0  0.96400582530E+02  0.11153854118E+03  0.55640776042E+03  0.58902335636E+03  0.12500000000E+03 0.  0.
</event>
<event>
 5    0  0.5742040E-005  0.2875107E+03  0.7546771E-02  0.1091656E+00
         21   -1    0    0  502  501  0.00000000000E+00  0.00000000000E+00  0.92393577538E+02  0.92393577538E+02  0.00000000000E+00 0. -1.
         21   -1    0    0  501  502 -0.00000000000E+00 -0.00000000000E+00 -0.89467680348E+03  0.89467680348E+03  0.00000000000E+00 0. -1.
         25    1    1    2    0    0  0.16886943935E+02  0.22909311560E+02 -0.26863738234E+03  0.29765928277E+03  0.12500000000E+03 0.  0.
         25    1    1    2    0    0 -0.17929743437E+00 -0.61791542109E+02  0.25780364937E+00  0.13943921000E+03  0.12500000000E+03 0.  0.
         25    1    1    2    0    0 -0.16707646501E+02  0.38882230549E+02 -0.53390364725E+03  0.54997188824E+03  0.12500000000E+03 0.  0.
</event>
<event>
 5    0  0.5742040E-005  0.2247193E+03  0.7546771E-02  0.1130413E+00
         21   -1    0    0  502  501  0.00000000000E+00  0.00000000000E+00  0.10862675105E+03  0.10862675105E+03  0.00000000000E+00 0.  1.
         21   -1    0    0  501  502 -0.00000000000E+00 -0.00000000000E+00 -0.46488350402E+03  0.46488350402E+03  0.00000000000E+00 0.  1.
         25    1    1    2    0    0  0.37860365504E+02  0.22323925365E+01 -0.13657974725E+03  0.18899052413E+03  0.12500000000E+03 0.  0.
         25    1    1    2    0    0  0.96710579528E+01 -0.88170907702E+02 -0.79931265284E+02  0.17286308309E+03  0.12500000000E+03 0.  0.
         25    1    1    2    0    0 -0.47531423456E+02  0.85938515165E+02 -0.13974574044E+03  0.21165664784E+03  0.12500000000E+03 0.  0.
</event>
<event>
 5    0  0.5742040E-005  0.2588213E+03  0.7546771E-02  0.1107853E+00
         21   -1    0    0  502  501  0.00000000000E+00  0.00000000000E+00  0.92176163852E+02  0.92176163852E+02  0.00000000000E+00 0. -1.
         21   -1    0    0  501  502 -0.00000000000E+00 -0.00000000000E+00 -0.72674416079E+03  0.72674416079E+03  0.00000000000E+00 0. -1.
         25    1    1    2    0    0  0.25739429929E+02  0.11054758711E+03 -0.12767741996E+03  0.21168327954E+03  0.12500000000E+03 0.  0.
         25    1    1    2    0    0 -0.94866649581E+02 -0.72106118714E+02 -0.35736850079E+03  0.39690832558E+03  0.12500000000E+03 0.  0.
         25    1    1    2    0    0  0.69127219651E+02 -0.38441468392E+02 -0.14952207620E+03  0.21032871953E+03  0.12500000000E+03 0.  0.
</event>
<event>
 5    0  0.5742040E-005  0.3155957E+03  0.7546771E-02  0.1077694E+00
         21   -1    0    0  502  501  0.00000000000E+00  0.00000000000E+00  0.63910922673E+02  0.63910922673E+02  0.00000000000E+00 0.  1.
         21   -1    0    0  501  502 -0.00000000000E+00 -0.00000000000E+00 -0.15584289552E+04  0.15584289552E+04  0.00000000000E+00 0.  1.
         25    1    1    2    0    0  0.11122977177E+03 -0.77942054473E+02 -0.49855261209E+03  0.53162649765E+03  0.12500000000E+03 0.  0.
         25    1    1    2    0    0  0.11433452950E+03  0.25664603914E+02 -0.28401021013E+03  0.33168939686E+03  0.12500000000E+03 0.  0.
         25    1    1    2    0    0 -0.22556430127E+03  0.52277450559E+02 -0.71195521035E+03  0.75902398340E+03  0.12500000000E+03 0.  0.
</event>
<event>
 5    0  0.5742040E-005  0.2413933E+03  0.7546771E-02  0.1118868E+00
         21   -1    0    0  502  501  0.00000000000E+00  0.00000000000E+00  0.30678599963E+03  0.30678599963E+03  0.00000000000E+00 0.  1.
         21   -1    0    0  501  502 -0.00000000000E+00 -0.00000000000E+00 -0.18993934383E+03  0.18993934383E+03  0.00000000000E+00 0.  1.
         25    1    1    2    0    0 -0.14849487005E+02  0.40936086045E+02  0.34753198111E+02  0.13685413835E+03  0.12500000000E+03 0.  0.
         25    1    1    2    0    0  0.69796567320E+02 -0.45715398004E+02 -0.60845432134E+02  0.16213767309E+03  0.12500000000E+03 0.  0.
         25    1    1    2    0    0 -0.54947080315E+02  0.47793119590E+01  0.14293888982E+03  0.19773353201E+03  0.12500000000E+03 0.  0.
</event>
<event>
 5    0  0.5742040E-005  0.3239291E+03  0.7546771E-02  0.1073855E+00
         21   -1    0    0  502  501  0.00000000000E+00  0.00000000000E+00  0.27112819747E+03  0.27112819747E+03  0.00000000000E+00 0.  1.
         21   -1    0    0  501  502 -0.00000000000E+00 -0.00000000000E+00 -0.38701276347E+03  0.38701276347E+03  0.00000000000E+00 0.  1.
         25    1    1    2    0    0  0.18938604560E+03  0.19867340969E+02 -0.77572137523E+02  0.24063296122E+03  0.12500000000E+03 0.  0.
         25    1    1    2    0    0 -0.15599016740E+03 -0.13609144539E+03 -0.21641569031E+02  0.24279038561E+03  0.12500000000E+03 0.  0.
         25    1    1    2    0    0 -0.33395878198E+02  0.11622410442E+03 -0.16670859445E+02  0.17471761412E+03  0.12500000000E+03 0.  0.
</event>
<event>
 5    0  0.5742040E-005  0.2375853E+03  0.7546771E-02  0.1121412E+00
         21   -1    0    0  502  501  0.00000000000E+00  0.00000000000E+00  0.53246661827E+03  0.53246661827E+03  0.00000000000E+00 0. -1.
         21   -1    0    0  501  502 -0.00000000000E+00 -0.00000000000E+00 -0.10600999145E+03  0.10600999145E+03  0.00000000000E+00 0. -1.
         25    1    1    2    0    0 -0.71293604081E+02  0.56976801165E+02  0.15356010123E+03  0.21802485763E+03  0.12500000000E+03 0.  0.
         25    1    1    2    0    0  0.92781690007E+02 -0.98396414224E+02  0.18261516640E+03  0.25935226109E+03  0.12500000000E+03 0.  0.
         25    1    1    2    0    0 -0.21488085926E+02  0.41419613059E+02  0.90281359193E+02  0.16109949100E+03  0.12500000000E+03 0.  0.
</event>
<event>
 5    0  0.5742040E-005  0.3088870E+03  0.7546771E-02  0.1080881E+00
         21   -1    0    0  502  501  0.00000000000E+00  0.00000000000E+00  0.38675975783E+03  0.38675975783E+03  0.00000000000E+00 0. -1.
         21   -1    0    0  501  502 -0.00000000000E+00 -0.00000000000E+00 -0.24669373116E+03  0.24669373116E+03  0.00000000000E+00 0. -1.
         25    1    1    2    0    0 -0.53116903987E+02  0.49879713454E+02  0.18720875244E+03  0.23660411724E+03  0.12500000000E+03 0.  0.
         25    1    1    2    0    0 -0.26280110666E+02 -0.47981255522E+01  0.11553103689E+03  0.17229650812E+03  0.12500000000E+03 0.  0.
         25    1    1    2    0    0  0.79397014653E+02 -0.45081587902E+02 -0.16267376267E+03  0.22455286363E+03  0.12500000000E+03 0.  0.
</event>
<event>
 5    0  0.5742040E-005  0.2892793E+03  0.7546771E-02  0.1090726E+00
         21   -1    0    0  502  501  0.00000000000E+00  0.00000000000E+00  0.60983338271E+02  0.60983338271E+02  0.00000000000E+00 0. -1.
         21   -1    0    0  501  502 -0.00000000000E+00 -0.00000000000E+00 -0.13722196377E+04  0.13722196377E+04  0.00000000000E+00 0. -1.
         25    1    1    2    0    0 -0.17218382778E+02 -0.43131792065E+02 -0.62391225374E+02  0.14722258385E+03  0.12500000000E+03 0.  0.
         25    1    1    2    0    0  0.21154087426E+02 -0.62740293923E+02 -0.51574900409E+03  0.53479517118E+03  0.12500000000E+03 0.  0.
         25    1    1    2    0    0 -0.39357046475E+01  0.10587208599E+03 -0.73309606998E+03  0.75118522095E+03  0.12500000000E+03 0.  0.
</event>
<event>
 5    0  0.5742040E-005  0.2788797E+03  0.7546771E-02  0.1096302E+00
         21   -1    0    0  502  501  0.00000000000E+00  0.00000000000E+00  0.81760965972E+03  0.81760965972E+03  0.00000000000E+00 0. -1.
         21   -1    0    0  501  502 -0.00000000000E+00 -0.00000000000E+00 -0.95123461601E+02  0.95123461601E+02  0.00000000000E+00 0. -1.
         25    1    1    2    0    0  0.58711856384E+02 -0.10582792115E+02  0.37108987933E+03  0.39609566535E+03  0.12500000000E+03 0.  0.
         25    1    1    2    0    0 -0.10051884142E+03  0.11733696779E+03  0.24870839811E+03  0.31835965319E+03  0.12500000000E+03 0.  0.
         25    1    1    2    0    0  0.41806985034E+02 -0.10675417567E+03  0.10268792068E+03  0.19827780278E+03  0.12500000000E+03 0.  0.
</event>
<event>
 5    0  0.5742040E-005  0.4408971E+03  0.7546771E-02  0.1030472E+00
         21   -1    0    0  502  501  0.00000000000E+00  0.00000000000E+00  0.23014594026E+03  0.23014594026E+03  0.00000000000E+00 0.  1.
         21   -1    0    0  501  502 -0.00000000000E+00 -0.00000000000E+00 -0.84463896716E+03  0.84463896716E+03  0.00000000000E+00 0.  1.
         25    1    1    2    0    0  0.27205022019E+03 -0.31354636566E+02 -0.51314312389E+02  0.30537287731E+03  0.12500000000E+03 0.  0.
         25    1    1    2    0    0 -0.12250160744E+03  0.59422389013E+02 -0.54045293537E+03  0.57118476826E+03  0.12500000000E+03 0.  0.
         25    1    1    2    0    0 -0.14954861276E+03 -0.28067752447E+02 -0.22725779134E+02  0.19822726185E+03  0.12500000000E+03 0.  0.
</event>
<event>
 5    0  0.5742040E-005  0.2695876E+03  0.7546771E-02  0.1101516E+00
         21   -1    0    0  502  501  0.00000000000E+00  0.00000000000E+00  0.34920124958E+02  0.34920124958E+02  0.00000000000E+00 0.  1.
         21   -1    0    0  501  502 -0.00000000000E+00 -0.00000000000E+00 -0.20812496748E+04  0.20812496748E+04  0.00000000000E+00 0.  1.
         25    1    1    2    0    0  0.55846085791E+02  0.15565541818E+03 -0.60273774279E+03  0.63738934812E+03  0.12500000000E+03 0.  0.
         25    1    1    2    0    0 -0.46545202212E+02 -0.12672510044E+03 -0.68106660848E+03  0.70548028471E+03  0.12500000000E+03 0.  0.
         25    1    1    2    0    0 -0.93008835787E+01 -0.28930317734E+02 -0.76252519859E+03  0.77330016695E+03  0.12500000000E+03 0.  0.
</event>
<event>
 5    0  0.5742040E-005  0.2549796E+03  0.7546771E-02  0.1110198E+00
         21   -1    0    0  502  501  0.00000000000E+00  0.00000000000E+00  0.62887860224E+03  0.62887860224E+03  0.00000000000E+00 0. -1.
         21   -1    0    0  501  502 -0.00000000000E+00 -0.00000000000E+00 -0.10338181741E+03  0.10338181741E+03  0.00000000000E+00 0. -1.
         25    1    1    2    0    0 -0.14191816297E+02  0.22102260567E+02  0.45349937808E+01  0.12781034285E+03  0.12500000000E+03 0.  0.
         25    1    1    2    0    0 -0.35350739577E+02  0.14360105226E+02  0.39703154377E+03  0.41798915555E+03  0.12500000000E+03 0.  0.
         25    1    1    2    0    0  0.49542555874E+02 -0.36462365793E+02  0.12393024728E+03  0.18646092125E+03  0.12500000000E+03 0.  0.
</event>
<event>
 5    0  0.5742040E-005  0.2694783E+03  0.7546771E-02  0.1101579E+00
         21   -1    0    0  502  501  0.00000000000E+00  0.00000000000E+00  0.82376654913E+03  0.82376654913E+03  0.00000000000E+00 0.  1.
         21   -1    0    0  501  502 -0.00000000000E+00 -0.00000000000E+00 -0.88154285290E+02  0.88154285290E+02  0.00000000000E+00 0.  1.
         25    1    1    2    0    0 -0.61134387785E+02 -0.78945108889E+01  0.17266762895E+03  0.22189828021E+03  0.12500000000E+03 0.  0.
         25    1    1    2    0    0  0.54820964011E+02  0.10297267140E+03  0.48564855553E+03  0.51486719514E+03  0.12500000000E+03 0.  0.
         25    1    1    2    0    0  0.63134237739E+01 -0.95078160510E+02  0.77296079364E+02  0.17515535907E+03  0.12500000000E+03 0.  0.
</event>
<event>
 5    0  0.6119907E-005  0.2695736E+03  0.7546771E-02  0.1101524E+00
         21   -1    0    0  502  501  0.00000000000E+00  0.00000000000E+00  0.16150771548E+03  0.16150771548E+03  0.00000000000E+00 0.  1.
         21   -1    0    0  501  502 -0.00000000000E+00 -0.00000000000E+00 -0.44994719539E+03  0.44994719539E+03  0.00000000000E+00 0.  1.
         25    1    1    2    0    0 -0.79829238715E+02 -0.14301453391E+02 -0.12776871571E+03  0.19628317207E+03  0.12500000000E+03 0.  0.
         25    1    1    2    0    0  0.16950799157E+03 -0.45173545090E+02 -0.11424309492E+03  0.24382389776E+03  0.12500000000E+03 0.  0.
         25    1    1    2    0    0 -0.89678752851E+02  0.59474998480E+02 -0.46427669280E+02  0.17134784105E+03  0.12500000000E+03 0.  0.
</event>
<event>
 5    0  0.5742040E-005  0.2884317E+03  0.7546771E-02  0.1091171E+00
         21   -1    0    0  502  501  0.00000000000E+00  0.00000000000E+00  0.70889181618E+03  0.70889181618E+03  0.00000000000E+00 0.  1.
         21   -1    0    0  501  502 -0.00000000000E+00 -0.00000000000E+00 -0.11735620839E+03  0.11735620839E+03  0.00000000000E+00 0.  1.
         25    1    1    2    0    0 -0.63865050160E+01  0.12273280080E+03  0.37195455676E+03  0.41119255846E+03  0.12500000000E+03 0.  0.
         25    1    1    2    0    0 -0.21156727284E+02 -0.47205850867E+02 -0.16298686372E+02  0.13625948276E+03  0.12500000000E+03 0.  0.
         25    1    1    2    0    0  0.27543232300E+02 -0.75526949931E+02  0.23587973741E+03  0.27879598335E+03  0.12500000000E+03 0.  0.
</event>
<event>
 5    0  0.5742040E-005  0.3862387E+03  0.7546771E-02  0.1048652E+00
         21   -1    0    0  502  501  0.00000000000E+00  0.00000000000E+00  0.22784490907E+03  0.22784490907E+03  0.00000000000E+00 0. -1.
         21   -1    0    0  501  502 -0.00000000000E+00 -0.00000000000E+00 -0.65474494940E+03  0.65474494940E+03  0.00000000000E+00 0. -1.
         25    1    1    2    0    0 -0.10794342400E+03 -0.44608234123E+01 -0.41629749805E+03  0.44788423572E+03  0.12500000000E+03 0.  0.
         25    1    1    2    0    0 -0.74893971829E+02  0.39934168125E+02 -0.11246560467E+03  0.18835433904E+03  0.12500000000E+03 0.  0.
         25    1    1    2    0    0  0.18283739583E+03 -0.35473344713E+02  0.10186306239E+03  0.24635128370E+03  0.12500000000E+03 0.  0.
</event>
<event>
 5    0  0.5742040E-005  0.3140436E+03  0.7546771E-02  0.1078424E+00
         21   -1    0    0  502  501  0.00000000000E+00  0.00000000000E+00  0.14125232432E+04  0.14125232432E+04  0.00000000000E+00 0. -1.
         21   -1    0    0  501  502 -0.00000000000E+00 -0.00000000000E+00 -0.69820714026E+02  0.69820714026E+02  0.00000000000E+00 0. -1.
         25    1    1    2    0    0 -0.20418001080E+03  0.21990840520E+02  0.68429051031E+03  0.72529413094E+03  0.12500000000E+03 0.  0.
         25    1    1    2    0    0  0.62131247033E+02 -0.59199157963E+02  0.14995328259E+03  0.21325060169E+03  0.12500000000E+03 0.  0.
         25    1    1    2    0    0  0.14204876377E+03  0.37208317443E+02  0.50845873624E+03  0.54379922456E+03  0.12500000000E+03 0.  0.
</event>
<event>
 5    0  0.5742040E-005  0.3485513E+03  0.7546771E-02  0.1063211E+00
         21   -1    0    0  502  501  0.00000000000E+00  0.00000000000E+00  0.19153470769E+03  0.19153470769E+03  0.00000000000E+00 0.  1.
         21   -1    0    0  501  502 -0.00000000000E+00 -0.00000000000E+00 -0.63428713785E+03  0.63428713785E+03  0.00000000000E+00 0.  1.
         25    1    1    2    0    0  0.89990295216E+02  0.34877478993E+02 -0.92641147188E+02  0.18309034362E+03  0.12500000000E+03 0.  0.
         25    1    1    2    0    0 -0.21261830067E+03 -0.17723892561E+03 -0.14017278096E+03  0.33450498808E+03  0.12500000000E+03 0.  0.
         25    1    1    2    0    0  0.12262800545E+03  0.14236144662E+03 -0.20993850202E+03  0.30822651384E+03  0.12500000000E+03 0.  0.
</event>
<event>
 5    0  0.5742040E-005  0.4369119E+03  0.7546771E-02  0.1031699E+00
         21   -1    0    0  502  501  0.00000000000E+00  0.00000000000E+00  0.14704003042E+04  0.14704003042E+04  0.00000000000E+00 0. -1.
         21   -1    0    0  501  502 -0.00000000000E+00 -0.00000000000E+00 -0.12982315036E+03  0.12982315036E+03  0.00000000000E+00 0. -1.
         25    1    1    2    0    0 -0.77359539868E+00  0.69617105837E+02  0.11276327332E+03  0.18217490410E+03  0.12500000000E+03 0.  0.
         25    1    1    2    0    0  0.74395184047E+02  0.15678475823E+03  0.63515982707E+02  0.22310397549E+03  0.12500000000E+03 0.  0.
         25    1    1    2    0    0 -0.73621588648E+02 -0.22640186406E+03  0.11642978978E+04  0.11949445750E+04  0.12500000000E+03 0.  0.
</event>
<event>
 5    0  0.5742040E-005  0.4695878E+03  0.7546771E-02  0.1022037E+00
         21   -1    0    0  502  501  0.00000000000E+00  0.00000000000E+00  0.20983166450E+03  0.20983166450E+03  0.00000000000E+00 0.  1.
         21   -1    0    0  501  502 -0.00000000000E+00 -0.00000000000E+00 -0.10509027662E+04  0.10509027662E+04  0.00000000000E+00 0.  1.
         25    1    1    2    0    0 -0.23634290624E+03 -0.33087714500E+02 -0.85898605421E+03  0.90024152732E+03  0.12500000000E+03 0.  0.
         25    1    1    2    0    0  0.56736930089E+02  0.31164028128E+02 -0.17742565833E+01  0.14077792395E+03  0.12500000000E+03 0.  0.
         25    1    1    2    0    0  0.17960597616E+03  0.19236863720E+01  0.19689209068E+02  0.21971497945E+03  0.12500000000E+03 0.  0.
</event>
<event>
 5    0  0.5742040E-005  0.7719495E+03  0.7546771E-02  0.9601531E-01
         21   -1    0    0  502  501  0.00000000000E+00  0.00000000000E+00  0.20533478266E+04  0.20533478266E+04  0.00000000000E+00 0.  1.
         21   -1    0    0  501  502 -0.00000000000E+00 -0.00000000000E+00 -0.29021191758E+03  0.29021191758E+03  0.00000000000E+00 0.  1.
         25    1    1    2    0    0 -0.34515808249E+03 -0.44538106078E+03  0.13003708935E+04  0.14227044148E+04  0.12500000000E+03 0.  0.
         25    1    1    2    0    0  0.24575337669E+03  0.39896188777E+02 -0.88311623205E+01  0.27872821432E+03  0.12500000000E+03 0.  0.
         25    1    1    2    0    0  0.99404705800E+02  0.40548487201E+03  0.47159617788E+03  0.64212711510E+03  0.12500000000E+03 0.  0.
</event>
<event>
 5    0  0.5742040E-005  0.2644424E+03  0.7546771E-02  0.1104503E+00
         21   -1    0    0  502  501  0.00000000000E+00  0.00000000000E+00  0.22591263205E+03  0.22591263205E+03  0.00000000000E+00 0. -1.
         21   -1    0    0  501  502 -0.00000000000E+00 -0.00000000000E+00 -0.30954356405E+03  0.30954356405E+03  0.00000000000E+00 0. -1.
         25    1    1    2    0    0 -0.10952197459E+03  0.90448893324E+02 -0.19631899807E+02  0.19022743417E+03  0.12500000000E+03 0.  0.
         25    1    1    2    0    0  0.31826811904E+02  0.47126998815E+02 -0.17222452033E+02  0.13840344225E+03  0.12500000000E+03 0.  0.
         25    1    1    2    0    0  0.77695162691E+02 -0.13757589214E+03 -0.46776580158E+02  0.20682531967E+03  0.12500000000E+03 0.  0.
</event>
<event>
 5    0  0.5742040E-005  0.2855778E+03  0.7546771E-02  0.1092681E+00
         21   -1    0    0  502  501  0.00000000000E+00  0.00000000000E+00  0.83168631744E+03  0.83168631744E+03  0.00000000000E+00 0. -1.
         21   -1    0    0  501  502 -0.00000000000E+00 -0.00000000000E+00 -0.98059420580E+02  0.98059420580E+02  0.00000000000E+00 0. -1.
         25    1    1    2    0    0 -0.36484289024E+02 -0.88473946557E+02  0.85873345876E+02  0.17932644561E+03  0.12500000000E+03 0.  0.
         25    1    1    2    0    0  0.14408719337E+03  0.66173545947E+01  0.38310281146E+03  0.42801597263E+03  0.12500000000E+03 0.  0.
         25    1    1    2    0    0 -0.10760290435E+03  0.81856591963E+02  0.26465073952E+03  0.32240331978E+03  0.12500000000E+03 0.  0.
</event>
<event>
 5    0  0.5742040E-005  0.2462212E+03  0.7546771E-02  0.1115716E+00
         21   -1    0    0  502  501  0.00000000000E+00  0.00000000000E+00  0.21420262755E+03  0.21420262755E+03  0.00000000000E+00 0.  1.
         21   -1    0    0  501  502 -0.00000000000E+00 -0.00000000000E+00 -0.28302594763E+03  0.28302594763E+03  0.00000000000E+00 0.  1.
         25    1    1    2    0    0  0.30361633468E+02 -0.24652908977E+01 -0.36232771004E+02  0.13366271036E+03  0.12500000000E+03 0.  0.
         25    1    1    2    0    0 -0.36877115472E+02 -0.12591768074E+03  0.58383989660E+00  0.18121954872E+03  0.12500000000E+03 0.  0.
         25    1    1    2    0    0  0.65154820045E+01  0.12838297164E+03 -0.33174388980E+02  0.18234631610E+03  0.12500000000E+03 0.  0.
</event>
<event>
 5    0  0.5742040E-005  0.3780793E+03  0.7546771E-02  0.1051646E+00
         21   -1    0    0  502  501  0.00000000000E+00  0.00000000000E+00  0.12178390475E+03  0.12178390475E+03  0.00000000000E+00 0. -1.
         21   -1    0    0  501  502 -0.00000000000E+00 -0.00000000000E+00 -0.11737509864E+04  0.11737509864E+04  0.00000000000E+00 0. -1.
         25    1    1    2    0    0  0.95522946726E+02  0.15455025351E+01 -0.14289792519E+03  0.21253667672E+03  0.12500000000E+03 0.  0.
         25    1    1    2    0    0  0.13472183209E+03 -0.63412937980E+02 -0.78098925225E+02  0.20951280359E+03  0.12500000000E+03 0.  0.
         25    1    1    2    0    0 -0.23024477882E+03  0.61867435445E+02 -0.83097023122E+03  0.87348541082E+03  0.12500000000E+03 0.  0.
</event>
<event>
 5    0  0.6348951E-005  0.2817897E+03  0.7546771E-02  0.1094715E+00
         21   -1    0    0  502  501  0.00000000000E+00  0.00000000000E+00  0.22953846351E+03  0.22953846351E+03  0.00000000000E+00 0.  1.
         21   -1    0    0  501  502 -0.00000000000E+00 -0.00000000000E+00 -0.34593527179E+03  0.34593527179E+03  0.00000000000E+00 0.  1.
         25    1    1    2    0    0  0.93732915116E+02  0.52027249788E+02 -0.11479893025E+03  0.20073985275E+03  0.12500000000E+03 0.  0.
         25    1    1    2    0    0 -0.11017751083E+03 -0.11452785233E+03  0.73617335126E+02  0.21517487047E+03  0.12500000000E+03 0.  0.
         25    1    1    2    0    0  0.16444595716E+02  0.62500602539E+02 -0.75215213161E+02  0.15955901208E+03  0.12500000000E+03 0.  0.
</event>
<event>
 5    0  0.5742040E-005  0.2471641E+03  0.7546771E-02  0.1115110E+00
         21   -1    0    0  502  501  0.00000000000E+00  0.00000000000E+00  0.19807611207E+03  0.19807611207E+03  0.00000000000E+00 0. -1.
         21   -1    0    0  501  502 -0.00000000000E+00 -0.00000000000E+00 -0.30841732251E+03  0.30841732251E+03  0.00000000000E+00 0. -1.
         25    1    1    2    0    0 -0.11287068197E+02  0.59780604109E+01  0.97075638487E+02  0.15878228712E+03  0.12500000000E+03 0.  0.
         25    1    1    2    0    0  0.38345307077E+02  0.18310682859E+02 -0.44830063260E+02  0.13942875691E+03  0.12500000000E+03 0.  0.
         25    1    1    2    0    0 -0.27058238880E+02 -0.24288743269E+02 -0.16258678567E+03  0.20828239055E+03  0.12500000000E+03 0.  0.
</event>
<event>
 5    0  0.5742040E-005  0.2579178E+03  0.7546771E-02  0.1108401E+00
         21   -1    0    0  502  501  0.00000000000E+00  0.00000000000E+00  0.56251746987E+03  0.56251746987E+03  0.00000000000E+00 0. -1.
         21   -1    0    0  501  502 -0.00000000000E+00 -0.00000000000E+00 -0.11825696892E+03  0.11825696892E+03  0.00000000000E+00 0. -1.
         25    1    1    2    0    0  0.53062511755E+02  0.54997114383E+02  0.34851711800E+03  0.37806017283E+03  0.12500000000E+03 0.  0.
         25    1    1    2    0    0 -0.21002064554E+02 -0.78472206737E+01 -0.12776142016E+02  0.12763579197E+03  0.12500000000E+03 0.  0.
         25    1    1    2    0    0 -0.32060447201E+02 -0.47149893710E+02  0.10851952497E+03  0.17507847398E+03  0.12500000000E+03 0.  0.
</event>
<event>
 5    0  0.5742040E-005  0.2793955E+03  0.7546771E-02  0.1096020E+00
         21   -1    0    0  502  501  0.00000000000E+00  0.00000000000E+00  0.24213652599E+03  0.24213652599E+03  0.00000000000E+00 0.  1.
         21   -1    0    0  501  502 -0.00000000000E+00 -0.00000000000E+00 -0.32238776085E+03  0.32238776085E+03  0.00000000000E+00 0.  1.
         25    1    1    2    0    0 -0.72014289569E+02  0.14959039462E+02  0.10234417929E+03  0.17750820206E+03  0.12500000000E+03 0.  0.
         25    1    1    2    0    0  0.86802597822E+02 -0.10309818169E+03 -0.70767067075E+02  0.19696929669E+03  0.12500000000E+03 0.  0.
         25    1    1    2    0    0 -0.14788308253E+02  0.88139142232E+02 -0.11182834708E+03  0.19004678809E+03  0.12500000000E+03 0.  0.
</event>
<event>
 5    0  0.5742040E-005  0.2269440E+03  0.7546771E-02  0.1128809E+00
         21   -1    0    0  502  501  0.00000000000E+00  0.00000000000E+00  0.59390882745E+03  0.59390882745E+03  0.00000000000E+00 0. -1.
         21   -1    0    0  501  502 -0.00000000000E+00 -0.00000000000E+00 -0.86719653046E+02  0.86719653046E+02  0.00000000000E+00 0. -1.
         25    1    1    2    0    0 -0.32193942146E+02 -0.23875952720E+02  0.20052482155E+03  0.23967001291E+03  0.12500000000E+03 0.  0.
         25    1    1    2    0    0  0.29626122377E+02 -0.61753976117E+02  0.67221322191E+02  0.15759113824E+03  0.12500000000E+03 0.  0.
         25    1    1    2    0    0  0.25678197687E+01  0.85629928837E+02  0.23944303066E+03  0.28336732935E+03  0.12500000000E+03 0.  0.
</event>
<event>
 5    0  0.5742040E-005  0.3615500E+03  0.7546771E-02  0.1057972E+00
         21   -1    0    0  502  501  0.00000000000E+00  0.00000000000E+00  0.10597100897E+04  0.10597100897E+04  0.00000000000E+00 0. -1.
         21   -1    0    0  501  502 -0.00000000000E+00 -0.00000000000E+00 -0.12335300715E+03  0.12335300715E+03  0.00000000000E+00 0. -1.
         25    1    1    2    0    0 -0.11547774164E+03 -0.12637517642E+03  0.36371623067E+03  0.42097540365E+03  0.12500000000E+03 0.  0.
         25    1    1    2    0    0  0.23927128588E+03  0.30700518747E+02  0.45467339086E+03  0.52966608580E+03  0.12500000000E+03 0.  0.
         25    1    1    2    0    0 -0.12379354424E+03  0.95674657674E+02  0.11796746099E+03  0.23242160736E+03  0.12500000000E+03 0.  0.
</event>
<event>
 5    0  0.5742040E-005  0.2990679E+03  0.7546771E-02  0.1085707E+00
         21   -1    0    0  502  501  0.00000000000E+00  0.00000000000E+00  0.77185894692E+02  0.77185894692E+02  0.00000000000E+00 0.  1.
         21   -1    0    0  501  502 -0.00000000000E+00 -0.00000000000E+00 -0.11587820832E+04  0.11587820832E+04  0.00000000000E+00 0.  1.
         25    1    1    2    0    0 -0.12827494709E+03  0.71936362194E+02 -0.42608844146E+03  0.46776667496E+03  0.12500000000E+03 0.  0.
         25    1    1    2    0    0  0.11623745617E+03 -0.17434877378E+02 -0.10551735918E+03  0.20142997357E+03  0.12500000000E+03 0.  0.
         25    1    1    2    0    0  0.12037490928E+02 -0.54501484816E+02 -0.54999038790E+03  0.56677132939E+03  0.12500000000E+03 0.  0.
</event>
<event>
 5    0  0.5742040E-005  0.2897065E+03  0.7546771E-02  0.1090502E+00
         21   -1    0    0  502  501  0.00000000000E+00  0.00000000000E+00  0.18278814159E+03  0.18278814159E+03  0.00000000000E+00 0.  1.
         21   -1    0    0  501  502 -0.00000000000E+00 -0.00000000000E+00 -0.45916469983E+03  0.45916469983E+03  0.00000000000E+00 0.  1.
         25    1    1    2    0    0  0.49449672073E+02  0.31128402388E+02 -0.13091693836E+03  0.19020644640E+03  0.12500000000E+03 0.  0.
         25    1    1    2    0    0 -0.10105892479E+03 -0.10492176249E+03 -0.21018149316E+03  0.28464494127E+03  0.12500000000E+03 0.  0.
         25    1    1    2    0    0  0.51609252719E+02  0.73793360106E+02  0.64721873278E+02  0.16710145374E+03  0.12500000000E+03 0.  0.
</event>
<event>
 5    0  0.6977084E-005  0.2765830E+03  0.7546771E-02  0.1097570E+00
         21   -1    0    0  502  501  0.00000000000E+00  0.00000000000E+00  0.71957398378E+03  0.71957398378E+03  0.00000000000E+00 0.  1.
         21   -1    0    0  501  502 -0.00000000000E+00 -0.00000000000E+00 -0.10631036956E+03  0.10631036956E+03  0.00000000000E+00 0.  1.
         25    1    1    2    0    0  0.27905984394E+02  0.46520148561E+01 -0.29203394166E+02  0.13144665625E+03  0.12500000000E+03 0.  0.
         25    1    1    2    0    0  0.17059422763E+02 -0.42821724517E+01  0.24933199205E+03  0.27946520922E+03  0.12500000000E+03 0.  0.
         25    1    1    2    0    0 -0.44965407157E+02 -0.36984240439E+00  0.39313501634E+03  0.41497248788E+03  0.12500000000E+03 0.  0.
</event>
<event>
 5    0  0.5742040E-005  0.3857742E+03  0.7546771E-02  0.1048820E+00
         21   -1    0    0  502  501  0.00000000000E+00  0.00000000000E+00  0.38133240845E+03  0.38133240845E+03  0.00000000000E+00 0.  1.
         21   -1    0    0  501  502 -0.00000000000E+00 -0.00000000000E+00 -0.39026769061E+03  0.39026769061E+03  0.00000000000E+00 0.  1.
         25    1    1    2    0    0 -0.27565662886E+02 -0.67795251745E+00 -0.20998990161E+03  0.24592902263E+03  0.12500000000E+03 0.  0.
         25    1    1    2    0    0  0.39734585327E+02  0.17441641553E+03  0.22072254012E+03  0.31039227277E+03  0.12500000000E+03 0.  0.
         25    1    1    2    0    0 -0.12168922441E+02 -0.17373846301E+03 -0.19667920676E+02  0.21527880366E+03  0.12500000000E+03 0.  0.
</event>
<event>
 5    0  0.5742040E-005  0.2953874E+03  0.7546771E-02  0.1087569E+00
         21   -1    0    0  502  501  0.00000000000E+00  0.00000000000E+00  0.93372468950E+02  0.93372468950E+02  0.00000000000E+00 0. -1.
         21   -1    0    0  501  502 -0.00000000000E+00 -0.00000000000E+00 -0.93446927467E+03  0.93446927467E+03  0.00000000000E+00 0. -1.
         25    1    1    2    0    0 -0.16469907452E+02 -0.58713338775E+02 -0.48591177472E+03  0.50542434332E+03  0.12500000000E+03 0.  0.
         25    1    1    2    0    0 -0.10153844330E+03  0.27399037245E+02 -0.29572515531E+03  0.33784483153E+03  0.12500000000E+03 0.  0.
         25    1    1    2    0    0  0.11800835075E+03  0.31314301530E+02 -0.59459875692E+02  0.18457256878E+03  0.12500000000E+03 0.  0.
</event>
<event>
 5    0  0.5742040E-005  0.3582532E+03  0.7546771E-02  0.1059278E+00
         21   -1    0    0  502  501  0.00000000000E+00  0.00000000000E+00  0.53909703465E+03  0.53909703465E+03  0.00000000000E+00 0. -1.
         21   -1    0    0  501  502 -0.00000000000E+00 -0.00000000000E+00 -0.23807467067E+03  0.23807467067E+03  0.00000000000E+00 0. -1.
         25    1    1    2    0    0  0.15123824124E+03  0.31466160766E+02  0.14704400209E+02  0.19925948979E+03  0.12500000000E+03 0.  0.
         25    1    1    2    0    0 -0.28750809201E+03 -0.44067141396E+02  0.18511944779E+03  0.36673836161E+03  0.12500000000E+03 0.  0.
         25    1    1    2    0    0  0.13626985077E+03  0.12600980630E+02  0.10119851597E+03  0.21117385391E+03  0.12500000000E+03 0.  0.
</event>
<event>
 5    0  0.5742040E-005  0.2248742E+03  0.7546771E-02  0.1130300E+00
         21   -1    0    0  502  501  0.00000000000E+00  0.00000000000E+00  0.35537339339E+03  0.35537339339E+03  0.00000000000E+00 0.  1.
         21   -1    0    0  501  502 -0.00000000000E+00 -0.00000000000E+00 -0.14229652106E+03  0.14229652106E+03  0.00000000000E+00 0.  1.
         25    1    1    2    0    0  0.49647159131E+02 -0.74647531510E+02  0.94173958930E+02  0.18036304752E+03  0.12500000000E+03 0.  0.
         25    1    1    2    0    0 -0.86135223475E+02  0.55940734759E+02  0.53552145635E+02  0.17041559445E+03  0.12500000000E+03 0.  0.
         25    1    1    2    0    0  0.36488064343E+02  0.18706796750E+02  0.65350767768E+02  0.14689127248E+03  0.12500000000E+03 0.  0.
</event>
<event>
 5    0  0.5742040E-005  0.2230342E+03  0.7546771E-02  0.1131641E+00
         21   -1    0    0  502  501  0.00000000000E+00  0.00000000000E+00  0.38259632777E+02  0.38259632777E+02  0.00000000000E+00 0. -1.
         21   -1    0    0  501  502 -0.00000000000E+00 -0.00000000000E+00 -0.13001757876E+04  0.13001757876E+04  0.00000000000E+00 0. -1.
         25    1    1    2    0    0  0.54012345836E+02 -0.32013349747E+02 -0.40105369553E+03  0.42474846058E+03  0.12500000000E+03 0.  0.
         25    1    1    2    0    0 -0.75625163278E+02  0.66929413018E+02 -0.33404866159E+03  0.37069154288E+03  0.12500000000E+03 0.  0.
         25    1    1    2    0    0  0.21612817441E+02 -0.34916063271E+02 -0.52681379766E+03  0.54299541689E+03  0.12500000000E+03 0.  0.
</event>
<event>
 5    0  0.5742040E-005  0.2748326E+03  0.7546771E-02  0.1098545E+00
         21   -1    0    0  502  501  0.00000000000E+00  0.00000000000E+00  0.39724125869E+03  0.39724125869E+03  0.00000000000E+00 0. -1.
         21   -1    0    0  501  502 -0.00000000000E+00 -0.00000000000E+00 -0.19014374341E+03  0.19014374341E+03  0.00000000000E+00 0. -1.
         25    1    1    2    0    0  0.49639128453E+02  0.98451435845E+01  0.74172442616E+01  0.13505919235E+03  0.12500000000E+03 0.  0.
         25    1    1    2    0    0  0.92623977815E+02 -0.48094269994E+02 -0.14975661431E+02  0.16352837830E+03  0.12500000000E+03 0.  0.
         25    1    1    2    0    0 -0.14226310627E+03  0.38249126409E+02  0.21465593245E+03  0.28879743145E+03  0.12500000000E+03 0.  0.
</event>
<event>
 5    0  0.8157757E-005  0.7131536E+03  0.7546771E-02  0.9694999E-01
         21   -1    0    0  502  501  0.00000000000E+00  0.00000000000E+00  0.15322211634E+04  0.15322211634E+04  0.00000000000E+00 0.  1.
         21   -1    0    0  501  502 -0.00000000000E+00 -0.00000000000E+00 -0.33192859285E+03  0.33192859285E+03  0.00000000000E+00 0.  1.
         25    1    1    2    0    0 -0.42217469034E+03  0.20955548683E+03  0.59616357912E+03  0.77018243572E+03  0.12500000000E+03 0.  0.
         25    1    1    2    0    0  0.15029325031E+03 -0.47039176576E+03  0.27863738145E+03  0.58062058586E+03  0.12500000000E+03 0.  0.
         25    1    1    2    0    0  0.27188144002E+03  0.26083627893E+03  0.32549160999E+03  0.51334673468E+03  0.12500000000E+03 0.  0.
</event>
<event>
 5    0  0.5742040E-005  0.3393486E+03  0.7546771E-02  0.1067074E+00
         21   -1    0    0  502  501  0.00000000000E+00  0.00000000000E+00  0.28335933059E+04  0.28335933059E+04  0.00000000000E+00 0.  1.
         21   -1    0    0  501  502 -0.00000000000E+00 -0.00000000000E+00 -0.40640083038E+02  0.40640083038E+02  0.00000000000E+00 0.  1.
         25    1    1    2    0    0 -0.80701884337E+02 -0.14536806082E+03  0.79783013701E+03  0.82450142193E+03  0.12500000000E+03 0.  0.
         25    1    1    2    0    0  0.20067236506E+03  0.80175186112E+02  0.15098534938E+04  0.15303529107E+04  0.12500000000E+03 0.  0.
         25    1    1    2    0    0 -0.11997048073E+03  0.65192874703E+02  0.48526959210E+03  0.51937905635E+03  0.12500000000E+03 0.  0.
</event>
<event>
 5    0  0.5742040E-005  0.2176818E+03  0.7546771E-02  0.1135623E+00
         21   -1    0    0  502  501  0.00000000000E+00  0.00000000000E+00  0.18743267644E+02  0.18743267644E+02  0.00000000000E+00 0. -1.
         21   -1    0    0  501  502 -0.00000000000E+00 -0.00000000000E+00 -0.25281268189E+04  0.25281268189E+04  0.00000000000E+00 0. -1.
         25    1    1    2    0    0  0.19191137281E+02  0.71495750816E+02 -0.97100034920E+03  0.98180783266E+03  0.12500000000E+03 0.  0.
         25    1    1    2    0    0 -0.27093104345E+02 -0.29143111052E+02 -0.10816863843E+04  0.10896117617E+04  0.12500000000E+03 0.  0.
         25    1    1    2    0    0  0.79019670643E+01 -0.42352639764E+02 -0.45669681773E+03  0.47545049217E+03  0.12500000000E+03 0.  0.
</event>
<event>
 5    0  0.5742040E-005  0.2917239E+03  0.7546771E-02  0.1089453E+00
         21   -1    0    0  502  501  0.00000000000E+00  0.00000000000E+00  0.49272352144E+03  0.49272352144E+03  0.00000000000E+00 0. -1.
         21   -1    0    0  501  502 -0.00000000000E+00 -0.00000000000E+00 -0.17271918440E+03  0.17271918440E+03  0.00000000000E+00 0. -1.
         25    1    1    2    0    0 -0.43014329110E+02  0.11476438307E+03  0.22390496802E+03  0.28421740066E+03  0.12500000000E+03 0.  0.
         25    1    1    2    0    0  0.17418905616E+02  0.63896280741E+02 -0.27045972444E+00  0.14146104098E+03  0.12500000000E+03 0.  0.
         25    1    1    2    0    0  0.25595423494E+02 -0.17866066381E+03  0.96369828739E+02  0.23976426420E+03  0.12500000000E+03 0.  0.
</event>
<event>
 5    0  0.5742040E-005  0.2326554E+03  0.7546771E-02  0.1124785E+00
         21   -1    0    0  502  501  0.00000000000E+00  0.00000000000E+00  0.23854317897E+04  0.23854317897E+04  0.00000000000E+00 0. -1.
         21   -1    0    0  501  502 -0.00000000000E+00 -0.00000000000E+00 -0.22691291976E+02  0.22691291976E+02  0.00000000000E+00 0. -1.
         25    1    1    2    0    0  0.88191935727E+02  0.82166491392E+01  0.12362314332E+04  0.12456879574E+04  0.12500000000E+03 0.  0.
         25    1    1    2    0    0 -0.97722851592E+02  0.13975685687E+02  0.60608229173E+03  0.62666244491E+03  0.12500000000E+03 0.  0.
         25    1    1    2    0    0  0.95309158652E+01 -0.22192334826E+02  0.52042677283E+03  0.53577267937E+03  0.12500000000E+03 0.  0.
</event>
<event>
 5    0  0.6904769E-005  0.3804121E+03  0.7546771E-02  0.1050782E+00
         21   -1    0    0  502  501  0.00000000000E+00  0.00000000000E+00  0.46774800487E+03  0.46774800487E+03  0.00000000000E+00 0.  1.
         21   -1    0    0  501  502 -0.00000000000E+00 -0.00000000000E+00 -0.30938318936E+03  0.30938318936E+03  0.00000000000E+00 0.  1.
         25    1    1    2    0    0 -0.10353379689E+02  0.12209337019E+03 -0.11513496382E+03  0.20951143980E+03  0.12500000000E+03 0.  0.
         25    1    1    2    0    0 -0.15927636355E+03 -0.18819036155E+03  0.15836387205E+03  0.31857289298E+03  0.12500000000E+03 0.  0.
         25    1    1    2    0    0  0.16962974324E+03  0.66096991358E+02  0.11513590727E+03  0.24904686146E+03  0.12500000000E+03 0.  0.
</event>
<event>
 5    0  0.5742040E-005  0.3962907E+03  0.7546771E-02  0.1045072E+00
         21   -1    0    0  502  501  0.00000000000E+00  0.00000000000E+00  0.43094986833E+03  0.43094986833E+03  0.00000000000E+00 0. -1.
         21   -1    0    0  501  502 -0.00000000000E+00 -0.00000000000E+00 -0.36441892886E+03  0.36441892886E+03  0.00000000000E+00 0. -1.
         25    1    1    2    0    0  0.25814312873E+03 -0.10960009825E+03  0.13814752954E+03  0.33668946578E+03  0.12500000000E+03 0.  0.
         25    1    1    2    0    0 -0.10870877766E+03  0.98212604981E+02  0.82990695879E+02  0.20970400502E+03  0.12500000000E+03 0.  0.
         25    1    1    2    0    0 -0.14943435107E+03  0.11387493269E+02 -0.15460728595E+03  0.24897532639E+03  0.12500000000E+03 0.  0.
</event>
<event>
 5    0  0.5742040E-005  0.4359449E+03  0.7546771E-02  0.1031998E+00
         21   -1    0    0  502  501  0.00000000000E+00  0.00000000000E+00  0.99295521110E+03  0.99295521110E+03  0.00000000000E+00 0.  1.
         21   -1    0    0  501  502 -0.00000000000E+00 -0.00000000000E+00 -0.19139626263E+03  0.19139626263E+03  0.00000000000E+00 0.  1.
         25    1    1    2    0    0 -0.14518167617E+03 -0.27982814213E+03  0.24405601531E+03  0.41781556557E+03  0.12500000000E+03 0.  0.
         25    1    1    2    0    0  0.25091815098E+03  0.18119862996E+03  0.32970890849E+03  0.46917568813E+03  0.12500000000E+03 0.  0.
         25    1    1    2    0    0 -0.10573647481E+03  0.98629512170E+02  0.22779402467E+03  0.29736022002E+03  0.12500000000E+03 0.  0.
</event>
<event>
 5    0  0.6425165E-005  0.2828764E+03  0.7546771E-02  0.1094128E+00
         21   -1    0    0  502  501  0.00000000000E+00  0.00000000000E+00  0.66224795314E+03  0.66224795314E+03  0.00000000000E+00 0.  1.
         21   -1    0    0  501  502 -0.00000000000E+00 -0.00000000000E+00 -0.12082948876E+03  0.12082948876E+03  0.00000000000E+00 0.  1.
         25    1    1    2    0    0  0.21012472260E+02  0.13783482031E+02  0.29121271924E+03  0.31790148822E+03  0.12500000000E+03 0.  0.
         25    1    1    2    0    0 -0.12333703793E+03 -0.23238662486E+02  0.12442827456E+02  0.17757219465E+03  0.12500000000E+03 0.  0.
         25    1    1    2    0    0  0.10232456567E+03  0.94551804550E+01  0.23776291769E+03  0.28760375903E+03  0.12500000000E+03 0.  0.
</event>
<event>
 5    0  0.5742040E-005  0.2898625E+03  0.7546771E-02  0.1090421E+00
         21   -1    0    0  502  501  0.00000000000E+00  0.00000000000E+00  0.50797222679E+02  0.50797222679E+02  0.00000000000E+00 0.  1.
         21   -1    0    0  501  502 -0.00000000000E+00 -0.00000000000E+00 -0.16540325068E+04  0.16540325068E+04  0.00000000000E+00 0.  1.
         25    1    1    2    0    0 -0.24012294503E+02  0.23608352467E+02 -0.59872660350E+03  0.61256223385E+03  0.12500000000E+03 0.  0.
         25    1    1    2    0    0  0.17200977631E+03 -0.57545143772E+02 -0.65726015921E+03  0.69319169326E+03  0.12500000000E+03 0.  0.
         25    1    1    2    0    0 -0.14799748180E+03  0.33936791305E+02 -0.34724852145E+03  0.39907580242E+03  0.12500000000E+03 0.  0.
</event>
<event>
 5    0  0.5742040E-005  0.3825544E+03  0.7546771E-02  0.1049994E+00
         21   -1    0    0  502  501  0.00000000000E+00  0.00000000000E+00  0.11642696163E+04  0.11642696163E+04  0.00000000000E+00 0.  1.
         21   -1    0    0  501  502 -0.00000000000E+00 -0.00000000000E+00 -0.12569928922E+03  0.12569928922E+03  0.00000000000E+00 0.  1.
         25    1    1    2    0    0 -0.44744642100E+02 -0.22448470693E+03  0.51816066191E+03  0.58009562849E+03  0.12500000000E+03 0.  0.
         25    1    1    2    0    0  0.18857719576E+03  0.14598470426E+03  0.23214558570E+03  0.35551296122E+03  0.12500000000E+03 0.  0.
         25    1    1    2    0    0 -0.14383255366E+03  0.78500002662E+02  0.28826407948E+03  0.35436031582E+03  0.12500000000E+03 0.  0.
</event>
<event>
 5    0  0.5742040E-005  0.3406942E+03  0.7546771E-02  0.1066501E+00
         21   -1    0    0  502  501  0.00000000000E+00  0.00000000000E+00  0.61544445775E+02  0.61544445775E+02  0.00000000000E+00 0.  1.
         21   -1    0    0  501  502 -0.00000000000E+00 -0.00000000000E+00 -0.18859950417E+04  0.18859950417E+04  0.00000000000E+00 0.  1.
         25    1    1    2    0    0  0.19028449765E+03  0.41819621246E+01 -0.58585822597E+03  0.62855432525E+03  0.12500000000E+03 0.  0.
         25    1    1    2    0    0 -0.22254317591E+03  0.33320479513E+02 -0.44500147408E+03  0.51408854435E+03  0.12500000000E+03 0.  0.
         25    1    1    2    0    0  0.32258678263E+02 -0.37502441637E+02 -0.79359089586E+03  0.80489661786E+03  0.12500000000E+03 0.  0.
</event>
<event>
 5    0  0.5742040E-005  0.3179023E+03  0.7546771E-02  0.1076619E+00
         21   -1    0    0  502  501  0.00000000000E+00  0.00000000000E+00  0.20283378103E+03  0.20283378103E+03  0.00000000000E+00 0. -1.
         21   -1    0    0  501  502 -0.00000000000E+00 -0.00000000000E+00 -0.49824962932E+03  0.49824962932E+03  0.00000000000E+00 0. -1.
         25    1    1    2    0    0  0.16421266000E+03 -0.86457004328E+02 -0.73282418534E+02  0.23544834713E+03  0.12500000000E+03 0.  0.
         25    1    1    2    0    0 -0.86664868640E+02  0.74974246405E+01 -0.25353312219E+03  0.29575505893E+03  0.12500000000E+03 0.  0.
         25    1    1    2    0    0 -0.77547791360E+02  0.78959579687E+02  0.31399692436E+02  0.16988000428E+03  0.12500000000E+03 0.  0.
</event>
<event>
 5    0  0.6360022E-005  0.3521196E+03  0.7546771E-02  0.1061748E+00
         21   -1    0    0  502  501  0.00000000000E+00  0.00000000000E+00  0.61406032263E+03  0.61406032263E+03  0.00000000000E+00 0.  1.
         21   -1    0    0  501  502 -0.00000000000E+00 -0.00000000000E+00 -0.20191539055E+03  0.20191539055E+03  0.00000000000E+00 0.  1.
         25    1    1    2    0    0 -0.63402476939E+02  0.21164603978E+03  0.14631287921E+03  0.29299552703E+03  0.12500000000E+03 0.  0.
         25    1    1    2    0    0 -0.41329531587E+02 -0.74810489501E+02  0.27055515318E+03  0.31004810987E+03  0.12500000000E+03 0.  0.
         25    1    1    2    0    0  0.10473200853E+03 -0.13683555028E+03 -0.47231003042E+01  0.21293207628E+03  0.12500000000E+03 0.  0.
</event>
<event>
 5    0  0.5742040E-005  0.2743521E+03  0.7546771E-02  0.1098814E+00
         21   -1    0    0  502  501  0.00000000000E+00  0.00000000000E+00  0.11150298201E+04  0.11150298201E+04  0.00000000000E+00 0. -1.
         21   -1    0    0  501  502 -0.00000000000E+00 -0.00000000000E+00 -0.67504114023E+02  0.67504114023E+02  0.00000000000E+00 0. -1.
         25    1    1    2    0    0  0.54834667606E+02 -0.50605461112E+02  0.45276309607E+03  0.47559139461E+03  0.12500000000E+03 0.  0.
         25    1    1    2    0    0 -0.58328700680E+02 -0.30653444332E+02  0.63086992475E+02  0.15474766425E+03  0.12500000000E+03 0.  0.
         25    1    1    2    0    0  0.34940330738E+01  0.81258905444E+02  0.53167561750E+03  0.55219487523E+03  0.12500000000E+03 0.  0.
</event>
<event>
 5    0  0.5742040E-005  0.2781903E+03  0.7546771E-02  0.1096681E+00
         21   -1    0    0  502  501  0.00000000000E+00  0.00000000000E+00  0.13789859128E+04  0.13789859128E+04  0.00000000000E+00 0. -1.
         21   -1    0    0  501  502 -0.00000000000E+00 -0.00000000000E+00 -0.56120843195E+02  0.56120843195E+02  0.00000000000E+00 0. -1.
         25    1    1    2    0    0 -0.27227909915E+02 -0.39632330060E+02  0.10416049539E+03  0.16966581702E+03  0.12500000000E+03 0.  0.
         25    1    1    2    0    0 -0.19428442494E+01 -0.22662206916E+02  0.97343613170E+03  0.98169254492E+03  0.12500000000E+03 0.  0.
         25    1    1    2    0    0  0.29170754165E+02  0.62294536975E+02  0.24526844255E+03  0.28374839408E+03  0.12500000000E+03 0.  0.
</event>
<event>
 5    0  0.5742040E-005  0.2421357E+03  0.7546771E-02  0.1118378E+00
         21   -1    0    0  502  501  0.00000000000E+00  0.00000000000E+00  0.17689557965E+04  0.17689557965E+04  0.00000000000E+00 0. -1.
         21   -1    0    0  501  502 -0.00000000000E+00 -0.00000000000E+00 -0.33143680547E+02  0.33143680547E+02  0.00000000000E+00 0. -1.
         25    1    1    2    0    0  0.75910329354E+02 -0.36627438874E+02  0.31828054750E+03  0.35218099650E+03  0.12500000000E+03 0.  0.
         25    1    1    2    0    0 -0.41552396022E+02  0.72721472027E+01  0.10653811261E+04  0.10735182483E+04  0.12500000000E+03 0.  0.
         25    1    1    2    0    0 -0.34357933332E+02  0.29355291671E+02  0.35215044242E+03  0.37640023224E+03  0.12500000000E+03 0.  0.
</event>
<event>
 5    0  0.5742040E-005  0.2781998E+03  0.7546771E-02  0.1096676E+00
         21   -1    0    0  502  501  0.00000000000E+00  0.00000000000E+00  0.39504015004E+03  0.39504015004E+03  0.00000000000E+00 0. -1.
         21   -1    0    0  501  502 -0.00000000000E+00 -0.00000000000E+00 -0.19591718268E+03  0.19591718268E+03  0.00000000000E+00 0.  1.
         25    1    1    2    0    0 -0.10884833004E+03 -0.56356212796E+02  0.62579335099E+02  0.18591706445E+03  0.12500000000E+03 0.  0.
         25    1    1    2    0    0 -0.22718967260E+02 -0.45241588740E+02  0.14351802203E+03  0.19694003014E+03  0.12500000000E+03 0.  0.
         25    1    1    2    0    0  0.13156729730E+03  0.10159780154E+03 -0.69743897717E+01  0.20810023813E+03  0.12500000000E+03 0.  0.
</event>
<event>
 5    0  0.5742040E-005  0.3303133E+03  0.7546771E-02  0.1070998E+00
         21   -1    0    0  502  501  0.00000000000E+00  0.00000000000E+00  0.30259179071E+03  0.30259179071E+03  0.00000000000E+00 0.  1.
         21   -1    0    0  501  502 -0.00000000000E+00 -0.00000000000E+00 -0.36057457280E+03  0.36057457280E+03  0.00000000000E+00 0.  1.
         25    1    1    2    0    0  0.90625071239E+01  0.45962648835E+01 -0.12884126332E+02  0.12607242124E+03  0.12500000000E+03 0.  0.
         25    1    1    2    0    0 -0.18721712629E+03  0.14720284232E+03 -0.72591381033E+01  0.26906620793E+03  0.12500000000E+03 0.  0.
         25    1    1    2    0    0  0.17815461916E+03 -0.15179910721E+03 -0.37839517653E+02  0.26802773434E+03  0.12500000000E+03 0.  0.
</event>
<event>
 5    0  0.5742040E-005  0.2603562E+03  0.7546771E-02  0.1106929E+00
         21   -1    0    0  502  501  0.00000000000E+00  0.00000000000E+00  0.23838828767E+03  0.23838828767E+03  0.00000000000E+00 0.  1.
         21   -1    0    0  501  502 -0.00000000000E+00 -0.00000000000E+00 -0.28434858563E+03  0.28434858563E+03  0.00000000000E+00 0.  1.
         25    1    1    2    0    0 -0.44666646736E+01 -0.13412298367E+03 -0.12675680742E+02  0.18383307299E+03  0.12500000000E+03 0.  0.
         25    1    1    2    0    0  0.81797828649E+02  0.11412864524E+03 -0.31096927326E+02  0.19054724171E+03  0.12500000000E+03 0.  0.
         25    1    1    2    0    0 -0.77331163975E+02  0.19994338438E+02 -0.21876898878E+01  0.14835655860E+03  0.12500000000E+03 0.  0.
</event>
<event>
 5    0  0.5742040E-005  0.5462774E+03  0.7546771E-02  0.1002359E+00
         21   -1    0    0  502  501  0.00000000000E+00  0.00000000000E+00  0.31184266143E+03  0.31184266143E+03  0.00000000000E+00 0.  1.
         21   -1    0    0  501  502 -0.00000000000E+00 -0.00000000000E+00 -0.95695389400E+03  0.95695389400E+03  0.00000000000E+00 0.  1.
         25    1    1    2    0    0 -0.44594033360E+02 -0.66349448427E+02  0.21357829569E+03  0.26006069582E+03  0.12500000000E+03 0.  0.
         25    1    1    2    0    0 -0.20842731279E+02 -0.19466773127E+03 -0.35899034343E+03  0.42758509295E+03  0.12500000000E+03 0.  0.
         25    1    1    2    0    0  0.65436764639E+02  0.26101717969E+03 -0.49969918484E+03  0.58115076666E+03  0.12500000000E+03 0.  0.
</event>
<event>
 5    0  0.5742040E-005  0.3421298E+03  0.7546771E-02  0.1065892E+00
         21   -1    0    0  502  501  0.00000000000E+00  0.00000000000E+00  0.12879158452E+03  0.12879158452E+03  0.00000000000E+00 0. -1.
         21   -1    0    0  501  502 -0.00000000000E+00 -0.00000000000E+00 -0.90885456879E+03  0.90885456879E+03  0.00000000000E+00 0. -1.
         25    1    1    2    0    0  0.17838391624E+03  0.11295261732E+03 -0.44247151550E+03  0.50594975774E+03  0.12500000000E+03 0.  0.
         25    1    1    2    0    0 -0.83274476780E+02 -0.15095978091E+03 -0.29632757763E+03  0.36490893001E+03  0.12500000000E+03 0.  0.
         25    1    1    2    0    0 -0.95109439456E+02  0.38007163590E+02 -0.41263891146E+02  0.16678746557E+03  0.12500000000E+03 0.  0.
</event>
<event>
 5    0  0.5742040E-005  0.4280867E+03  0.7546771E-02  0.1034466E+00
         21   -1    0    0  502  501  0.00000000000E+00  0.00000000000E+00  0.46158716675E+03  0.46158716675E+03  0.00000000000E+00 0. -1.
         21   -1    0    0  501  502 -0.00000000000E+00 -0.00000000000E+00 -0.39701753044E+03  0.39701753044E+03  0.00000000000E+00 0. -1.
         25    1    1    2    0    0  0.14858741431E+03  0.26178125994E+03  0.19279744023E+03  0.37868654677E+03  0.12500000000E+03 0.  0.
         25    1    1    2    0    0 -0.13657149776E+03 -0.25852724401E+03 -0.27997236984E+02  0.31921302475E+03  0.12500000000E+03 0.  0.
         25    1    1    2    0    0 -0.12015916546E+02 -0.32540159305E+01 -0.10023056693E+03  0.16070512567E+03  0.12500000000E+03 0.  0.
</event>
<event>
 5    0  0.5742040E-005  0.2296565E+03  0.7546771E-02  0.1126882E+00
         21   -1    0    0  502  501  0.00000000000E+00  0.00000000000E+00  0.31371640693E+03  0.31371640693E+03  0.00000000000E+00 0. -1.
         21   -1    0    0  501  502 -0.00000000000E+00 -0.00000000000E+00 -0.16812036344E+03  0.16812036344E+03  0.00000000000E+00 0. -1.
         25    1    1    2    0    0 -0.77280036396E+02 -0.11061697743E+02  0.10862805390E+03  0.18308364011E+03  0.12500000000E+03 0.  0.
         25    1    1    2    0    0  0.15051454775E+02 -0.56869126838E+02  0.38679239098E+02  0.14346333126E+03  0.12500000000E+03 0.  0.
         25    1    1    2    0    0  0.62228581621E+02  0.67930824581E+02 -0.17112494977E+01  0.15528979900E+03  0.12500000000E+03 0.  0.
</event>
<event>
 5    0  0.5742040E-005  0.2378938E+03  0.7546771E-02  0.1121204E+00
         21   -1    0    0  502  501  0.00000000000E+00  0.00000000000E+00  0.18421863266E+03  0.18421863266E+03  0.00000000000E+00 0. -1.
         21   -1    0    0  501  502 -0.00000000000E+00 -0.00000000000E+00 -0.30720800283E+03  0.30720800283E+03  0.00000000000E+00 0. -1.
         25    1    1    2    0    0  0.55621864457E+02  0.71501742282E+02 -0.14373548502E+03  0.21092932610E+03  0.12500000000E+03 0.  0.
         25    1    1    2    0    0 -0.25424691505E+02 -0.11416376456E+02 -0.26726698459E+02  0.13082837995E+03  0.12500000000E+03 0.  0.
         25    1    1    2    0    0 -0.30197172952E+02 -0.60085365826E+02  0.47472813304E+02  0.14966892945E+03  0.12500000000E+03 0.  0.
</event>
<event>
 5    0  0.5742040E-005  0.2620785E+03  0.7546771E-02  0.1105901E+00
         21   -1    0    0  502  501  0.00000000000E+00  0.00000000000E+00  0.34640255100E+03  0.34640255100E+03  0.00000000000E+00 0.  1.
         21   -1    0    0  501  502 -0.00000000000E+00 -0.00000000000E+00 -0.19828131990E+03  0.19828131990E+03  0.00000000000E+00 0.  1.
         25    1    1    2    0    0 -0.92731735734E+02  0.73408294733E+02  0.10268428263E+03  0.20039215166E+03  0.12500000000E+03 0.  0.
         25    1    1    2    0    0 -0.99541165095E+00 -0.34948421632E+02 -0.68855242252E+02  0.14693000852E+03  0.12500000000E+03 0.  0.
         25    1    1    2    0    0  0.93727147385E+02 -0.38459873101E+02  0.11429219072E+03  0.19736171071E+03  0.12500000000E+03 0.  0.
</event>
<event>
 5    0  0.5742040E-005  0.3278070E+03  0.7546771E-02  0.1072111E+00
         21   -1    0    0  502  501  0.00000000000E+00  0.00000000000E+00  0.21753663039E+03  0.21753663039E+03  0.00000000000E+00 0. -1.
         21   -1    0    0  501  502 -0.00000000000E+00 -0.00000000000E+00 -0.49397387864E+03  0.49397387864E+03  0.00000000000E+00 0. -1.
         25    1    1    2    0    0 -0.76743116355E+02 -0.10774345897E+03 -0.12515705041E+03  0.22087880416E+03  0.12500000000E+03 0.  0.
         25    1    1    2    0    0  0.16613022499E+03  0.19598279973E+03 -0.62670807167E+02  0.29250835803E+03  0.12500000000E+03 0.  0.
         25    1    1    2    0    0 -0.89387108639E+02 -0.88239340758E+02 -0.88609390681E+02  0.19812334684E+03  0.12500000000E+03 0.  0.
</event>
<event>
 5    0  0.5742040E-005  0.2760082E+03  0.7546771E-02  0.1097889E+00
         21   -1    0    0  502  501  0.00000000000E+00  0.00000000000E+00  0.29174050742E+02  0.29174050742E+02  0.00000000000E+00 0. -1.
         21   -1    0    0  501  502 -0.00000000000E+00 -0.00000000000E+00 -0.26112432436E+04  0.26112432436E+04  0.00000000000E+00 0. -1.
         25    1    1    2    0    0  0.10804010578E+03 -0.67576493666E+02 -0.17544881513E+04  0.17635455537E+04  0.12500000000E+03 0.  0.
         25    1    1    2    0    0 -0.92547765652E+02  0.33604577587E+02 -0.43573145554E+03  0.46387633902E+03  0.12500000000E+03 0.  0.
         25    1    1    2    0    0 -0.15492340130E+02  0.33971916079E+02 -0.39184958601E+03  0.41299540160E+03  0.12500000000E+03 0.  0.
</event>
<event>
 5    0  0.5742040E-005  0.3326678E+03  0.7546771E-02  0.1069962E+00
         21   -1    0    0  502  501  0.00000000000E+00  0.00000000000E+00  0.36486525848E+03  0.36486525848E+03  0.00000000000E+00 0. -1.
         21   -1    0    0  501  502 -0.00000000000E+00 -0.00000000000E+00 -0.30331167549E+03  0.30331167549E+03  0.00000000000E+00 0.  1.
         25    1    1    2    0    0  0.88129194341E+02  0.38580826118E+02 -0.10786088808E+02  0.15810305105E+03  0.12500000000E+03 0.  0.
         25    1    1    2    0    0  0.13603993873E+03 -0.73276365502E+02  0.13912246923E+03  0.24260328134E+03  0.12500000000E+03 0.  0.
         25    1    1    2    0    0 -0.22416913308E+03  0.34695539384E+02 -0.66782797438E+02  0.26747060158E+03  0.12500000000E+03 0.  0.
</event>
<event>
 5    0  0.5742040E-005  0.3251024E+03  0.7546771E-02  0.1073325E+00
         21   -1    0    0  502  501  0.00000000000E+00  0.00000000000E+00  0.22797195591E+04  0.22797195591E+04  0.00000000000E+00 0.  1.
         21   -1    0    0  501  502 -0.00000000000E+00 -0.00000000000E+00 -0.46361653027E+02  0.46361653027E+02  0.00000000000E+00 0.  1.
         25    1    1    2    0    0 -0.12318497524E+03 -0.65984732274E+02  0.95218252343E+03  0.97046642443E+03  0.12500000000E+03 0.  0.
         25    1    1    2    0    0 -0.42349703590E+02 -0.87231550023E+02  0.73207711088E+03  0.74897579199E+03  0.12500000000E+03 0.  0.
         25    1    1    2    0    0  0.16553467883E+03  0.15321628230E+03  0.54909827173E+03  0.60663899568E+03  0.12500000000E+03 0.  0.
</event>
<event>
 5    0  0.5742040E-005  0.5453483E+03  0.7546771E-02  0.1002576E+00
         21   -1    0    0  502  501  0.00000000000E+00  0.00000000000E+00  0.27499650680E+03  0.27499650680E+03  0.00000000000E+00 0.  1.
         21   -1    0    0  501  502 -0.00000000000E+00 -0.00000000000E+00 -0.10814855749E+04  0.10814855749E+04  0.00000000000E+00 0.  1.
         25    1    1    2    0    0  0.26669913190E+03  0.32305131467E+03 -0.11364074360E+03  0.45169657678E+03  0.12500000000E+03 0.  0.
         25    1    1    2    0    0 -0.73480084201E+02  0.41398459425E+02 -0.17323125087E+03  0.22966763267E+03  0.12500000000E+03 0.  0.
         25    1    1    2    0    0 -0.19321904770E+03 -0.36444977410E+03 -0.51961707360E+03  0.67511787223E+03  0.12500000000E+03 0.  0.
</event>
<event>
 5    0  0.5742040E-005  0.2598432E+03  0.7546771E-02  0.1107237E+00
         21   -1    0    0  502  501  0.00000000000E+00  0.00000000000E+00  0.48442289386E+03  0.48442289386E+03  0.00000000000E+00 0.  1.
         21   -1    0    0  501  502 -0.00000000000E+00 -0.00000000000E+00 -0.13937923057E+03  0.13937923057E+03  0.00000000000E+00 0.  1.
         25    1    1    2    0    0 -0.71546630217E+02 -0.70727959678E+01  0.20425000485E+03  0.25002401729E+03  0.12500000000E+03 0.  0.
         25    1    1    2    0    0  0.39520221147E+02  0.19160500410E+02  0.19296286562E+03  0.23406973355E+03  0.12500000000E+03 0.  0.
         25    1    1    2    0    0  0.32026409071E+02 -0.12087704442E+02 -0.52169207177E+02  0.13970837360E+03  0.12500000000E+03 0.  0.
</event>
<event>
 5    0  0.5742040E-005  0.3907255E+03  0.7546771E-02  0.1047039E+00
         21   -1    0    0  502  501  0.00000000000E+00  0.00000000000E+00  0.13956323769E+04  0.13956323769E+04  0.00000000000E+00 0. -1.
         21   -1    0    0  501  502 -0.00000000000E+00 -0.00000000000E+00 -0.10938869811E+03  0.10938869811E+03  0.00000000000E+00 0. -1.
         25    1    1    2    0    0  0.69392826555E+02  0.16743390164E+03  0.53699398371E+03  0.58037661422E+03  0.12500000000E+03 0.  0.
         25    1    1    2    0    0 -0.23938365379E+03 -0.13716526891E+03  0.29472993111E+03  0.42262226277E+03  0.12500000000E+03 0.  0.
         25    1    1    2    0    0  0.16999082723E+03 -0.30268632726E+02  0.45451976402E+03  0.50202219807E+03  0.12500000000E+03 0.  0.
</event>
<event>
 5    0  0.5742040E-005  0.2668717E+03  0.7546771E-02  0.1103083E+00
         21   -1    0    0  502  501  0.00000000000E+00  0.00000000000E+00  0.12007411467E+03  0.12007411467E+03  0.00000000000E+00 0. -1.
         21   -1    0    0  501  502 -0.00000000000E+00 -0.00000000000E+00 -0.59313801709E+03  0.59313801709E+03  0.00000000000E+00 0. -1.
         25    1    1    2    0    0  0.63282492872E+02  0.62747452721E+02 -0.28146921508E+02  0.15607423207E+03  0.12500000000E+03 0.  0.
         25    1    1    2    0    0 -0.29182907979E+02 -0.11830202186E+03 -0.14959362483E+03  0.22989185084E+03  0.12500000000E+03 0.  0.
         25    1    1    2    0    0 -0.34099584892E+02  0.55554569137E+02 -0.29532335608E+03  0.32724604885E+03  0.12500000000E+03 0.  0.
</event>
<event>
 5    0  0.5742040E-005  0.2534526E+03  0.7546771E-02  0.1111142E+00
         21   -1    0    0  502  501  0.00000000000E+00  0.00000000000E+00  0.40561765374E+03  0.40561765374E+03  0.00000000000E+00 0.  1.
         21   -1    0    0  501  502 -0.00000000000E+00 -0.00000000000E+00 -0.15837130221E+03  0.15837130221E+03  0.00000000000E+00 0.  1.
         25    1    1    2    0    0 -0.11401483082E+03  0.38571248584E+02  0.20307819458E+03  0.26711959115E+03  0.12500000000E+03 0.  0.
         25    1    1    2    0    0  0.18492316030E+02  0.81777245752E+01  0.39652975343E+02  0.13268835437E+03  0.12500000000E+03 0.  0.
         25    1    1    2    0    0  0.95522514787E+02 -0.46748973160E+02  0.45151816061E+01  0.16418101044E+03  0.12500000000E+03 0.  0.
</event>
<event>
 5    0  0.5742040E-005  0.2618889E+03  0.7546771E-02  0.1106014E+00
         21   -1    0    0  502  501  0.00000000000E+00  0.00000000000E+00  0.19360900125E+03  0.19360900125E+03  0.00000000000E+00 0. -1.
         21   -1    0    0  501  502 -0.00000000000E+00 -0.00000000000E+00 -0.35424889672E+03  0.35424889672E+03  0.00000000000E+00 0. -1.
         25    1    1    2    0    0 -0.35910618818E+02  0.26693149667E+02  0.45431706226E+02  0.14032511077E+03  0.12500000000E+03 0.  0.
         25    1    1    2    0    0  0.68269363796E+02  0.64372051182E+02 -0.11264572030E+02  0.15670468273E+03  0.12500000000E+03 0.  0.
         25    1    1    2    0    0 -0.32358744978E+02 -0.91065200849E+02 -0.19480702966E+03  0.25082810446E+03  0.12500000000E+03 0.  0.
</event>
<event>
 5    0  0.5742040E-005  0.2475180E+03  0.7546771E-02  0.1114883E+00
         21   -1    0    0  502  501  0.00000000000E+00  0.00000000000E+00  0.98793639564E+02  0.98793639564E+02  0.00000000000E+00 0. -1.
         21   -1    0    0  501  502 -0.00000000000E+00 -0.00000000000E+00 -0.62013283184E+03  0.62013283184E+03  0.00000000000E+00 0. -1.
         25    1    1    2    0    0 -0.46136617454E+02  0.44860771827E+02 -0.50773638776E+02  0.14947922502E+03  0.12500000000E+03 0.  0.
         25    1    1    2    0    0  0.95143900312E+02  0.39562984421E+02 -0.23110555384E+03  0.28222751198E+03  0.12500000000E+03 0.  0.
         25    1    1    2    0    0 -0.49007282859E+02 -0.84423756248E+02 -0.23945999966E+03  0.28721973440E+03  0.12500000000E+03 0.  0.
</event>
<event>
 5    0  0.5742040E-005  0.4261584E+03  0.7546771E-02  0.1035080E+00
         21   -1    0    0  502  501  0.00000000000E+00  0.00000000000E+00  0.14586370225E+04  0.14586370225E+04  0.00000000000E+00 0. -1.
         21   -1    0    0  501  502 -0.00000000000E+00 -0.00000000000E+00 -0.12450733334E+03  0.12450733334E+03  0.00000000000E+00 0. -1.
         25    1    1    2    0    0 -0.14063388085E+03  0.50420598935E+02  0.37160299674E+03  0.41956395511E+03  0.12500000000E+03 0.  0.
         25    1    1    2    0    0  0.16911137894E+03 -0.23292728938E+03  0.20728200097E+03  0.37609122371E+03  0.12500000000E+03 0.  0.
         25    1    1    2    0    0 -0.28477498092E+02  0.18250669044E+03  0.75524469141E+03  0.78748917698E+03  0.12500000000E+03 0.  0.
</event>
<event>
 5    0  0.5742040E-005  0.2266989E+03  0.7546771E-02  0.1128985E+00
         21   -1    0    0  502  501  0.00000000000E+00  0.00000000000E+00  0.98291927049E+02  0.98291927049E+02  0.00000000000E+00 0.  1.
         21   -1    0    0  501  502 -0.00000000000E+00 -0.00000000000E+00 -0.52285442206E+03  0.52285442206E+03  0.00000000000E+00 0.  1.
         25    1    1    2    0    0  0.84022715476E+02 -0.54321812738E+02 -0.18003312562E+03  0.24093070036E+03  0.12500000000E+03 0.  0.
         25    1    1    2    0    0  0.92790704203E+01  0.13876648586E+02 -0.13854675618E+03  0.18734691396E+03  0.12500000000E+03 0.  0.
         25    1    1    2    0    0 -0.93301785897E+02  0.40445164152E+02 -0.10598261321E+03  0.19286873479E+03  0.12500000000E+03 0.  0.
</event>
<event>
 5    0  0.5765462E-005  0.3024984E+03  0.7546771E-02  0.1083998E+00
         21   -1    0    0  502  501  0.00000000000E+00  0.00000000000E+00  0.79746677836E+02  0.79746677836E+02  0.00000000000E+00 0.  1.
         21   -1    0    0  501  502 -0.00000000000E+00 -0.00000000000E+00 -0.11474497517E+04  0.11474497517E+04  0.00000000000E+00 0.  1.
         25    1    1    2    0    0  0.59208514568E+02  0.13755945407E+03 -0.35024836422E+03  0.40090792988E+03  0.12500000000E+03 0.  0.
         25    1    1    2    0    0 -0.11106779694E+03  0.39572381603E+01 -0.14531633528E+03  0.22157064912E+03  0.12500000000E+03 0.  0.
         25    1    1    2    0    0  0.51859282368E+02 -0.14151669223E+03 -0.57213837441E+03  0.60471785059E+03  0.12500000000E+03 0.  0.
</event>
<event>
 5    0  0.5742040E-005  0.4094065E+03  0.7546771E-02  0.1040570E+00
         21   -1    0    0  502  501  0.00000000000E+00  0.00000000000E+00  0.11816921331E+03  0.11816921331E+03  0.00000000000E+00 0. -1.
         21   -1    0    0  501  502 -0.00000000000E+00 -0.00000000000E+00 -0.14184212358E+04  0.14184212358E+04  0.00000000000E+00 0. -1.
         25    1    1    2    0    0  0.19050632040E+03 -0.90037576471E+02 -0.26617775680E+03  0.36176652900E+03  0.12500000000E+03 0.  0.
         25    1    1    2    0    0 -0.23437179424E+03  0.23276902954E+03 -0.76584993964E+03  0.84336391261E+03  0.12500000000E+03 0.  0.
         25    1    1    2    0    0  0.43865473843E+02 -0.14273145307E+03 -0.26822432608E+03  0.33146000753E+03  0.12500000000E+03 0.  0.
</event>
<event>
 5    0  0.5742040E-005  0.2894680E+03  0.7546771E-02  0.1090627E+00
         21   -1    0    0  502  501  0.00000000000E+00  0.00000000000E+00  0.44288194810E+03  0.44288194810E+03  0.00000000000E+00 0.  1.
         21   -1    0    0  501  502 -0.00000000000E+00 -0.00000000000E+00 -0.18919654628E+03  0.18919654628E+03  0.00000000000E+00 0.  1.
         25    1    1    2    0    0  0.11177981801E+03  0.14896913111E+03  0.66186164759E+02  0.23386350323E+03  0.12500000000E+03 0.  0.
         25    1    1    2    0    0 -0.92251047819E+02 -0.17993870645E+01  0.63085868700E+02  0.16768518255E+03  0.12500000000E+03 0.  0.
         25    1    1    2    0    0 -0.19528770193E+02 -0.14716974404E+03  0.12441336836E+03  0.23052980860E+03  0.12500000000E+03 0.  0.
</event>
<event>
 5    0  0.5742040E-005  0.2224273E+03  0.7546771E-02  0.1132086E+00
         21   -1    0    0  502  501  0.00000000000E+00  0.00000000000E+00  0.15189694496E+04  0.15189694496E+04  0.00000000000E+00 0.  1.
         21   -1    0    0  501  502 -0.00000000000E+00 -0.00000000000E+00 -0.32570702843E+02  0.32570702843E+02  0.00000000000E+00 0.  1.
         25    1    1    2    0    0  0.30016044081E+02  0.19906778907E+02  0.32053787657E+03  0.34592885550E+03  0.12500000000E+03 0.  0.
         25    1    1    2    0    0 -0.58627453804E+02 -0.34003343048E+02  0.32269571988E+03  0.35263427699E+03  0.12500000000E+03 0.  0.
         25    1    1    2    0    0  0.28611409723E+02  0.14096564141E+02  0.84316515027E+03  0.85297701992E+03  0.12500000000E+03 0.  0.
</event>
<event>
 5    0  0.5742040E-005  0.2907751E+03  0.7546771E-02  0.1089945E+00
         21   -1    0    0  502  501  0.00000000000E+00  0.00000000000E+00  0.17393174760E+04  0.17393174760E+04  0.00000000000E+00 0. -1.
         21   -1    0    0  501  502 -0.00000000000E+00 -0.00000000000E+00 -0.48611116772E+02  0.48611116772E+02  0.00000000000E+00 0. -1.
         25    1    1    2    0    0 -0.14982854877E+03  0.63483433569E+02  0.50152904563E+03  0.54188109763E+03  0.12500000000E+03 0.  0.
         25    1    1    2    0    0  0.45392558921E+02 -0.31430250294E+02  0.19505385571E+03  0.23815824921E+03  0.12500000000E+03 0.  0.
         25    1    1    2    0    0  0.10443598985E+03 -0.32053183276E+02  0.99412345790E+03  0.10078892459E+04  0.12500000000E+03 0.  0.
</event>
<event>
 5    0  0.5742040E-005  0.3802272E+03  0.7546771E-02  0.1050850E+00
         21   -1    0    0  502  501  0.00000000000E+00  0.00000000000E+00  0.37058506222E+03  0.37058506222E+03  0.00000000000E+00 0.  1.
         21   -1    0    0  501  502 -0.00000000000E+00 -0.00000000000E+00 -0.39012024039E+03  0.39012024039E+03  0.00000000000E+00 0.  1.
         25    1    1    2    0    0  0.66471028030E+01 -0.14637415192E+03 -0.49993756565E+02  0.19898229072E+03  0.12500000000E+03 0.  0.
         25    1    1    2    0    0  0.97875027989E+02 -0.13863531466E+03 -0.63703331677E+02  0.22018716139E+03  0.12500000000E+03 0.  0.
         25    1    1    2    0    0 -0.10452213079E+03  0.28500946658E+03  0.94161910071E+02  0.34153585050E+03  0.12500000000E+03 0.  0.
</event>
<event>
 5    0  0.5742040E-005  0.2779757E+03  0.7546771E-02  0.1096800E+00
         21   -1    0    0  502  501  0.00000000000E+00  0.00000000000E+00  0.79009597791E+02  0.79009597791E+02  0.00000000000E+00 0.  1.
         21   -1    0    0  501  502 -0.00000000000E+00 -0.00000000000E+00 -0.97798880376E+03  0.97798880376E+03  0.00000000000E+00 0.  1.
         25    1    1    2    0    0 -0.17162991303E+03  0.47190461036E+02 -0.49271974432E+03  0.53859215841E+03  0.12500000000E+03 0.  0.
         25    1    1    2    0    0  0.10809376901E+03  0.20093299493E+02 -0.20700561992E+03  0.26563947422E+03  0.12500000000E+03 0.  0.
         25    1    1    2    0    0  0.63536144019E+02 -0.67283760529E+02 -0.19925384172E+03  0.25276676892E+03  0.12500000000E+03 0.  0.
</event>
<event>
 5    0  0.5742040E-005  0.3008545E+03  0.7546771E-02  0.1084814E+00
         21   -1    0    0  502  501  0.00000000000E+00  0.00000000000E+00  0.69069446179E+03  0.69069446179E+03  0.00000000000E+00 0.  1.
         21   -1    0    0  501  502 -0.00000000000E+00 -0.00000000000E+00 -0.13104696506E+03  0.13104696506E+03  0.00000000000E+00 0.  1.
         25    1    1    2    0    0  0.19373357086E+02  0.69163725129E+02  0.44409877770E+02  0.15085153324E+03  0.12500000000E+03 0.  0.
         25    1    1    2    0    0 -0.70967740465E+02 -0.17368683110E+03  0.41623588211E+03  0.47337178311E+03  0.12500000000E+03 0.  0.
         25    1    1    2    0    0  0.51594383379E+02  0.10452310597E+03  0.99001736848E+02  0.19751811050E+03  0.12500000000E+03 0.  0.
</event>
<event>
 5    0  0.5742040E-005  0.2853745E+03  0.7546771E-02  0.1092789E+00
         21   -1    0    0  502  501  0.00000000000E+00  0.00000000000E+00  0.75138303766E+02  0.75138303766E+02  0.00000000000E+00 0. -1.
         21   -1    0    0  501  502 -0.00000000000E+00 -0.00000000000E+00 -0.10838494632E+04  0.10838494632E+04  0.00000000000E+00 0. -1.
         25    1    1    2    0    0  0.23193471017E+02  0.49334514829E+02 -0.18668560785E+03  0.23118898683E+03  0.12500000000E+03 0.  0.
         25    1    1    2    0    0 -0.16936189984E+03  0.36299393513E+02 -0.49162388204E+03  0.53602251863E+03  0.12500000000E+03 0.  0.
         25    1    1    2    0    0  0.14616842882E+03 -0.85633908343E+02 -0.33040166952E+03  0.39177626148E+03  0.12500000000E+03 0.  0.
</event>
<event>
 5    0  0.5742040E-005  0.4154038E+03  0.7546771E-02  0.1038573E+00
         21   -1    0    0  502  501  0.00000000000E+00  0.00000000000E+00  0.70936324096E+03  0.70936324096E+03  0.00000000000E+00 0.  1.
         21   -1    0    0  501  502 -0.00000000000E+00 -0.00000000000E+00 -0.24326082007E+03  0.24326082007E+03  0.00000000000E+00 0.  1.
         25    1    1    2    0    0  0.24805785599E+03 -0.13294495270E+03  0.24394691034E+03  0.39286404192E+03  0.12500000000E+03 0.  0.
         25    1    1    2    0    0 -0.12816247046E+03  0.16983133844E+02 -0.76610062118E+02  0.19546904432E+03  0.12500000000E+03 0.  0.
         25    1    1    2    0    0 -0.11989538553E+03  0.11596181886E+03  0.29876557267E+03  0.36429097479E+03  0.12500000000E+03 0.  0.
</event>
<event>
 5    0  0.5742040E-005  0.3011276E+03  0.7546771E-02  0.1084678E+00
         21   -1    0    0  502  501  0.00000000000E+00  0.00000000000E+00  0.31844973460E+04  0.31844973460E+04  0.00000000000E+00 0.  1.
         21   -1    0    0  501  502 -0.00000000000E+00 -0.00000000000E+00 -0.28474778360E+02  0.28474778360E+02  0.00000000000E+00 0.  1.
         25    1    1    2    0    0  0.44645371961E+01 -0.11462458839E+03  0.81990763650E+03  0.83727669306E+03  0.12500000000E+03 0.  0.
         25    1    1    2    0    0  0.13937506758E+03  0.12132906172E+03  0.15911531639E+04  0.16067170073E+04  0.12500000000E+03 0.  0.
         25    1    1    2    0    0 -0.14383960478E+03 -0.67044733343E+01  0.74496176728E+03  0.76897842400E+03  0.12500000000E+03 0.  0.
</event>
<event>
 5    0  0.7502206E-005  0.8202953E+03  0.7546771E-02  0.9531096E-01
         21   -1    0    0  502  501  0.00000000000E+00  0.00000000000E+00  0.62563342162E+03  0.62563342162E+03  0.00000000000E+00 0. -1.
         21   -1    0    0  501  502 -0.00000000000E+00 -0.00000000000E+00 -0.10755249335E+04  0.10755249335E+04  0.00000000000E+00 0. -1.
         25    1    1    2    0    0 -0.36108469073E+03 -0.16116341455E+03  0.35926379166E+03  0.54868139395E+03  0.12500000000E+03 0.  0.
         25    1    1    2    0    0  0.52961427728E+03  0.86030546126E+02 -0.38114845949E+03  0.66991916359E+03  0.12500000000E+03 0.  0.
         25    1    1    2    0    0 -0.16852958656E+03  0.75132868420E+02 -0.42800684404E+03  0.48255779758E+03  0.12500000000E+03 0.  0.
</event>
<event>
 5    0  0.5742040E-005  0.6660262E+03  0.7546771E-02  0.9777163E-01
         21   -1    0    0  502  501  0.00000000000E+00  0.00000000000E+00  0.50984367232E+03  0.50984367232E+03  0.00000000000E+00 0. -1.
         21   -1    0    0  501  502 -0.00000000000E+00 -0.00000000000E+00 -0.87005269617E+03  0.87005269617E+03  0.00000000000E+00 0. -1.
         25    1    1    2    0    0 -0.22131891059E+03 -0.10858532343E+03 -0.37599912232E+03  0.46666173255E+03  0.12500000000E+03 0.  0.
         25    1    1    2    0    0  0.21614144279E+03  0.36171396424E+02 -0.40006509957E+03  0.47297206800E+03  0.12500000000E+03 0.  0.
         25    1    1    2    0    0  0.51774677966E+01  0.72413927003E+02  0.41585519803E+03  0.44026256794E+03  0.12500000000E+03 0.  0.
</event>
<event>
 5    0  0.5742040E-005  0.4311072E+03  0.7546771E-02  0.1033511E+00
         21   -1    0    0  502  501  0.00000000000E+00  0.00000000000E+00  0.11341315682E+04  0.11341315682E+04  0.00000000000E+00 0. -1.
         21   -1    0    0  501  502 -0.00000000000E+00 -0.00000000000E+00 -0.16387290857E+03  0.16387290857E+03  0.00000000000E+00 0. -1.
         25    1    1    2    0    0 -0.31907801733E+03 -0.54141380832E+02  0.18490423643E+03  0.39313693150E+03  0.12500000000E+03 0.  0.
         25    1    1    2    0    0  0.14916445222E+03 -0.17684948092E+02  0.53570230176E+03  0.57023218718E+03  0.12500000000E+03 0.  0.
         25    1    1    2    0    0  0.16991356511E+03  0.71826328924E+02  0.24965212139E+03  0.33463535804E+03  0.12500000000E+03 0.  0.
</event>
<event>
 5    0  0.5742040E-005  0.2447407E+03  0.7546771E-02  0.1116674E+00
         21   -1    0    0  502  501  0.00000000000E+00  0.00000000000E+00  0.97021990451E+02  0.97021990451E+02  0.00000000000E+00 0. -1.
         21   -1    0    0  501  502 -0.00000000000E+00 -0.00000000000E+00 -0.61736548401E+03  0.61736548401E+03  0.00000000000E+00 0. -1.
         25    1    1    2    0    0 -0.21696867997E+02 -0.60329083578E+01 -0.67141591551E+02  0.14366677897E+03  0.12500000000E+03 0.  0.
         25    1    1    2    0    0  0.87721634754E+02  0.84425719649E+02 -0.30516330546E+03  0.35152870486E+03  0.12500000000E+03 0.  0.
         25    1    1    2    0    0 -0.66024766757E+02 -0.78392811292E+02 -0.14803859655E+03  0.21919199063E+03  0.12500000000E+03 0.  0.
</event>
<event>
 5    0  0.5742040E-005  0.4308012E+03  0.7546771E-02  0.1033607E+00
         21   -1    0    0  502  501  0.00000000000E+00  0.00000000000E+00  0.57610269971E+03  0.57610269971E+03  0.00000000000E+00 0.  1.
         21   -1    0    0  501  502 -0.00000000000E+00 -0.00000000000E+00 -0.32214692892E+03  0.32214692892E+03  0.00000000000E+00 0.  1.
         25    1    1    2    0    0 -0.74335204785E+02 -0.20669665489E+03  0.43156922188E+03  0.50012620716E+03  0.12500000000E+03 0.  0.
         25    1    1    2    0    0  0.28776516641E+02  0.69881783455E+02 -0.14253261307E+03  0.20408845474E+03  0.12500000000E+03 0.  0.
         25    1    1    2    0    0  0.45558688144E+02  0.13681487144E+03 -0.35080838022E+02  0.19403496672E+03  0.12500000000E+03 0.  0.
</event>
<event>
 5    0  0.5742040E-005  0.2865892E+03  0.7546771E-02  0.1092144E+00
         21   -1    0    0  502  501  0.00000000000E+00  0.00000000000E+00  0.35005854518E+03  0.35005854518E+03  0.00000000000E+00 0. -1.
         21   -1    0    0  501  502 -0.00000000000E+00 -0.00000000000E+00 -0.23462745708E+03  0.23462745708E+03  0.00000000000E+00 0. -1.
         25    1    1    2    0    0  0.57158032599E+02  0.30827456952E+02  0.15629068053E+03  0.21040235173E+03  0.12500000000E+03 0.  0.
         25    1    1    2    0    0 -0.14748118028E+03  0.37205461852E+02 -0.56983810949E+02  0.20495633593E+03  0.12500000000E+03 0.  0.
         25    1    1    2    0    0  0.90323147684E+02 -0.68032918804E+02  0.16124218518E+02  0.16932731460E+03  0.12500000000E+03 0.  0.
</event>
<event>
 5    0  0.5742040E-005  0.2064475E+03  0.7546771E-02  0.1144410E+00
         21   -1    0    0  502  501  0.00000000000E+00  0.00000000000E+00  0.41550176926E+03  0.41550176926E+03  0.00000000000E+00 0. -1.
         21   -1    0    0  501  502 -0.00000000000E+00 -0.00000000000E+00 -0.10257614307E+03  0.10257614307E+03  0.00000000000E+00 0. -1.
         25    1    1    2    0    0 -0.40460979233E+02  0.20343798579E+02  0.76479982955E+02  0.15337910149E+03  0.12500000000E+03 0.  0.
         25    1    1    2    0    0 -0.65969363149E+01  0.10581709562E+02  0.54625865619E+02  0.13698349295E+03  0.12500000000E+03 0.  0.
         25    1    1    2    0    0  0.47057915548E+02 -0.30925508141E+02  0.18181977762E+03  0.22771531789E+03  0.12500000000E+03 0.  0.
</event>
<event>
 5    0  0.5742040E-005  0.3709694E+03  0.7546771E-02  0.1054323E+00
         21   -1    0    0  502  501  0.00000000000E+00  0.00000000000E+00  0.17909777215E+04  0.17909777215E+04  0.00000000000E+00 0. -1.
         21   -1    0    0  501  502 -0.00000000000E+00 -0.00000000000E+00 -0.76839778439E+02  0.76839778439E+02  0.00000000000E+00 0. -1.
         25    1    1    2    0    0 -0.19675429395E+03 -0.77117838323E+02  0.33187918009E+03  0.41282950882E+03  0.12500000000E+03 0.  0.
         25    1    1    2    0    0  0.19758547005E+02  0.17283426109E+03  0.57130123769E+03  0.61014111989E+03  0.12500000000E+03 0.  0.
         25    1    1    2    0    0  0.17699574695E+03 -0.95716422767E+02  0.81095752528E+03  0.84484687124E+03  0.12500000000E+03 0.  0.
</event>
<event>
 5    0  0.5742040E-005  0.2518287E+03  0.7546771E-02  0.1112155E+00
         21   -1    0    0  502  501  0.00000000000E+00  0.00000000000E+00  0.58985487936E+03  0.58985487936E+03  0.00000000000E+00 0.  1.
         21   -1    0    0  501  502 -0.00000000000E+00 -0.00000000000E+00 -0.10751409534E+03  0.10751409534E+03  0.00000000000E+00 0.  1.
         25    1    1    2    0    0 -0.10740484373E+02 -0.96045438431E+02  0.38774281835E+02  0.16269151539E+03  0.12500000000E+03 0.  0.
         25    1    1    2    0    0 -0.38455998789E+02  0.44428986011E+02  0.30538752867E+03  0.33517061522E+03  0.12500000000E+03 0.  0.
         25    1    1    2    0    0  0.49196483162E+02  0.51616452419E+02  0.13817897352E+03  0.19950684409E+03  0.12500000000E+03 0.  0.
</event>
<event>
 5    0  0.5742040E-005  0.3487220E+03  0.7546771E-02  0.1063141E+00
         21   -1    0    0  502  501  0.00000000000E+00  0.00000000000E+00  0.83959522070E+03  0.83959522070E+03  0.00000000000E+00 0.  1.
         21   -1    0    0  501  502 -0.00000000000E+00 -0.00000000000E+00 -0.14484010429E+03  0.14484010429E+03  0.00000000000E+00 0.  1.
         25    1    1    2    0    0 -0.11803409574E+03 -0.80353719657E+02 -0.39498333814E+02  0.19383984728E+03  0.12500000000E+03 0.  0.
         25    1    1    2    0    0  0.64953374438E+02  0.48274194944E+02  0.44883228463E+03  0.47288979527E+03  0.12500000000E+03 0.  0.
         25    1    1    2    0    0  0.53080721305E+02  0.32079524713E+02  0.28542116560E+03  0.31770568243E+03  0.12500000000E+03 0.  0.
</event>
<event>
 5    0  0.5742040E-005  0.3955863E+03  0.7546771E-02  0.1045319E+00
         21   -1    0    0  502  501  0.00000000000E+00  0.00000000000E+00  0.11572244931E+04  0.11572244931E+04  0.00000000000E+00 0.  1.
         21   -1    0    0  501  502 -0.00000000000E+00 -0.00000000000E+00 -0.13522746061E+03  0.13522746061E+03  0.00000000000E+00 0.  1.
         25    1    1    2    0    0  0.12682176613E+01 -0.46030350522E+02  0.56259922811E+03  0.57815507696E+03  0.12500000000E+03 0.  0.
         25    1    1    2    0    0 -0.18078214795E+03 -0.95083710181E+02  0.36670250118E+03  0.43797125628E+03  0.12500000000E+03 0.  0.
         25    1    1    2    0    0  0.17951393028E+03  0.14111406070E+03  0.92695303212E+02  0.27632562048E+03  0.12500000000E+03 0.  0.
</event>
<event>
 5    0  0.5742040E-005  0.2882475E+03  0.7546771E-02  0.1091268E+00
         21   -1    0    0  502  501  0.00000000000E+00  0.00000000000E+00  0.25160150423E+03  0.25160150423E+03  0.00000000000E+00 0. -1.
         21   -1    0    0  501  502 -0.00000000000E+00 -0.00000000000E+00 -0.33023111041E+03  0.33023111041E+03  0.00000000000E+00 0. -1.
         25    1    1    2    0    0 -0.17048454745E+02  0.14459437554E+03 -0.45424359244E+02  0.19719674353E+03  0.12500000000E+03 0.  0.
         25    1    1    2    0    0 -0.49569655828E+02  0.34748693719E+02 -0.65984949067E+02  0.15376487244E+03  0.12500000000E+03 0.  0.
         25    1    1    2    0    0  0.66618110573E+02 -0.17934306926E+03  0.32779702134E+02  0.23087099866E+03  0.12500000000E+03 0.  0.
</event>
<event>
 5    0  0.5742040E-005  0.3525766E+03  0.7546771E-02  0.1061562E+00
         21   -1    0    0  502  501  0.00000000000E+00  0.00000000000E+00  0.66243712475E+03  0.66243712475E+03  0.00000000000E+00 0. -1.
         21   -1    0    0  501  502 -0.00000000000E+00 -0.00000000000E+00 -0.18765598068E+03  0.18765598068E+03  0.00000000000E+00 0. -1.
         25    1    1    2    0    0 -0.70727872165E+02  0.16644651514E+03  0.48843811760E+02  0.22520566656E+03  0.12500000000E+03 0.  0.
         25    1    1    2    0    0  0.15220177406E+03 -0.47097542329E+02  0.37653405304E+03  0.42753532207E+03  0.12500000000E+03 0.  0.
         25    1    1    2    0    0 -0.81473901891E+02 -0.11934897281E+03  0.49403279275E+02  0.19735211680E+03  0.12500000000E+03 0.  0.
</event>
<event>
 5    0  0.5742040E-005  0.3309382E+03  0.7546771E-02  0.1070723E+00
         21   -1    0    0  502  501  0.00000000000E+00  0.00000000000E+00  0.43425017060E+02  0.43425017060E+02  0.00000000000E+00 0.  1.
         21   -1    0    0  501  502 -0.00000000000E+00 -0.00000000000E+00 -0.25220503760E+04  0.25220503760E+04  0.00000000000E+00 0.  1.
         25    1    1    2    0    0  0.53746319060E+02  0.20961003961E+02 -0.15412779275E+04  0.15474141916E+04  0.12500000000E+03 0.  0.
         25    1    1    2    0    0 -0.10763516192E+03 -0.13774556269E+03 -0.44792445498E+03  0.49681031137E+03  0.12500000000E+03 0.  0.
         25    1    1    2    0    0  0.53888842864E+02  0.11678455873E+03 -0.48942297642E+03  0.52125089006E+03  0.12500000000E+03 0.  0.
</event>
<event>
 5    0  0.5742040E-005  0.4079792E+03  0.7546771E-02  0.1041051E+00
         21   -1    0    0  502  501  0.00000000000E+00  0.00000000000E+00  0.17272868178E+04  0.17272868178E+04  0.00000000000E+00 0. -1.
         21   -1    0    0  501  502 -0.00000000000E+00 -0.00000000000E+00 -0.96363304860E+02  0.96363304860E+02  0.00000000000E+00 0. -1.
         25    1    1    2    0    0  0.19439395953E+02 -0.56833100098E+02  0.33177443235E+03  0.35959305519E+03  0.12500000000E+03 0.  0.
         25    1    1    2    0    0  0.24949693706E+03  0.14046073975E+03  0.94148974120E+03  0.99197070209E+03  0.12500000000E+03 0.  0.
         25    1    1    2    0    0 -0.26893633301E+03 -0.83627639651E+02  0.35765933941E+03  0.47208636540E+03  0.12500000000E+03 0.  0.
</event>
<event>
 5    0  0.5742040E-005  0.3597108E+03  0.7546771E-02  0.1058698E+00
         21   -1    0    0  502  501  0.00000000000E+00  0.00000000000E+00  0.16798286614E+03  0.16798286614E+03  0.00000000000E+00 0.  1.
         21   -1    0    0  501  502 -0.00000000000E+00 -0.00000000000E+00 -0.77026823894E+03  0.77026823894E+03  0.00000000000E+00 0.  1.
         25    1    1    2    0    0 -0.10272864444E+03  0.13335995355E+03 -0.72058161855E+02  0.22171023948E+03  0.12500000000E+03 0.  0.
         25    1    1    2    0    0 -0.11203964667E+03  0.31609728840E+02 -0.27622345850E+03  0.32477139099E+03  0.12500000000E+03 0.  0.
         25    1    1    2    0    0  0.21476829111E+03 -0.16496968239E+03 -0.25400375245E+03  0.39176947461E+03  0.12500000000E+03 0.  0.
</event>
<event>
 5    0  0.5742040E-005  0.2988881E+03  0.7546771E-02  0.1085798E+00
         21   -1    0    0  502  501  0.00000000000E+00  0.00000000000E+00  0.36128869563E+03  0.36128869563E+03  0.00000000000E+00 0.  1.
         21   -1    0    0  501  502 -0.00000000000E+00 -0.00000000000E+00 -0.24726519010E+03  0.24726519010E+03  0.00000000000E+00 0.  1.
         25    1    1    2    0    0 -0.10532947114E+03 -0.95146266092E+02  0.11203794095E+03  0.21982859153E+03  0.12500000000E+03 0.  0.
         25    1    1    2    0    0  0.14160508854E+03  0.14782994582E+03 -0.37721410969E+02  0.24280362194E+03  0.12500000000E+03 0.  0.
         25    1    1    2    0    0 -0.36275617404E+02 -0.52683679729E+02  0.39706975556E+02  0.14592167226E+03  0.12500000000E+03 0.  0.
</event>
<event>
 5    0  0.6078444E-005  0.3121379E+03  0.7546771E-02  0.1079326E+00
         21   -1    0    0  502  501  0.00000000000E+00  0.00000000000E+00  0.72586241269E+03  0.72586241269E+03  0.00000000000E+00 0. -1.
         21   -1    0    0  501  502 -0.00000000000E+00 -0.00000000000E+00 -0.13422662747E+03  0.13422662747E+03  0.00000000000E+00 0. -1.
         25    1    1    2    0    0  0.89918645149E+01  0.14192415462E+03  0.30927253110E+03  0.36262627840E+03  0.12500000000E+03 0.  0.
         25    1    1    2    0    0 -0.13716019046E+03 -0.74032549159E+02  0.21741351678E+03  0.29527508100E+03  0.12500000000E+03 0.  0.
         25    1    1    2    0    0  0.12816832595E+03 -0.67891605462E+02  0.64949737336E+02  0.20218768075E+03  0.12500000000E+03 0.  0.
</event>
<event>
 5    0  0.7567808E-005  0.4020680E+03  0.7546771E-02  0.1043066E+00
         21   -1    0    0  502  501  0.00000000000E+00  0.00000000000E+00  0.90795569422E+03  0.90795569422E+03  0.00000000000E+00 0.  1.
         21   -1    0    0  501  502 -0.00000000000E+00 -0.00000000000E+00 -0.17804687333E+03  0.17804687333E+03  0.00000000000E+00 0.  1.
         25    1    1    2    0    0  0.19480309193E+03  0.12730948940E+02  0.23281204590E+03  0.32853731965E+03  0.12500000000E+03 0.  0.
         25    1    1    2    0    0 -0.78452798357E+02  0.18694716849E+03  0.57000191719E+02  0.24490428178E+03  0.12500000000E+03 0.  0.
         25    1    1    2    0    0 -0.11635029357E+03 -0.19967811743E+03  0.44009658327E+03  0.51256096613E+03  0.12500000000E+03 0.  0.
</event>
<event>
 5    0  0.5742040E-005  0.2610362E+03  0.7546771E-02  0.1106522E+00
         21   -1    0    0  502  501  0.00000000000E+00  0.00000000000E+00  0.35431100113E+03  0.35431100113E+03  0.00000000000E+00 0. -1.
         21   -1    0    0  501  502 -0.00000000000E+00 -0.00000000000E+00 -0.19231663879E+03  0.19231663879E+03  0.00000000000E+00 0. -1.
         25    1    1    2    0    0  0.12065313089E+03  0.11297835801E+03  0.50685653535E+02  0.21334320436E+03  0.12500000000E+03 0.  0.
         25    1    1    2    0    0 -0.25931538433E+02 -0.35872240296E+02  0.14228850884E+02  0.13336687185E+03  0.12500000000E+03 0.  0.
         25    1    1    2    0    0 -0.94721592460E+02 -0.77106117710E+02  0.97079857920E+02  0.19991756371E+03  0.12500000000E+03 0.  0.
</event>
<event>
 5    0  0.5742040E-005  0.3693454E+03  0.7546771E-02  0.1054944E+00
         21   -1    0    0  502  501  0.00000000000E+00  0.00000000000E+00  0.14472655756E+03  0.14472655756E+03  0.00000000000E+00 0.  1.
         21   -1    0    0  501  502 -0.00000000000E+00 -0.00000000000E+00 -0.94257783253E+03  0.94257783253E+03  0.00000000000E+00 0.  1.
         25    1    1    2    0    0  0.10823591119E+02 -0.11323265745E+02 -0.55634474349E+02  0.13771550823E+03  0.12500000000E+03 0.  0.
         25    1    1    2    0    0 -0.21328930263E+03  0.17046493648E+03 -0.31377188863E+03  0.43431373370E+03  0.12500000000E+03 0.  0.
         25    1    1    2    0    0  0.20246571151E+03 -0.15914167074E+03 -0.42844491199E+03  0.51527514816E+03  0.12500000000E+03 0.  0.
</event>
<event>
 5    0  0.5742040E-005  0.2206496E+03  0.7546771E-02  0.1133400E+00
         21   -1    0    0  502  501  0.00000000000E+00  0.00000000000E+00  0.12796582006E+03  0.12796582006E+03  0.00000000000E+00 0. -1.
         21   -1    0    0  501  502 -0.00000000000E+00 -0.00000000000E+00 -0.38046296887E+03  0.38046296887E+03  0.00000000000E+00 0. -1.
         25    1    1    2    0    0  0.37412729163E+02  0.70103292685E+02 -0.10610355162E+03  0.18220084417E+03  0.12500000000E+03 0.  0.
         25    1    1    2    0    0  0.39127955685E+02 -0.47166177730E+02 -0.44132660545E+02  0.14604224377E+03  0.12500000000E+03 0.  0.
         25    1    1    2    0    0 -0.76540684849E+02 -0.22937114955E+02 -0.10226093664E+03  0.18018570099E+03  0.12500000000E+03 0.  0.
</event>
<event>
 5    0  0.5742040E-005  0.3132735E+03  0.7546771E-02  0.1078787E+00
         21   -1    0    0  502  501  0.00000000000E+00  0.00000000000E+00  0.62751121799E+03  0.62751121799E+03  0.00000000000E+00 0. -1.
         21   -1    0    0  501  502 -0.00000000000E+00 -0.00000000000E+00 -0.15639609311E+03  0.15639609311E+03  0.00000000000E+00 0. -1.
         25    1    1    2    0    0  0.65107658209E+02 -0.70254227089E+02 -0.24976654878E+02  0.15944747370E+03  0.12500000000E+03 0.  0.
         25    1    1    2    0    0 -0.54167765665E+02 -0.98369251017E+02  0.24356985430E+03  0.29590865196E+03  0.12500000000E+03 0.  0.
         25    1    1    2    0    0 -0.10939892544E+02  0.16862347811E+03  0.25252192546E+03  0.32855118544E+03  0.12500000000E+03 0.  0.
</event>
<event>
 5    0  0.5742040E-005  0.3065251E+03  0.7546771E-02  0.1082024E+00
         21   -1    0    0  502  501  0.00000000000E+00  0.00000000000E+00  0.16785654793E+03  0.16785654793E+03  0.00000000000E+00 0.  1.
         21   -1    0    0  501  502 -0.00000000000E+00 -0.00000000000E+00 -0.55974949489E+03  0.55974949489E+03  0.00000000000E+00 0.  1.
         25    1    1    2    0    0  0.14486723173E+03 -0.96812743231E+02 -0.66910912931E+00  0.21444036418E+03  0.12500000000E+03 0.  0.
         25    1    1    2    0    0 -0.24476537218E+02  0.28914657197E+02 -0.88825379809E+02  0.15795602671E+03  0.12500000000E+03 0.  0.
         25    1    1    2    0    0 -0.12039069452E+03  0.67898086034E+02 -0.30239845802E+03  0.35520965193E+03  0.12500000000E+03 0.  0.
</event>
<event>
 5    0  0.5742040E-005  0.2760924E+03  0.7546771E-02  0.1097843E+00
         21   -1    0    0  502  501  0.00000000000E+00  0.00000000000E+00  0.11754279989E+04  0.11754279989E+04  0.00000000000E+00 0. -1.
         21   -1    0    0  501  502 -0.00000000000E+00 -0.00000000000E+00 -0.64850414799E+02  0.64850414799E+02  0.00000000000E+00 0. -1.
         25    1    1    2    0    0 -0.47404540373E+00 -0.10023642733E+03  0.72571940764E+03  0.74319662587E+03  0.12500000000E+03 0.  0.
         25    1    1    2    0    0  0.16143564717E+02  0.38611756604E+02  0.31273198966E+03  0.33937851993E+03  0.12500000000E+03 0.  0.
         25    1    1    2    0    0 -0.15669519314E+02  0.61624670721E+02  0.72126186757E+02  0.15770326786E+03  0.12500000000E+03 0.  0.
</event>
<event>
 5    0  0.6679009E-005  0.2991359E+03  0.7546771E-02  0.1085673E+00
         21   -1    0    0  502  501  0.00000000000E+00  0.00000000000E+00  0.18000587071E+03  0.18000587071E+03  0.00000000000E+00 0. -1.
         21   -1    0    0  501  502 -0.00000000000E+00 -0.00000000000E+00 -0.49710752669E+03  0.49710752669E+03  0.00000000000E+00 0. -1.
         25    1    1    2    0    0 -0.70767240695E+02 -0.46006161968E+02 -0.15911588105E+03  0.21924286282E+03  0.12500000000E+03 0.  0.
         25    1    1    2    0    0  0.10591035478E+03  0.24721105291E+02  0.81476783519E+02  0.18463911435E+03  0.12500000000E+03 0.  0.
         25    1    1    2    0    0 -0.35143114080E+02  0.21285056678E+02 -0.23946255845E+03  0.27323142023E+03  0.12500000000E+03 0.  0.
</event>
<event>
 5    0  0.5742040E-005  0.2406827E+03  0.7546771E-02  0.1119339E+00
         21   -1    0    0  502  501  0.00000000000E+00  0.00000000000E+00  0.12356320273E+03  0.12356320273E+03  0.00000000000E+00 0. -1.
         21   -1    0    0  501  502 -0.00000000000E+00 -0.00000000000E+00 -0.46881412096E+03  0.46881412096E+03  0.00000000000E+00 0. -1.
         25    1    1    2    0    0 -0.34899481147E+02 -0.19297089090E+02 -0.53028071754E+02  0.14151794171E+03  0.12500000000E+03 0.  0.
         25    1    1    2    0    0  0.12065844002E+03  0.54593107696E+02 -0.19755436759E+03  0.26868493577E+03  0.12500000000E+03 0.  0.
         25    1    1    2    0    0 -0.85758958877E+02 -0.35296018606E+02 -0.94668478880E+02  0.18217444621E+03  0.12500000000E+03 0.  0.
</event>
<event>
 5    0  0.5742040E-005  0.3029759E+03  0.7546771E-02  0.1083762E+00
         21   -1    0    0  502  501  0.00000000000E+00  0.00000000000E+00  0.94664259838E+03  0.94664259838E+03  0.00000000000E+00 0.  1.
         21   -1    0    0  501  502 -0.00000000000E+00 -0.00000000000E+00 -0.96968408125E+02  0.96968408125E+02  0.00000000000E+00 0.  1.
         25    1    1    2    0    0 -0.22216411857E+02 -0.88474421143E+02  0.40183970436E+03  0.43060589888E+03  0.12500000000E+03 0.  0.
         25    1    1    2    0    0 -0.85785298900E+02  0.11364412981E+03  0.39442951172E+03  0.43757713088E+03  0.12500000000E+03 0.  0.
         25    1    1    2    0    0  0.10800171076E+03 -0.25169708663E+02  0.53404974178E+02  0.17542797675E+03  0.12500000000E+03 0.  0.
</event>
<event>
 5    0  0.5742040E-005  0.5907204E+03  0.7546771E-02  0.9924848E-01
         21   -1    0    0  502  501  0.00000000000E+00  0.00000000000E+00  0.26960413048E+04  0.26960413048E+04  0.00000000000E+00 0.  1.
         21   -1    0    0  501  502 -0.00000000000E+00 -0.00000000000E+00 -0.12943071547E+03  0.12943071547E+03  0.00000000000E+00 0.  1.
         25    1    1    2    0    0  0.50320444235E+02 -0.21509704751E+03  0.57924133423E+03  0.63241158294E+03  0.12500000000E+03 0.  0.
         25    1    1    2    0    0 -0.25438940037E+03  0.46280109792E+03  0.88508043096E+03  0.10382153883E+04  0.12500000000E+03 0.  0.
         25    1    1    2    0    0  0.20406895613E+03 -0.24770405041E+03  0.11022888242E+04  0.11548450490E+04  0.12500000000E+03 0.  0.
</event>
<event>
 5    0  0.5742040E-005  0.4185868E+03  0.7546771E-02  0.1037527E+00
         21   -1    0    0  502  501  0.00000000000E+00  0.00000000000E+00  0.45413684957E+03  0.45413684957E+03  0.00000000000E+00 0.  1.
         21   -1    0    0  501  502 -0.00000000000E+00 -0.00000000000E+00 -0.38581956282E+03  0.38581956282E+03  0.00000000000E+00 0.  1.
         25    1    1    2    0    0 -0.82827442895E+02  0.23901378092E+03  0.25085017013E+03  0.37754308445E+03  0.12500000000E+03 0.  0.
         25    1    1    2    0    0  0.11196758890E+03 -0.15778881355E+03 -0.20562698565E+03  0.30877420208E+03  0.12500000000E+03 0.  0.
         25    1    1    2    0    0 -0.29140146008E+02 -0.81224967368E+02  0.23094102262E+02  0.15363912585E+03  0.12500000000E+03 0.  0.
</event>
<event>
 5    0  0.5742040E-005  0.7583699E+03  0.7546771E-02  0.9622310E-01
         21   -1    0    0  502  501  0.00000000000E+00  0.00000000000E+00  0.45339802413E+03  0.45339802413E+03  0.00000000000E+00 0. -1.
         21   -1    0    0  501  502 -0.00000000000E+00 -0.00000000000E+00 -0.12684767506E+04  0.12684767506E+04  0.00000000000E+00 0. -1.
         25    1    1    2    0    0  0.36245642206E+03  0.84020662661E+02  0.33598840785E+02  0.39393909649E+03  0.12500000000E+03 0.  0.
         25    1    1    2    0    0 -0.57579398690E+03 -0.21614608810E+03 -0.83855482160E+03  0.10474049053E+04  0.12500000000E+03 0.  0.
         25    1    1    2    0    0  0.21333756485E+03  0.13212542544E+03 -0.10122745686E+02  0.28053077300E+03  0.12500000000E+03 0.  0.
</event>
<event>
 5    0  0.5742040E-005  0.2299864E+03  0.7546771E-02  0.1126649E+00
         21   -1    0    0  502  501  0.00000000000E+00  0.00000000000E+00  0.39329143425E+02  0.39329143425E+02  0.00000000000E+00 0.  1.
         21   -1    0    0  501  502 -0.00000000000E+00 -0.00000000000E+00 -0.13448989637E+04  0.13448989637E+04  0.00000000000E+00 0.  1.
         25    1    1    2    0    0 -0.51078046666E+02 -0.39624759405E+02 -0.58938195124E+03  0.60594981051E+03  0.12500000000E+03 0.  0.
         25    1    1    2    0    0 -0.41967334033E+02 -0.22065991224E+02 -0.26163093202E+03  0.29380930837E+03  0.12500000000E+03 0.  0.
         25    1    1    2    0    0  0.93045380699E+02  0.61690750628E+02 -0.45455693698E+03  0.48446898821E+03  0.12500000000E+03 0.  0.
</event>
<event>
 5    0  0.5742040E-005  0.1934923E+03  0.7546771E-02  0.1155349E+00
         21   -1    0    0  502  501  0.00000000000E+00  0.00000000000E+00  0.97589494969E+03  0.97589494969E+03  0.00000000000E+00 0. -1.
         21   -1    0    0  501  502 -0.00000000000E+00 -0.00000000000E+00 -0.38364029624E+02  0.38364029624E+02  0.00000000000E+00 0. -1.
         25    1    1    2    0    0 -0.59804501034E+01 -0.26522403385E+02  0.32787332348E+03  0.35194476827E+03  0.12500000000E+03 0.  0.
         25    1    1    2    0    0  0.23391200924E+02  0.17882582732E+02  0.24994671967E+03  0.28100764709E+03  0.12500000000E+03 0.  0.
         25    1    1    2    0    0 -0.17410750821E+02  0.86398206529E+01  0.35971087692E+03  0.38130656396E+03  0.12500000000E+03 0.  0.
</event>
<event>
 5    0  0.5742040E-005  0.2584633E+03  0.7546771E-02  0.1108070E+00
         21   -1    0    0  502  501  0.00000000000E+00  0.00000000000E+00  0.11517945699E+03  0.11517945699E+03  0.00000000000E+00 0.  1.
         21   -1    0    0  501  502 -0.00000000000E+00 -0.00000000000E+00 -0.57999316507E+03  0.57999316507E+03  0.00000000000E+00 0.  1.
         25    1    1    2    0    0 -0.58103483002E+02 -0.70549209408E+02 -0.92125055261E+02  0.18018110748E+03  0.12500000000E+03 0.  0.
         25    1    1    2    0    0 -0.13151298114E+02  0.64446596918E+02 -0.33877227591E+03  0.36703947393E+03  0.12500000000E+03 0.  0.
         25    1    1    2    0    0  0.71254781116E+02  0.61026124899E+01 -0.33916376909E+02  0.14795204065E+03  0.12500000000E+03 0.  0.
</event>
<event>
 5    0  0.5742040E-005  0.2813653E+03  0.7546771E-02  0.1094946E+00
         21   -1    0    0  502  501  0.00000000000E+00  0.00000000000E+00  0.43480721391E+03  0.43480721391E+03  0.00000000000E+00 0. -1.
         21   -1    0    0  501  502 -0.00000000000E+00 -0.00000000000E+00 -0.18207246499E+03  0.18207246499E+03  0.00000000000E+00 0. -1.
         25    1    1    2    0    0  0.29975404047E+02 -0.36516306723E+02  0.36685022944E+01  0.13368030301E+03  0.12500000000E+03 0.  0.
         25    1    1    2    0    0  0.23404810532E+02  0.81793102654E+02 -0.43586730886E+02  0.15736168500E+03  0.12500000000E+03 0.  0.
         25    1    1    2    0    0 -0.53380214579E+02 -0.45276795931E+02  0.29265297751E+03  0.32583769089E+03  0.12500000000E+03 0.  0.
</event>
<event>
 5    0  0.5742040E-005  0.2783046E+03  0.7546771E-02  0.1096619E+00
         21   -1    0    0  502  501  0.00000000000E+00  0.00000000000E+00  0.40350712203E+03  0.40350712203E+03  0.00000000000E+00 0.  1.
         21   -1    0    0  501  502 -0.00000000000E+00 -0.00000000000E+00 -0.19195063989E+03  0.19195063989E+03  0.00000000000E+00 0.  1.
         25    1    1    2    0    0  0.60876208925E+02  0.46796882971E+02  0.17094546013E+03  0.22526253885E+03  0.12500000000E+03 0.  0.
         25    1    1    2    0    0 -0.76655107610E+01  0.13083480659E+02 -0.10372140582E+03  0.16313512052E+03  0.12500000000E+03 0.  0.
         25    1    1    2    0    0 -0.53210698164E+02 -0.59880363630E+02  0.14433242783E+03  0.20706010256E+03  0.12500000000E+03 0.  0.
</event>
<event>
 5    0  0.5742040E-005  0.2568242E+03  0.7546771E-02  0.1109066E+00
         21   -1    0    0  502  501  0.00000000000E+00  0.00000000000E+00  0.86899809939E+02  0.86899809939E+02  0.00000000000E+00 0.  1.
         21   -1    0    0  501  502 -0.00000000000E+00 -0.00000000000E+00 -0.75901943393E+03  0.75901943393E+03  0.00000000000E+00 0.  1.
         25    1    1    2    0    0  0.42491664188E+02 -0.27952464694E+02 -0.35415554580E+03  0.37899608498E+03  0.12500000000E+03 0.  0.
         25    1    1    2    0    0 -0.11338050837E+03  0.81404721697E+02 -0.15498497871E+03  0.24316087682E+03  0.12500000000E+03 0.  0.
         25    1    1    2    0    0  0.70888844178E+02 -0.53452257003E+02 -0.16297909948E+03  0.22376228206E+03  0.12500000000E+03 0.  0.
</event>
<event>
 5    0  0.5742040E-005  0.4173112E+03  0.7546771E-02  0.1037945E+00
         21   -1    0    0  502  501  0.00000000000E+00  0.00000000000E+00  0.79167848677E+03  0.79167848677E+03  0.00000000000E+00 0.  1.
         21   -1    0    0  501  502 -0.00000000000E+00 -0.00000000000E+00 -0.21997392672E+03  0.21997392672E+03  0.00000000000E+00 0.  1.
         25    1    1    2    0    0 -0.79418696976E+02  0.31185319303E+02  0.59680339924E+03  0.61569404002E+03  0.12500000000E+03 0.  0.
         25    1    1    2    0    0  0.17650948820E+02 -0.14391883619E+03  0.55575375325E+02  0.19934344671E+03  0.12500000000E+03 0.  0.
         25    1    1    2    0    0  0.61767748156E+02  0.11273351688E+03 -0.80674214507E+02  0.19661492677E+03  0.12500000000E+03 0.  0.
</event>
<event>
 5    0  0.5786214E-005  0.3049750E+03  0.7546771E-02  0.1082780E+00
         21   -1    0    0  502  501  0.00000000000E+00  0.00000000000E+00  0.55335173579E+03  0.55335173579E+03  0.00000000000E+00 0. -1.
         21   -1    0    0  501  502 -0.00000000000E+00 -0.00000000000E+00 -0.16808430784E+03  0.16808430784E+03  0.00000000000E+00 0. -1.
         25    1    1    2    0    0 -0.68400318640E+02  0.99801931445E+01  0.20080084952E+03  0.24642278510E+03  0.12500000000E+03 0.  0.
         25    1    1    2    0    0  0.12769078621E+03  0.13000059706E+03  0.26324655258E+02  0.22253781610E+03  0.12500000000E+03 0.  0.
         25    1    1    2    0    0 -0.59290467567E+02 -0.13998079021E+03  0.15814192316E+03  0.25247544243E+03  0.12500000000E+03 0.  0.
</event>
<event>
 5    0  0.5742040E-005  0.3516464E+03  0.7546771E-02  0.1061941E+00
         21   -1    0    0  502  501  0.00000000000E+00  0.00000000000E+00  0.23136250431E+03  0.23136250431E+03  0.00000000000E+00 0. -1.
         21   -1    0    0  501  502 -0.00000000000E+00 -0.00000000000E+00 -0.53446520582E+03  0.53446520582E+03  0.00000000000E+00 0. -1.
         25    1    1    2    0    0  0.12177929885E+03  0.16499384531E+03 -0.26341365450E+02  0.24160305079E+03  0.12500000000E+03 0.  0.
         25    1    1    2    0    0 -0.66806299223E+01  0.73585685291E+02 -0.49210129591E+02  0.15331705955E+03  0.12500000000E+03 0.  0.
         25    1    1    2    0    0 -0.11509866893E+03 -0.23857953060E+03 -0.22755120647E+03  0.37090759978E+03  0.12500000000E+03 0.  0.
</event>
<event>
 5    0  0.5742040E-005  0.3476317E+03  0.7546771E-02  0.1063591E+00
         21   -1    0    0  502  501  0.00000000000E+00  0.00000000000E+00  0.59116682306E+03  0.59116682306E+03  0.00000000000E+00 0.  1.
         21   -1    0    0  501  502 -0.00000000000E+00 -0.00000000000E+00 -0.20442244301E+03  0.20442244301E+03  0.00000000000E+00 0.  1.
         25    1    1    2    0    0  0.48252912486E+01  0.28101374782E+03  0.13866493608E+03  0.33740920912E+03  0.12500000000E+03 0.  0.
         25    1    1    2    0    0  0.18180299382E+02 -0.14366160274E+03  0.16813470161E+03  0.25468305258E+03  0.12500000000E+03 0.  0.
         25    1    1    2    0    0 -0.23005590631E+02 -0.13735214508E+03  0.79944742356E+02  0.20349700437E+03  0.12500000000E+03 0.  0.
</event>
<event>
 5    0  0.5742040E-005  0.3296739E+03  0.7546771E-02  0.1071281E+00
         21   -1    0    0  502  501  0.00000000000E+00  0.00000000000E+00  0.93445742071E+03  0.93445742071E+03  0.00000000000E+00 0.  1.
         21   -1    0    0  501  502 -0.00000000000E+00 -0.00000000000E+00 -0.11630800928E+03  0.11630800928E+03  0.00000000000E+00 0.  1.
         25    1    1    2    0    0 -0.84823646096E+02 -0.98001778880E+01  0.18427925316E+03  0.23848466947E+03  0.12500000000E+03 0.  0.
         25    1    1    2    0    0 -0.17503175474E+02  0.17721570176E+03  0.12062793678E+03  0.24877271803E+03  0.12500000000E+03 0.  0.
         25    1    1    2    0    0  0.10232682157E+03 -0.16741552388E+03  0.51324222148E+03  0.56350804249E+03  0.12500000000E+03 0.  0.
</event>
<event>
 5    0  0.5742040E-005  0.2276995E+03  0.7546771E-02  0.1128270E+00
         21   -1    0    0  502  501  0.00000000000E+00  0.00000000000E+00  0.45217119474E+03  0.45217119474E+03  0.00000000000E+00 0. -1.
         21   -1    0    0  501  502 -0.00000000000E+00 -0.00000000000E+00 -0.11466245093E+03  0.11466245093E+03  0.00000000000E+00 0. -1.
         25    1    1    2    0    0 -0.23808162921E+02  0.21373826029E+01  0.18496360779E+03  0.22451711123E+03  0.12500000000E+03 0.  0.
         25    1    1    2    0    0  0.11974452548E+02  0.86149944385E+02  0.87312908270E+02  0.17553844132E+03  0.12500000000E+03 0.  0.
         25    1    1    2    0    0  0.11833710374E+02 -0.88287326988E+02  0.65232227745E+02  0.16677809312E+03  0.12500000000E+03 0.  0.
</event>
<event>
 5    0  0.5742040E-005  0.3494101E+03  0.7546771E-02  0.1062857E+00
         21   -1    0    0  502  501  0.00000000000E+00  0.00000000000E+00  0.12943357316E+03  0.12943357316E+03  0.00000000000E+00 0. -1.
         21   -1    0    0  501  502 -0.00000000000E+00 -0.00000000000E+00 -0.94324361091E+03  0.94324361091E+03  0.00000000000E+00 0. -1.
         25    1    1    2    0    0 -0.21685868712E+02  0.92114625380E+02  0.44308991128E+02  0.16292227535E+03  0.12500000000E+03 0.  0.
         25    1    1    2    0    0  0.73308351091E+02 -0.42641559627E+02 -0.53667685903E+03  0.55752979110E+03  0.12500000000E+03 0.  0.
         25    1    1    2    0    0 -0.51622482379E+02 -0.49473065753E+02 -0.32144216985E+03  0.35222511762E+03  0.12500000000E+03 0.  0.
</event>
<event>
 5    0  0.5742040E-005  0.4720790E+03  0.7546771E-02  0.1021335E+00
         21   -1    0    0  502  501  0.00000000000E+00  0.00000000000E+00  0.27228128522E+03  0.27228128522E+03  0.00000000000E+00 0.  1.
         21   -1    0    0  501  502 -0.00000000000E+00 -0.00000000000E+00 -0.81848654859E+03  0.81848654859E+03  0.00000000000E+00 0.  1.
         25    1    1    2    0    0  0.15103562200E+03 -0.13553636661E+02  0.15847121343E+02  0.19715879751E+03  0.12500000000E+03 0.  0.
         25    1    1    2    0    0  0.16017252723E+03 -0.90186669851E+02 -0.48598360288E+03  0.53440989527E+03  0.12500000000E+03 0.  0.
         25    1    1    2    0    0 -0.31120814923E+03  0.10374030651E+03 -0.76068781830E+02  0.35919914103E+03  0.12500000000E+03 0.  0.
</event>
<event>
 5    0  0.5742040E-005  0.3610466E+03  0.7546771E-02  0.1058170E+00
         21   -1    0    0  502  501  0.00000000000E+00  0.00000000000E+00  0.32517034095E+03  0.32517034095E+03  0.00000000000E+00 0. -1.
         21   -1    0    0  501  502 -0.00000000000E+00 -0.00000000000E+00 -0.40088102903E+03  0.40088102903E+03  0.00000000000E+00 0. -1.
         25    1    1    2    0    0  0.89319755406E+02  0.15356959896E+03 -0.35940694687E+01  0.21725459204E+03  0.12500000000E+03 0.  0.
         25    1    1    2    0    0  0.17348031013E+02 -0.65174002889E+02  0.15805252352E+03  0.21249518824E+03  0.12500000000E+03 0.  0.
         25    1    1    2    0    0 -0.10666778642E+03 -0.88395596066E+02 -0.23016914214E+03  0.29630158970E+03  0.12500000000E+03 0.  0.
</event>
<event>
 5    0  0.5742040E-005  0.3031943E+03  0.7546771E-02  0.1083655E+00
         21   -1    0    0  502  501  0.00000000000E+00  0.00000000000E+00  0.16771822230E+03  0.16771822230E+03  0.00000000000E+00 0.  1.
         21   -1    0    0  501  502 -0.00000000000E+00 -0.00000000000E+00 -0.54810257435E+03  0.54810257435E+03  0.00000000000E+00 0.  1.
         25    1    1    2    0    0  0.81819907474E+02  0.10826482932E+03  0.25025375080E+02  0.18619086960E+03  0.12500000000E+03 0.  0.
         25    1    1    2    0    0 -0.13338444451E+03 -0.35698695798E+02 -0.24326166955E+03  0.30637729484E+03  0.12500000000E+03 0.  0.
         25    1    1    2    0    0  0.51564537038E+02 -0.72566133520E+02 -0.16214805757E+03  0.22325263221E+03  0.12500000000E+03 0.  0.
</event>
<event>
 5    0  0.5742040E-005  0.8322351E+03  0.7546771E-02  0.9514496E-01
         21   -1    0    0  502  501  0.00000000000E+00  0.00000000000E+00  0.11557325986E+04  0.11557325986E+04  0.00000000000E+00 0. -1.
         21   -1    0    0  501  502 -0.00000000000E+00 -0.00000000000E+00 -0.59928680041E+03  0.59928680041E+03  0.00000000000E+00 0. -1.
         25    1    1    2    0    0  0.21273411154E+03 -0.54305846585E+03  0.66081503149E+03  0.89020773160E+03  0.12500000000E+03 0.  0.
         25    1    1    2    0    0 -0.12400072972E+01  0.55033312126E+03  0.62403777719E+02  0.56779161094E+03  0.12500000000E+03 0.  0.
         25    1    1    2    0    0 -0.21149410424E+03 -0.72746554100E+01 -0.16677301103E+03  0.29702005647E+03  0.12500000000E+03 0.  0.
</event>
<event>
 5    0  0.5742040E-005  0.2954890E+03  0.7546771E-02  0.1087518E+00
         21   -1    0    0  502  501  0.00000000000E+00  0.00000000000E+00  0.27089769996E+03  0.27089769996E+03  0.00000000000E+00 0. -1.
         21   -1    0    0  501  502 -0.00000000000E+00 -0.00000000000E+00 -0.32231261150E+03  0.32231261150E+03  0.00000000000E+00 0. -1.
         25    1    1    2    0    0  0.86724596146E+02 -0.30774474035E+01 -0.71303182605E+02  0.16804692829E+03  0.12500000000E+03 0.  0.
         25    1    1    2    0    0  0.13779540520E+02  0.14847771265E+03 -0.43908280787E+02  0.19947040886E+03  0.12500000000E+03 0.  0.
         25    1    1    2    0    0 -0.10050413667E+03 -0.14540026524E+03  0.63796551858E+02  0.22569297430E+03  0.12500000000E+03 0.  0.
</event>
<event>
 5    0  0.5742040E-005  0.3085343E+03  0.7546771E-02  0.1081051E+00
         21   -1    0    0  502  501  0.00000000000E+00  0.00000000000E+00  0.13012951520E+03  0.13012951520E+03  0.00000000000E+00 0.  1.
         21   -1    0    0  501  502 -0.00000000000E+00 -0.00000000000E+00 -0.73152804694E+03  0.73152804694E+03  0.00000000000E+00 0.  1.
         25    1    1    2    0    0 -0.23177970005E+02 -0.16848195068E+03 -0.37110229808E+03  0.42692540524E+03  0.12500000000E+03 0.  0.
         25    1    1    2    0    0 -0.93679505346E+02  0.69352970735E+02 -0.11050712312E+03  0.20352520367E+03  0.12500000000E+03 0.  0.
         25    1    1    2    0    0  0.11685747535E+03  0.99128979947E+02 -0.11978911054E+03  0.23120695322E+03  0.12500000000E+03 0.  0.
</event>
<event>
 5    0  0.5742040E-005  0.3947145E+03  0.7546771E-02  0.1045625E+00
         21   -1    0    0  502  501  0.00000000000E+00  0.00000000000E+00  0.10227957320E+04  0.10227957320E+04  0.00000000000E+00 0.  1.
         21   -1    0    0  501  502 -0.00000000000E+00 -0.00000000000E+00 -0.15232709503E+03  0.15232709503E+03  0.00000000000E+00 0.  1.
         25    1    1    2    0    0 -0.45083730542E+02  0.31346230591E+02  0.45522022611E+03  0.47525317799E+03  0.12500000000E+03 0.  0.
         25    1    1    2    0    0  0.58999371473E+01  0.11572301340E+03  0.46624512471E+03  0.49642334897E+03  0.12500000000E+03 0.  0.
         25    1    1    2    0    0  0.39183793394E+02 -0.14706924399E+03 -0.50996713843E+02  0.20344630008E+03  0.12500000000E+03 0.  0.
</event>
<event>
 5    0  0.5742040E-005  0.4480442E+03  0.7546771E-02  0.1028307E+00
         21   -1    0    0  502  501  0.00000000000E+00  0.00000000000E+00  0.62639775515E+03  0.62639775515E+03  0.00000000000E+00 0.  1.
         21   -1    0    0  501  502 -0.00000000000E+00 -0.00000000000E+00 -0.32047302688E+03  0.32047302688E+03  0.00000000000E+00 0.  1.
         25    1    1    2    0    0 -0.11007435789E+03  0.14997115204E+03  0.52996360154E+02  0.23030702312E+03  0.12500000000E+03 0.  0.
         25    1    1    2    0    0 -0.11387614779E+03  0.15953661333E+03 -0.15856346339E+02  0.23301530368E+03  0.12500000000E+03 0.  0.
         25    1    1    2    0    0  0.22395050568E+03 -0.30950776537E+03  0.26878471446E+03  0.48354845522E+03  0.12500000000E+03 0.  0.
</event>
<event>
 5    0  0.5742040E-005  0.3678785E+03  0.7546771E-02  0.1055507E+00
         21   -1    0    0  502  501  0.00000000000E+00  0.00000000000E+00  0.34908958368E+03  0.34908958368E+03  0.00000000000E+00 0. -1.
         21   -1    0    0  501  502 -0.00000000000E+00 -0.00000000000E+00 -0.38767865826E+03  0.38767865826E+03  0.00000000000E+00 0. -1.
         25    1    1    2    0    0 -0.17826304719E+03 -0.76913310158E+02 -0.12950150778E+03  0.26474329414E+03  0.12500000000E+03 0.  0.
         25    1    1    2    0    0  0.12478609611E+03 -0.23901286540E+02 -0.10990148993E+03  0.20939479165E+03  0.12500000000E+03 0.  0.
         25    1    1    2    0    0  0.53476951081E+02  0.10081459670E+03  0.20081392312E+03  0.26263015616E+03  0.12500000000E+03 0.  0.
</event>
<event>
 5    0  0.5742040E-005  0.3186725E+03  0.7546771E-02  0.1076262E+00
         21   -1    0    0  502  501  0.00000000000E+00  0.00000000000E+00  0.95033603944E+02  0.95033603944E+02  0.00000000000E+00 0.  1.
         21   -1    0    0  501  502 -0.00000000000E+00 -0.00000000000E+00 -0.10685924487E+04  0.10685924487E+04  0.00000000000E+00 0.  1.
         25    1    1    2    0    0  0.84750206392E+02  0.14122660018E+03 -0.19638732236E+03  0.28516754806E+03  0.12500000000E+03 0.  0.
         25    1    1    2    0    0  0.20121407761E+02 -0.40041283402E+02 -0.60874145693E+03  0.62305644753E+03  0.12500000000E+03 0.  0.
         25    1    1    2    0    0 -0.10487161415E+03 -0.10118531678E+03 -0.16843006544E+03  0.25540205702E+03  0.12500000000E+03 0.  0.
</event>
<event>
 5    0  0.5742040E-005  0.2920003E+03  0.7546771E-02  0.1089309E+00
         21   -1    0    0  502  501  0.00000000000E+00  0.00000000000E+00  0.10217131571E+03  0.10217131571E+03  0.00000000000E+00 0.  1.
         21   -1    0    0  501  502 -0.00000000000E+00 -0.00000000000E+00 -0.83452183859E+03  0.83452183859E+03  0.00000000000E+00 0.  1.
         25    1    1    2    0    0  0.35146394715E+02 -0.10954772408E+03 -0.14044974741E+03  0.22042482723E+03  0.12500000000E+03 0.  0.
         25    1    1    2    0    0  0.71744668500E+02 -0.68903903081E+02 -0.25888227287E+03  0.30420400478E+03  0.12500000000E+03 0.  0.
         25    1    1    2    0    0 -0.10689106322E+03  0.17845162716E+03 -0.33301850260E+03  0.41206432229E+03  0.12500000000E+03 0.  0.
</event>
<event>
 5    0  0.5742040E-005  0.2525976E+03  0.7546771E-02  0.1111674E+00
         21   -1    0    0  502  501  0.00000000000E+00  0.00000000000E+00  0.10595386441E+03  0.10595386441E+03  0.00000000000E+00 0.  1.
         21   -1    0    0  501  502 -0.00000000000E+00 -0.00000000000E+00 -0.60220117062E+03  0.60220117062E+03  0.00000000000E+00 0.  1.
         25    1    1    2    0    0  0.40627042928E+02 -0.19881373911E+02 -0.24448217151E+03  0.27828467049E+03  0.12500000000E+03 0.  0.
         25    1    1    2    0    0 -0.68312495864E+02 -0.48596378429E+02 -0.13842628284E+02  0.15114504109E+03  0.12500000000E+03 0.  0.
         25    1    1    2    0    0  0.27685452936E+02  0.68477752340E+02 -0.23792250642E+03  0.27872532345E+03  0.12500000000E+03 0.  0.
</event>
<event>
 5    0  0.5742040E-005  0.2567022E+03  0.7546771E-02  0.1109141E+00
         21   -1    0    0  502  501  0.00000000000E+00  0.00000000000E+00  0.10215512285E+04  0.10215512285E+04  0.00000000000E+00 0.  1.
         21   -1    0    0  501  502 -0.00000000000E+00 -0.00000000000E+00 -0.64505824166E+02  0.64505824166E+02  0.00000000000E+00 0.  1.
         25    1    1    2    0    0  0.71416013417E+02 -0.94141313955E+02  0.42293161422E+03  0.45657308755E+03  0.12500000000E+03 0.  0.
         25    1    1    2    0    0  0.27348544820E+01 -0.12242564165E+02  0.35025354952E+03  0.37210201391E+03  0.12500000000E+03 0.  0.
         25    1    1    2    0    0 -0.74150867899E+02  0.10638387812E+03  0.18386024058E+03  0.25738195119E+03  0.12500000000E+03 0.  0.
</event>
<event>
 5    0  0.5742040E-005  0.3012830E+03  0.7546771E-02  0.1084601E+00
         21   -1    0    0  502  501  0.00000000000E+00  0.00000000000E+00  0.16025555150E+04  0.16025555150E+04  0.00000000000E+00 0. -1.
         21   -1    0    0  501  502 -0.00000000000E+00 -0.00000000000E+00 -0.56641692737E+02  0.56641692737E+02  0.00000000000E+00 0. -1.
         25    1    1    2    0    0  0.96599322127E+01 -0.10215664496E+03  0.33691033033E+03  0.37371495165E+03  0.12500000000E+03 0.  0.
         25    1    1    2    0    0  0.68623486810E+02 -0.10247797097E+03  0.37329807733E+03  0.41253772193E+03  0.12500000000E+03 0.  0.
         25    1    1    2    0    0 -0.78283419023E+02  0.20463461593E+03  0.83570541462E+03  0.87294453418E+03  0.12500000000E+03 0.  0.
</event>
<event>
 5    0  0.5742040E-005  0.4213107E+03  0.7546771E-02  0.1036641E+00
         21   -1    0    0  502  501  0.00000000000E+00  0.00000000000E+00  0.18338545634E+03  0.18338545634E+03  0.00000000000E+00 0.  1.
         21   -1    0    0  501  502 -0.00000000000E+00 -0.00000000000E+00 -0.96792143862E+03  0.96792143862E+03  0.00000000000E+00 0.  1.
         25    1    1    2    0    0 -0.15934235205E+03  0.55747728752E+02 -0.18030642320E+01  0.21006200384E+03  0.12500000000E+03 0.  0.
         25    1    1    2    0    0  0.26061783332E+03  0.56555257408E+02 -0.61977874248E+03  0.68620029278E+03  0.12500000000E+03 0.  0.
         25    1    1    2    0    0 -0.10127548127E+03 -0.11230298616E+03 -0.16295417557E+03  0.25504459834E+03  0.12500000000E+03 0.  0.
</event>
<event>
 5    0  0.5742040E-005  0.2841631E+03  0.7546771E-02  0.1093437E+00
         21   -1    0    0  502  501  0.00000000000E+00  0.00000000000E+00  0.26869652621E+03  0.26869652621E+03  0.00000000000E+00 0.  1.
         21   -1    0    0  501  502 -0.00000000000E+00 -0.00000000000E+00 -0.30052005510E+03  0.30052005510E+03  0.00000000000E+00 0.  1.
         25    1    1    2    0    0 -0.36694887924E+02  0.49312622365E+02 -0.90842876346E+02  0.16629996304E+03  0.12500000000E+03 0.  0.
         25    1    1    2    0    0 -0.13270470381E+03 -0.45251128297E+02  0.33651603212E+02  0.19082880659E+03  0.12500000000E+03 0.  0.
         25    1    1    2    0    0  0.16939959173E+03 -0.40614940674E+01  0.25367744244E+02  0.21208781168E+03  0.12500000000E+03 0.  0.
</event>
<event>
 5    0  0.5742040E-005  0.2937996E+03  0.7546771E-02  0.1088382E+00
         21   -1    0    0  502  501  0.00000000000E+00  0.00000000000E+00  0.21214094649E+03  0.21214094649E+03  0.00000000000E+00 0. -1.
         21   -1    0    0  501  502 -0.00000000000E+00 -0.00000000000E+00 -0.40689082590E+03  0.40689082590E+03  0.00000000000E+00 0. -1.
         25    1    1    2    0    0  0.16649858785E+02  0.11071455132E+03 -0.78112654910E+02  0.18509866701E+03  0.12500000000E+03 0.  0.
         25    1    1    2    0    0  0.68802851684E+01 -0.78536562633E+02 -0.22129289686E+03  0.26610313075E+03  0.12500000000E+03 0.  0.
         25    1    1    2    0    0 -0.23530143953E+02 -0.32177988686E+02  0.10465567236E+03  0.16782997464E+03  0.12500000000E+03 0.  0.
</event>
<event>
 5    0  0.6184315E-005  0.3302608E+03  0.7546771E-02  0.1071022E+00
         21   -1    0    0  502  501  0.00000000000E+00  0.00000000000E+00  0.44680131233E+03  0.44680131233E+03  0.00000000000E+00 0.  1.
         21   -1    0    0  501  502 -0.00000000000E+00 -0.00000000000E+00 -0.24411788559E+03  0.24411788559E+03  0.00000000000E+00 0.  1.
         25    1    1    2    0    0  0.14473298550E+03  0.11504276226E+03  0.10423497509E+03  0.24631768972E+03  0.12500000000E+03 0.  0.
         25    1    1    2    0    0 -0.12825494410E+03 -0.17321648304E+03  0.15635970481E+03  0.29415410582E+03  0.12500000000E+03 0.  0.
         25    1    1    2    0    0 -0.16478041395E+02  0.58173720782E+02 -0.57911253164E+02  0.15044740237E+03  0.12500000000E+03 0.  0.
</event>
<event>
 5    0  0.5742040E-005  0.2483789E+03  0.7546771E-02  0.1114334E+00
         21   -1    0    0  502  501  0.00000000000E+00  0.00000000000E+00  0.34955503472E+03  0.34955503472E+03  0.00000000000E+00 0.  1.
         21   -1    0    0  501  502 -0.00000000000E+00 -0.00000000000E+00 -0.17648739820E+03  0.17648739820E+03  0.00000000000E+00 0. -1.
         25    1    1    2    0    0 -0.10773409446E+03  0.76335656193E+02  0.13148914086E+03  0.22438396039E+03  0.12500000000E+03 0.  0.
         25    1    1    2    0    0  0.55816676613E+01 -0.18730709405E+02  0.63751848644E+01  0.12667927009E+03  0.12500000000E+03 0.  0.
         25    1    1    2    0    0  0.10215242680E+03 -0.57604946788E+02  0.35203310782E+02  0.17497920244E+03  0.12500000000E+03 0.  0.
</event>
<event>
 5    0  0.5742040E-005  0.2090202E+03  0.7546771E-02  0.1142344E+00
         21   -1    0    0  502  501  0.00000000000E+00  0.00000000000E+00  0.40062429317E+02  0.40062429317E+02  0.00000000000E+00 0.  1.
         21   -1    0    0  501  502 -0.00000000000E+00 -0.00000000000E+00 -0.10905343192E+04  0.10905343192E+04  0.00000000000E+00 0.  1.
         25    1    1    2    0    0 -0.16756279358E+02  0.63534337505E+02 -0.26722117630E+03  0.30224086753E+03  0.12500000000E+03 0.  0.
         25    1    1    2    0    0 -0.20431236894E+00 -0.27044026602E+02 -0.50078343256E+03  0.51685633154E+03  0.12500000000E+03 0.  0.
         25    1    1    2    0    0  0.16960591727E+02 -0.36490310903E+02 -0.28246728097E+03  0.31149954941E+03  0.12500000000E+03 0.  0.
</event>
<event>
 5    0  0.5742040E-005  0.2695446E+03  0.7546771E-02  0.1101541E+00
         21   -1    0    0  502  501  0.00000000000E+00  0.00000000000E+00  0.87309860100E+03  0.87309860100E+03  0.00000000000E+00 0.  1.
         21   -1    0    0  501  502 -0.00000000000E+00 -0.00000000000E+00 -0.83214312767E+02  0.83214312767E+02  0.00000000000E+00 0.  1.
         25    1    1    2    0    0 -0.52197674838E+02  0.19766403750E+01  0.89655791841E+02  0.16245511804E+03  0.12500000000E+03 0.  0.
         25    1    1    2    0    0 -0.10542718258E+02  0.10204838893E+03  0.51375143555E+03  0.53860055711E+03  0.12500000000E+03 0.  0.
         25    1    1    2    0    0  0.62740393096E+02 -0.10402502930E+03  0.18647706084E+03  0.25525723862E+03  0.12500000000E+03 0.  0.
</event>
<event>
 5    0  0.5742040E-005  0.2787122E+03  0.7546771E-02  0.1096394E+00
         21   -1    0    0  502  501  0.00000000000E+00  0.00000000000E+00  0.22638252369E+04  0.22638252369E+04  0.00000000000E+00 0.  1.
         21   -1    0    0  501  502 -0.00000000000E+00 -0.00000000000E+00 -0.34313819358E+02  0.34313819358E+02  0.00000000000E+00 0.  1.
         25    1    1    2    0    0 -0.78671016375E+02  0.28602566005E+02  0.42109418393E+03  0.44716053866E+03  0.12500000000E+03 0.  0.
         25    1    1    2    0    0 -0.48768358375E+02 -0.44524278914E+02  0.13710106891E+04  0.13782801144E+04  0.12500000000E+03 0.  0.
         25    1    1    2    0    0  0.12743937475E+03  0.15921712909E+02  0.43740654454E+03  0.47269840320E+03  0.12500000000E+03 0.  0.
</event>
<event>
 5    0  0.5742040E-005  0.3135274E+03  0.7546771E-02  0.1078667E+00
         21   -1    0    0  502  501  0.00000000000E+00  0.00000000000E+00  0.20514012210E+03  0.20514012210E+03  0.00000000000E+00 0. -1.
         21   -1    0    0  501  502 -0.00000000000E+00 -0.00000000000E+00 -0.47918195508E+03  0.47918195508E+03  0.00000000000E+00 0. -1.
         25    1    1    2    0    0  0.13262930073E+03 -0.74869689895E+02 -0.14253279963E+03  0.24318018185E+03  0.12500000000E+03 0.  0.
         25    1    1    2    0    0 -0.22563418713E+03  0.41553738653E+02 -0.71370185673E+02  0.27084350278E+03  0.12500000000E+03 0.  0.
         25    1    1    2    0    0  0.93004886403E+02  0.33315951241E+02 -0.60138847676E+02  0.17029839254E+03  0.12500000000E+03 0.  0.
</event>
<event>
 5    0  0.5742040E-005  0.3417918E+03  0.7546771E-02  0.1066035E+00
         21   -1    0    0  502  501  0.00000000000E+00  0.00000000000E+00  0.12150055713E+03  0.12150055713E+03  0.00000000000E+00 0.  1.
         21   -1    0    0  501  502 -0.00000000000E+00 -0.00000000000E+00 -0.96149078003E+03  0.96149078003E+03  0.00000000000E+00 0.  1.
         25    1    1    2    0    0  0.20156648707E+02  0.84987687963E+02 -0.12108871656E+03  0.19472204516E+03  0.12500000000E+03 0.  0.
         25    1    1    2    0    0  0.99064673006E+02 -0.11556236381E+03 -0.68084903252E+03  0.70876574018E+03  0.12500000000E+03 0.  0.
         25    1    1    2    0    0 -0.11922132171E+03  0.30574675845E+02 -0.38052473818E+02  0.17950355182E+03  0.12500000000E+03 0.  0.
</event>
<event>
 5    0  0.5742040E-005  0.3103179E+03  0.7546771E-02  0.1080194E+00
         21   -1    0    0  502  501  0.00000000000E+00  0.00000000000E+00  0.68786414633E+03  0.68786414633E+03  0.00000000000E+00 0.  1.
         21   -1    0    0  501  502 -0.00000000000E+00 -0.00000000000E+00 -0.13999454440E+03  0.13999454440E+03  0.00000000000E+00 0.  1.
         25    1    1    2    0    0 -0.11393502474E+03 -0.83046435503E+02  0.24269164448E+03  0.30724930368E+03  0.12500000000E+03 0.  0.
         25    1    1    2    0    0  0.66628528202E+02 -0.10127381593E+03  0.21265492505E+03  0.27485062073E+03  0.12500000000E+03 0.  0.
         25    1    1    2    0    0  0.47306496538E+02  0.18432025143E+03  0.92523032406E+02  0.24575876633E+03  0.12500000000E+03 0.  0.
</event>
<event>
 5    0  0.5742040E-005  0.2631450E+03  0.7546771E-02  0.1105268E+00
         21   -1    0    0  502  501  0.00000000000E+00  0.00000000000E+00  0.16408383834E+03  0.16408383834E+03  0.00000000000E+00 0. -1.
         21   -1    0    0  501  502 -0.00000000000E+00 -0.00000000000E+00 -0.42201177073E+03  0.42201177073E+03  0.00000000000E+00 0. -1.
         25    1    1    2    0    0  0.35950848709E+02 -0.11877881329E+02 -0.24282266228E+03  0.27571977243E+03  0.12500000000E+03 0.  0.
         25    1    1    2    0    0 -0.90149053217E+02 -0.37750934478E+02 -0.39058365947E+02  0.16340912092E+03  0.12500000000E+03 0.  0.
         25    1    1    2    0    0  0.54198204508E+02  0.49628815807E+02  0.23953095848E+02  0.14696671572E+03  0.12500000000E+03 0.  0.
</event>
<event>
 5    0  0.5742040E-005  0.3237374E+03  0.7546771E-02  0.1073942E+00
         21   -1    0    0  502  501  0.00000000000E+00  0.00000000000E+00  0.54742880236E+03  0.54742880236E+03  0.00000000000E+00 0.  1.
         21   -1    0    0  501  502 -0.00000000000E+00 -0.00000000000E+00 -0.19145115384E+03  0.19145115384E+03  0.00000000000E+00 0.  1.
         25    1    1    2    0    0  0.13299267670E+03  0.18691762687E+03  0.49820608057E+02  0.26595553064E+03  0.12500000000E+03 0.  0.
         25    1    1    2    0    0 -0.95301944531E+02 -0.16256598223E+03  0.21343150500E+03  0.31094720860E+03  0.12500000000E+03 0.  0.
         25    1    1    2    0    0 -0.37690732172E+02 -0.24351644636E+02  0.92725535462E+02  0.16197721696E+03  0.12500000000E+03 0.  0.
</event>
<event>
 5    0  0.5742040E-005  0.4517809E+03  0.7546771E-02  0.1027192E+00
         21   -1    0    0  502  501  0.00000000000E+00  0.00000000000E+00  0.15551008596E+04  0.15551008596E+04  0.00000000000E+00 0. -1.
         21   -1    0    0  501  502 -0.00000000000E+00 -0.00000000000E+00 -0.13124932618E+03  0.13124932618E+03  0.00000000000E+00 0. -1.
         25    1    1    2    0    0  0.17598656783E+03  0.18413393963E+02  0.92518586124E+03  0.95021271459E+03  0.12500000000E+03 0.  0.
         25    1    1    2    0    0 -0.72703421397E+02  0.19967525660E+03  0.13173392900E+03  0.27952606969E+03  0.12500000000E+03 0.  0.
         25    1    1    2    0    0 -0.10328314643E+03 -0.21808865057E+03  0.36693174320E+03  0.45661140153E+03  0.12500000000E+03 0.  0.
</event>
<event>
 5    0  0.5742040E-005  0.3193771E+03  0.7546771E-02  0.1075936E+00
         21   -1    0    0  502  501  0.00000000000E+00  0.00000000000E+00  0.22926042414E+03  0.22926042414E+03  0.00000000000E+00 0. -1.
         21   -1    0    0  501  502 -0.00000000000E+00 -0.00000000000E+00 -0.44491641800E+03  0.44491641800E+03  0.00000000000E+00 0. -1.
         25    1    1    2    0    0 -0.38796051530E+02 -0.19988741120E+03 -0.17939911668E+03  0.29877944011E+03  0.12500000000E+03 0.  0.
         25    1    1    2    0    0 -0.38049000304E+02  0.17368830613E+03 -0.57533509024E+02  0.22483429180E+03  0.12500000000E+03 0.  0.
         25    1    1    2    0    0  0.76845051834E+02  0.26199105069E+02  0.21276631839E+02  0.15056311022E+03  0.12500000000E+03 0.  0.
</event>
<event>
 5    0  0.5742040E-005  0.3041928E+03  0.7546771E-02  0.1083163E+00
         21   -1    0    0  502  501  0.00000000000E+00  0.00000000000E+00  0.14402097871E+04  0.14402097871E+04  0.00000000000E+00 0. -1.
         21   -1    0    0  501  502 -0.00000000000E+00 -0.00000000000E+00 -0.64249851477E+02  0.64249851477E+02  0.00000000000E+00 0. -1.
         25    1    1    2    0    0 -0.25427695139E+02 -0.14738445696E+03  0.72809076331E+03  0.75373065843E+03  0.12500000000E+03 0.  0.
         25    1    1    2    0    0  0.34788686957E+02  0.15917992961E+03  0.20444883408E+03  0.28978065582E+03  0.12500000000E+03 0.  0.
         25    1    1    2    0    0 -0.93609918176E+01 -0.11795472649E+02  0.44342033823E+03  0.46094832433E+03  0.12500000000E+03 0.  0.
</event>
<event>
 5    0  0.5742040E-005  0.2807551E+03  0.7546771E-02  0.1095277E+00
         21   -1    0    0  502  501  0.00000000000E+00  0.00000000000E+00  0.17378964222E+03  0.17378964222E+03  0.00000000000E+00 0. -1.
         21   -1    0    0  501  502 -0.00000000000E+00 -0.00000000000E+00 -0.45355637444E+03  0.45355637444E+03  0.00000000000E+00 0. -1.
         25    1    1    2    0    0  0.29280476052E+02 -0.37705385144E+02 -0.17656607011E+03  0.22153920524E+03  0.12500000000E+03 0.  0.
         25    1    1    2    0    0 -0.20599180814E+02 -0.53029982481E+02  0.85514796351E+02  0.16178468929E+03  0.12500000000E+03 0.  0.
         25    1    1    2    0    0 -0.86812952374E+01  0.90735367626E+02 -0.18871545846E+03  0.24402212213E+03  0.12500000000E+03 0.  0.
</event>
<event>
 5    0  0.5742040E-005  0.2204468E+03  0.7546771E-02  0.1133550E+00
         21   -1    0    0  502  501  0.00000000000E+00  0.00000000000E+00  0.88732968318E+02  0.88732968318E+02  0.00000000000E+00 0. -1.
         21   -1    0    0  501  502 -0.00000000000E+00 -0.00000000000E+00 -0.54767450543E+03  0.54767450543E+03  0.00000000000E+00 0. -1.
         25    1    1    2    0    0 -0.35962506826E+02 -0.23722781336E+02 -0.22774651562E+03  0.26334302274E+03  0.12500000000E+03 0.  0.
         25    1    1    2    0    0  0.72315014787E+02  0.58364683551E+00 -0.18120360373E+03  0.23171005160E+03  0.12500000000E+03 0.  0.
         25    1    1    2    0    0 -0.36352507961E+02  0.23139134501E+02 -0.49991417758E+02  0.14135439940E+03  0.12500000000E+03 0.  0.
</event>
<event>
 5    0  0.5742040E-005  0.3654803E+03  0.7546771E-02  0.1056435E+00
         21   -1    0    0  502  501  0.00000000000E+00  0.00000000000E+00  0.16217869809E+04  0.16217869809E+04  0.00000000000E+00 0. -1.
         21   -1    0    0  501  502 -0.00000000000E+00 -0.00000000000E+00 -0.82363374723E+02  0.82363374723E+02  0.00000000000E+00 0. -1.
         25    1    1    2    0    0 -0.53923348068E+02  0.91922960680E+02  0.76997986616E+03  0.78730651747E+03  0.12500000000E+03 0.  0.
         25    1    1    2    0    0 -0.58331124020E+02  0.45688238708E+02  0.65585922552E+03  0.67176354388E+03  0.12500000000E+03 0.  0.
         25    1    1    2    0    0  0.11225447209E+03 -0.13761119939E+03  0.11358451448E+03  0.24508029425E+03  0.12500000000E+03 0.  0.
</event>
<event>
 5    0  0.5742040E-005  0.3466959E+03  0.7546771E-02  0.1063979E+00
         21   -1    0    0  502  501  0.00000000000E+00  0.00000000000E+00  0.15123491740E+04  0.15123491740E+04  0.00000000000E+00 0. -1.
         21   -1    0    0  501  502 -0.00000000000E+00 -0.00000000000E+00 -0.79477717915E+02  0.79477717915E+02  0.00000000000E+00 0. -1.
         25    1    1    2    0    0 -0.11149851314E+03 -0.93237560641E+02  0.47188971797E+03  0.50934277955E+03  0.12500000000E+03 0.  0.
         25    1    1    2    0    0  0.12849853038E+03 -0.60476518073E+02  0.13377244274E+03  0.23170961996E+03  0.12500000000E+03 0.  0.
         25    1    1    2    0    0 -0.17000017235E+02  0.15371407871E+03  0.82720929541E+03  0.85077449244E+03  0.12500000000E+03 0.  0.
</event>
<event>
 5    0  0.5742040E-005  0.2548245E+03  0.7546771E-02  0.1110293E+00
         21   -1    0    0  502  501  0.00000000000E+00  0.00000000000E+00  0.96033870824E+02  0.96033870824E+02  0.00000000000E+00 0.  1.
         21   -1    0    0  501  502 -0.00000000000E+00 -0.00000000000E+00 -0.67617298401E+03  0.67617298401E+03  0.00000000000E+00 0.  1.
         25    1    1    2    0    0  0.46190663772E+02  0.14826475897E+03 -0.20730202240E+03  0.28760240727E+03  0.12500000000E+03 0.  0.
         25    1    1    2    0    0 -0.52220536282E+02 -0.89991653196E+02 -0.25825933389E+03  0.30520217168E+03  0.12500000000E+03 0.  0.
         25    1    1    2    0    0  0.60298725101E+01 -0.58273105779E+02 -0.11457775689E+03  0.17940227589E+03  0.12500000000E+03 0.  0.
</event>
<event>
 5    0  0.5742040E-005  0.2645937E+03  0.7546771E-02  0.1104414E+00
         21   -1    0    0  502  501  0.00000000000E+00  0.00000000000E+00  0.78657415055E+02  0.78657415055E+02  0.00000000000E+00 0.  1.
         21   -1    0    0  501  502 -0.00000000000E+00 -0.00000000000E+00 -0.89006024256E+03  0.89006024256E+03  0.00000000000E+00 0.  1.
         25    1    1    2    0    0  0.70828855080E+02  0.25984272838E+02 -0.30550254158E+03  0.33859815720E+03  0.12500000000E+03 0.  0.
         25    1    1    2    0    0 -0.84432123348E+02 -0.10520690059E+03 -0.12805733433E+03  0.22410032633E+03  0.12500000000E+03 0.  0.
         25    1    1    2    0    0  0.13603268267E+02  0.79222627757E+02 -0.37784295159E+03  0.40601917408E+03  0.12500000000E+03 0.  0.
</event>
<event>
 5    0  0.5742040E-005  0.2845015E+03  0.7546771E-02  0.1093255E+00
         21   -1    0    0  502  501  0.00000000000E+00  0.00000000000E+00  0.37151128977E+03  0.37151128977E+03  0.00000000000E+00 0. -1.
         21   -1    0    0  501  502 -0.00000000000E+00 -0.00000000000E+00 -0.21786977471E+03  0.21786977471E+03  0.00000000000E+00 0. -1.
         25    1    1    2    0    0 -0.70147230289E+02 -0.35884722823E+02  0.14678376791E+03  0.20827583098E+03  0.12500000000E+03 0.  0.
         25    1    1    2    0    0  0.11213177494E+03 -0.91958059966E+02 -0.29975520721E+02  0.19378687155E+03  0.12500000000E+03 0.  0.
         25    1    1    2    0    0 -0.41984544651E+02  0.12784278279E+03  0.36833267872E+02  0.18731836195E+03  0.12500000000E+03 0.  0.
</event>
<event>
 5    0  0.5742040E-005  0.3464572E+03  0.7546771E-02  0.1064079E+00
         21   -1    0    0  502  501  0.00000000000E+00  0.00000000000E+00  0.22485081539E+03  0.22485081539E+03  0.00000000000E+00 0. -1.
         21   -1    0    0  501  502 -0.00000000000E+00 -0.00000000000E+00 -0.53383200431E+03  0.53383200431E+03  0.00000000000E+00 0. -1.
         25    1    1    2    0    0  0.11399223935E+03  0.48112341880E+02  0.11715306229E+03  0.21132644907E+03  0.12500000000E+03 0.  0.
         25    1    1    2    0    0 -0.35536052787E+01 -0.65300536777E+02 -0.31784931448E+03  0.34774987409E+03  0.12500000000E+03 0.  0.
         25    1    1    2    0    0 -0.11043863407E+03  0.17188194898E+02 -0.10828493673E+03  0.19960649654E+03  0.12500000000E+03 0.  0.
</event>
<event>
 5    0  0.5742040E-005  0.2448738E+03  0.7546771E-02  0.1116588E+00
         21   -1    0    0  502  501  0.00000000000E+00  0.00000000000E+00  0.60893655012E+03  0.60893655012E+03  0.00000000000E+00 0.  1.
         21   -1    0    0  501  502 -0.00000000000E+00 -0.00000000000E+00 -0.98471997408E+02  0.98471997408E+02  0.00000000000E+00 0.  1.
         25    1    1    2    0    0 -0.72873613735E+02  0.98680482823E+02  0.77165884004E+02  0.19138436436E+03  0.12500000000E+03 0.  0.
         25    1    1    2    0    0  0.32264265583E+02 -0.41785204059E+02  0.18576245618E+03  0.23004277046E+03  0.12500000000E+03 0.  0.
         25    1    1    2    0    0  0.40609348151E+02 -0.56895278764E+02  0.24753621252E+03  0.28598141270E+03  0.12500000000E+03 0.  0.
</event>
<event>
 5    0  0.5742040E-005  0.3005487E+03  0.7546771E-02  0.1084967E+00
         21   -1    0    0  502  501  0.00000000000E+00  0.00000000000E+00  0.29023037731E+03  0.29023037731E+03  0.00000000000E+00 0. -1.
         21   -1    0    0  501  502 -0.00000000000E+00 -0.00000000000E+00 -0.31123383032E+03  0.31123383032E+03  0.00000000000E+00 0. -1.
         25    1    1    2    0    0 -0.82500606450E+02  0.35397167893E+02  0.69490206417E+01  0.15405388164E+03  0.12500000000E+03 0.  0.
         25    1    1    2    0    0  0.19488684486E+03 -0.48705512774E+02 -0.10879513905E+03  0.26041215708E+03  0.12500000000E+03 0.  0.
         25    1    1    2    0    0 -0.11238623841E+03  0.13308344881E+02  0.80842665396E+02  0.18699816891E+03  0.12500000000E+03 0.  0.
</event>
<event>
 5    0  0.5742040E-005  0.3085358E+03  0.7546771E-02  0.1081050E+00
         21   -1    0    0  502  501  0.00000000000E+00  0.00000000000E+00  0.27435408673E+03  0.27435408673E+03  0.00000000000E+00 0. -1.
         21   -1    0    0  501  502 -0.00000000000E+00 -0.00000000000E+00 -0.34697619685E+03  0.34697619685E+03  0.00000000000E+00 0. -1.
         25    1    1    2    0    0  0.11552138973E+03  0.39725407843E+02 -0.48258691973E+02  0.18132071273E+03  0.12500000000E+03 0.  0.
         25    1    1    2    0    0 -0.20372719961E+03 -0.11844316964E+02  0.80455332650E+02  0.25247399917E+03  0.12500000000E+03 0.  0.
         25    1    1    2    0    0  0.88205809878E+02 -0.27881090879E+02 -0.10481875080E+03  0.18753557168E+03  0.12500000000E+03 0.  0.
</event>
<event>
 5    0  0.5742040E-005  0.2979995E+03  0.7546771E-02  0.1086245E+00
         21   -1    0    0  502  501  0.00000000000E+00  0.00000000000E+00  0.10874928625E+04  0.10874928625E+04  0.00000000000E+00 0. -1.
         21   -1    0    0  501  502 -0.00000000000E+00 -0.00000000000E+00 -0.81659103545E+02  0.81659103545E+02  0.00000000000E+00 0. -1.
         25    1    1    2    0    0  0.26269145414E+02 -0.19994723604E+03  0.26147471034E+03  0.35307646388E+03  0.12500000000E+03 0.  0.
         25    1    1    2    0    0 -0.46248134767E+02  0.11308105426E+03  0.31727558359E+03  0.36223612568E+03  0.12500000000E+03 0.  0.
         25    1    1    2    0    0  0.19978989353E+02  0.86866181778E+02  0.42708346501E+03  0.45383937647E+03  0.12500000000E+03 0.  0.
</event>
<event>
 5    0  0.5742040E-005  0.4604664E+03  0.7546771E-02  0.1024646E+00
         21   -1    0    0  502  501  0.00000000000E+00  0.00000000000E+00  0.20547946413E+04  0.20547946413E+04  0.00000000000E+00 0. -1.
         21   -1    0    0  501  502 -0.00000000000E+00 -0.00000000000E+00 -0.10318757208E+03  0.10318757208E+03  0.00000000000E+00 0. -1.
         25    1    1    2    0    0 -0.15373208089E+03  0.37573931975E+02  0.39696986460E+03  0.44525883087E+03  0.12500000000E+03 0.  0.
         25    1    1    2    0    0 -0.18698576553E+03  0.17200140835E+03  0.45472527118E+03  0.53567549247E+03  0.12500000000E+03 0.  0.
         25    1    1    2    0    0  0.34071784643E+03 -0.20957534033E+03  0.10999119334E+04  0.11770478900E+04  0.12500000000E+03 0.  0.
</event>
<event>
 5    0  0.5742040E-005  0.2793144E+03  0.7546771E-02  0.1096064E+00
         21   -1    0    0  502  501  0.00000000000E+00  0.00000000000E+00  0.28244446952E+02  0.28244446952E+02  0.00000000000E+00 0. -1.
         21   -1    0    0  501  502 -0.00000000000E+00 -0.00000000000E+00 -0.27621898223E+04  0.27621898223E+04  0.00000000000E+00 0. -1.
         25    1    1    2    0    0 -0.15624972247E+02 -0.79190901233E+02 -0.65498939538E+03  0.67167808261E+03  0.12500000000E+03 0.  0.
         25    1    1    2    0    0 -0.71762014165E+02  0.10444372675E+03 -0.47311322998E+03  0.50548927498E+03  0.12500000000E+03 0.  0.
         25    1    1    2    0    0  0.87386986413E+02 -0.25252825516E+02 -0.16058427500E+04  0.16132669117E+04  0.12500000000E+03 0.  0.
</event>
<event>
 5    0  0.5742040E-005  0.3106694E+03  0.7546771E-02  0.1080025E+00
         21   -1    0    0  502  501  0.00000000000E+00  0.00000000000E+00  0.75814764713E+02  0.75814764713E+02  0.00000000000E+00 0.  1.
         21   -1    0    0  501  502 -0.00000000000E+00 -0.00000000000E+00 -0.12730434579E+04  0.12730434579E+04  0.00000000000E+00 0.  1.
         25    1    1    2    0    0  0.26109009754E+02  0.99152044612E+02 -0.60585449017E+03  0.62705460017E+03  0.12500000000E+03 0.  0.
         25    1    1    2    0    0 -0.83859363800E+01 -0.13684849293E+03 -0.55489243591E+03  0.58508841159E+03  0.12500000000E+03 0.  0.
         25    1    1    2    0    0 -0.17723073374E+02  0.37696448321E+02 -0.36481767106E+02  0.13671521085E+03  0.12500000000E+03 0.  0.
</event>
<event>
 5    0  0.5742040E-005  0.4403971E+03  0.7546771E-02  0.1030625E+00
         21   -1    0    0  502  501  0.00000000000E+00  0.00000000000E+00  0.74397809650E+03  0.74397809650E+03  0.00000000000E+00 0. -1.
         21   -1    0    0  501  502 -0.00000000000E+00 -0.00000000000E+00 -0.26069262592E+03  0.26069262592E+03  0.00000000000E+00 0. -1.
         25    1    1    2    0    0  0.20724148084E+02 -0.17605796156E+03  0.51847988321E+03  0.56202516441E+03  0.12500000000E+03 0.  0.
         25    1    1    2    0    0 -0.27161123727E+02 -0.78535560369E+02  0.26225139181E+02  0.15237558469E+03  0.12500000000E+03 0.  0.
         25    1    1    2    0    0  0.64369756431E+01  0.25459352193E+03 -0.61419551814E+02  0.29026997332E+03  0.12500000000E+03 0.  0.
</event>
<event>
 5    0  0.5742040E-005  0.2475903E+03  0.7546771E-02  0.1114837E+00
         21   -1    0    0  502  501  0.00000000000E+00  0.00000000000E+00  0.77578971780E+03  0.77578971780E+03  0.00000000000E+00 0. -1.
         21   -1    0    0  501  502 -0.00000000000E+00 -0.00000000000E+00 -0.79017468127E+02  0.79017468127E+02  0.00000000000E+00 0. -1.
         25    1    1    2    0    0  0.95091881379E+02  0.77034111549E+02  0.32395878976E+03  0.36817253797E+03  0.12500000000E+03 0.  0.
         25    1    1    2    0    0 -0.10791643205E+03 -0.62032580691E+02  0.27488666775E+03  0.32662161208E+03  0.12500000000E+03 0.  0.
         25    1    1    2    0    0  0.12824550675E+02 -0.15001530857E+02  0.97926792161E+02  0.16001303588E+03  0.12500000000E+03 0.  0.
</event>
<event>
 5    0  0.5742040E-005  0.2383149E+03  0.7546771E-02  0.1120920E+00
         21   -1    0    0  502  501  0.00000000000E+00  0.00000000000E+00  0.67716484057E+03  0.67716484057E+03  0.00000000000E+00 0. -1.
         21   -1    0    0  501  502 -0.00000000000E+00 -0.00000000000E+00 -0.83870274032E+02  0.83870274032E+02  0.00000000000E+00 0. -1.
         25    1    1    2    0    0  0.35616756965E+02  0.51781921432E+02  0.43675531430E+02  0.14656900358E+03  0.12500000000E+03 0.  0.
         25    1    1    2    0    0 -0.51181054101E+02 -0.75095995634E+01  0.34012662988E+03  0.36604237287E+03  0.12500000000E+03 0.  0.
         25    1    1    2    0    0  0.15564297136E+02 -0.44272321869E+02  0.20949240522E+03  0.24842373815E+03  0.12500000000E+03 0.  0.
</event>
<event>
 5    0  0.5742040E-005  0.6426130E+03  0.7546771E-02  0.9820740E-01
         21   -1    0    0  502  501  0.00000000000E+00  0.00000000000E+00  0.38716899479E+03  0.38716899479E+03  0.00000000000E+00 0. -1.
         21   -1    0    0  501  502 -0.00000000000E+00 -0.00000000000E+00 -0.10665923398E+04  0.10665923398E+04  0.00000000000E+00 0. -1.
         25    1    1    2    0    0  0.41009037384E+03 -0.27727938259E+03  0.29631693928E+02  0.51143035499E+03  0.12500000000E+03 0.  0.
         25    1    1    2    0    0 -0.18151599518E+02  0.21022549341E+02 -0.91923501937E+02  0.15762727668E+03  0.12500000000E+03 0.  0.
         25    1    1    2    0    0 -0.39193877432E+03  0.25625683324E+03 -0.61713153699E+03  0.78470370290E+03  0.12500000000E+03 0.  0.
</event>
<event>
 5    0  0.5742040E-005  0.4802290E+03  0.7546771E-02  0.1019072E+00
         21   -1    0    0  502  501  0.00000000000E+00  0.00000000000E+00  0.40605707358E+03  0.40605707358E+03  0.00000000000E+00 0.  1.
         21   -1    0    0  501  502 -0.00000000000E+00 -0.00000000000E+00 -0.56794942313E+03  0.56794942313E+03  0.00000000000E+00 0.  1.
         25    1    1    2    0    0 -0.53639658814E+02  0.19655130733E+03  0.31638513598E+03  0.39652765816E+03  0.12500000000E+03 0.  0.
         25    1    1    2    0    0  0.37118223552E+02 -0.88743747479E+02 -0.23189938585E+03  0.28045595090E+03  0.12500000000E+03 0.  0.
         25    1    1    2    0    0  0.16521435262E+02 -0.10780755985E+03 -0.24637809969E+03  0.29702288765E+03  0.12500000000E+03 0.  0.
</event>
<event>
 5    0  0.5742040E-005  0.2167269E+03  0.7546771E-02  0.1136347E+00
         21   -1    0    0  502  501  0.00000000000E+00  0.00000000000E+00  0.65406412657E+03  0.65406412657E+03  0.00000000000E+00 0. -1.
         21   -1    0    0  501  502 -0.00000000000E+00 -0.00000000000E+00 -0.71813374575E+02  0.71813374575E+02  0.00000000000E+00 0. -1.
         25    1    1    2    0    0  0.53014494396E+00 -0.47694551302E+02  0.90259366865E+02  0.16139022456E+03  0.12500000000E+03 0.  0.
         25    1    1    2    0    0  0.27412227225E+01  0.78886648779E+02  0.26755304086E+03  0.30567997535E+03  0.12500000000E+03 0.  0.
         25    1    1    2    0    0 -0.32713676664E+01 -0.31192097477E+02  0.22443834428E+03  0.25880730123E+03  0.12500000000E+03 0.  0.
</event>
<event>
 5    0  0.5742040E-005  0.2527741E+03  0.7546771E-02  0.1111564E+00
         21   -1    0    0  502  501  0.00000000000E+00  0.00000000000E+00  0.21286455771E+04  0.21286455771E+04  0.00000000000E+00 0. -1.
         21   -1    0    0  501  502 -0.00000000000E+00 -0.00000000000E+00 -0.30016631557E+02  0.30016631557E+02  0.00000000000E+00 0. -1.
         25    1    1    2    0    0  0.10031388031E+03  0.58180713939E+02  0.99655720494E+03  0.10110386406E+04  0.12500000000E+03 0.  0.
         25    1    1    2    0    0 -0.34475983743E+02 -0.10953426486E+03  0.57336341205E+03  0.59796066000E+03  0.12500000000E+03 0.  0.
         25    1    1    2    0    0 -0.65837896563E+02  0.51353550918E+02  0.52870832853E+03  0.54966290804E+03  0.12500000000E+03 0.  0.
</event>
<event>
 5    0  0.5742040E-005  0.3357195E+03  0.7546771E-02  0.1068634E+00
         21   -1    0    0  502  501  0.00000000000E+00  0.00000000000E+00  0.27563244729E+03  0.27563244729E+03  0.00000000000E+00 0.  1.
         21   -1    0    0  501  502 -0.00000000000E+00 -0.00000000000E+00 -0.40890523021E+03  0.40890523021E+03  0.00000000000E+00 0.  1.
         25    1    1    2    0    0 -0.13299121791E+03  0.16256905705E+03 -0.58050180365E+02  0.25121740742E+03  0.12500000000E+03 0.  0.
         25    1    1    2    0    0  0.45511854756E+02 -0.77057652960E+02 -0.17421693399E+03  0.23234833955E+03  0.12500000000E+03 0.  0.
         25    1    1    2    0    0  0.87479363149E+02 -0.85511404087E+02  0.98994331432E+02  0.20097193053E+03  0.12500000000E+03 0.  0.
</event>
<event>
 5    0  0.5742040E-005  0.2017851E+03  0.7546771E-02  0.1148242E+00
         21   -1    0    0  502  501  0.00000000000E+00  0.00000000000E+00  0.11220548179E+04  0.11220548179E+04  0.00000000000E+00 0. -1.
         21   -1    0    0  501  502 -0.00000000000E+00 -0.00000000000E+00 -0.36288078397E+02  0.36288078397E+02  0.00000000000E+00 0. -1.
         25    1    1    2    0    0  0.20843365867E+02  0.17865765557E+02  0.27675206173E+03  0.30491037232E+03  0.12500000000E+03 0.  0.
         25    1    1    2    0    0  0.37061565654E+02 -0.27406616471E+02  0.42101801071E+03  0.44159466439E+03  0.12500000000E+03 0.  0.
         25    1    1    2    0    0 -0.57904931521E+02  0.95408509140E+01  0.38799666702E+03  0.41183785954E+03  0.12500000000E+03 0.  0.
</event>
<event>
 5    0  0.5742040E-005  0.2794112E+03  0.7546771E-02  0.1096011E+00
         21   -1    0    0  502  501  0.00000000000E+00  0.00000000000E+00  0.15041116089E+04  0.15041116089E+04  0.00000000000E+00 0. -1.
         21   -1    0    0  501  502 -0.00000000000E+00 -0.00000000000E+00 -0.51904816046E+02  0.51904816046E+02  0.00000000000E+00 0. -1.
         25    1    1    2    0    0  0.22013572921E+02 -0.37000000207E+02  0.29448252994E+03  0.32279801401E+03  0.12500000000E+03 0.  0.
         25    1    1    2    0    0  0.13822852419E+03 -0.38092586687E+02  0.36723692559E+03  0.41357723532E+03  0.12500000000E+03 0.  0.
         25    1    1    2    0    0 -0.16024209711E+03  0.75092586894E+02  0.79048733727E+03  0.81964117557E+03  0.12500000000E+03 0.  0.
</event>
<event>
 5    0  0.6195059E-005  0.2997912E+03  0.7546771E-02  0.1085345E+00
         21   -1    0    0  502  501  0.00000000000E+00  0.00000000000E+00  0.35445607972E+03  0.35445607972E+03  0.00000000000E+00 0. -1.
         21   -1    0    0  501  502 -0.00000000000E+00 -0.00000000000E+00 -0.25355690702E+03  0.25355690702E+03  0.00000000000E+00 0. -1.
         25    1    1    2    0    0  0.82271929441E+02  0.87913005628E+02 -0.10315746108E+03  0.20190054162E+03  0.12500000000E+03 0.  0.
         25    1    1    2    0    0 -0.98244290120E+02 -0.13238350921E+03  0.74235213744E+02  0.21980264105E+03  0.12500000000E+03 0.  0.
         25    1    1    2    0    0  0.15972360679E+02  0.44470503584E+02  0.12982142003E+03  0.18630980407E+03  0.12500000000E+03 0.  0.
</event>
<event>
 5    0  0.5742040E-005  0.2566603E+03  0.7546771E-02  0.1109167E+00
         21   -1    0    0  502  501  0.00000000000E+00  0.00000000000E+00  0.12534585309E+04  0.12534585309E+04  0.00000000000E+00 0.  1.
         21   -1    0    0  501  502 -0.00000000000E+00 -0.00000000000E+00 -0.52554210997E+02  0.52554210997E+02  0.00000000000E+00 0.  1.
         25    1    1    2    0    0  0.14642669502E+02 -0.24047568431E+02  0.44050172685E+03  0.45875861265E+03  0.12500000000E+03 0.  0.
         25    1    1    2    0    0  0.12729293028E+03  0.25257406318E+02  0.30678298907E+03  0.35578396402E+03  0.12500000000E+03 0.  0.
         25    1    1    2    0    0 -0.14193559978E+03 -0.12098378864E+01  0.45361960399E+03  0.49147016523E+03  0.12500000000E+03 0.  0.
</event>
<event>
 5    0  0.5742040E-005  0.2788188E+03  0.7546771E-02  0.1096336E+00
         21   -1    0    0  502  501  0.00000000000E+00  0.00000000000E+00  0.11991304207E+03  0.11991304207E+03  0.00000000000E+00 0. -1.
         21   -1    0    0  501  502 -0.00000000000E+00 -0.00000000000E+00 -0.64830244372E+03  0.64830244372E+03  0.00000000000E+00 0. -1.
         25    1    1    2    0    0  0.20059211748E+02 -0.17913938996E+02 -0.29790335366E+03  0.32418311077E+03  0.12500000000E+03 0.  0.
         25    1    1    2    0    0 -0.68213813166E+02 -0.48807860775E+02  0.20393639734E+02  0.15190863083E+03  0.12500000000E+03 0.  0.
         25    1    1    2    0    0  0.48154601418E+02  0.66721799771E+02 -0.25087968773E+03  0.29212374419E+03  0.12500000000E+03 0.  0.
</event>
<event>
 5    0  0.5848182E-005  0.3597514E+03  0.7546771E-02  0.1058682E+00
         21   -1    0    0  502  501  0.00000000000E+00  0.00000000000E+00  0.64042572843E+03  0.64042572843E+03  0.00000000000E+00 0. -1.
         21   -1    0    0  501  502 -0.00000000000E+00 -0.00000000000E+00 -0.20208597917E+03  0.20208597917E+03  0.00000000000E+00 0. -1.
         25    1    1    2    0    0  0.16908555418E+03 -0.43210105620E+02  0.20521305537E+03  0.29697548039E+03  0.12500000000E+03 0.  0.
         25    1    1    2    0    0 -0.96403873188E+02  0.11410157431E+03 -0.66133965090E+02  0.20569778162E+03  0.12500000000E+03 0.  0.
         25    1    1    2    0    0 -0.72681680988E+02 -0.70891468693E+02  0.29926065899E+03  0.33983844559E+03  0.12500000000E+03 0.  0.
</event>
<event>
 5    0  0.5742040E-005  0.2897600E+03  0.7546771E-02  0.1090475E+00
         21   -1    0    0  502  501  0.00000000000E+00  0.00000000000E+00  0.14552903106E+04  0.14552903106E+04  0.00000000000E+00 0.  1.
         21   -1    0    0  501  502 -0.00000000000E+00 -0.00000000000E+00 -0.57693528208E+02  0.57693528208E+02  0.00000000000E+00 0.  1.
         25    1    1    2    0    0 -0.46554312730E+02  0.75532674336E+02  0.16682655625E+03  0.22655813557E+03  0.12500000000E+03 0.  0.
         25    1    1    2    0    0 -0.72623317079E+01 -0.16802810581E+03  0.66878171279E+03  0.70084246816E+03  0.12500000000E+03 0.  0.
         25    1    1    2    0    0  0.53816644438E+02  0.92495431477E+02  0.56198851335E+03  0.58558323507E+03  0.12500000000E+03 0.  0.
</event>
<event>
 5    0  0.5742040E-005  0.3769733E+03  0.7546771E-02  0.1052058E+00
         21   -1    0    0  502  501  0.00000000000E+00  0.00000000000E+00  0.18188450255E+04  0.18188450255E+04  0.00000000000E+00 0.  1.
         21   -1    0    0  501  502 -0.00000000000E+00 -0.00000000000E+00 -0.78131377693E+02  0.78131377693E+02  0.00000000000E+00 0.  1.
         25    1    1    2    0    0  0.17656979104E+03 -0.13464140791E+03  0.77845914185E+03  0.81910245718E+03  0.12500000000E+03 0.  0.
         25    1    1    2    0    0 -0.22415240311E+02  0.13728033019E+03  0.14438118892E+03  0.23626099925E+03  0.12500000000E+03 0.  0.
         25    1    1    2    0    0 -0.15415455073E+03 -0.26389222730E+01  0.81787331707E+03  0.84161294679E+03  0.12500000000E+03 0.  0.
</event>
<event>
 5    0  0.5742040E-005  0.1972368E+03  0.7546771E-02  0.1152091E+00
         21   -1    0    0  502  501  0.00000000000E+00  0.00000000000E+00  0.10498174294E+03  0.10498174294E+03  0.00000000000E+00 0.  1.
         21   -1    0    0  501  502 -0.00000000000E+00 -0.00000000000E+00 -0.37056319938E+03  0.37056319938E+03  0.00000000000E+00 0.  1.
         25    1    1    2    0    0 -0.89178783053E+01 -0.35314857829E+02 -0.10763559326E+03  0.16892924161E+03  0.12500000000E+03 0.  0.
         25    1    1    2    0    0  0.32194408134E+02  0.12382287680E+02 -0.52690417240E+02  0.13996814292E+03  0.12500000000E+03 0.  0.
         25    1    1    2    0    0 -0.23276529829E+02  0.22932570149E+02 -0.10525544595E+03  0.16664755778E+03  0.12500000000E+03 0.  0.
</event>
<event>
 5    0  0.5742040E-005  0.2643186E+03  0.7546771E-02  0.1104576E+00
         21   -1    0    0  502  501  0.00000000000E+00  0.00000000000E+00  0.53431402839E+03  0.53431402839E+03  0.00000000000E+00 0.  1.
         21   -1    0    0  501  502 -0.00000000000E+00 -0.00000000000E+00 -0.13075515660E+03  0.13075515660E+03  0.00000000000E+00 0.  1.
         25    1    1    2    0    0  0.13141598111E+03  0.19567675055E+02  0.61014245951E+02  0.19235589985E+03  0.12500000000E+03 0.  0.
         25    1    1    2    0    0 -0.33507794020E+02 -0.84114135825E+02  0.15986911013E+03  0.22221856916E+03  0.12500000000E+03 0.  0.
         25    1    1    2    0    0 -0.97908187089E+02  0.64546460770E+02  0.18267551570E+03  0.25049471598E+03  0.12500000000E+03 0.  0.
</event>
<event>
 5    0  0.5742040E-005  0.2553870E+03  0.7546771E-02  0.1109947E+00
         21   -1    0    0  502  501  0.00000000000E+00  0.00000000000E+00  0.36407658065E+03  0.36407658065E+03  0.00000000000E+00 0.  1.
         21   -1    0    0  501  502 -0.00000000000E+00 -0.00000000000E+00 -0.17914506204E+03  0.17914506204E+03  0.00000000000E+00 0.  1.
         25    1    1    2    0    0  0.17684593735E+02 -0.63129640406E+01  0.21468209201E+03  0.24913048589E+03  0.12500000000E+03 0.  0.
         25    1    1    2    0    0  0.54916968082E+02  0.32810165290E+02  0.13047103558E+02  0.14102342799E+03  0.12500000000E+03 0.  0.
         25    1    1    2    0    0 -0.72601561817E+02 -0.26497201250E+02 -0.42797676962E+02  0.15306772882E+03  0.12500000000E+03 0.  0.
</event>
<event>
 5    0  0.5742040E-005  0.2057282E+03  0.7546771E-02  0.1144994E+00
         21   -1    0    0  502  501  0.00000000000E+00  0.00000000000E+00  0.34286587119E+03  0.34286587119E+03  0.00000000000E+00 0. -1.
         21   -1    0    0  501  502 -0.00000000000E+00 -0.00000000000E+00 -0.12344212538E+03  0.12344212538E+03  0.00000000000E+00 0. -1.
         25    1    1    2    0    0  0.42709561360E+02 -0.23712864280E+02  0.13816611019E+03  0.19261692701E+03  0.12500000000E+03 0.  0.
         25    1    1    2    0    0 -0.17562081841E+02  0.34054190387E+02  0.21492567190E+02  0.13249545293E+03  0.12500000000E+03 0.  0.
         25    1    1    2    0    0 -0.25147479519E+02 -0.10341326107E+02  0.59765068428E+02  0.14119561663E+03  0.12500000000E+03 0.  0.
</event>
<event>
 5    0  0.5742040E-005  0.3494529E+03  0.7546771E-02  0.1062840E+00
         21   -1    0    0  502  501  0.00000000000E+00  0.00000000000E+00  0.45941098520E+03  0.45941098520E+03  0.00000000000E+00 0. -1.
         21   -1    0    0  501  502 -0.00000000000E+00 -0.00000000000E+00 -0.26581280006E+03  0.26581280006E+03  0.00000000000E+00 0. -1.
         25    1    1    2    0    0  0.95792514924E+01 -0.22460030331E+02  0.96862968987E+02  0.16001140516E+03  0.12500000000E+03 0.  0.
         25    1    1    2    0    0 -0.56061794536E+02 -0.23113443843E+03  0.24994785705E+02  0.26984401558E+03  0.12500000000E+03 0.  0.
         25    1    1    2    0    0  0.46482543043E+02  0.25359446876E+03  0.71740430449E+02  0.29536836451E+03  0.12500000000E+03 0.  0.
</event>
<event>
 5    0  0.5742040E-005  0.4485086E+03  0.7546771E-02  0.1028168E+00
         21   -1    0    0  502  501  0.00000000000E+00  0.00000000000E+00  0.41969510204E+03  0.41969510204E+03  0.00000000000E+00 0.  1.
         21   -1    0    0  501  502 -0.00000000000E+00 -0.00000000000E+00 -0.47930027501E+03  0.47930027501E+03  0.00000000000E+00 0.  1.
         25    1    1    2    0    0 -0.26586103331E+03  0.17257419405E+02 -0.25977011701E+03  0.39253715907E+03  0.12500000000E+03 0.  0.
         25    1    1    2    0    0  0.23165538234E+03 -0.63646507748E+02  0.24137900578E+03  0.36277254382E+03  0.12500000000E+03 0.  0.
         25    1    1    2    0    0  0.34205650967E+02  0.46389088343E+02 -0.41214061733E+02  0.14368567416E+03  0.12500000000E+03 0.  0.
</event>
<event>
 5    0  0.6446543E-005  0.2953929E+03  0.7546771E-02  0.1087567E+00
         21   -1    0    0  502  501  0.00000000000E+00  0.00000000000E+00  0.61907182243E+03  0.61907182243E+03  0.00000000000E+00 0. -1.
         21   -1    0    0  501  502 -0.00000000000E+00 -0.00000000000E+00 -0.14094804801E+03  0.14094804801E+03  0.00000000000E+00 0. -1.
         25    1    1    2    0    0  0.43695012335E+02 -0.10471417705E+03  0.75931187249E+02  0.18510769345E+03  0.12500000000E+03 0.  0.
         25    1    1    2    0    0 -0.97951749702E+02  0.95752463943E+02  0.39708872778E+03  0.43825510534E+03  0.12500000000E+03 0.  0.
         25    1    1    2    0    0  0.54256737367E+02  0.89617131091E+01  0.51038593818E+01  0.13665707165E+03  0.12500000000E+03 0.  0.
</event>
<event>
 5    0  0.5742040E-005  0.5309334E+03  0.7546771E-02  0.1006006E+00
         21   -1    0    0  502  501  0.00000000000E+00  0.00000000000E+00  0.12448830945E+03  0.12448830945E+03  0.00000000000E+00 0.  1.
         21   -1    0    0  501  502 -0.00000000000E+00 -0.00000000000E+00 -0.22643917130E+04  0.22643917130E+04  0.00000000000E+00 0.  1.
         25    1    1    2    0    0  0.26854057107E+03  0.15581471691E+03 -0.11025728884E+04  0.11522518121E+04  0.12500000000E+03 0.  0.
         25    1    1    2    0    0  0.15510157847E+03  0.14648261008E+02 -0.30521676305E+03  0.36476477851E+03  0.12500000000E+03 0.  0.
         25    1    1    2    0    0 -0.42364214954E+03 -0.17046297792E+03 -0.73211375211E+03  0.87186343181E+03  0.12500000000E+03 0.  0.
</event>
<event>
 5    0  0.5970223E-005  0.3095638E+03  0.7546771E-02  0.1080555E+00
         21   -1    0    0  502  501  0.00000000000E+00  0.00000000000E+00  0.19529489451E+03  0.19529489451E+03  0.00000000000E+00 0.  1.
         21   -1    0    0  501  502 -0.00000000000E+00 -0.00000000000E+00 -0.49069238891E+03  0.49069238891E+03  0.00000000000E+00 0.  1.
         25    1    1    2    0    0 -0.20091714930E+03  0.99768402724E+02 -0.82808382024E+02  0.26982153954E+03  0.12500000000E+03 0.  0.
         25    1    1    2    0    0  0.14704284127E+03 -0.16827074354E+02 -0.83077312361E+02  0.21078801539E+03  0.12500000000E+03 0.  0.
         25    1    1    2    0    0  0.53874308027E+02 -0.82941328371E+02 -0.12951180002E+03  0.20537772850E+03  0.12500000000E+03 0.  0.
</event>
<event>
 5    0  0.6651384E-005  0.2623029E+03  0.7546771E-02  0.1105767E+00
         21   -1    0    0  502  501  0.00000000000E+00  0.00000000000E+00  0.18613064659E+03  0.18613064659E+03  0.00000000000E+00 0. -1.
         21   -1    0    0  501  502 -0.00000000000E+00 -0.00000000000E+00 -0.36964786587E+03  0.36964786587E+03  0.00000000000E+00 0. -1.
         25    1    1    2    0    0 -0.50928727651E+02  0.50596340627E+02  0.27942749644E+02  0.14683161186E+03  0.12500000000E+03 0.  0.
         25    1    1    2    0    0  0.17693559269E+02  0.92268725586E+02 -0.10970915009E+03  0.19101747924E+03  0.12500000000E+03 0.  0.
         25    1    1    2    0    0  0.33235168382E+02 -0.14286506621E+03 -0.10175081883E+03  0.21792942136E+03  0.12500000000E+03 0.  0.
</event>
<event>
 5    0  0.6652682E-005  0.3468527E+03  0.7546771E-02  0.1063914E+00
         21   -1    0    0  502  501  0.00000000000E+00  0.00000000000E+00  0.88574090281E+02  0.88574090281E+02  0.00000000000E+00 0.  1.
         21   -1    0    0  501  502 -0.00000000000E+00 -0.00000000000E+00 -0.13582614800E+04  0.13582614800E+04  0.00000000000E+00 0.  1.
         25    1    1    2    0    0 -0.85474076552E+02  0.19859771353E+03 -0.33124923324E+03  0.41484686826E+03  0.12500000000E+03 0.  0.
         25    1    1    2    0    0  0.22042063981E+02 -0.13773112533E+03 -0.18518369664E+03  0.26338890821E+03  0.12500000000E+03 0.  0.
         25    1    1    2    0    0  0.63432012571E+02 -0.60866588200E+02 -0.75325445985E+03  0.76859979382E+03  0.12500000000E+03 0.  0.
</event>
<event>
 5    0  0.5742040E-005  0.3451004E+03  0.7546771E-02  0.1064644E+00
         21   -1    0    0  502  501  0.00000000000E+00  0.00000000000E+00  0.70533614120E+02  0.70533614120E+02  0.00000000000E+00 0. -1.
         21   -1    0    0  501  502 -0.00000000000E+00 -0.00000000000E+00 -0.16884752088E+04  0.16884752088E+04  0.00000000000E+00 0. -1.
         25    1    1    2    0    0 -0.10805454103E+03  0.25666533859E+01 -0.45913274722E+03  0.48796542000E+03  0.12500000000E+03 0.  0.
         25    1    1    2    0    0  0.27735584317E+02 -0.15954314136E+03 -0.19264879699E+03  0.28100148678E+03  0.12500000000E+03 0.  0.
         25    1    1    2    0    0  0.80318956711E+02  0.15697648797E+03 -0.96616005051E+03  0.99004191618E+03  0.12500000000E+03 0.  0.
</event>
<event>
 5    0  0.5742040E-005  0.2133013E+03  0.7546771E-02  0.1138978E+00
         21   -1    0    0  502  501  0.00000000000E+00  0.00000000000E+00  0.19182897673E+03  0.19182897673E+03  0.00000000000E+00 0. -1.
         21   -1    0    0  501  502 -0.00000000000E+00 -0.00000000000E+00 -0.23717707225E+03  0.23717707225E+03  0.00000000000E+00 0. -1.
         25    1    1    2    0    0 -0.16953112511E+02 -0.25667769187E+02 -0.29717738733E+01  0.12876363555E+03  0.12500000000E+03 0.  0.
         25    1    1    2    0    0 -0.65775078274E+02  0.16737019712E+02 -0.47595652441E+02  0.14998944924E+03  0.12500000000E+03 0.  0.
         25    1    1    2    0    0  0.82728190785E+02  0.89307494757E+01  0.52193307907E+01  0.15025296420E+03  0.12500000000E+03 0.  0.
</event>
<event>
 5    0  0.6686577E-005  0.2778962E+03  0.7546771E-02  0.1096844E+00
         21   -1    0    0  502  501  0.00000000000E+00  0.00000000000E+00  0.19851432997E+03  0.19851432997E+03  0.00000000000E+00 0.  1.
         21   -1    0    0  501  502 -0.00000000000E+00 -0.00000000000E+00 -0.38902135889E+03  0.38902135889E+03  0.00000000000E+00 0.  1.
         25    1    1    2    0    0  0.17893809745E+03  0.20893336199E+01 -0.61931422044E+02  0.22690021831E+03  0.12500000000E+03 0.  0.
         25    1    1    2    0    0 -0.10493273319E+03 -0.64744658176E+02 -0.42977134264E+02  0.18076167549E+03  0.12500000000E+03 0.  0.
         25    1    1    2    0    0 -0.74005364257E+02  0.62655324556E+02 -0.85598472611E+02  0.17987379505E+03  0.12500000000E+03 0.  0.
</event>
<event>
 5    0  0.5742040E-005  0.2385004E+03  0.7546771E-02  0.1120796E+00
         21   -1    0    0  502  501  0.00000000000E+00  0.00000000000E+00  0.44888426938E+03  0.44888426938E+03  0.00000000000E+00 0.  1.
         21   -1    0    0  501  502 -0.00000000000E+00 -0.00000000000E+00 -0.12671960736E+03  0.12671960736E+03  0.00000000000E+00 0.  1.
         25    1    1    2    0    0 -0.42437089651E+02 -0.44839456371E+02  0.10445454064E+03  0.17420457653E+03  0.12500000000E+03 0.  0.
         25    1    1    2    0    0  0.97301060925E+02  0.56580061411E+02  0.20294547625E+03  0.26359185521E+03  0.12500000000E+03 0.  0.
         25    1    1    2    0    0 -0.54863971274E+02 -0.11740605040E+02  0.14764645132E+02  0.13780744500E+03  0.12500000000E+03 0.  0.
</event>
<event>
 5    0  0.5742040E-005  0.2889237E+03  0.7546771E-02  0.1090912E+00
         21   -1    0    0  502  501  0.00000000000E+00  0.00000000000E+00  0.76252804798E+02  0.76252804798E+02  0.00000000000E+00 0. -1.
         21   -1    0    0  501  502 -0.00000000000E+00 -0.00000000000E+00 -0.10947390370E+04  0.10947390370E+04  0.00000000000E+00 0. -1.
         25    1    1    2    0    0  0.96888075252E+02 -0.23208622395E+02 -0.31714395892E+03  0.35514958814E+03  0.12500000000E+03 0.  0.
         25    1    1    2    0    0 -0.11168434344E+03 -0.79337057011E+02 -0.14245611815E+03  0.23385146307E+03  0.12500000000E+03 0.  0.
         25    1    1    2    0    0  0.14796268186E+02  0.10254567941E+03 -0.55888615510E+03  0.58199079055E+03  0.12500000000E+03 0.  0.
</event>
<event>
 5    0  0.5742040E-005  0.5072317E+03  0.7546771E-02  0.1011908E+00
         21   -1    0    0  502  501  0.00000000000E+00  0.00000000000E+00  0.20932443220E+04  0.20932443220E+04  0.00000000000E+00 0.  1.
         21   -1    0    0  501  502 -0.00000000000E+00 -0.00000000000E+00 -0.12291161315E+03  0.12291161315E+03  0.00000000000E+00 0.  1.
         25    1    1    2    0    0  0.15773321995E+03  0.28679168537E+03  0.93249688453E+03  0.99614490870E+03  0.12500000000E+03 0.  0.
         25    1    1    2    0    0  0.88506406617E+02  0.83579369760E+02  0.22096041801E+03  0.28154467033E+03  0.12500000000E+03 0.  0.
         25    1    1    2    0    0 -0.24623962656E+03 -0.37037105513E+03  0.81687540636E+03  0.93846635618E+03  0.12500000000E+03 0.  0.
</event>
<event>
 5    0  0.5742040E-005  0.3240256E+03  0.7546771E-02  0.1073811E+00
         21   -1    0    0  502  501  0.00000000000E+00  0.00000000000E+00  0.13243212200E+04  0.13243212200E+04  0.00000000000E+00 0.  1.
         21   -1    0    0  501  502 -0.00000000000E+00 -0.00000000000E+00 -0.79280316287E+02  0.79280316287E+02  0.00000000000E+00 0.  1.
         25    1    1    2    0    0 -0.16432732693E+03  0.11049664174E+03  0.21887631956E+03  0.32053833074E+03  0.12500000000E+03 0.  0.
         25    1    1    2    0    0  0.13376090625E+03 -0.17326434416E+02  0.47142388678E+03  0.50602140903E+03  0.12500000000E+03 0.  0.
         25    1    1    2    0    0  0.30566420680E+02 -0.93170207321E+02  0.55474069742E+03  0.57704179656E+03  0.12500000000E+03 0.  0.
</event>
<event>
 5    0  0.5890857E-005  0.2722880E+03  0.7546771E-02  0.1099977E+00
         21   -1    0    0  502  501  0.00000000000E+00  0.00000000000E+00  0.52737295484E+03  0.52737295484E+03  0.00000000000E+00 0.  1.
         21   -1    0    0  501  502 -0.00000000000E+00 -0.00000000000E+00 -0.14058506853E+03  0.14058506853E+03  0.00000000000E+00 0.  1.
         25    1    1    2    0    0  0.29149788295E+02 -0.72243011449E+02  0.98146785199E+02  0.17699309112E+03  0.12500000000E+03 0.  0.
         25    1    1    2    0    0 -0.15438441566E+03  0.85042045438E+02  0.12511584579E+03  0.24969115355E+03  0.12500000000E+03 0.  0.
         25    1    1    2    0    0  0.12523462737E+03 -0.12799033990E+02  0.16352525531E+03  0.24127377870E+03  0.12500000000E+03 0.  0.
</event>
<event>
 5    0  0.5742040E-005  0.2362862E+03  0.7546771E-02  0.1122292E+00
         21   -1    0    0  502  501  0.00000000000E+00  0.00000000000E+00  0.38176822296E+03  0.38176822296E+03  0.00000000000E+00 0. -1.
         21   -1    0    0  501  502 -0.00000000000E+00 -0.00000000000E+00 -0.14624365739E+03  0.14624365739E+03  0.00000000000E+00 0. -1.
         25    1    1    2    0    0 -0.16168242864E+02 -0.11274016648E+03  0.10002316055E+03  0.19647236411E+03  0.12500000000E+03 0.  0.
         25    1    1    2    0    0  0.53602285939E+02  0.69157252462E+02  0.11794632954E+03  0.19285296803E+03  0.12500000000E+03 0.  0.
         25    1    1    2    0    0 -0.37434043075E+02  0.43582914017E+02  0.17555075480E+02  0.13868654820E+03  0.12500000000E+03 0.  0.
</event>
<event>
 5    0  0.5742040E-005  0.5237195E+03  0.7546771E-02  0.1007767E+00
         21   -1    0    0  502  501  0.00000000000E+00  0.00000000000E+00  0.20721492950E+04  0.20721492950E+04  0.00000000000E+00 0.  1.
         21   -1    0    0  501  502 -0.00000000000E+00 -0.00000000000E+00 -0.13236598853E+03  0.13236598853E+03  0.00000000000E+00 0. -1.
         25    1    1    2    0    0 -0.24733741715E+03 -0.28280910595E+03  0.94051462634E+03  0.10204653599E+04  0.12500000000E+03 0.  0.
         25    1    1    2    0    0  0.30275986322E+03  0.21849359342E+03  0.94457071275E+03  0.10233483359E+04  0.12500000000E+03 0.  0.
         25    1    1    2    0    0 -0.55422446067E+02  0.64315512526E+02  0.54697967376E+02  0.16070158778E+03  0.12500000000E+03 0.  0.
</event>
<event>
 5    0  0.5742040E-005  0.3866325E+03  0.7546771E-02  0.1048509E+00
         21   -1    0    0  502  501  0.00000000000E+00  0.00000000000E+00  0.71364460031E+02  0.71364460031E+02  0.00000000000E+00 0. -1.
         21   -1    0    0  501  502 -0.00000000000E+00 -0.00000000000E+00 -0.20946660982E+04  0.20946660982E+04  0.00000000000E+00 0. -1.
         25    1    1    2    0    0 -0.12544850622E+03  0.37461752228E+02 -0.19818335821E+03  0.26840706783E+03  0.12500000000E+03 0.  0.
         25    1    1    2    0    0  0.19439287673E+02  0.77858995562E+02 -0.15194211275E+03  0.21248838726E+03  0.12500000000E+03 0.  0.
         25    1    1    2    0    0  0.10600921854E+03 -0.11532074779E+03 -0.16731761673E+04  0.16851351032E+04  0.12500000000E+03 0.  0.
</event>
<event>
 5    0  0.5742040E-005  0.5246445E+03  0.7546771E-02  0.1007539E+00
         21   -1    0    0  502  501  0.00000000000E+00  0.00000000000E+00  0.10136911980E+03  0.10136911980E+03  0.00000000000E+00 0.  1.
         21   -1    0    0  501  502 -0.00000000000E+00 -0.00000000000E+00 -0.27153424507E+04  0.27153424507E+04  0.00000000000E+00 0.  1.
         25    1    1    2    0    0 -0.39250117234E+01  0.24443664029E+03 -0.51007903920E+03  0.57928430245E+03  0.12500000000E+03 0.  0.
         25    1    1    2    0    0 -0.13556593847E+03 -0.43435037996E+03 -0.15884166179E+04  0.16570246613E+04  0.12500000000E+03 0.  0.
         25    1    1    2    0    0  0.13949095019E+03  0.18991373967E+03 -0.51547767380E+03  0.58040260672E+03  0.12500000000E+03 0.  0.
</event>
<event>
 5    0  0.5742040E-005  0.2390762E+03  0.7546771E-02  0.1120410E+00
         21   -1    0    0  502  501  0.00000000000E+00  0.00000000000E+00  0.64168991242E+02  0.64168991242E+02  0.00000000000E+00 0. -1.
         21   -1    0    0  501  502 -0.00000000000E+00 -0.00000000000E+00 -0.89073268274E+03  0.89073268274E+03  0.00000000000E+00 0. -1.
         25    1    1    2    0    0 -0.72736081285E+02  0.25494463609E+02 -0.15808416829E+03  0.21576864800E+03  0.12500000000E+03 0.  0.
         25    1    1    2    0    0  0.37192634878E+02 -0.97740563178E+02 -0.40557397190E+03  0.43709467678E+03  0.12500000000E+03 0.  0.
         25    1    1    2    0    0  0.35543446407E+02  0.72246099568E+02 -0.26290555130E+03  0.30203834920E+03  0.12500000000E+03 0.  0.
</event>
<event>
 5    0  0.5742040E-005  0.3996111E+03  0.7546771E-02  0.1043914E+00
         21   -1    0    0  502  501  0.00000000000E+00  0.00000000000E+00  0.15462594594E+03  0.15462594594E+03  0.00000000000E+00 0. -1.
         21   -1    0    0  501  502 -0.00000000000E+00 -0.00000000000E+00 -0.10327438517E+04  0.10327438517E+04  0.00000000000E+00 0. -1.
         25    1    1    2    0    0  0.38704570376E+02 -0.11218438944E+03 -0.32358415097E+03  0.36662662719E+03  0.12500000000E+03 0.  0.
         25    1    1    2    0    0 -0.16770105724E+03  0.53123558857E+02 -0.59011757608E+03  0.62833869108E+03  0.12500000000E+03 0.  0.
         25    1    1    2    0    0  0.12899648686E+03  0.59060830583E+02  0.35583821323E+02  0.19240447934E+03  0.12500000000E+03 0.  0.
</event>
<event>
 5    0  0.5742040E-005  0.2626760E+03  0.7546771E-02  0.1105546E+00
         21   -1    0    0  502  501  0.00000000000E+00  0.00000000000E+00  0.93605215100E+02  0.93605215100E+02  0.00000000000E+00 0. -1.
         21   -1    0    0  501  502 -0.00000000000E+00 -0.00000000000E+00 -0.73712459753E+03  0.73712459753E+03  0.00000000000E+00 0. -1.
         25    1    1    2    0    0  0.45064043812E+02 -0.51466581556E+01 -0.27164422743E+03  0.30244477584E+03  0.12500000000E+03 0.  0.
         25    1    1    2    0    0  0.29063198236E+02  0.97603354285E+02 -0.30212253690E+03  0.34245307936E+03  0.12500000000E+03 0.  0.
         25    1    1    2    0    0 -0.74127242048E+02 -0.92456696129E+02 -0.69752618102E+02  0.18583195744E+03  0.12500000000E+03 0.  0.
</event>
<event>
 5    0  0.5742040E-005  0.4076690E+03  0.7546771E-02  0.1041156E+00
         21   -1    0    0  502  501  0.00000000000E+00  0.00000000000E+00  0.10427941536E+03  0.10427941536E+03  0.00000000000E+00 0.  1.
         21   -1    0    0  501  502 -0.00000000000E+00 -0.00000000000E+00 -0.15937376055E+04  0.15937376055E+04  0.00000000000E+00 0.  1.
         25    1    1    2    0    0  0.99733677160E+02  0.16837078353E+03 -0.12029735152E+04  0.12251799074E+04  0.12500000000E+03 0.  0.
         25    1    1    2    0    0 -0.64590988222E+02 -0.13257974590E+03 -0.27703079512E+03  0.33781717870E+03  0.12500000000E+03 0.  0.
         25    1    1    2    0    0 -0.35142688937E+02 -0.35791037637E+02 -0.94538798647E+01  0.13501993484E+03  0.12500000000E+03 0.  0.
</event>
<event>
 5    0  0.5742040E-005  0.3590588E+03  0.7546771E-02  0.1058957E+00
         21   -1    0    0  502  501  0.00000000000E+00  0.00000000000E+00  0.40147119932E+03  0.40147119932E+03  0.00000000000E+00 0.  1.
         21   -1    0    0  501  502 -0.00000000000E+00 -0.00000000000E+00 -0.32112694570E+03  0.32112694570E+03  0.00000000000E+00 0.  1.
         25    1    1    2    0    0  0.81411390895E+02  0.11952565620E+03  0.82307240182E+01  0.19132940672E+03  0.12500000000E+03 0.  0.
         25    1    1    2    0    0 -0.25843491256E+03 -0.11061080880E+03  0.63937779513E+02  0.31422347892E+03  0.12500000000E+03 0.  0.
         25    1    1    2    0    0  0.17702352167E+03 -0.89148474031E+01  0.81757500946E+01  0.21704525938E+03  0.12500000000E+03 0.  0.
</event>
<event>
 5    0  0.5742040E-005  0.3092744E+03  0.7546771E-02  0.1080694E+00
         21   -1    0    0  502  501  0.00000000000E+00  0.00000000000E+00  0.61772777664E+03  0.61772777664E+03  0.00000000000E+00 0.  1.
         21   -1    0    0  501  502 -0.00000000000E+00 -0.00000000000E+00 -0.15484274137E+03  0.15484274137E+03  0.00000000000E+00 0.  1.
         25    1    1    2    0    0 -0.10415776725E+03  0.28858600226E+02  0.74470953588E+02  0.18125281298E+03  0.12500000000E+03 0.  0.
         25    1    1    2    0    0 -0.12017949291E+03  0.33463008837E+02  0.11318493136E+03  0.20975869985E+03  0.12500000000E+03 0.  0.
         25    1    1    2    0    0  0.22433726016E+03 -0.62321609063E+02  0.27522915031E+03  0.38155900518E+03  0.12500000000E+03 0.  0.
</event>
<event>
 5    0  0.5742040E-005  0.2440871E+03  0.7546771E-02  0.1117100E+00
         21   -1    0    0  502  501  0.00000000000E+00  0.00000000000E+00  0.54268633275E+03  0.54268633275E+03  0.00000000000E+00 0.  1.
         21   -1    0    0  501  502 -0.00000000000E+00 -0.00000000000E+00 -0.10978442698E+03  0.10978442698E+03  0.00000000000E+00 0.  1.
         25    1    1    2    0    0  0.24026507288E+02  0.55554539811E+02  0.25809130475E+03  0.29308650862E+03  0.12500000000E+03 0.  0.
         25    1    1    2    0    0  0.27688550838E+02 -0.85339637256E+01  0.17396498064E+03  0.21616729372E+03  0.12500000000E+03 0.  0.
         25    1    1    2    0    0 -0.51715058126E+02 -0.47020576085E+02  0.84562038324E+00  0.14321695740E+03  0.12500000000E+03 0.  0.
</event>
<event>
 5    0  0.5742040E-005  0.2424504E+03  0.7546771E-02  0.1118171E+00
         21   -1    0    0  502  501  0.00000000000E+00  0.00000000000E+00  0.15112304511E+03  0.15112304511E+03  0.00000000000E+00 0.  1.
         21   -1    0    0  501  502 -0.00000000000E+00 -0.00000000000E+00 -0.38896922385E+03  0.38896922385E+03  0.00000000000E+00 0.  1.
         25    1    1    2    0    0 -0.41895386524E+02  0.34226941178E+02 -0.18193597085E+03  0.22727165332E+03  0.12500000000E+03 0.  0.
         25    1    1    2    0    0  0.45492464810E+02  0.40480860414E+01 -0.10865695248E+03  0.17180595065E+03  0.12500000000E+03 0.  0.
         25    1    1    2    0    0 -0.35970782858E+01 -0.38275027220E+02  0.52746744589E+02  0.14101466500E+03  0.12500000000E+03 0.  0.
</event>
<event>
 5    0  0.5742040E-005  0.3650323E+03  0.7546771E-02  0.1056609E+00
         21   -1    0    0  502  501  0.00000000000E+00  0.00000000000E+00  0.14002254382E+03  0.14002254382E+03  0.00000000000E+00 0. -1.
         21   -1    0    0  501  502 -0.00000000000E+00 -0.00000000000E+00 -0.95162226474E+03  0.95162226474E+03  0.00000000000E+00 0. -1.
         25    1    1    2    0    0 -0.12423641417E+02  0.91338729173E+02 -0.16946305261E+02  0.15623471949E+03  0.12500000000E+03 0.  0.
         25    1    1    2    0    0  0.19213721839E+03 -0.73218200078E+02 -0.58154201655E+03  0.62935977987E+03  0.12500000000E+03 0.  0.
         25    1    1    2    0    0 -0.17971357698E+03 -0.18120529095E+02 -0.21311139911E+03  0.30605030919E+03  0.12500000000E+03 0.  0.
</event>
<event>
 5    0  0.5742040E-005  0.3011045E+03  0.7546771E-02  0.1084690E+00
         21   -1    0    0  502  501  0.00000000000E+00  0.00000000000E+00  0.15816606648E+04  0.15816606648E+04  0.00000000000E+00 0.  1.
         21   -1    0    0  501  502 -0.00000000000E+00 -0.00000000000E+00 -0.57321970289E+02  0.57321970289E+02  0.00000000000E+00 0.  1.
         25    1    1    2    0    0  0.14924063915E+03 -0.40483293391E+02  0.42513707122E+03  0.46933803889E+03  0.12500000000E+03 0.  0.
         25    1    1    2    0    0  0.38742416099E+02 -0.68360488478E+02  0.35940033832E+03  0.38854566575E+03  0.12500000000E+03 0.  0.
         25    1    1    2    0    0 -0.18798305525E+03  0.10884378187E+03  0.73980128494E+03  0.78109893042E+03  0.12500000000E+03 0.  0.
</event>
<event>
 5    0  0.5742040E-005  0.6525560E+03  0.7546771E-02  0.9801995E-01
         21   -1    0    0  502  501  0.00000000000E+00  0.00000000000E+00  0.93887261903E+03  0.93887261903E+03  0.00000000000E+00 0.  1.
         21   -1    0    0  501  502 -0.00000000000E+00 -0.00000000000E+00 -0.45355394773E+03  0.45355394773E+03  0.00000000000E+00 0.  1.
         25    1    1    2    0    0 -0.10695146802E+03 -0.35593200827E+03  0.57785520504E+03  0.69833219101E+03  0.12500000000E+03 0.  0.
         25    1    1    2    0    0  0.29994036359E+03  0.31565334257E+03 -0.82304142862E+02  0.46043482309E+03  0.12500000000E+03 0.  0.
         25    1    1    2    0    0 -0.19298889557E+03  0.40278665700E+02 -0.10232390877E+02  0.23365955266E+03  0.12500000000E+03 0.  0.
</event>
<event>
 5    0  0.5795533E-005  0.3101798E+03  0.7546771E-02  0.1080260E+00
         21   -1    0    0  502  501  0.00000000000E+00  0.00000000000E+00  0.28739438209E+03  0.28739438209E+03  0.00000000000E+00 0. -1.
         21   -1    0    0  501  502 -0.00000000000E+00 -0.00000000000E+00 -0.33477169009E+03  0.33477169009E+03  0.00000000000E+00 0. -1.
         25    1    1    2    0    0 -0.11499952168E+02  0.61720333228E+02 -0.18688187076E+03  0.23343410645E+03  0.12500000000E+03 0.  0.
         25    1    1    2    0    0  0.10669725490E+03 -0.55591299872E+02 -0.72526143529E+01  0.17364416846E+03  0.12500000000E+03 0.  0.
         25    1    1    2    0    0 -0.95197302734E+02 -0.61290333559E+01  0.14675717712E+03  0.21508779727E+03  0.12500000000E+03 0.  0.
</event>
<event>
 5    0  0.5742040E-005  0.2889250E+03  0.7546771E-02  0.1090912E+00
         21   -1    0    0  502  501  0.00000000000E+00  0.00000000000E+00  0.40734099279E+03  0.40734099279E+03  0.00000000000E+00 0.  1.
         21   -1    0    0  501  502 -0.00000000000E+00 -0.00000000000E+00 -0.20493309201E+03  0.20493309201E+03  0.00000000000E+00 0.  1.
         25    1    1    2    0    0  0.94239357317E+02 -0.26755357701E+02  0.15311620422E+03  0.22060479965E+03  0.12500000000E+03 0.  0.
         25    1    1    2    0    0 -0.53846732667E+02 -0.15373359875E+02  0.16298928523E+03  0.21289978373E+03  0.12500000000E+03 0.  0.
         25    1    1    2    0    0 -0.40392624650E+02  0.42128717575E+02 -0.11369758867E+03  0.17876950143E+03  0.12500000000E+03 0.  0.
</event>
<event>
 5    0  0.5742040E-005  0.4281312E+03  0.7546771E-02  0.1034452E+00
         21   -1    0    0  502  501  0.00000000000E+00  0.00000000000E+00  0.12349597328E+03  0.12349597328E+03  0.00000000000E+00 0.  1.
         21   -1    0    0  501  502 -0.00000000000E+00 -0.00000000000E+00 -0.14842288934E+04  0.14842288934E+04  0.00000000000E+00 0.  1.
         25    1    1    2    0    0  0.65177092417E+02  0.14554367070E+03 -0.35438881586E+03  0.40822474969E+03  0.12500000000E+03 0.  0.
         25    1    1    2    0    0 -0.28951247956E+03 -0.19656822788E+03 -0.72805066631E+03  0.81739789377E+03  0.12500000000E+03 0.  0.
         25    1    1    2    0    0  0.22433538715E+03  0.51024557183E+02 -0.27829343792E+03  0.38210222317E+03  0.12500000000E+03 0.  0.
</event>
<event>
 5    0  0.5742040E-005  0.2482888E+03  0.7546771E-02  0.1114391E+00
         21   -1    0    0  502  501  0.00000000000E+00  0.00000000000E+00  0.65740015589E+03  0.65740015589E+03  0.00000000000E+00 0. -1.
         21   -1    0    0  501  502 -0.00000000000E+00 -0.00000000000E+00 -0.93774456286E+02  0.93774456286E+02  0.00000000000E+00 0. -1.
         25    1    1    2    0    0  0.21647360103E+02  0.32070685158E+02  0.38683203216E+02  0.13644972428E+03  0.12500000000E+03 0.  0.
         25    1    1    2    0    0  0.71248532429E+02  0.22402294879E+02  0.17369205544E+03  0.22665424398E+03  0.12500000000E+03 0.  0.
         25    1    1    2    0    0 -0.92895892532E+02 -0.54472980037E+02  0.35125044094E+03  0.38807064391E+03  0.12500000000E+03 0.  0.
</event>
<event>
 5    0  0.5742040E-005  0.3889837E+03  0.7546771E-02  0.1047662E+00
         21   -1    0    0  502  501  0.00000000000E+00  0.00000000000E+00  0.18454194677E+03  0.18454194677E+03  0.00000000000E+00 0. -1.
         21   -1    0    0  501  502 -0.00000000000E+00 -0.00000000000E+00 -0.81991280387E+03  0.81991280387E+03  0.00000000000E+00 0. -1.
         25    1    1    2    0    0 -0.49797056824E+02 -0.45322791690E+02 -0.11847236405E+03  0.18491782867E+03  0.12500000000E+03 0.  0.
         25    1    1    2    0    0  0.31159365162E+03 -0.19715714636E+02 -0.30937211834E+03  0.45696325973E+03  0.12500000000E+03 0.  0.
         25    1    1    2    0    0 -0.26179659480E+03  0.65038506326E+02 -0.20752637471E+03  0.36257366225E+03  0.12500000000E+03 0.  0.
</event>
<event>
 5    0  0.5742040E-005  0.3538173E+03  0.7546771E-02  0.1061059E+00
         21   -1    0    0  502  501  0.00000000000E+00  0.00000000000E+00  0.33384437737E+03  0.33384437737E+03  0.00000000000E+00 0.  1.
         21   -1    0    0  501  502 -0.00000000000E+00 -0.00000000000E+00 -0.37498505502E+03  0.37498505502E+03  0.00000000000E+00 0.  1.
         25    1    1    2    0    0 -0.67726048085E+02  0.23509358137E+03  0.68781360328E+01  0.27482379508E+03  0.12500000000E+03 0.  0.
         25    1    1    2    0    0  0.55881929611E+02 -0.25333477563E+02  0.77326765044E+02  0.15927650089E+03  0.12500000000E+03 0.  0.
         25    1    1    2    0    0  0.11844118474E+02 -0.20976010380E+03 -0.12534557873E+03  0.27472913642E+03  0.12500000000E+03 0.  0.
</event>
<event>
 5    0  0.6718957E-005  0.5041316E+03  0.7546771E-02  0.1012706E+00
         21   -1    0    0  502  501  0.00000000000E+00  0.00000000000E+00  0.10078990200E+04  0.10078990200E+04  0.00000000000E+00 0. -1.
         21   -1    0    0  501  502 -0.00000000000E+00 -0.00000000000E+00 -0.25215686934E+03  0.25215686934E+03  0.00000000000E+00 0. -1.
         25    1    1    2    0    0  0.19653659179E+03 -0.13312377896E+03 -0.57881921375E+02  0.27445197988E+03  0.12500000000E+03 0.  0.
         25    1    1    2    0    0 -0.73685848401E+02  0.27606965746E+03  0.34384525836E+03  0.46421829102E+03  0.12500000000E+03 0.  0.
         25    1    1    2    0    0 -0.12285074339E+03 -0.14294587850E+03  0.46977881372E+03  0.52138561847E+03  0.12500000000E+03 0.  0.
</event>
<event>
 5    0  0.5742040E-005  0.3728734E+03  0.7546771E-02  0.1053600E+00
         21   -1    0    0  502  501  0.00000000000E+00  0.00000000000E+00  0.38429388003E+03  0.38429388003E+03  0.00000000000E+00 0. -1.
         21   -1    0    0  501  502 -0.00000000000E+00 -0.00000000000E+00 -0.36179227103E+03  0.36179227103E+03  0.00000000000E+00 0. -1.
         25    1    1    2    0    0  0.46529076161E+02 -0.21068184726E+03 -0.21146233950E+03  0.32694512800E+03  0.12500000000E+03 0.  0.
         25    1    1    2    0    0 -0.16870627084E+02  0.53113653242E+02  0.52347109471E+02  0.14652951269E+03  0.12500000000E+03 0.  0.
         25    1    1    2    0    0 -0.29658449077E+02  0.15756819402E+03  0.18161683903E+03  0.27261151037E+03  0.12500000000E+03 0.  0.
</event>
<event>
 5    0  0.5742040E-005  0.4108164E+03  0.7546771E-02  0.1040097E+00
         21   -1    0    0  502  501  0.00000000000E+00  0.00000000000E+00  0.11811297713E+04  0.11811297713E+04  0.00000000000E+00 0.  1.
         21   -1    0    0  501  502 -0.00000000000E+00 -0.00000000000E+00 -0.14288868421E+03  0.14288868421E+03  0.00000000000E+00 0.  1.
         25    1    1    2    0    0  0.46186474071E+02 -0.63175802908E+02  0.42201117342E+03  0.44703780931E+03  0.12500000000E+03 0.  0.
         25    1    1    2    0    0 -0.19138140224E+01  0.12100462208E+02  0.70056505922E+03  0.71173484253E+03  0.12500000000E+03 0.  0.
         25    1    1    2    0    0 -0.44272660049E+02  0.51075340699E+02 -0.84335145554E+02  0.16524580367E+03  0.12500000000E+03 0.  0.
</event>
<event>
 5    0  0.5742040E-005  0.3342301E+03  0.7546771E-02  0.1069280E+00
         21   -1    0    0  502  501  0.00000000000E+00  0.00000000000E+00  0.99976591123E+02  0.99976591123E+02  0.00000000000E+00 0. -1.
         21   -1    0    0  501  502 -0.00000000000E+00 -0.00000000000E+00 -0.11173590053E+04  0.11173590053E+04  0.00000000000E+00 0. -1.
         25    1    1    2    0    0  0.14576177267E+00  0.13856283136E+03 -0.18789212068E+03  0.26481716050E+03  0.12500000000E+03 0.  0.
         25    1    1    2    0    0 -0.69691435571E+02  0.54399707769E+02 -0.96031963955E+02  0.18073008189E+03  0.12500000000E+03 0.  0.
         25    1    1    2    0    0  0.69545673799E+02 -0.19296253913E+03 -0.73345832958E+03  0.77178835408E+03  0.12500000000E+03 0.  0.
</event>
<event>
 5    0  0.5742040E-005  0.4250961E+03  0.7546771E-02  0.1035420E+00
         21   -1    0    0  502  501  0.00000000000E+00  0.00000000000E+00  0.85967615293E+02  0.85967615293E+02  0.00000000000E+00 0.  1.
         21   -1    0    0  501  502 -0.00000000000E+00 -0.00000000000E+00 -0.21020325852E+04  0.21020325852E+04  0.00000000000E+00 0.  1.
         25    1    1    2    0    0 -0.64041674411E+02 -0.33209144951E+01 -0.14930396393E+03  0.20500984898E+03  0.12500000000E+03 0.  0.
         25    1    1    2    0    0  0.10088777124E+03  0.29749314423E+03 -0.79308180057E+03  0.86213934816E+03  0.12500000000E+03 0.  0.
         25    1    1    2    0    0 -0.36846096825E+02 -0.29417222973E+03 -0.10736792054E+04  0.11208510034E+04  0.12500000000E+03 0.  0.
</event>
<event>
 5    0  0.5742040E-005  0.3903822E+03  0.7546771E-02  0.1047162E+00
         21   -1    0    0  502  501  0.00000000000E+00  0.00000000000E+00  0.54111126292E+03  0.54111126292E+03  0.00000000000E+00 0.  1.
         21   -1    0    0  501  502 -0.00000000000E+00 -0.00000000000E+00 -0.28163942885E+03  0.28163942885E+03  0.00000000000E+00 0. -1.
         25    1    1    2    0    0 -0.91704504756E+02 -0.97097842511E+02  0.17153751599E+03  0.25077445365E+03  0.12500000000E+03 0.  0.
         25    1    1    2    0    0 -0.11604441507E+03 -0.14028820981E+03  0.71999016237E+02  0.23228419322E+03  0.12500000000E+03 0.  0.
         25    1    1    2    0    0  0.20774891982E+03  0.23738605232E+03  0.15935301848E+02  0.33969204490E+03  0.12500000000E+03 0.  0.
</event>
<event>
 5    0  0.5742040E-005  0.3042830E+03  0.7546771E-02  0.1083119E+00
         21   -1    0    0  502  501  0.00000000000E+00  0.00000000000E+00  0.51142073171E+03  0.51142073171E+03  0.00000000000E+00 0. -1.
         21   -1    0    0  501  502 -0.00000000000E+00 -0.00000000000E+00 -0.18104105723E+03  0.18104105723E+03  0.00000000000E+00 0. -1.
         25    1    1    2    0    0  0.13826457583E+03  0.88646358127E+02  0.29848428030E+02  0.20854543484E+03  0.12500000000E+03 0.  0.
         25    1    1    2    0    0 -0.42198007951E+02  0.43223929562E+02  0.22610176860E+03  0.26532242598E+03  0.12500000000E+03 0.  0.
         25    1    1    2    0    0 -0.96066567875E+02 -0.13187028769E+03  0.74429477844E+02  0.21859392812E+03  0.12500000000E+03 0.  0.
</event>
<event>
 5    0  0.5742040E-005  0.4862077E+03  0.7546771E-02  0.1017443E+00
         21   -1    0    0  502  501  0.00000000000E+00  0.00000000000E+00  0.22355371582E+03  0.22355371582E+03  0.00000000000E+00 0.  1.
         21   -1    0    0  501  502 -0.00000000000E+00 -0.00000000000E+00 -0.10574548981E+04  0.10574548981E+04  0.00000000000E+00 0.  1.
         25    1    1    2    0    0 -0.21583359519E+03  0.22896743273E+03 -0.14388028060E+03  0.36788144994E+03  0.12500000000E+03 0.  0.
         25    1    1    2    0    0 -0.75275555224E+02 -0.16599102649E+03 -0.47835829089E+03  0.52694504890E+03  0.12500000000E+03 0.  0.
         25    1    1    2    0    0  0.29110915041E+03 -0.62976406233E+02 -0.21166261076E+03  0.38618211506E+03  0.12500000000E+03 0.  0.
</event>
<event>
 5    0  0.5742040E-005  0.3546402E+03  0.7546771E-02  0.1060726E+00
         21   -1    0    0  502  501  0.00000000000E+00  0.00000000000E+00  0.39292018120E+03  0.39292018120E+03  0.00000000000E+00 0.  1.
         21   -1    0    0  501  502 -0.00000000000E+00 -0.00000000000E+00 -0.32008967336E+03  0.32008967336E+03  0.00000000000E+00 0.  1.
         25    1    1    2    0    0  0.61326424106E+01 -0.24315378349E+03  0.67323737843E+02  0.28163603712E+03  0.12500000000E+03 0.  0.
         25    1    1    2    0    0 -0.35500825921E+02  0.31347978379E+02  0.99303668535E+02  0.16652093855E+03  0.12500000000E+03 0.  0.
         25    1    1    2    0    0  0.29368183510E+02  0.21180580511E+03 -0.93796898537E+02  0.26485287889E+03  0.12500000000E+03 0.  0.
</event>
<event>
 5    0  0.5742040E-005  0.3551279E+03  0.7546771E-02  0.1060530E+00
         21   -1    0    0  502  501  0.00000000000E+00  0.00000000000E+00  0.38043327620E+03  0.38043327620E+03  0.00000000000E+00 0.  1.
         21   -1    0    0  501  502 -0.00000000000E+00 -0.00000000000E+00 -0.33150570030E+03  0.33150570030E+03  0.00000000000E+00 0.  1.
         25    1    1    2    0    0  0.12497727217E+03  0.12722062066E+02  0.12288226500E+03  0.21565300943E+03  0.12500000000E+03 0.  0.
         25    1    1    2    0    0 -0.11930830216E+03 -0.11026357301E+03  0.12632396212E+03  0.24078054303E+03  0.12500000000E+03 0.  0.
         25    1    1    2    0    0 -0.56689700145E+01  0.97541510941E+02 -0.20027865122E+03  0.25550542404E+03  0.12500000000E+03 0.  0.
</event>
<event>
 5    0  0.5742040E-005  0.3239174E+03  0.7546771E-02  0.1073860E+00
         21   -1    0    0  502  501  0.00000000000E+00  0.00000000000E+00  0.38214849299E+03  0.38214849299E+03  0.00000000000E+00 0.  1.
         21   -1    0    0  501  502 -0.00000000000E+00 -0.00000000000E+00 -0.27455952714E+03  0.27455952714E+03  0.00000000000E+00 0.  1.
         25    1    1    2    0    0 -0.43910427865E+02 -0.23452434085E+02  0.10115729946E+03  0.16833282976E+03  0.12500000000E+03 0.  0.
         25    1    1    2    0    0  0.22707152614E+03  0.31040105242E+02 -0.32618568886E+02  0.26308541797E+03  0.12500000000E+03 0.  0.
         25    1    1    2    0    0 -0.18316109827E+03 -0.75876711572E+01  0.39050235270E+02  0.22528977240E+03  0.12500000000E+03 0.  0.
</event>
<event>
 5    0  0.5742040E-005  0.3099260E+03  0.7546771E-02  0.1080381E+00
         21   -1    0    0  502  501  0.00000000000E+00  0.00000000000E+00  0.25542612710E+03  0.25542612710E+03  0.00000000000E+00 0.  1.
         21   -1    0    0  501  502 -0.00000000000E+00 -0.00000000000E+00 -0.37605449947E+03  0.37605449947E+03  0.00000000000E+00 0.  1.
         25    1    1    2    0    0 -0.22941308998E+02  0.48240857123E+02 -0.88174239812E+01  0.13622125723E+03  0.12500000000E+03 0.  0.
         25    1    1    2    0    0 -0.14897008447E+03 -0.15041805682E+03 -0.71188707168E+02  0.25595020983E+03  0.12500000000E+03 0.  0.
         25    1    1    2    0    0  0.17191139347E+03  0.10217719970E+03 -0.40622241222E+02  0.23930915951E+03  0.12500000000E+03 0.  0.
</event>
<event>
 5    0  0.5742040E-005  0.3933273E+03  0.7546771E-02  0.1046115E+00
         21   -1    0    0  502  501  0.00000000000E+00  0.00000000000E+00  0.37934544501E+02  0.37934544501E+02  0.00000000000E+00 0.  1.
         21   -1    0    0  501  502 -0.00000000000E+00 -0.00000000000E+00 -0.40782440074E+04  0.40782440074E+04  0.00000000000E+00 0.  1.
         25    1    1    2    0    0  0.12798426046E+03 -0.11038090323E+03 -0.19334804035E+04  0.19448741310E+04  0.12500000000E+03 0.  0.
         25    1    1    2    0    0 -0.44072868267E+02 -0.13725261968E+03 -0.44178247871E+03  0.48122495552E+03  0.12500000000E+03 0.  0.
         25    1    1    2    0    0 -0.83911392197E+02  0.24763352291E+03 -0.16650465807E+04  0.16900794654E+04  0.12500000000E+03 0.  0.
</event>
<event>
 5    0  0.5742040E-005  0.3950301E+03  0.7546771E-02  0.1045514E+00
         21   -1    0    0  502  501  0.00000000000E+00  0.00000000000E+00  0.17937227437E+04  0.17937227437E+04  0.00000000000E+00 0. -1.
         21   -1    0    0  501  502 -0.00000000000E+00 -0.00000000000E+00 -0.86997170247E+02  0.86997170247E+02  0.00000000000E+00 0. -1.
         25    1    1    2    0    0 -0.63703009325E+02  0.12496636689E+03  0.23156571719E+03  0.29819850373E+03  0.12500000000E+03 0.  0.
         25    1    1    2    0    0  0.60854054372E+01 -0.31449431325E+03  0.84916419909E+03  0.91413814177E+03  0.12500000000E+03 0.  0.
         25    1    1    2    0    0  0.57617603888E+02  0.18952794636E+03  0.62599565715E+03  0.66838326841E+03  0.12500000000E+03 0.  0.
</event>
<event>
 5    0  0.5742040E-005  0.2076534E+03  0.7546771E-02  0.1143438E+00
         21   -1    0    0  502  501  0.00000000000E+00  0.00000000000E+00  0.12812594212E+03  0.12812594212E+03  0.00000000000E+00 0. -1.
         21   -1    0    0  501  502 -0.00000000000E+00 -0.00000000000E+00 -0.33654340688E+03  0.33654340688E+03  0.00000000000E+00 0. -1.
         25    1    1    2    0    0  0.20820644583E+02  0.13499018845E+02 -0.51420751910E+02  0.13742203782E+03  0.12500000000E+03 0.  0.
         25    1    1    2    0    0  0.34446951014E+02 -0.57239724905E+02 -0.59251566742E+02  0.15361877067E+03  0.12500000000E+03 0.  0.
         25    1    1    2    0    0 -0.55267595597E+02  0.43740706059E+02 -0.97745146110E+02  0.17362854050E+03  0.12500000000E+03 0.  0.
</event>
<event>
 5    0  0.5742040E-005  0.3501485E+03  0.7546771E-02  0.1062554E+00
         21   -1    0    0  502  501  0.00000000000E+00  0.00000000000E+00  0.24480371739E+03  0.24480371739E+03  0.00000000000E+00 0.  1.
         21   -1    0    0  501  502 -0.00000000000E+00 -0.00000000000E+00 -0.50082556108E+03  0.50082556108E+03  0.00000000000E+00 0.  1.
         25    1    1    2    0    0 -0.14737230730E+02  0.37504799665E+02 -0.25519731551E+03  0.28700952216E+03  0.12500000000E+03 0.  0.
         25    1    1    2    0    0  0.70178625863E+02  0.43364186921E+02  0.16917448510E+03  0.22594357403E+03  0.12500000000E+03 0.  0.
         25    1    1    2    0    0 -0.55441395133E+02 -0.80868986586E+02 -0.16999901328E+03  0.23267618229E+03  0.12500000000E+03 0.  0.
</event>
<event>
 5    0  0.5742040E-005  0.4388789E+03  0.7546771E-02  0.1031091E+00
         21   -1    0    0  502  501  0.00000000000E+00  0.00000000000E+00  0.36115726842E+03  0.36115726842E+03  0.00000000000E+00 0.  1.
         21   -1    0    0  501  502 -0.00000000000E+00 -0.00000000000E+00 -0.53332627212E+03  0.53332627212E+03  0.00000000000E+00 0.  1.
         25    1    1    2    0    0 -0.21478780886E+03  0.19866862333E+03  0.11866968849E+03  0.33957402683E+03  0.12500000000E+03 0.  0.
         25    1    1    2    0    0  0.17276956480E+03  0.23033390038E+02 -0.13878299833E+03  0.25547129037E+03  0.12500000000E+03 0.  0.
         25    1    1    2    0    0  0.42018244061E+02 -0.22170201336E+03 -0.15205569386E+03  0.29943822334E+03  0.12500000000E+03 0.  0.
</event>
<event>
 5    0  0.6248121E-005  0.4455934E+03  0.7546771E-02  0.1029044E+00
         21   -1    0    0  502  501  0.00000000000E+00  0.00000000000E+00  0.92756628132E+03  0.92756628132E+03  0.00000000000E+00 0.  1.
         21   -1    0    0  501  502 -0.00000000000E+00 -0.00000000000E+00 -0.21405852002E+03  0.21405852002E+03  0.00000000000E+00 0.  1.
         25    1    1    2    0    0 -0.63233262795E+02  0.16657022355E+03  0.59463532669E+03  0.63321422650E+03  0.12500000000E+03 0.  0.
         25    1    1    2    0    0  0.95795491262E+02 -0.11915093316E+03  0.24982866327E+03  0.31845420709E+03  0.12500000000E+03 0.  0.
         25    1    1    2    0    0 -0.32562228467E+02 -0.47419290398E+02 -0.13095622866E+03  0.18995636775E+03  0.12500000000E+03 0.  0.
</event>
<event>
 5    0  0.5742040E-005  0.2594595E+03  0.7546771E-02  0.1107468E+00
         21   -1    0    0  502  501  0.00000000000E+00  0.00000000000E+00  0.14734906662E+03  0.14734906662E+03  0.00000000000E+00 0. -1.
         21   -1    0    0  501  502 -0.00000000000E+00 -0.00000000000E+00 -0.45686891566E+03  0.45686891566E+03  0.00000000000E+00 0. -1.
         25    1    1    2    0    0  0.15422497457E+02  0.12072292492E+03 -0.10483546284E+03  0.20353710300E+03  0.12500000000E+03 0.  0.
         25    1    1    2    0    0  0.79496222692E+02 -0.40481618803E+01 -0.75713825263E+02  0.16641400293E+03  0.12500000000E+03 0.  0.
         25    1    1    2    0    0 -0.94918720149E+02 -0.11667476304E+03 -0.12897056093E+03  0.23426687635E+03  0.12500000000E+03 0.  0.
</event>
<event>
 5    0  0.5742040E-005  0.2792808E+03  0.7546771E-02  0.1096082E+00
         21   -1    0    0  502  501  0.00000000000E+00  0.00000000000E+00  0.94338968008E+03  0.94338968008E+03  0.00000000000E+00 0.  1.
         21   -1    0    0  501  502 -0.00000000000E+00 -0.00000000000E+00 -0.82678193346E+02  0.82678193346E+02  0.00000000000E+00 0.  1.
         25    1    1    2    0    0 -0.30672176200E+02 -0.11046572033E+03  0.33779617630E+03  0.37798771737E+03  0.12500000000E+03 0.  0.
         25    1    1    2    0    0  0.90190388945E+02 -0.31952683682E+02  0.11686817600E+03  0.19605726412E+03  0.12500000000E+03 0.  0.
         25    1    1    2    0    0 -0.59518212745E+02  0.14241840401E+03  0.40604713443E+03  0.45202289193E+03  0.12500000000E+03 0.  0.
</event>
<event>
 5    0  0.5742040E-005  0.2386929E+03  0.7546771E-02  0.1120667E+00
         21   -1    0    0  502  501  0.00000000000E+00  0.00000000000E+00  0.26432892551E+03  0.26432892551E+03  0.00000000000E+00 0.  1.
         21   -1    0    0  501  502 -0.00000000000E+00 -0.00000000000E+00 -0.21554316664E+03  0.21554316664E+03  0.00000000000E+00 0.  1.
         25    1    1    2    0    0  0.62540128124E+02  0.16294685157E+02  0.92440905173E+02  0.16836598629E+03  0.12500000000E+03 0.  0.
         25    1    1    2    0    0 -0.11427303051E+03  0.13295099807E+02 -0.27324533844E+02  0.17206602027E+03  0.12500000000E+03 0.  0.
         25    1    1    2    0    0  0.51732902389E+02 -0.29589784964E+02 -0.16330612459E+02  0.13944008558E+03  0.12500000000E+03 0.  0.
</event>
<event>
 5    0  0.5742040E-005  0.2537433E+03  0.7546771E-02  0.1110962E+00
         21   -1    0    0  502  501  0.00000000000E+00  0.00000000000E+00  0.88060388407E+02  0.88060388407E+02  0.00000000000E+00 0. -1.
         21   -1    0    0  501  502 -0.00000000000E+00 -0.00000000000E+00 -0.73115341425E+03  0.73115341425E+03  0.00000000000E+00 0. -1.
         25    1    1    2    0    0  0.58453461257E+02 -0.66363777882E+02 -0.14890646551E+03  0.21358626739E+03  0.12500000000E+03 0.  0.
         25    1    1    2    0    0  0.15718660894E+02 -0.40382007439E+02 -0.81825345927E+02  0.15555761010E+03  0.12500000000E+03 0.  0.
         25    1    1    2    0    0 -0.74172122152E+02  0.10674578532E+03 -0.41236121440E+03  0.45006992516E+03  0.12500000000E+03 0.  0.
</event>
<event>
 5    0  0.5742040E-005  0.4609705E+03  0.7546771E-02  0.1024500E+00
         21   -1    0    0  502  501  0.00000000000E+00  0.00000000000E+00  0.36195030621E+03  0.36195030621E+03  0.00000000000E+00 0. -1.
         21   -1    0    0  501  502 -0.00000000000E+00 -0.00000000000E+00 -0.58708013664E+03  0.58708013664E+03  0.00000000000E+00 0. -1.
         25    1    1    2    0    0 -0.75291466776E+02 -0.26931520272E+03 -0.11054412795E+03  0.32564472605E+03  0.12500000000E+03 0.  0.
         25    1    1    2    0    0  0.13499274940E+03  0.20256732456E+03 -0.28414466076E+03  0.39448669383E+03  0.12500000000E+03 0.  0.
         25    1    1    2    0    0 -0.59701282629E+02  0.66747878159E+02  0.16955895827E+03  0.22889902297E+03  0.12500000000E+03 0.  0.
</event>
<event>
 5    0  0.5742040E-005  0.4896161E+03  0.7546771E-02  0.1016525E+00
         21   -1    0    0  502  501  0.00000000000E+00  0.00000000000E+00  0.18876472634E+04  0.18876472634E+04  0.00000000000E+00 0.  1.
         21   -1    0    0  501  502 -0.00000000000E+00 -0.00000000000E+00 -0.12699612051E+03  0.12699612051E+03  0.00000000000E+00 0.  1.
         25    1    1    2    0    0  0.34026423769E+02  0.21811162282E+03  0.52067903429E+03  0.57919093076E+03  0.12500000000E+03 0.  0.
         25    1    1    2    0    0 -0.30027887537E+03  0.42844589815E+02  0.61615068790E+03  0.69804708442E+03  0.12500000000E+03 0.  0.
         25    1    1    2    0    0  0.26625245160E+03 -0.26095621264E+03  0.62382142071E+03  0.73740536873E+03  0.12500000000E+03 0.  0.
</event>
<event>
 5    0  0.5742040E-005  0.3332218E+03  0.7546771E-02  0.1069720E+00
         21   -1    0    0  502  501  0.00000000000E+00  0.00000000000E+00  0.63969215590E+03  0.63969215590E+03  0.00000000000E+00 0.  1.
         21   -1    0    0  501  502 -0.00000000000E+00 -0.00000000000E+00 -0.17357849221E+03  0.17357849221E+03  0.00000000000E+00 0.  1.
         25    1    1    2    0    0 -0.11688424528E+03  0.74650028123E+02  0.71282847376E+02  0.19985193975E+03  0.12500000000E+03 0.  0.
         25    1    1    2    0    0 -0.12084853910E+03  0.18291128368E+02  0.21491194675E+03  0.27703985207E+03  0.12500000000E+03 0.  0.
         25    1    1    2    0    0  0.23773278437E+03 -0.92941156492E+02  0.17991886956E+03  0.33637885629E+03  0.12500000000E+03 0.  0.
</event>
<event>
 5    0  0.5742040E-005  0.2938485E+03  0.7546771E-02  0.1088357E+00
         21   -1    0    0  502  501  0.00000000000E+00  0.00000000000E+00  0.96629046501E+03  0.96629046501E+03  0.00000000000E+00 0. -1.
         21   -1    0    0  501  502 -0.00000000000E+00 -0.00000000000E+00 -0.89359176363E+02  0.89359176363E+02  0.00000000000E+00 0. -1.
         25    1    1    2    0    0  0.18399814588E+03 -0.66219449145E+02  0.22639090124E+03  0.32421932900E+03  0.12500000000E+03 0.  0.
         25    1    1    2    0    0 -0.13720484490E+03  0.63078413845E+02  0.32453630997E+03  0.37914755999E+03  0.12500000000E+03 0.  0.
         25    1    1    2    0    0 -0.46793300984E+02  0.31410353008E+01  0.32600407744E+03  0.35228275239E+03  0.12500000000E+03 0.  0.
</event>
<event>
 5    0  0.5742040E-005  0.3237133E+03  0.7546771E-02  0.1073953E+00
         21   -1    0    0  502  501  0.00000000000E+00  0.00000000000E+00  0.12968473405E+03  0.12968473405E+03  0.00000000000E+00 0. -1.
         21   -1    0    0  501  502 -0.00000000000E+00 -0.00000000000E+00 -0.80803895276E+03  0.80803895276E+03  0.00000000000E+00 0. -1.
         25    1    1    2    0    0  0.17118061240E+03 -0.12916470148E+03 -0.13487298785E+03  0.28249255747E+03  0.12500000000E+03 0.  0.
         25    1    1    2    0    0 -0.76086009265E+02 -0.10904548591E+02 -0.29595225073E+03  0.33033426207E+03  0.12500000000E+03 0.  0.
         25    1    1    2    0    0 -0.95094603139E+02  0.14006925007E+03 -0.24752898012E+03  0.32489686727E+03  0.12500000000E+03 0.  0.
</event>
<event>
 5    0  0.5742040E-005  0.2593954E+03  0.7546771E-02  0.1107507E+00
         21   -1    0    0  502  501  0.00000000000E+00  0.00000000000E+00  0.96418025368E+03  0.96418025368E+03  0.00000000000E+00 0. -1.
         21   -1    0    0  501  502 -0.00000000000E+00 -0.00000000000E+00 -0.69785705507E+02  0.69785705507E+02  0.00000000000E+00 0. -1.
         25    1    1    2    0    0  0.12017355939E+03 -0.60164576869E+02  0.25127523534E+03  0.31116828980E+03  0.12500000000E+03 0.  0.
         25    1    1    2    0    0 -0.13665520104E+03  0.70192352438E+02  0.32683997998E+03  0.38216617174E+03  0.12500000000E+03 0.  0.
         25    1    1    2    0    0  0.16481641651E+02 -0.10027775569E+02  0.31627933286E+03  0.34063149764E+03  0.12500000000E+03 0.  0.
</event>
<event>
 5    0  0.5742040E-005  0.2834519E+03  0.7546771E-02  0.1093818E+00
         21   -1    0    0  502  501  0.00000000000E+00  0.00000000000E+00  0.19301223742E+03  0.19301223742E+03  0.00000000000E+00 0.  1.
         21   -1    0    0  501  502 -0.00000000000E+00 -0.00000000000E+00 -0.41626893115E+03  0.41626893115E+03  0.00000000000E+00 0.  1.
         25    1    1    2    0    0  0.60892181362E+02 -0.61456751019E+02 -0.13930387357E+03  0.20619252942E+03  0.12500000000E+03 0.  0.
         25    1    1    2    0    0 -0.14516393778E+02  0.17024735579E+03 -0.91974755169E+02  0.23082296989E+03  0.12500000000E+03 0.  0.
         25    1    1    2    0    0 -0.46375787583E+02 -0.10879060477E+03  0.80219350206E+01  0.17226566925E+03  0.12500000000E+03 0.  0.
</event>
<event>
 5    0  0.5742040E-005  0.4582728E+03  0.7546771E-02  0.1025283E+00
         21   -1    0    0  502  501  0.00000000000E+00  0.00000000000E+00  0.26643743572E+04  0.26643743572E+04  0.00000000000E+00 0. -1.
         21   -1    0    0  501  502 -0.00000000000E+00 -0.00000000000E+00 -0.78822989797E+02  0.78822989797E+02  0.00000000000E+00 0. -1.
         25    1    1    2    0    0 -0.58853455759E+02  0.43850277182E+02  0.37413886921E+03  0.40123742288E+03  0.12500000000E+03 0.  0.
         25    1    1    2    0    0 -0.20078218403E+03 -0.29933446197E+03  0.12253299817E+04  0.12833445249E+04  0.12500000000E+03 0.  0.
         25    1    1    2    0    0  0.25963563978E+03  0.25548418479E+03  0.98608251651E+03  0.10586153992E+04  0.12500000000E+03 0.  0.
</event>
<event>
 5    0  0.6702787E-005  0.3245961E+03  0.7546771E-02  0.1073553E+00
         21   -1    0    0  502  501  0.00000000000E+00  0.00000000000E+00  0.66670697596E+03  0.66670697596E+03  0.00000000000E+00 0. -1.
         21   -1    0    0  501  502 -0.00000000000E+00 -0.00000000000E+00 -0.15803442307E+03  0.15803442307E+03  0.00000000000E+00 0. -1.
         25    1    1    2    0    0  0.11610506160E+03  0.81906530788E+02  0.10706093735E+03  0.21743070027E+03  0.12500000000E+03 0.  0.
         25    1    1    2    0    0 -0.67573868338E+02 -0.79958160159E+02  0.43882651841E+03  0.46813806544E+03  0.12500000000E+03 0.  0.
         25    1    1    2    0    0 -0.48531193262E+02 -0.19483706294E+01 -0.37214902868E+02  0.13917263331E+03  0.12500000000E+03 0.  0.
</event>
<event>
 5    0  0.5742040E-005  0.4063786E+03  0.7546771E-02  0.1041593E+00
         21   -1    0    0  502  501  0.00000000000E+00  0.00000000000E+00  0.15494086266E+03  0.15494086266E+03  0.00000000000E+00 0.  1.
         21   -1    0    0  501  502 -0.00000000000E+00 -0.00000000000E+00 -0.10658491882E+04  0.10658491882E+04  0.00000000000E+00 0.  1.
         25    1    1    2    0    0  0.32155043367E+02  0.99100856244E+02 -0.14454729486E+03  0.21765533987E+03  0.12500000000E+03 0.  0.
         25    1    1    2    0    0  0.65544310979E+02 -0.17932228865E+02 -0.80774821135E+03  0.82018278113E+03  0.12500000000E+03 0.  0.
         25    1    1    2    0    0 -0.97699354345E+02 -0.81168627379E+02  0.41387180674E+02  0.18295192985E+03  0.12500000000E+03 0.  0.
</event>
<event>
 5    0  0.5742040E-005  0.2306508E+03  0.7546771E-02  0.1126183E+00
         21   -1    0    0  502  501  0.00000000000E+00  0.00000000000E+00  0.11622596666E+03  0.11622596666E+03  0.00000000000E+00 0.  1.
         21   -1    0    0  501  502 -0.00000000000E+00 -0.00000000000E+00 -0.45772720458E+03  0.45772720458E+03  0.00000000000E+00 0.  1.
         25    1    1    2    0    0  0.46107000595E+02  0.87044011711E+02 -0.10090536189E+03  0.18843940017E+03  0.12500000000E+03 0.  0.
         25    1    1    2    0    0  0.20154815232E+02 -0.94721924183E+02 -0.14544723368E+03  0.21484496104E+03  0.12500000000E+03 0.  0.
         25    1    1    2    0    0 -0.66261815826E+02  0.76779124720E+01 -0.95148642356E+02  0.17066881003E+03  0.12500000000E+03 0.  0.
</event>
<event>
 5    0  0.5742040E-005  0.2833371E+03  0.7546771E-02  0.1093880E+00
         21   -1    0    0  502  501  0.00000000000E+00  0.00000000000E+00  0.93026668839E+03  0.93026668839E+03  0.00000000000E+00 0.  1.
         21   -1    0    0  501  502 -0.00000000000E+00 -0.00000000000E+00 -0.86297711993E+02  0.86297711993E+02  0.00000000000E+00 0.  1.
         25    1    1    2    0    0  0.41579669446E+02 -0.10656700425E+03  0.13256223905E+03  0.21513517269E+03  0.12500000000E+03 0.  0.
         25    1    1    2    0    0 -0.10086523627E+03 -0.41697393173E+02  0.33651547178E+03  0.37520678463E+03  0.12500000000E+03 0.  0.
         25    1    1    2    0    0  0.59285566826E+02  0.14826439742E+03  0.37489126556E+03  0.42622244306E+03  0.12500000000E+03 0.  0.
</event>
<event>
 5    0  0.5742040E-005  0.2242799E+03  0.7546771E-02  0.1130732E+00
         21   -1    0    0  502  501  0.00000000000E+00  0.00000000000E+00  0.70658313383E+03  0.70658313383E+03  0.00000000000E+00 0.  1.
         21   -1    0    0  501  502 -0.00000000000E+00 -0.00000000000E+00 -0.71189766907E+02  0.71189766907E+02  0.00000000000E+00 0.  1.
         25    1    1    2    0    0  0.70046195002E+02  0.44346467327E+02  0.18653374882E+03  0.23935939097E+03  0.12500000000E+03 0.  0.
         25    1    1    2    0    0 -0.55165666988E+02  0.13786376708E+02  0.32369179120E+03  0.35161725027E+03  0.12500000000E+03 0.  0.
         25    1    1    2    0    0 -0.14880528014E+02 -0.58132844034E+02  0.12516782691E+03  0.18679625950E+03  0.12500000000E+03 0.  0.
</event>
<event>
 5    0  0.5742040E-005  0.2721391E+03  0.7546771E-02  0.1100062E+00
         21   -1    0    0  502  501  0.00000000000E+00  0.00000000000E+00  0.69198644466E+02  0.69198644466E+02  0.00000000000E+00 0. -1.
         21   -1    0    0  501  502 -0.00000000000E+00 -0.00000000000E+00 -0.10702477687E+04  0.10702477687E+04  0.00000000000E+00 0. -1.
         25    1    1    2    0    0 -0.57415302295E+02  0.14690762926E+03 -0.32430729143E+03  0.38167864461E+03  0.12500000000E+03 0.  0.
         25    1    1    2    0    0  0.15557916250E+02 -0.51573122868E+02 -0.49715670525E+03  0.51545283521E+03  0.12500000000E+03 0.  0.
         25    1    1    2    0    0  0.41857386045E+02 -0.95334506395E+02 -0.17958512751E+03  0.24231493330E+03  0.12500000000E+03 0.  0.
</event>
<event>
 5    0  0.5742040E-005  0.2885587E+03  0.7546771E-02  0.1091104E+00
         21   -1    0    0  502  501  0.00000000000E+00  0.00000000000E+00  0.22842974441E+04  0.22842974441E+04  0.00000000000E+00 0. -1.
         21   -1    0    0  501  502 -0.00000000000E+00 -0.00000000000E+00 -0.36451516588E+02  0.36451516588E+02  0.00000000000E+00 0. -1.
         25    1    1    2    0    0  0.46041620453E+02 -0.50264060274E+02  0.11951941844E+04  0.12036446507E+04  0.12500000000E+03 0.  0.
         25    1    1    2    0    0  0.29475752162E+02  0.72707755434E+02  0.18350309129E+03  0.23548592777E+03  0.12500000000E+03 0.  0.
         25    1    1    2    0    0 -0.75517372616E+02 -0.22443695160E+02  0.86914865176E+03  0.88161838222E+03  0.12500000000E+03 0.  0.
</event>
<event>
 5    0  0.7571133E-005  0.2935924E+03  0.7546771E-02  0.1088488E+00
         21   -1    0    0  502  501  0.00000000000E+00  0.00000000000E+00  0.39672736495E+03  0.39672736495E+03  0.00000000000E+00 0. -1.
         21   -1    0    0  501  502 -0.00000000000E+00 -0.00000000000E+00 -0.21726883440E+03  0.21726883440E+03  0.00000000000E+00 0. -1.
         25    1    1    2    0    0 -0.14199212864E+03 -0.51743159154E+02  0.97841366421E+02  0.21917356615E+03  0.12500000000E+03 0.  0.
         25    1    1    2    0    0  0.15521427234E+03  0.24759618074E+01 -0.50840430983E+02  0.20568750605E+03  0.12500000000E+03 0.  0.
         25    1    1    2    0    0 -0.13222143692E+02  0.49267197347E+02  0.13245759511E+03  0.18913512714E+03  0.12500000000E+03 0.  0.
</event>
<event>
 5    0  0.5742040E-005  0.2204036E+03  0.7546771E-02  0.1133583E+00
         21   -1    0    0  502  501  0.00000000000E+00  0.00000000000E+00  0.62934695716E+02  0.62934695716E+02  0.00000000000E+00 0.  1.
         21   -1    0    0  501  502 -0.00000000000E+00 -0.00000000000E+00 -0.77187512061E+03  0.77187512061E+03  0.00000000000E+00 0.  1.
         25    1    1    2    0    0  0.72586202385E+01 -0.16871067191E+02 -0.20044393052E+03  0.23693900008E+03  0.12500000000E+03 0.  0.
         25    1    1    2    0    0  0.51242126278E+02  0.84616506735E+02 -0.28599330369E+03  0.32741850661E+03  0.12500000000E+03 0.  0.
         25    1    1    2    0    0 -0.58500746516E+02 -0.67745439544E+02 -0.22250319068E+03  0.27045230963E+03  0.12500000000E+03 0.  0.
</event>
<event>
 5    0  0.5838455E-005  0.2593573E+03  0.7546771E-02  0.1107530E+00
         21   -1    0    0  502  501  0.00000000000E+00  0.00000000000E+00  0.41208695605E+03  0.41208695605E+03  0.00000000000E+00 0. -1.
         21   -1    0    0  501  502 -0.00000000000E+00 -0.00000000000E+00 -0.16323300890E+03  0.16323300890E+03  0.00000000000E+00 0. -1.
         25    1    1    2    0    0 -0.80019332040E+02  0.52640637394E+02  0.16905727586E+03  0.23104002408E+03  0.12500000000E+03 0.  0.
         25    1    1    2    0    0  0.14187207491E+03 -0.16408563103E+02  0.58590989286E+02  0.19863240070E+03  0.12500000000E+03 0.  0.
         25    1    1    2    0    0 -0.61852742873E+02 -0.36232074291E+02  0.21205682007E+02  0.14564754017E+03  0.12500000000E+03 0.  0.
</event>
<event>
 5    0  0.5742040E-005  0.3476518E+03  0.7546771E-02  0.1063583E+00
         21   -1    0    0  502  501  0.00000000000E+00  0.00000000000E+00  0.66934781326E+02  0.66934781326E+02  0.00000000000E+00 0. -1.
         21   -1    0    0  501  502 -0.00000000000E+00 -0.00000000000E+00 -0.18056644648E+04  0.18056644648E+04  0.00000000000E+00 0. -1.
         25    1    1    2    0    0  0.20261450852E+03 -0.23724155791E+00 -0.48247104242E+03  0.53801115427E+03  0.12500000000E+03 0.  0.
         25    1    1    2    0    0 -0.13023115237E+03  0.15558326563E+03 -0.65426648969E+03  0.69631598081E+03  0.12500000000E+03 0.  0.
         25    1    1    2    0    0 -0.72383356144E+02 -0.15534602407E+03 -0.60199215140E+03  0.63827211108E+03  0.12500000000E+03 0.  0.
</event>
<event>
 5    0  0.5742040E-005  0.4478402E+03  0.7546771E-02  0.1028368E+00
         21   -1    0    0  502  501  0.00000000000E+00  0.00000000000E+00  0.24493107434E+04  0.24493107434E+04  0.00000000000E+00 0.  1.
         21   -1    0    0  501  502 -0.00000000000E+00 -0.00000000000E+00 -0.81884590323E+02  0.81884590323E+02  0.00000000000E+00 0.  1.
         25    1    1    2    0    0 -0.86234269461E+02 -0.16922758285E+03  0.17567095468E+03  0.28733187840E+03  0.12500000000E+03 0.  0.
         25    1    1    2    0    0 -0.88247183377E+02  0.18560460347E+03  0.15068109814E+04  0.15258902214E+04  0.12500000000E+03 0.  0.
         25    1    1    2    0    0  0.17448145284E+03 -0.16377020623E+02  0.68494421709E+03  0.71797323398E+03  0.12500000000E+03 0.  0.
</event>
<event>
 5    0  0.5742040E-005  0.2879094E+03  0.7546771E-02  0.1091446E+00
         21   -1    0    0  502  501  0.00000000000E+00  0.00000000000E+00  0.38036588910E+03  0.38036588910E+03  0.00000000000E+00 0. -1.
         21   -1    0    0  501  502 -0.00000000000E+00 -0.00000000000E+00 -0.21792661652E+03  0.21792661652E+03  0.00000000000E+00 0. -1.
         25    1    1    2    0    0 -0.72389536531E+02  0.14985047449E+03 -0.60205026086E+01  0.20822261202E+03  0.12500000000E+03 0.  0.
         25    1    1    2    0    0  0.12339151037E+03 -0.46377947526E+02  0.90560208364E+02  0.20298406388E+03  0.12500000000E+03 0.  0.
         25    1    1    2    0    0 -0.51001973844E+02 -0.10347252697E+03  0.77899566826E+02  0.18708582973E+03  0.12500000000E+03 0.  0.
</event>
<event>
 5    0  0.5742040E-005  0.2746194E+03  0.7546771E-02  0.1098665E+00
         21   -1    0    0  502  501  0.00000000000E+00  0.00000000000E+00  0.12917153191E+04  0.12917153191E+04  0.00000000000E+00 0.  1.
         21   -1    0    0  501  502 -0.00000000000E+00 -0.00000000000E+00 -0.58384251284E+02  0.58384251284E+02  0.00000000000E+00 0.  1.
         25    1    1    2    0    0 -0.79381164692E+02  0.11817571152E+02  0.16306517801E+03  0.22058167778E+03  0.12500000000E+03 0.  0.
         25    1    1    2    0    0  0.10034906717E+03  0.64005752266E+02  0.30791602083E+03  0.35299284339E+03  0.12500000000E+03 0.  0.
         25    1    1    2    0    0 -0.20967902480E+02 -0.75823323419E+02  0.76234986901E+03  0.77652504924E+03  0.12500000000E+03 0.  0.
</event>
<event>
 5    0  0.5742040E-005  0.2661542E+03  0.7546771E-02  0.1103501E+00
         21   -1    0    0  502  501  0.00000000000E+00  0.00000000000E+00  0.76658419077E+02  0.76658419077E+02  0.00000000000E+00 0.  1.
         21   -1    0    0  501  502 -0.00000000000E+00 -0.00000000000E+00 -0.92407375441E+03  0.92407375441E+03  0.00000000000E+00 0.  1.
         25    1    1    2    0    0  0.13355616917E+03  0.64978517160E+02 -0.19565843220E+03  0.27562053644E+03  0.12500000000E+03 0.  0.
         25    1    1    2    0    0 -0.53385266144E+02 -0.95452912864E+02 -0.35062927431E+03  0.38797826385E+03  0.12500000000E+03 0.  0.
         25    1    1    2    0    0 -0.80170903027E+02  0.30474395704E+02 -0.30112762881E+03  0.33713337319E+03  0.12500000000E+03 0.  0.
</event>
<event>
 5    0  0.5742040E-005  0.3334441E+03  0.7546771E-02  0.1069623E+00
         21   -1    0    0  502  501  0.00000000000E+00  0.00000000000E+00  0.28022536711E+03  0.28022536711E+03  0.00000000000E+00 0.  1.
         21   -1    0    0  501  502 -0.00000000000E+00 -0.00000000000E+00 -0.39676975744E+03  0.39676975744E+03  0.00000000000E+00 0.  1.
         25    1    1    2    0    0 -0.86658282975E+02  0.10589242127E+03 -0.17788108478E+03  0.25688429928E+03  0.12500000000E+03 0.  0.
         25    1    1    2    0    0  0.28767863553E+02  0.50920349654E+02 -0.87810810305E+02  0.16357325695E+03  0.12500000000E+03 0.  0.
         25    1    1    2    0    0  0.57890419422E+02 -0.15681277093E+03  0.14914750475E+03  0.25653756832E+03  0.12500000000E+03 0.  0.
</event>
<event>
 5    0  0.5742040E-005  0.3939680E+03  0.7546771E-02  0.1045889E+00
         21   -1    0    0  502  501  0.00000000000E+00  0.00000000000E+00  0.56811781697E+02  0.56811781697E+02  0.00000000000E+00 0. -1.
         21   -1    0    0  501  502 -0.00000000000E+00 -0.00000000000E+00 -0.27320173045E+04  0.27320173045E+04  0.00000000000E+00 0. -1.
         25    1    1    2    0    0 -0.60443238039E+02  0.19864315371E+03 -0.11970582077E+04  0.12213459134E+04  0.12500000000E+03 0.  0.
         25    1    1    2    0    0 -0.15915298200E+03 -0.35460679333E+02 -0.79363619839E+03  0.81979908932E+03  0.12500000000E+03 0.  0.
         25    1    1    2    0    0  0.21959622003E+03 -0.16318247438E+03 -0.68451111677E+03  0.74768408354E+03  0.12500000000E+03 0.  0.
</event>
<event>
 5    0  0.5742040E-005  0.3495033E+03  0.7546771E-02  0.1062819E+00
         21   -1    0    0  502  501  0.00000000000E+00  0.00000000000E+00  0.27930868070E+04  0.27930868070E+04  0.00000000000E+00 0. -1.
         21   -1    0    0  501  502 -0.00000000000E+00 -0.00000000000E+00 -0.43733891928E+02  0.43733891928E+02  0.00000000000E+00 0. -1.
         25    1    1    2    0    0  0.39821335737E+02  0.13618809956E+03  0.12993100568E+04  0.13129983095E+04  0.12500000000E+03 0.  0.
         25    1    1    2    0    0  0.79978211656E+00  0.11885628826E+03  0.40713950748E+03  0.44217082159E+03  0.12500000000E+03 0.  0.
         25    1    1    2    0    0 -0.40621117854E+02 -0.25504438782E+03  0.10429033509E+04  0.10816515679E+04  0.12500000000E+03 0.  0.
</event>
<event>
 5    0  0.5742040E-005  0.3413561E+03  0.7546771E-02  0.1066220E+00
         21   -1    0    0  502  501  0.00000000000E+00  0.00000000000E+00  0.19268990566E+03  0.19268990566E+03  0.00000000000E+00 0. -1.
         21   -1    0    0  501  502 -0.00000000000E+00 -0.00000000000E+00 -0.60472273228E+03  0.60472273228E+03  0.00000000000E+00 0. -1.
         25    1    1    2    0    0 -0.41638696361E+02  0.77540028852E+02 -0.98944703964E+02  0.18210242050E+03  0.12500000000E+03 0.  0.
         25    1    1    2    0    0  0.14134103346E+03  0.19108280548E+02  0.59279932489E+02  0.19869958360E+03  0.12500000000E+03 0.  0.
         25    1    1    2    0    0 -0.99702337101E+02 -0.96648309400E+02 -0.37236805515E+03  0.41661063384E+03  0.12500000000E+03 0.  0.
</event>
<event>
 5    0  0.5742040E-005  0.6919382E+03  0.7546771E-02  0.9731119E-01
         21   -1    0    0  502  501  0.00000000000E+00  0.00000000000E+00  0.73372496346E+03  0.73372496346E+03  0.00000000000E+00 0. -1.
         21   -1    0    0  501  502 -0.00000000000E+00 -0.00000000000E+00 -0.65253123934E+03  0.65253123934E+03  0.00000000000E+00 0.  1.
         25    1    1    2    0    0  0.26174570885E+03 -0.57785035435E+03  0.22557140278E+03  0.68478413085E+03  0.12500000000E+03 0.  0.
         25    1    1    2    0    0 -0.18589891648E+03  0.35041283112E+03 -0.95187672915E+02  0.42665355083E+03  0.12500000000E+03 0.  0.
         25    1    1    2    0    0 -0.75846792367E+02  0.22743752323E+03 -0.49190005746E+02  0.27481852112E+03  0.12500000000E+03 0.  0.
</event>
<event>
 5    0  0.5742040E-005  0.4400001E+03  0.7546771E-02  0.1030747E+00
         21   -1    0    0  502  501  0.00000000000E+00  0.00000000000E+00  0.19019831660E+04  0.19019831660E+04  0.00000000000E+00 0. -1.
         21   -1    0    0  501  502 -0.00000000000E+00 -0.00000000000E+00 -0.10178855430E+03  0.10178855430E+03  0.00000000000E+00 0. -1.
         25    1    1    2    0    0 -0.21258895946E+03  0.23448050435E+03  0.58855417099E+03  0.67985011937E+03  0.12500000000E+03 0.  0.
         25    1    1    2    0    0  0.25954731729E+03 -0.15219410677E+03  0.10470255596E+04  0.10965470252E+04  0.12500000000E+03 0.  0.
         25    1    1    2    0    0 -0.46958357830E+02 -0.82286397581E+02  0.16461488108E+03  0.22737457569E+03  0.12500000000E+03 0.  0.
</event>
<event>
 5    0  0.5742040E-005  0.2767828E+03  0.7546771E-02  0.1097459E+00
         21   -1    0    0  502  501  0.00000000000E+00  0.00000000000E+00  0.10210594914E+03  0.10210594914E+03  0.00000000000E+00 0.  1.
         21   -1    0    0  501  502 -0.00000000000E+00 -0.00000000000E+00 -0.75028658273E+03  0.75028658273E+03  0.00000000000E+00 0.  1.
         25    1    1    2    0    0  0.67779521175E+02  0.18107123797E+03 -0.27785520816E+03  0.36084535942E+03  0.12500000000E+03 0.  0.
         25    1    1    2    0    0 -0.63931664744E+02 -0.76572598904E+02 -0.19459846438E+03  0.25188128752E+03  0.12500000000E+03 0.  0.
         25    1    1    2    0    0 -0.38478564307E+01 -0.10449863907E+03 -0.17572696104E+03  0.23966588494E+03  0.12500000000E+03 0.  0.
</event>
<event>
 5    0  0.5742040E-005  0.2940494E+03  0.7546771E-02  0.1088254E+00
         21   -1    0    0  502  501  0.00000000000E+00  0.00000000000E+00  0.13358762254E+03  0.13358762254E+03  0.00000000000E+00 0. -1.
         21   -1    0    0  501  502 -0.00000000000E+00 -0.00000000000E+00 -0.64725329890E+03  0.64725329890E+03  0.00000000000E+00 0. -1.
         25    1    1    2    0    0 -0.65861287412E+02 -0.98658769006E+01 -0.38701154795E+02  0.14682582909E+03  0.12500000000E+03 0.  0.
         25    1    1    2    0    0  0.11441281742E+03  0.49594081854E+02 -0.45473375258E+02  0.18232578974E+03  0.12500000000E+03 0.  0.
         25    1    1    2    0    0 -0.48551530011E+02 -0.39728204954E+02 -0.42949114631E+03  0.45168930261E+03  0.12500000000E+03 0.  0.
</event>
<event>
 5    0  0.5742040E-005  0.5208272E+03  0.7546771E-02  0.1008481E+00
         21   -1    0    0  502  501  0.00000000000E+00  0.00000000000E+00  0.34869274225E+03  0.34869274225E+03  0.00000000000E+00 0.  1.
         21   -1    0    0  501  502 -0.00000000000E+00 -0.00000000000E+00 -0.77793691808E+03  0.77793691808E+03  0.00000000000E+00 0.  1.
         25    1    1    2    0    0 -0.74868803585E+02  0.10551966585E+03  0.18680605330E+03  0.25934771867E+03  0.12500000000E+03 0.  0.
         25    1    1    2    0    0  0.54487186594E+02  0.76743224943E+02  0.50764339879E+02  0.16450043854E+03  0.12500000000E+03 0.  0.
         25    1    1    2    0    0  0.20381616991E+02 -0.18226289080E+03 -0.66681456901E+03  0.70278150312E+03  0.12500000000E+03 0.  0.
</event>
<event>
 5    0  0.5742040E-005  0.2461947E+03  0.7546771E-02  0.1115734E+00
         21   -1    0    0  502  501  0.00000000000E+00  0.00000000000E+00  0.12431893525E+03  0.12431893525E+03  0.00000000000E+00 0. -1.
         21   -1    0    0  501  502 -0.00000000000E+00 -0.00000000000E+00 -0.48755113146E+03  0.48755113146E+03  0.00000000000E+00 0. -1.
         25    1    1    2    0    0 -0.10966634100E+02  0.42835833351E+02  0.74349535383E+01  0.13279854749E+03  0.12500000000E+03 0.  0.
         25    1    1    2    0    0  0.29749990101E+02  0.73856640202E+01 -0.29857279512E+03  0.32513124108E+03  0.12500000000E+03 0.  0.
         25    1    1    2    0    0 -0.18783356001E+02 -0.50221497372E+02 -0.72094354628E+02  0.15394027813E+03  0.12500000000E+03 0.  0.
</event>
<event>
 5    0  0.5742040E-005  0.3834165E+03  0.7546771E-02  0.1049678E+00
         21   -1    0    0  502  501  0.00000000000E+00  0.00000000000E+00  0.24238312713E+04  0.24238312713E+04  0.00000000000E+00 0. -1.
         21   -1    0    0  501  502 -0.00000000000E+00 -0.00000000000E+00 -0.60651188160E+02  0.60651188160E+02  0.00000000000E+00 0. -1.
         25    1    1    2    0    0  0.78191287853E+02 -0.20832004651E+03  0.64982259352E+03  0.69814434204E+03  0.12500000000E+03 0.  0.
         25    1    1    2    0    0 -0.10338578613E+03  0.12841837665E+03  0.29670760186E+03  0.36171853870E+03  0.12500000000E+03 0.  0.
         25    1    1    2    0    0  0.25194498282E+02  0.79901669856E+02  0.14166498878E+04  0.14246195788E+04  0.12500000000E+03 0.  0.
</event>
<event>
 5    0  0.5742040E-005  0.2710842E+03  0.7546771E-02  0.1100661E+00
         21   -1    0    0  502  501  0.00000000000E+00  0.00000000000E+00  0.13953345760E+03  0.13953345760E+03  0.00000000000E+00 0. -1.
         21   -1    0    0  501  502 -0.00000000000E+00 -0.00000000000E+00 -0.52665982528E+03  0.52665982528E+03  0.00000000000E+00 0. -1.
         25    1    1    2    0    0  0.12205841457E+02  0.44775086119E+02 -0.11194863576E+03  0.17410137263E+03  0.12500000000E+03 0.  0.
         25    1    1    2    0    0 -0.14004188956E+03 -0.59123010795E+01 -0.24169511415E+03  0.30608530566E+03  0.12500000000E+03 0.  0.
         25    1    1    2    0    0  0.12783604810E+03 -0.38862785040E+02 -0.33482617770E+02  0.18600660458E+03  0.12500000000E+03 0.  0.
</event>
<event>
 5    0  0.5742040E-005  0.3196187E+03  0.7546771E-02  0.1075825E+00
         21   -1    0    0  502  501  0.00000000000E+00  0.00000000000E+00  0.50952131118E+03  0.50952131118E+03  0.00000000000E+00 0. -1.
         21   -1    0    0  501  502 -0.00000000000E+00 -0.00000000000E+00 -0.20049426703E+03  0.20049426703E+03  0.00000000000E+00 0. -1.
         25    1    1    2    0    0  0.56502525116E+02  0.26069526323E+02  0.13750311084E+03  0.19597005138E+03  0.12500000000E+03 0.  0.
         25    1    1    2    0    0  0.24255832144E+02 -0.54303359868E+02 -0.12150027241E+03  0.18418609199E+03  0.12500000000E+03 0.  0.
         25    1    1    2    0    0 -0.80758357260E+02  0.28233833545E+02  0.29302420571E+03  0.32985943484E+03  0.12500000000E+03 0.  0.
</event>
<event>
 5    0  0.5974628E-005  0.5655583E+03  0.7546771E-02  0.9979556E-01
         21   -1    0    0  502  501  0.00000000000E+00  0.00000000000E+00  0.44161200758E+03  0.44161200758E+03  0.00000000000E+00 0. -1.
         21   -1    0    0  501  502 -0.00000000000E+00 -0.00000000000E+00 -0.72429226092E+03  0.72429226092E+03  0.00000000000E+00 0. -1.
         25    1    1    2    0    0 -0.17066728931E+03  0.13186355132E+03  0.26569263138E+03  0.36432525877E+03  0.12500000000E+03 0.  0.
         25    1    1    2    0    0  0.33281840818E+03 -0.10778733532E+03 -0.41012134752E+03  0.55336310156E+03  0.12500000000E+03 0.  0.
         25    1    1    2    0    0 -0.16215111887E+03 -0.24076216004E+02 -0.13825153720E+03  0.24821590816E+03  0.12500000000E+03 0.  0.
</event>
<event>
 5    0  0.5742040E-005  0.2901828E+03  0.7546771E-02  0.1090254E+00
         21   -1    0    0  502  501  0.00000000000E+00  0.00000000000E+00  0.63070901936E+02  0.63070901936E+02  0.00000000000E+00 0. -1.
         21   -1    0    0  501  502 -0.00000000000E+00 -0.00000000000E+00 -0.13351019701E+04  0.13351019701E+04  0.00000000000E+00 0. -1.
         25    1    1    2    0    0  0.13498220156E+02 -0.18876610174E+02 -0.11528016865E+03  0.17161889652E+03  0.12500000000E+03 0.  0.
         25    1    1    2    0    0  0.15616307061E+01  0.16866941759E+03 -0.66282222874E+03  0.69527700813E+03  0.12500000000E+03 0.  0.
         25    1    1    2    0    0 -0.15059850862E+02 -0.14979280742E+03 -0.49392867076E+03  0.53127696737E+03  0.12500000000E+03 0.  0.
</event>
<event>
 5    0  0.5742040E-005  0.3692095E+03  0.7546771E-02  0.1054996E+00
         21   -1    0    0  502  501  0.00000000000E+00  0.00000000000E+00  0.12143082679E+03  0.12143082679E+03  0.00000000000E+00 0. -1.
         21   -1    0    0  501  502 -0.00000000000E+00 -0.00000000000E+00 -0.11225787408E+04  0.11225787408E+04  0.00000000000E+00 0. -1.
         25    1    1    2    0    0 -0.29226907447E+02 -0.89924727189E+02 -0.20786721791E+03  0.26033526262E+03  0.12500000000E+03 0.  0.
         25    1    1    2    0    0 -0.19603768400E+03 -0.10818481378E+03 -0.36364710993E+03  0.44497072718E+03  0.12500000000E+03 0.  0.
         25    1    1    2    0    0  0.22526459145E+03  0.19810954097E+03 -0.42963358618E+03  0.53870357782E+03  0.12500000000E+03 0.  0.
</event>
<event>
 5    0  0.5742040E-005  0.2816840E+03  0.7546771E-02  0.1094773E+00
         21   -1    0    0  502  501  0.00000000000E+00  0.00000000000E+00  0.67518799389E+03  0.67518799389E+03  0.00000000000E+00 0. -1.
         21   -1    0    0  501  502 -0.00000000000E+00 -0.00000000000E+00 -0.11751667881E+03  0.11751667881E+03  0.00000000000E+00 0. -1.
         25    1    1    2    0    0  0.18017885640E+03  0.72122217346E+02  0.29323185546E+03  0.37319693941E+03  0.12500000000E+03 0.  0.
         25    1    1    2    0    0 -0.49903854514E+02 -0.37614834283E+02  0.90870391633E+02  0.16669642626E+03  0.12500000000E+03 0.  0.
         25    1    1    2    0    0 -0.13027500189E+03 -0.34507383063E+02  0.17356906798E+03  0.25281130703E+03  0.12500000000E+03 0.  0.
</event>
<event>
 5    0  0.5742040E-005  0.2544592E+03  0.7546771E-02  0.1110519E+00
         21   -1    0    0  502  501  0.00000000000E+00  0.00000000000E+00  0.73314890882E+03  0.73314890882E+03  0.00000000000E+00 0. -1.
         21   -1    0    0  501  502 -0.00000000000E+00 -0.00000000000E+00 -0.88316933110E+02  0.88316933110E+02  0.00000000000E+00 0. -1.
         25    1    1    2    0    0 -0.21833620446E+02 -0.29363689498E+02  0.16640152418E+03  0.21131351233E+03  0.12500000000E+03 0.  0.
         25    1    1    2    0    0 -0.38101948518E+02  0.39731862700E+02  0.28887351839E+02  0.13960608329E+03  0.12500000000E+03 0.  0.
         25    1    1    2    0    0  0.59935568964E+02 -0.10368173202E+02  0.44954309969E+03  0.47054624631E+03  0.12500000000E+03 0.  0.
</event>
<event>
 5    0  0.5742040E-005  0.2716400E+03  0.7546771E-02  0.1100345E+00
         21   -1    0    0  502  501  0.00000000000E+00  0.00000000000E+00  0.96954815638E+02  0.96954815638E+02  0.00000000000E+00 0. -1.
         21   -1    0    0  501  502 -0.00000000000E+00 -0.00000000000E+00 -0.76105846077E+03  0.76105846077E+03  0.00000000000E+00 0. -1.
         25    1    1    2    0    0 -0.69818408796E+01 -0.75357810055E+02 -0.25864340382E+03  0.29706725834E+03  0.12500000000E+03 0.  0.
         25    1    1    2    0    0 -0.77496539059E+02  0.15778098084E+03 -0.22865964891E+03  0.31434183069E+03  0.12500000000E+03 0.  0.
         25    1    1    2    0    0  0.84478379939E+02 -0.82423170788E+02 -0.17680059241E+03  0.24660418738E+03  0.12500000000E+03 0.  0.
</event>
<event>
 5    0  0.5742040E-005  0.3032087E+03  0.7546771E-02  0.1083648E+00
         21   -1    0    0  502  501  0.00000000000E+00  0.00000000000E+00  0.10150811760E+03  0.10150811760E+03  0.00000000000E+00 0. -1.
         21   -1    0    0  501  502 -0.00000000000E+00 -0.00000000000E+00 -0.90569638205E+03  0.90569638205E+03  0.00000000000E+00 0. -1.
         25    1    1    2    0    0 -0.12902862732E+00  0.10104189806E+03 -0.13559612733E+03  0.21028740228E+03  0.12500000000E+03 0.  0.
         25    1    1    2    0    0 -0.32774942914E+02 -0.13932690258E+03 -0.10435182985E+03  0.21679595720E+03  0.12500000000E+03 0.  0.
         25    1    1    2    0    0  0.32903971541E+02  0.38285004513E+02 -0.56424030728E+03  0.58012114017E+03  0.12500000000E+03 0.  0.
</event>
<event>
 5    0  0.5742040E-005  0.2382826E+03  0.7546771E-02  0.1120942E+00
         21   -1    0    0  502  501  0.00000000000E+00  0.00000000000E+00  0.24832285758E+03  0.24832285758E+03  0.00000000000E+00 0.  1.
         21   -1    0    0  501  502 -0.00000000000E+00 -0.00000000000E+00 -0.22864823702E+03  0.22864823702E+03  0.00000000000E+00 0.  1.
         25    1    1    2    0    0 -0.11864557299E+03  0.13690523466E+02 -0.20580240757E+02  0.17410556778E+03  0.12500000000E+03 0.  0.
         25    1    1    2    0    0  0.83736959981E+01  0.14282122882E+02  0.44721936599E+02  0.13378770284E+03  0.12500000000E+03 0.  0.
         25    1    1    2    0    0  0.11027187700E+03 -0.27972646348E+02 -0.44670752834E+01  0.16907782398E+03  0.12500000000E+03 0.  0.
</event>
<event>
 5    0  0.6508482E-005  0.2941300E+03  0.7546771E-02  0.1088212E+00
         21   -1    0    0  502  501  0.00000000000E+00  0.00000000000E+00  0.20978540864E+03  0.20978540864E+03  0.00000000000E+00 0. -1.
         21   -1    0    0  501  502 -0.00000000000E+00 -0.00000000000E+00 -0.41238554675E+03  0.41238554675E+03  0.00000000000E+00 0. -1.
         25    1    1    2    0    0 -0.70105397024E+01 -0.12994312667E+03 -0.22844654466E+02  0.18188249523E+03  0.12500000000E+03 0.  0.
         25    1    1    2    0    0  0.51671355931E+02 -0.47919943945E+02  0.15963528844E+02  0.14438173120E+03  0.12500000000E+03 0.  0.
         25    1    1    2    0    0 -0.44660816229E+02  0.17786307061E+03 -0.19571901249E+03  0.29590672896E+03  0.12500000000E+03 0.  0.
</event>
<event>
 5    0  0.5742040E-005  0.3785810E+03  0.7546771E-02  0.1051459E+00
         21   -1    0    0  502  501  0.00000000000E+00  0.00000000000E+00  0.30619811723E+03  0.30619811723E+03  0.00000000000E+00 0. -1.
         21   -1    0    0  501  502 -0.00000000000E+00 -0.00000000000E+00 -0.46807465010E+03  0.46807465010E+03  0.00000000000E+00 0. -1.
         25    1    1    2    0    0 -0.19625470196E+03 -0.71900868704E+02 -0.78218702572E+02  0.25579055572E+03  0.12500000000E+03 0.  0.
         25    1    1    2    0    0  0.28858178700E+03 -0.44348105703E+02 -0.53941615304E+02  0.32215043090E+03  0.12500000000E+03 0.  0.
         25    1    1    2    0    0 -0.92327085043E+02  0.11624897441E+03 -0.29716214991E+02  0.19633178071E+03  0.12500000000E+03 0.  0.
</event>
<event>
 5    0  0.6039122E-005  0.3349030E+03  0.7546771E-02  0.1068988E+00
         21   -1    0    0  502  501  0.00000000000E+00  0.00000000000E+00  0.28451768108E+03  0.28451768108E+03  0.00000000000E+00 0.  1.
         21   -1    0    0  501  502 -0.00000000000E+00 -0.00000000000E+00 -0.39421109446E+03  0.39421109446E+03  0.00000000000E+00 0.  1.
         25    1    1    2    0    0 -0.84771744934E+02 -0.73737333307E+02  0.11995987010E+03  0.20649167900E+03  0.12500000000E+03 0.  0.
         25    1    1    2    0    0  0.14295199943E+03 -0.79360368268E+02 -0.12938710332E+03  0.24310360898E+03  0.12500000000E+03 0.  0.
         25    1    1    2    0    0 -0.58180254500E+02  0.15309770158E+03 -0.10026618016E+03  0.22913348757E+03  0.12500000000E+03 0.  0.
</event>
<event>
 5    0  0.5742040E-005  0.3282448E+03  0.7546771E-02  0.1071916E+00
         21   -1    0    0  502  501  0.00000000000E+00  0.00000000000E+00  0.15075631016E+03  0.15075631016E+03  0.00000000000E+00 0.  1.
         21   -1    0    0  501  502 -0.00000000000E+00 -0.00000000000E+00 -0.71469396498E+03  0.71469396498E+03  0.00000000000E+00 0.  1.
         25    1    1    2    0    0  0.44584744071E+02 -0.25431570156E+02 -0.26641288334E+03  0.29872292944E+03  0.12500000000E+03 0.  0.
         25    1    1    2    0    0  0.17072836993E+03 -0.36147676677E+02 -0.19668961959E+03  0.29114710592E+03  0.12500000000E+03 0.  0.
         25    1    1    2    0    0 -0.21531311400E+03  0.61579246832E+02 -0.10083515188E+03  0.27558023978E+03  0.12500000000E+03 0.  0.
</event>
<event>
 5    0  0.5742040E-005  0.5246520E+03  0.7546771E-02  0.1007537E+00
         21   -1    0    0  502  501  0.00000000000E+00  0.00000000000E+00  0.88940910858E+03  0.88940910858E+03  0.00000000000E+00 0.  1.
         21   -1    0    0  501  502 -0.00000000000E+00 -0.00000000000E+00 -0.30948605824E+03  0.30948605824E+03  0.00000000000E+00 0.  1.
         25    1    1    2    0    0  0.20299731136E+03 -0.57546179220E+02 -0.21909836222E+03  0.32885948898E+03  0.12500000000E+03 0.  0.
         25    1    1    2    0    0 -0.11839242180E+03  0.83117655315E+02  0.44600425883E+03  0.48525262396E+03  0.12500000000E+03 0.  0.
         25    1    1    2    0    0 -0.84604889556E+02 -0.25571476095E+02  0.35301715374E+03  0.38478305389E+03  0.12500000000E+03 0.  0.
</event>
<event>
 5    0  0.5742040E-005  0.2527839E+03  0.7546771E-02  0.1111558E+00
         21   -1    0    0  502  501  0.00000000000E+00  0.00000000000E+00  0.25387624286E+03  0.25387624286E+03  0.00000000000E+00 0.  1.
         21   -1    0    0  501  502 -0.00000000000E+00 -0.00000000000E+00 -0.25169617038E+03  0.25169617038E+03  0.00000000000E+00 0.  1.
         25    1    1    2    0    0 -0.35679295016E+02  0.69925892064E+01 -0.60576516066E+02  0.14358420072E+03  0.12500000000E+03 0.  0.
         25    1    1    2    0    0 -0.93757737737E+02 -0.54703866184E+02  0.57275385690E-01  0.16555370622E+03  0.12500000000E+03 0.  0.
         25    1    1    2    0    0  0.12943703275E+03  0.47711276978E+02  0.62699313154E+02  0.19643450631E+03  0.12500000000E+03 0.  0.
</event>
<event>
 5    0  0.5742040E-005  0.2286346E+03  0.7546771E-02  0.1127604E+00
         21   -1    0    0  502  501  0.00000000000E+00  0.00000000000E+00  0.17516174425E+04  0.17516174425E+04  0.00000000000E+00 0. -1.
         21   -1    0    0  501  502 -0.00000000000E+00 -0.00000000000E+00 -0.29843151564E+02  0.29843151564E+02  0.00000000000E+00 0. -1.
         25    1    1    2    0    0  0.17391511098E+02  0.59593600125E+02  0.49328456897E+03  0.51264854220E+03  0.12500000000E+03 0.  0.
         25    1    1    2    0    0  0.80235476189E+02 -0.47172461523E+02  0.68571692528E+03  0.70320386402E+03  0.12500000000E+03 0.  0.
         25    1    1    2    0    0 -0.97626987286E+02 -0.12421138602E+02  0.54277279673E+03  0.56560818788E+03  0.12500000000E+03 0.  0.
</event>
<event>
 5    0  0.5742040E-005  0.5556492E+03  0.7546771E-02  0.1000195E+00
         21   -1    0    0  502  501  0.00000000000E+00  0.00000000000E+00  0.41234369176E+03  0.41234369176E+03  0.00000000000E+00 0. -1.
         21   -1    0    0  501  502 -0.00000000000E+00 -0.00000000000E+00 -0.74875891128E+03  0.74875891128E+03  0.00000000000E+00 0. -1.
         25    1    1    2    0    0 -0.16463193917E+02  0.38615439611E+03 -0.46647815287E+02  0.40888540333E+03  0.12500000000E+03 0.  0.
         25    1    1    2    0    0 -0.36519682588E+02  0.11026919695E+03 -0.12606037855E+03  0.21215372269E+03  0.12500000000E+03 0.  0.
         25    1    1    2    0    0  0.52982876505E+02 -0.49642359305E+03 -0.16370702569E+03  0.54006347701E+03  0.12500000000E+03 0.  0.
</event>
<event>
 5    0  0.5742040E-005  0.3526912E+03  0.7546771E-02  0.1061516E+00
         21   -1    0    0  502  501  0.00000000000E+00  0.00000000000E+00  0.12258948297E+03  0.12258948297E+03  0.00000000000E+00 0. -1.
         21   -1    0    0  501  502 -0.00000000000E+00 -0.00000000000E+00 -0.10146961940E+04  0.10146961940E+04  0.00000000000E+00 0. -1.
         25    1    1    2    0    0 -0.79015343472E+01 -0.95094968065E+02 -0.15765776962E+03  0.22268017316E+03  0.12500000000E+03 0.  0.
         25    1    1    2    0    0 -0.18388537017E+03  0.15300565841E+03 -0.21877405936E+03  0.34743582130E+03  0.12500000000E+03 0.  0.
         25    1    1    2    0    0  0.19178690452E+03 -0.57910690341E+02 -0.51567488205E+03  0.56716968253E+03  0.12500000000E+03 0.  0.
</event>
<event>
 5    0  0.5742040E-005  0.2751742E+03  0.7546771E-02  0.1098354E+00
         21   -1    0    0  502  501  0.00000000000E+00  0.00000000000E+00  0.20690725464E+04  0.20690725464E+04  0.00000000000E+00 0. -1.
         21   -1    0    0  501  502 -0.00000000000E+00 -0.00000000000E+00 -0.36596501854E+02  0.36596501854E+02  0.00000000000E+00 0. -1.
         25    1    1    2    0    0  0.12878188245E+03 -0.83182965755E+02  0.12656585677E+04  0.12810233366E+04  0.12500000000E+03 0.  0.
         25    1    1    2    0    0 -0.22458439008E+02  0.26551274873E+02  0.32329516115E+03  0.34835917227E+03  0.12500000000E+03 0.  0.
         25    1    1    2    0    0 -0.10632344344E+03  0.56631690882E+02  0.44352231574E+03  0.47628653938E+03  0.12500000000E+03 0.  0.
</event>
<event>
 5    0  0.6605006E-005  0.2705050E+03  0.7546771E-02  0.1100991E+00
         21   -1    0    0  502  501  0.00000000000E+00  0.00000000000E+00  0.17499838526E+03  0.17499838526E+03  0.00000000000E+00 0. -1.
         21   -1    0    0  501  502 -0.00000000000E+00 -0.00000000000E+00 -0.41813516299E+03  0.41813516299E+03  0.00000000000E+00 0. -1.
         25    1    1    2    0    0  0.16936489773E+02  0.92337763447E+02 -0.25499790131E+02  0.15839301292E+03  0.12500000000E+03 0.  0.
         25    1    1    2    0    0  0.28350032399E+02  0.82111473254E+02 -0.55657911996E+02  0.16207659160E+03  0.12500000000E+03 0.  0.
         25    1    1    2    0    0 -0.45286522172E+02 -0.17444923670E+03 -0.16197907560E+03  0.27266394373E+03  0.12500000000E+03 0.  0.
</event>
<event>
 5    0  0.5997366E-005  0.3133140E+03  0.7546771E-02  0.1078768E+00
         21   -1    0    0  502  501  0.00000000000E+00  0.00000000000E+00  0.11450994990E+04  0.11450994990E+04  0.00000000000E+00 0.  1.
         21   -1    0    0  501  502 -0.00000000000E+00 -0.00000000000E+00 -0.85726779165E+02  0.85726779165E+02  0.00000000000E+00 0.  1.
         25    1    1    2    0    0  0.32162527168E+02 -0.77618234726E+02  0.54501496822E+03  0.56544260018E+03  0.12500000000E+03 0.  0.
         25    1    1    2    0    0 -0.62238334303E+02 -0.11667156816E+03  0.16604157090E+03  0.24633446437E+03  0.12500000000E+03 0.  0.
         25    1    1    2    0    0  0.30075807135E+02  0.19428980288E+03  0.34831618075E+03  0.41904921364E+03  0.12500000000E+03 0.  0.
</event>
<event>
 5    0  0.5742040E-005  0.3763695E+03  0.7546771E-02  0.1052284E+00
         21   -1    0    0  502  501  0.00000000000E+00  0.00000000000E+00  0.86030778299E+03  0.86030778299E+03  0.00000000000E+00 0.  1.
         21   -1    0    0  501  502 -0.00000000000E+00 -0.00000000000E+00 -0.16465502255E+03  0.16465502255E+03  0.00000000000E+00 0.  1.
         25    1    1    2    0    0 -0.24370245467E+03  0.14638198729E+03  0.14675304428E+03  0.34348221005E+03  0.12500000000E+03 0.  0.
         25    1    1    2    0    0  0.20149952264E+03 -0.12253703119E+03  0.40259416912E+03  0.48303669286E+03  0.12500000000E+03 0.  0.
         25    1    1    2    0    0  0.42202932026E+02 -0.23844956099E+02  0.14630554703E+03  0.19844390264E+03  0.12500000000E+03 0.  0.
</event>
<event>
 5    0  0.5742040E-005  0.3775515E+03  0.7546771E-02  0.1051842E+00
         21   -1    0    0  502  501  0.00000000000E+00  0.00000000000E+00  0.46584200435E+03  0.46584200435E+03  0.00000000000E+00 0. -1.
         21   -1    0    0  501  502 -0.00000000000E+00 -0.00000000000E+00 -0.30599462753E+03  0.30599462753E+03  0.00000000000E+00 0. -1.
         25    1    1    2    0    0  0.13843419441E+03 -0.27687047425E+01  0.30136095282E+03  0.35442222813E+03  0.12500000000E+03 0.  0.
         25    1    1    2    0    0  0.23807608654E+01  0.55986310344E+02 -0.17146626493E+03  0.21946711594E+03  0.12500000000E+03 0.  0.
         25    1    1    2    0    0 -0.14081495528E+03 -0.53217605601E+02  0.29952688927E+02  0.19794728781E+03  0.12500000000E+03 0.  0.
</event>
<event>
 5    0  0.5742040E-005  0.2340629E+03  0.7546771E-02  0.1123812E+00
         21   -1    0    0  502  501  0.00000000000E+00  0.00000000000E+00  0.96974921907E+03  0.96974921907E+03  0.00000000000E+00 0. -1.
         21   -1    0    0  501  502 -0.00000000000E+00 -0.00000000000E+00 -0.56494418379E+02  0.56494418379E+02  0.00000000000E+00 0. -1.
         25    1    1    2    0    0  0.67312195009E+02  0.40121226657E+01  0.12007085110E+03  0.18598128403E+03  0.12500000000E+03 0.  0.
         25    1    1    2    0    0 -0.47066203252E+02 -0.37743420959E+00  0.26079622311E+03  0.29301030687E+03  0.12500000000E+03 0.  0.
         25    1    1    2    0    0 -0.20245991757E+02 -0.36346884561E+01  0.53238772648E+03  0.54725204655E+03  0.12500000000E+03 0.  0.
</event>
<event>
 5    0  0.5742040E-005  0.3527012E+03  0.7546771E-02  0.1061512E+00
         21   -1    0    0  502  501  0.00000000000E+00  0.00000000000E+00  0.81532194691E+03  0.81532194691E+03  0.00000000000E+00 0. -1.
         21   -1    0    0  501  502 -0.00000000000E+00 -0.00000000000E+00 -0.15257546102E+03  0.15257546102E+03  0.00000000000E+00 0. -1.
         25    1    1    2    0    0  0.16409810571E+03  0.15239931734E+03  0.31751037330E+03  0.40815631488E+03  0.12500000000E+03 0.  0.
         25    1    1    2    0    0 -0.71914481053E+02  0.76297090583E+02  0.14647086097E+03  0.21925248398E+03  0.12500000000E+03 0.  0.
         25    1    1    2    0    0 -0.92183624656E+02 -0.22869640793E+03  0.19876525162E+03  0.34048860907E+03  0.12500000000E+03 0.  0.
</event>
<event>
 5    0  0.5742040E-005  0.3736262E+03  0.7546771E-02  0.1053315E+00
         21   -1    0    0  502  501  0.00000000000E+00  0.00000000000E+00  0.10843364674E+04  0.10843364674E+04  0.00000000000E+00 0. -1.
         21   -1    0    0  501  502 -0.00000000000E+00 -0.00000000000E+00 -0.12873911297E+03  0.12873911297E+03  0.00000000000E+00 0. -1.
         25    1    1    2    0    0 -0.16694701758E+02  0.25815124379E+02  0.44340904021E+02  0.13614789562E+03  0.12500000000E+03 0.  0.
         25    1    1    2    0    0  0.37443417165E+02 -0.28996528790E+02 -0.21682701379E+02  0.13541767872E+03  0.12500000000E+03 0.  0.
         25    1    1    2    0    0 -0.20748715407E+02  0.31814044112E+01  0.93293915176E+03  0.94151000601E+03  0.12500000000E+03 0.  0.
</event>
<event>
 5    0  0.8251806E-005  0.3925341E+03  0.7546771E-02  0.1046396E+00
         21   -1    0    0  502  501  0.00000000000E+00  0.00000000000E+00  0.41712607174E+03  0.41712607174E+03  0.00000000000E+00 0. -1.
         21   -1    0    0  501  502 -0.00000000000E+00 -0.00000000000E+00 -0.36939197827E+03  0.36939197827E+03  0.00000000000E+00 0. -1.
         25    1    1    2    0    0  0.65884048933E+02 -0.32743069254E+01 -0.15385306621E+03  0.20891911107E+03  0.12500000000E+03 0.  0.
         25    1    1    2    0    0 -0.17320849359E+03 -0.19089726010E+03  0.99817042296E+02  0.30336675510E+03  0.12500000000E+03 0.  0.
         25    1    1    2    0    0  0.10732444466E+03  0.19417156702E+03  0.10177011738E+03  0.27423218384E+03  0.12500000000E+03 0.  0.
</event>
<event>
 5    0  0.5742040E-005  0.3564128E+03  0.7546771E-02  0.1060013E+00
         21   -1    0    0  502  501  0.00000000000E+00  0.00000000000E+00  0.13594484723E+04  0.13594484723E+04  0.00000000000E+00 0. -1.
         21   -1    0    0  501  502 -0.00000000000E+00 -0.00000000000E+00 -0.93442388122E+02  0.93442388122E+02  0.00000000000E+00 0. -1.
         25    1    1    2    0    0 -0.16062691300E+03  0.61919224724E+02  0.82027354976E+03  0.84741294066E+03  0.12500000000E+03 0.  0.
         25    1    1    2    0    0  0.10318060177E+03 -0.15134513584E+03  0.15143593715E+03  0.26853199024E+03  0.12500000000E+03 0.  0.
         25    1    1    2    0    0  0.57446311224E+02  0.89425911112E+02  0.29429659724E+03  0.33694592949E+03  0.12500000000E+03 0.  0.
</event>
<event>
 5    0  0.5742040E-005  0.3601331E+03  0.7546771E-02  0.1058531E+00
         21   -1    0    0  502  501  0.00000000000E+00  0.00000000000E+00  0.40963318952E+03  0.40963318952E+03  0.00000000000E+00 0.  1.
         21   -1    0    0  501  502 -0.00000000000E+00 -0.00000000000E+00 -0.31661464119E+03  0.31661464119E+03  0.00000000000E+00 0.  1.
         25    1    1    2    0    0  0.11172079452E+03  0.17337284654E+01  0.20310644630E+03  0.26336622842E+03  0.12500000000E+03 0.  0.
         25    1    1    2    0    0 -0.16480013955E+03  0.14085061308E+03 -0.85477919753E+02  0.26444178181E+03  0.12500000000E+03 0.  0.
         25    1    1    2    0    0  0.53079345035E+02 -0.14258434155E+03 -0.24609978224E+02  0.19843982048E+03  0.12500000000E+03 0.  0.
</event>
<event>
 5    0  0.7859521E-005  0.4747605E+03  0.7546771E-02  0.1020585E+00
         21   -1    0    0  502  501  0.00000000000E+00  0.00000000000E+00  0.72570712204E+03  0.72570712204E+03  0.00000000000E+00 0. -1.
         21   -1    0    0  501  502 -0.00000000000E+00 -0.00000000000E+00 -0.31059015307E+03  0.31059015307E+03  0.00000000000E+00 0. -1.
         25    1    1    2    0    0  0.11275722152E+03 -0.75331967138E+02  0.25728328787E+03  0.31655771432E+03  0.12500000000E+03 0.  0.
         25    1    1    2    0    0  0.34526974841E+00 -0.23287093550E+03 -0.10147300383E+03  0.28310909967E+03  0.12500000000E+03 0.  0.
         25    1    1    2    0    0 -0.11310249127E+03  0.30820290264E+03  0.25930668494E+03  0.43663046112E+03  0.12500000000E+03 0.  0.
</event>
<event>
 5    0  0.5742040E-005  0.2367748E+03  0.7546771E-02  0.1121960E+00
         21   -1    0    0  502  501  0.00000000000E+00  0.00000000000E+00  0.18751014319E+02  0.18751014319E+02  0.00000000000E+00 0.  1.
         21   -1    0    0  501  502 -0.00000000000E+00 -0.00000000000E+00 -0.29898271939E+04  0.29898271939E+04  0.00000000000E+00 0.  1.
         25    1    1    2    0    0 -0.14668872510E+02  0.80483658395E+02 -0.10366629865E+04  0.10473719218E+04  0.12500000000E+03 0.  0.
         25    1    1    2    0    0 -0.48440559263E+00 -0.87394101524E+02 -0.54071513331E+03  0.56181475508E+03  0.12500000000E+03 0.  0.
         25    1    1    2    0    0  0.15153278102E+02  0.69104431289E+01 -0.13936980598E+04  0.13993915314E+04  0.12500000000E+03 0.  0.
</event>
<event>
 5    0  0.5742040E-005  0.2605690E+03  0.7546771E-02  0.1106802E+00
         21   -1    0    0  502  501  0.00000000000E+00  0.00000000000E+00  0.96739000084E+02  0.96739000084E+02  0.00000000000E+00 0. -1.
         21   -1    0    0  501  502 -0.00000000000E+00 -0.00000000000E+00 -0.70184933161E+03  0.70184933161E+03  0.00000000000E+00 0. -1.
         25    1    1    2    0    0  0.15384994752E+02  0.20590734929E+02 -0.89359485560E+01  0.12792782186E+03  0.12500000000E+03 0.  0.
         25    1    1    2    0    0  0.42226626512E+02 -0.76944847568E+02 -0.36630367237E+03  0.39687148795E+03  0.12500000000E+03 0.  0.
         25    1    1    2    0    0 -0.57611621264E+02  0.56354112639E+02 -0.22987071060E+03  0.27378902189E+03  0.12500000000E+03 0.  0.
</event>
<event>
 5    0  0.5742040E-005  0.2660549E+03  0.7546771E-02  0.1103559E+00
         21   -1    0    0  502  501  0.00000000000E+00  0.00000000000E+00  0.79806666801E+02  0.79806666801E+02  0.00000000000E+00 0. -1.
         21   -1    0    0  501  502 -0.00000000000E+00 -0.00000000000E+00 -0.88695868568E+03  0.88695868568E+03  0.00000000000E+00 0. -1.
         25    1    1    2    0    0  0.32645659647E+02 -0.13020992961E+01 -0.21079508719E+03  0.24723875776E+03  0.12500000000E+03 0.  0.
         25    1    1    2    0    0 -0.11445116865E+03  0.12327371660E+03 -0.30049497448E+03  0.36635735137E+03  0.12500000000E+03 0.  0.
         25    1    1    2    0    0  0.81805509006E+02 -0.12197161730E+03 -0.29586195721E+03  0.35316924336E+03  0.12500000000E+03 0.  0.
</event>
<event>
 5    0  0.6593298E-005  0.3130818E+03  0.7546771E-02  0.1078878E+00
         21   -1    0    0  502  501  0.00000000000E+00  0.00000000000E+00  0.31750886724E+03  0.31750886724E+03  0.00000000000E+00 0.  1.
         21   -1    0    0  501  502 -0.00000000000E+00 -0.00000000000E+00 -0.30871654768E+03  0.30871654768E+03  0.00000000000E+00 0.  1.
         25    1    1    2    0    0 -0.24566139002E+02  0.13737155503E+03  0.11626180414E+03  0.22049092140E+03  0.12500000000E+03 0.  0.
         25    1    1    2    0    0 -0.73780076739E+02 -0.21156900524E+02 -0.14381675802E+03  0.20542486230E+03  0.12500000000E+03 0.  0.
         25    1    1    2    0    0  0.98346215742E+02 -0.11621465451E+03  0.36347273441E+02  0.20030963122E+03  0.12500000000E+03 0.  0.
</event>
<event>
 5    0  0.5742040E-005  0.2756656E+03  0.7546771E-02  0.1098080E+00
         21   -1    0    0  502  501  0.00000000000E+00  0.00000000000E+00  0.13066402043E+03  0.13066402043E+03  0.00000000000E+00 0. -1.
         21   -1    0    0  501  502 -0.00000000000E+00 -0.00000000000E+00 -0.58157935313E+03  0.58157935313E+03  0.00000000000E+00 0. -1.
         25    1    1    2    0    0 -0.75682106435E+02  0.15258320842E+02 -0.18209832845E+03  0.23397734679E+03  0.12500000000E+03 0.  0.
         25    1    1    2    0    0  0.19023639560E+02 -0.21232234947E+01 -0.30965109700E+03  0.33447751616E+03  0.12500000000E+03 0.  0.
         25    1    1    2    0    0  0.56658466876E+02 -0.13135097347E+02  0.40834092752E+02  0.14378851060E+03  0.12500000000E+03 0.  0.
</event>
<event>
 5    0  0.5742040E-005  0.3773203E+03  0.7546771E-02  0.1051929E+00
         21   -1    0    0  502  501  0.00000000000E+00  0.00000000000E+00  0.15851457500E+03  0.15851457500E+03  0.00000000000E+00 0.  1.
         21   -1    0    0  501  502 -0.00000000000E+00 -0.00000000000E+00 -0.89815471525E+03  0.89815471525E+03  0.00000000000E+00 0.  1.
         25    1    1    2    0    0  0.96762035970E+02 -0.29873146120E+03 -0.37810580775E+03  0.50714138006E+03  0.12500000000E+03 0.  0.
         25    1    1    2    0    0 -0.42986388258E+02  0.15527733150E+03 -0.24962001036E+03  0.32232596672E+03  0.12500000000E+03 0.  0.
         25    1    1    2    0    0 -0.53775647712E+02  0.14345412970E+03 -0.11191432214E+03  0.22720194347E+03  0.12500000000E+03 0.  0.
</event>
<event>
 5    0  0.5742040E-005  0.2880428E+03  0.7546771E-02  0.1091375E+00
         21   -1    0    0  502  501  0.00000000000E+00  0.00000000000E+00  0.34865859873E+02  0.34865859873E+02  0.00000000000E+00 0.  1.
         21   -1    0    0  501  502 -0.00000000000E+00 -0.00000000000E+00 -0.23796530275E+04  0.23796530275E+04  0.00000000000E+00 0.  1.
         25    1    1    2    0    0 -0.13585259300E+03 -0.21519496556E+02 -0.12820349586E+04  0.12954372431E+04  0.12500000000E+03 0.  0.
         25    1    1    2    0    0  0.83880373278E+02 -0.53856996324E+02 -0.78423472854E+03  0.80036591789E+03  0.12500000000E+03 0.  0.
         25    1    1    2    0    0  0.51972219718E+02  0.75376492880E+02 -0.27851748049E+03  0.31871572637E+03  0.12500000000E+03 0.  0.
</event>
<event>
 5    0  0.5742040E-005  0.3601166E+03  0.7546771E-02  0.1058538E+00
         21   -1    0    0  502  501  0.00000000000E+00  0.00000000000E+00  0.15367048395E+03  0.15367048395E+03  0.00000000000E+00 0. -1.
         21   -1    0    0  501  502 -0.00000000000E+00 -0.00000000000E+00 -0.84390949730E+03  0.84390949730E+03  0.00000000000E+00 0. -1.
         25    1    1    2    0    0 -0.36346458890E+02  0.84217854721E+02 -0.49450293559E+03  0.51823919713E+03  0.12500000000E+03 0.  0.
         25    1    1    2    0    0 -0.58671673054E+02 -0.10805840484E+03 -0.25530989126E+03  0.30972104328E+03  0.12500000000E+03 0.  0.
         25    1    1    2    0    0  0.95018131944E+02  0.23840550115E+02  0.59573813510E+02  0.16961974084E+03  0.12500000000E+03 0.  0.
</event>
<event>
 5    0  0.5742040E-005  0.2713075E+03  0.7546771E-02  0.1100534E+00
         21   -1    0    0  502  501  0.00000000000E+00  0.00000000000E+00  0.42286611859E+02  0.42286611859E+02  0.00000000000E+00 0. -1.
         21   -1    0    0  501  502 -0.00000000000E+00 -0.00000000000E+00 -0.17406870364E+04  0.17406870364E+04  0.00000000000E+00 0. -1.
         25    1    1    2    0    0  0.11460834971E+03  0.94574156767E+02 -0.60919776749E+03  0.63939523369E+03  0.12500000000E+03 0.  0.
         25    1    1    2    0    0  0.26126708632E+02  0.18219234007E+02 -0.40597853398E+03  0.42597900822E+03  0.12500000000E+03 0.  0.
         25    1    1    2    0    0 -0.14073505834E+03 -0.11279339077E+03 -0.68322412307E+03  0.71759940635E+03  0.12500000000E+03 0.  0.
</event>
<event>
 5    0  0.5742040E-005  0.2746719E+03  0.7546771E-02  0.1098635E+00
         21   -1    0    0  502  501  0.00000000000E+00  0.00000000000E+00  0.23141131192E+03  0.23141131192E+03  0.00000000000E+00 0. -1.
         21   -1    0    0  501  502 -0.00000000000E+00 -0.00000000000E+00 -0.32601961642E+03  0.32601961642E+03  0.00000000000E+00 0. -1.
         25    1    1    2    0    0  0.29035945644E+02 -0.50925241072E+02 -0.60820461472E+02  0.15086614879E+03  0.12500000000E+03 0.  0.
         25    1    1    2    0    0  0.99789921973E+02  0.56741200946E+02 -0.11949945004E+03  0.20756375158E+03  0.12500000000E+03 0.  0.
         25    1    1    2    0    0 -0.12882586762E+03 -0.58159598745E+01  0.85711607011E+02  0.19900102797E+03  0.12500000000E+03 0.  0.
</event>
<event>
 5    0  0.5742040E-005  0.2267250E+03  0.7546771E-02  0.1128966E+00
         21   -1    0    0  502  501  0.00000000000E+00  0.00000000000E+00  0.22911611632E+02  0.22911611632E+02  0.00000000000E+00 0.  1.
         21   -1    0    0  501  502 -0.00000000000E+00 -0.00000000000E+00 -0.22435891498E+04  0.22435891498E+04  0.00000000000E+00 0.  1.
         25    1    1    2    0    0 -0.21995137771E+02 -0.36654371403E+02 -0.45738502667E+03  0.47608128681E+03  0.12500000000E+03 0.  0.
         25    1    1    2    0    0  0.68016814088E+00  0.10250718170E+03 -0.11079420420E+04  0.11196735030E+04  0.12500000000E+03 0.  0.
         25    1    1    2    0    0  0.21314969630E+02 -0.65852810293E+02 -0.65535046948E+03  0.67074597159E+03  0.12500000000E+03 0.  0.
</event>
<event>
 5    0  0.5742040E-005  0.3377102E+03  0.7546771E-02  0.1067775E+00
         21   -1    0    0  502  501  0.00000000000E+00  0.00000000000E+00  0.12149277253E+03  0.12149277253E+03  0.00000000000E+00 0.  1.
         21   -1    0    0  501  502 -0.00000000000E+00 -0.00000000000E+00 -0.93872372139E+03  0.93872372139E+03  0.00000000000E+00 0.  1.
         25    1    1    2    0    0  0.11590084361E+03  0.33858070835E+02 -0.89948409376E+02  0.19569131524E+03  0.12500000000E+03 0.  0.
         25    1    1    2    0    0 -0.23757199401E+03 -0.38386770777E+02 -0.56279672124E+03  0.62472325549E+03  0.12500000000E+03 0.  0.
         25    1    1    2    0    0  0.12167115040E+03  0.45286999422E+01 -0.16448581824E+03  0.23980192319E+03  0.12500000000E+03 0.  0.
</event>
<event>
 5    0  0.5742040E-005  0.4648847E+03  0.7546771E-02  0.1023374E+00
         21   -1    0    0  502  501  0.00000000000E+00  0.00000000000E+00  0.47190559657E+03  0.47190559657E+03  0.00000000000E+00 0.  1.
         21   -1    0    0  501  502 -0.00000000000E+00 -0.00000000000E+00 -0.45796822018E+03  0.45796822018E+03  0.00000000000E+00 0.  1.
         25    1    1    2    0    0 -0.25352772718E+03  0.20794454683E+03  0.11812254848E+03  0.37026366209E+03  0.12500000000E+03 0.  0.
         25    1    1    2    0    0  0.13376316180E+03 -0.25695274300E+03  0.53940785807E+02  0.32008108967E+03  0.12500000000E+03 0.  0.
         25    1    1    2    0    0  0.11976456538E+03  0.49008196178E+02 -0.15812595790E+03  0.23952906499E+03  0.12500000000E+03 0.  0.
</event>
<event>
 5    0  0.6396369E-005  0.2556572E+03  0.7546771E-02  0.1109781E+00
         21   -1    0    0  502  501  0.00000000000E+00  0.00000000000E+00  0.43608351503E+03  0.43608351503E+03  0.00000000000E+00 0.  1.
         21   -1    0    0  501  502 -0.00000000000E+00 -0.00000000000E+00 -0.14988092478E+03  0.14988092478E+03  0.00000000000E+00 0.  1.
         25    1    1    2    0    0  0.14804073133E+03  0.30888885330E+01  0.36638674605E+02  0.19721306204E+03  0.12500000000E+03 0.  0.
         25    1    1    2    0    0 -0.57041614775E+02 -0.24239589124E+02  0.14296587751E+03  0.19976372451E+03  0.12500000000E+03 0.  0.
         25    1    1    2    0    0 -0.90999116551E+02  0.21150700591E+02  0.10659803813E+03  0.18898765325E+03  0.12500000000E+03 0.  0.
</event>
<event>
 5    0  0.5742040E-005  0.3534024E+03  0.7546771E-02  0.1061227E+00
         21   -1    0    0  502  501  0.00000000000E+00  0.00000000000E+00  0.14121747976E+03  0.14121747976E+03  0.00000000000E+00 0. -1.
         21   -1    0    0  501  502 -0.00000000000E+00 -0.00000000000E+00 -0.88440345055E+03  0.88440345055E+03  0.00000000000E+00 0. -1.
         25    1    1    2    0    0 -0.11112475912E+03 -0.94072204310E+02  0.18184812727E+02  0.19275367474E+03  0.12500000000E+03 0.  0.
         25    1    1    2    0    0  0.66502685061E+02 -0.31507529048E+02 -0.43863753309E+03  0.46199915254E+03  0.12500000000E+03 0.  0.
         25    1    1    2    0    0  0.44622074056E+02  0.12557973336E+03 -0.32273325042E+03  0.37086810304E+03  0.12500000000E+03 0.  0.
</event>
<event>
 5    0  0.5742040E-005  0.2740514E+03  0.7546771E-02  0.1098983E+00
         21   -1    0    0  502  501  0.00000000000E+00  0.00000000000E+00  0.63407009941E+03  0.63407009941E+03  0.00000000000E+00 0.  1.
         21   -1    0    0  501  502 -0.00000000000E+00 -0.00000000000E+00 -0.11844772488E+03  0.11844772488E+03  0.00000000000E+00 0.  1.
         25    1    1    2    0    0 -0.23848670886E+02 -0.89319335611E+02  0.45129457841E+02  0.16188999593E+03  0.12500000000E+03 0.  0.
         25    1    1    2    0    0  0.60810739167E+02 -0.55205971841E+02  0.28450635556E+03  0.32142574831E+03  0.12500000000E+03 0.  0.
         25    1    1    2    0    0 -0.36962068281E+02  0.14452530745E+03  0.18598656113E+03  0.26920208006E+03  0.12500000000E+03 0.  0.
</event>
<event>
 5    0  0.6305616E-005  0.2708544E+03  0.7546771E-02  0.1100792E+00
         21   -1    0    0  502  501  0.00000000000E+00  0.00000000000E+00  0.37629891720E+03  0.37629891720E+03  0.00000000000E+00 0. -1.
         21   -1    0    0  501  502 -0.00000000000E+00 -0.00000000000E+00 -0.19495698402E+03  0.19495698402E+03  0.00000000000E+00 0. -1.
         25    1    1    2    0    0 -0.88003023059E+00 -0.37416214182E+02  0.11259176507E+02  0.13096761658E+03  0.12500000000E+03 0.  0.
         25    1    1    2    0    0 -0.14683714341E+03  0.77308636921E+02  0.73565287684E+02  0.22039651444E+03  0.12500000000E+03 0.  0.
         25    1    1    2    0    0  0.14771717364E+03 -0.39892422739E+02  0.96517468993E+02  0.21989177020E+03  0.12500000000E+03 0.  0.
</event>
<event>
 5    0  0.5742040E-005  0.3359160E+03  0.7546771E-02  0.1068549E+00
         21   -1    0    0  502  501  0.00000000000E+00  0.00000000000E+00  0.91994767823E+03  0.91994767823E+03  0.00000000000E+00 0.  1.
         21   -1    0    0  501  502 -0.00000000000E+00 -0.00000000000E+00 -0.12265865283E+03  0.12265865283E+03  0.00000000000E+00 0.  1.
         25    1    1    2    0    0 -0.10080667504E+03 -0.17746797852E+02  0.32609117861E+03  0.36391948468E+03  0.12500000000E+03 0.  0.
         25    1    1    2    0    0  0.12984635759E+02  0.24763802246E+01  0.50590337353E+03  0.52128490921E+03  0.12500000000E+03 0.  0.
         25    1    1    2    0    0  0.87822039284E+02  0.15270417628E+02 -0.34705526732E+02  0.15740193717E+03  0.12500000000E+03 0.  0.
</event>
<event>
 5    0  0.5742040E-005  0.2100838E+03  0.7546771E-02  0.1141500E+00
         21   -1    0    0  502  501  0.00000000000E+00  0.00000000000E+00  0.62568670185E+03  0.62568670185E+03  0.00000000000E+00 0.  1.
         21   -1    0    0  501  502 -0.00000000000E+00 -0.00000000000E+00 -0.70538841096E+02  0.70538841096E+02  0.00000000000E+00 0.  1.
         25    1    1    2    0    0  0.13045522396E+02  0.34258547841E+02  0.27337689830E+03  0.30282629060E+03  0.12500000000E+03 0.  0.
         25    1    1    2    0    0 -0.54763765938E+01 -0.71062063876E+02  0.15344775209E+03  0.21035926470E+03  0.12500000000E+03 0.  0.
         25    1    1    2    0    0 -0.75691458020E+01  0.36803516035E+02  0.12832321038E+03  0.18303998766E+03  0.12500000000E+03 0.  0.
</event>
<event>
 5    0  0.5742040E-005  0.4490922E+03  0.7546771E-02  0.1027993E+00
         21   -1    0    0  502  501  0.00000000000E+00  0.00000000000E+00  0.19053971369E+03  0.19053971369E+03  0.00000000000E+00 0. -1.
         21   -1    0    0  501  502 -0.00000000000E+00 -0.00000000000E+00 -0.10584869503E+04  0.10584869503E+04  0.00000000000E+00 0. -1.
         25    1    1    2    0    0  0.49967643304E+02 -0.20015186347E+03 -0.63016495117E+03  0.67475210226E+03  0.12500000000E+03 0.  0.
         25    1    1    2    0    0 -0.17063642935E+03  0.26297046319E+03 -0.14157039867E+03  0.36597463480E+03  0.12500000000E+03 0.  0.
         25    1    1    2    0    0  0.12066878605E+03 -0.62818599723E+02 -0.96211886762E+02  0.20829992691E+03  0.12500000000E+03 0.  0.
</event>
<event>
 5    0  0.6478807E-005  0.2689761E+03  0.7546771E-02  0.1101867E+00
         21   -1    0    0  502  501  0.00000000000E+00  0.00000000000E+00  0.18320404016E+03  0.18320404016E+03  0.00000000000E+00 0.  1.
         21   -1    0    0  501  502 -0.00000000000E+00 -0.00000000000E+00 -0.39490479884E+03  0.39490479884E+03  0.00000000000E+00 0.  1.
         25    1    1    2    0    0 -0.10030120807E+03 -0.19383342654E+02  0.19228629529E+02  0.16257547941E+03  0.12500000000E+03 0.  0.
         25    1    1    2    0    0  0.15186551378E+03  0.12548307790E+02 -0.79819571738E+02  0.21264232489E+03  0.12500000000E+03 0.  0.
         25    1    1    2    0    0 -0.51564305711E+02  0.68350348639E+01 -0.15110981647E+03  0.20289103469E+03  0.12500000000E+03 0.  0.
</event>
<event>
 5    0  0.5742040E-005  0.2027442E+03  0.7546771E-02  0.1147444E+00
         21   -1    0    0  502  501  0.00000000000E+00  0.00000000000E+00  0.11743364476E+04  0.11743364476E+04  0.00000000000E+00 0. -1.
         21   -1    0    0  501  502 -0.00000000000E+00 -0.00000000000E+00 -0.35002917880E+02  0.35002917880E+02  0.00000000000E+00 0. -1.
         25    1    1    2    0    0  0.56059382204E+00  0.19904794773E+02  0.26132540388E+03  0.29036611688E+03  0.12500000000E+03 0.  0.
         25    1    1    2    0    0 -0.20263086913E+02  0.37330142589E+02  0.45327224417E+03  0.47210683067E+03  0.12500000000E+03 0.  0.
         25    1    1    2    0    0  0.19702493091E+02 -0.57234937363E+02  0.42473588170E+03  0.44686641795E+03  0.12500000000E+03 0.  0.
</event>
<event>
 5    0  0.5742040E-005  0.4159187E+03  0.7546771E-02  0.1038403E+00
         21   -1    0    0  502  501  0.00000000000E+00  0.00000000000E+00  0.83123761504E+03  0.83123761504E+03  0.00000000000E+00 0.  1.
         21   -1    0    0  501  502 -0.00000000000E+00 -0.00000000000E+00 -0.20810939783E+03  0.20810939783E+03  0.00000000000E+00 0.  1.
         25    1    1    2    0    0  0.11701830648E+03 -0.73517568803E+02  0.36760403411E+03  0.41213570929E+03  0.12500000000E+03 0.  0.
         25    1    1    2    0    0 -0.29693196734E+03 -0.28964867731E+02  0.19569822672E+03  0.37806130816E+03  0.12500000000E+03 0.  0.
         25    1    1    2    0    0  0.17991366086E+03  0.10248243653E+03  0.59825956379E+02  0.24914999542E+03  0.12500000000E+03 0.  0.
</event>
<event>
 5    0  0.5742040E-005  0.3508171E+03  0.7546771E-02  0.1062280E+00
         21   -1    0    0  502  501  0.00000000000E+00  0.00000000000E+00  0.11115432104E+03  0.11115432104E+03  0.00000000000E+00 0.  1.
         21   -1    0    0  501  502 -0.00000000000E+00 -0.00000000000E+00 -0.11072232261E+04  0.11072232261E+04  0.00000000000E+00 0.  1.
         25    1    1    2    0    0  0.65736061077E+02 -0.68326730767E+02 -0.49079855903E+03  0.51526497786E+03  0.12500000000E+03 0.  0.
         25    1    1    2    0    0 -0.13839971762E+03 -0.32995739109E+02 -0.49067508979E+03  0.52595650426E+03  0.12500000000E+03 0.  0.
         25    1    1    2    0    0  0.72663656539E+02  0.10132246988E+03 -0.14595256298E+02  0.17715606507E+03  0.12500000000E+03 0.  0.
</event>
<event>
 5    0  0.5742040E-005  0.3944935E+03  0.7546771E-02  0.1045703E+00
         21   -1    0    0  502  501  0.00000000000E+00  0.00000000000E+00  0.71240298495E+03  0.71240298495E+03  0.00000000000E+00 0. -1.
         21   -1    0    0  501  502 -0.00000000000E+00 -0.00000000000E+00 -0.21845101489E+03  0.21845101489E+03  0.00000000000E+00 0. -1.
         25    1    1    2    0    0  0.82001504197E+02  0.14138640300E+03  0.17018318909E+03  0.26702374331E+03  0.12500000000E+03 0.  0.
         25    1    1    2    0    0  0.13627220915E+02  0.11408985170E+03  0.32170492192E+03  0.36375988261E+03  0.12500000000E+03 0.  0.
         25    1    1    2    0    0 -0.95628725112E+02 -0.25547625470E+03  0.20638590552E+01  0.30007037391E+03  0.12500000000E+03 0.  0.
</event>
<event>
 5    0  0.6082767E-005  0.2674482E+03  0.7546771E-02  0.1102749E+00
         21   -1    0    0  502  501  0.00000000000E+00  0.00000000000E+00  0.24970723318E+03  0.24970723318E+03  0.00000000000E+00 0.  1.
         21   -1    0    0  501  502 -0.00000000000E+00 -0.00000000000E+00 -0.28644963235E+03  0.28644963235E+03  0.00000000000E+00 0.  1.
         25    1    1    2    0    0 -0.10468465241E+03  0.43918329079E+02 -0.58997061543E+02  0.17886684810E+03  0.12500000000E+03 0.  0.
         25    1    1    2    0    0  0.52614344530E+02  0.69361784137E+02 -0.58466848656E+02  0.16316463692E+03  0.12500000000E+03 0.  0.
         25    1    1    2    0    0  0.52070307882E+02 -0.11328011322E+03  0.80721511035E+02  0.19412538051E+03  0.12500000000E+03 0.  0.
</event>
<event>
 5    0  0.6280403E-005  0.3187060E+03  0.7546771E-02  0.1076246E+00
         21   -1    0    0  502  501  0.00000000000E+00  0.00000000000E+00  0.54778971759E+03  0.54778971759E+03  0.00000000000E+00 0.  1.
         21   -1    0    0  501  502 -0.00000000000E+00 -0.00000000000E+00 -0.18542432857E+03  0.18542432857E+03  0.00000000000E+00 0.  1.
         25    1    1    2    0    0  0.13111339297E+03 -0.14298336819E+03  0.20471280261E+03  0.30849197226E+03  0.12500000000E+03 0.  0.
         25    1    1    2    0    0 -0.13957384211E+03 -0.56949089290E+01  0.24443484259E+02  0.18903907880E+03  0.12500000000E+03 0.  0.
         25    1    1    2    0    0  0.84604491369E+01  0.14867827712E+03  0.13320910215E+03  0.23568299511E+03  0.12500000000E+03 0.  0.
</event>
<event>
 5    0  0.5742040E-005  0.4928969E+03  0.7546771E-02  0.1015650E+00
         21   -1    0    0  502  501  0.00000000000E+00  0.00000000000E+00  0.25116812273E+03  0.25116812273E+03  0.00000000000E+00 0. -1.
         21   -1    0    0  501  502 -0.00000000000E+00 -0.00000000000E+00 -0.96726982055E+03  0.96726982055E+03  0.00000000000E+00 0. -1.
         25    1    1    2    0    0 -0.34719857202E+03  0.38208117187E+02 -0.31450254884E+03  0.48635744249E+03  0.12500000000E+03 0.  0.
         25    1    1    2    0    0  0.38261414131E+03 -0.11198266590E+03 -0.15873472638E+03  0.44694005409E+03  0.12500000000E+03 0.  0.
         25    1    1    2    0    0 -0.35415569286E+02  0.73774548712E+02 -0.24286442260E+03  0.28514044671E+03  0.12500000000E+03 0.  0.
</event>
<event>
 5    0  0.5742040E-005  0.3005327E+03  0.7546771E-02  0.1084975E+00
         21   -1    0    0  502  501  0.00000000000E+00  0.00000000000E+00  0.32614456489E+02  0.32614456489E+02  0.00000000000E+00 0. -1.
         21   -1    0    0  501  502 -0.00000000000E+00 -0.00000000000E+00 -0.27693212683E+04  0.27693212683E+04  0.00000000000E+00 0. -1.
         25    1    1    2    0    0 -0.12234116538E+03 -0.26074842599E+02 -0.46950704793E+03  0.50170621505E+03  0.12500000000E+03 0.  0.
         25    1    1    2    0    0 -0.39182688805E+02 -0.80014018919E+02 -0.73672962485E+03  0.75255103910E+03  0.12500000000E+03 0.  0.
         25    1    1    2    0    0  0.16152385418E+03  0.10608886152E+03 -0.15304701391E+04  0.15476784707E+04  0.12500000000E+03 0.  0.
</event>
<event>
 5    0  0.5742040E-005  0.3466167E+03  0.7546771E-02  0.1064012E+00
         21   -1    0    0  502  501  0.00000000000E+00  0.00000000000E+00  0.19215576766E+03  0.19215576766E+03  0.00000000000E+00 0.  1.
         21   -1    0    0  501  502 -0.00000000000E+00 -0.00000000000E+00 -0.62523835378E+03  0.62523835378E+03  0.00000000000E+00 0.  1.
         25    1    1    2    0    0  0.44596132928E+02  0.10721602665E+03  0.42592732940E+02  0.17585002798E+03  0.12500000000E+03 0.  0.
         25    1    1    2    0    0  0.71760067473E+01  0.39410113409E+02 -0.41155830682E+03  0.43198367101E+03  0.12500000000E+03 0.  0.
         25    1    1    2    0    0 -0.51772139675E+02 -0.14662614006E+03 -0.64117012241E+02  0.20956042244E+03  0.12500000000E+03 0.  0.
</event>
<event>
 5    0  0.5742040E-005  0.3962242E+03  0.7546771E-02  0.1045095E+00
         21   -1    0    0  502  501  0.00000000000E+00  0.00000000000E+00  0.99869837315E+03  0.99869837315E+03  0.00000000000E+00 0. -1.
         21   -1    0    0  501  502 -0.00000000000E+00 -0.00000000000E+00 -0.15719825778E+03  0.15719825778E+03  0.00000000000E+00 0. -1.
         25    1    1    2    0    0  0.92266491380E+02 -0.10452314660E+03  0.45724977132E+02  0.19275364365E+03  0.12500000000E+03 0.  0.
         25    1    1    2    0    0 -0.14784211848E+03  0.25928981457E+03  0.38170924721E+03  0.50041527689E+03  0.12500000000E+03 0.  0.
         25    1    1    2    0    0  0.55575627102E+02 -0.15476666798E+03  0.41406589103E+03  0.46272771039E+03  0.12500000000E+03 0.  0.
</event>
<event>
 5    0  0.5742040E-005  0.3058277E+03  0.7546771E-02  0.1082363E+00
         21   -1    0    0  502  501  0.00000000000E+00  0.00000000000E+00  0.39799843291E+03  0.39799843291E+03  0.00000000000E+00 0. -1.
         21   -1    0    0  501  502 -0.00000000000E+00 -0.00000000000E+00 -0.23500234071E+03  0.23500234071E+03  0.00000000000E+00 0. -1.
         25    1    1    2    0    0 -0.92924091039E+01 -0.31295732963E+02 -0.10786435503E+03  0.16830178506E+03  0.12500000000E+03 0.  0.
         25    1    1    2    0    0 -0.13517671663E+03  0.30063688396E+02  0.13446909123E+03  0.22996414193E+03  0.12500000000E+03 0.  0.
         25    1    1    2    0    0  0.14446912573E+03  0.12320445674E+01  0.13639135600E+03  0.23473484662E+03  0.12500000000E+03 0.  0.
</event>
<event>
 5    0  0.5742040E-005  0.4167507E+03  0.7546771E-02  0.1038129E+00
         21   -1    0    0  502  501  0.00000000000E+00  0.00000000000E+00  0.20152121006E+04  0.20152121006E+04  0.00000000000E+00 0. -1.
         21   -1    0    0  501  502 -0.00000000000E+00 -0.00000000000E+00 -0.86185051898E+02  0.86185051898E+02  0.00000000000E+00 0. -1.
         25    1    1    2    0    0 -0.25108057531E+03  0.23516583747E+02  0.28341434223E+03  0.39942855981E+03  0.12500000000E+03 0.  0.
         25    1    1    2    0    0  0.48311916772E+02 -0.10776077580E+03  0.84928007321E+03  0.86651489823E+03  0.12500000000E+03 0.  0.
         25    1    1    2    0    0  0.20276865854E+03  0.84244192058E+02  0.79633263322E+03  0.83545369441E+03  0.12500000000E+03 0.  0.
</event>
<event>
 5    0  0.5742040E-005  0.3424143E+03  0.7546771E-02  0.1065772E+00
         21   -1    0    0  502  501  0.00000000000E+00  0.00000000000E+00  0.75313675578E+02  0.75313675578E+02  0.00000000000E+00 0.  1.
         21   -1    0    0  501  502 -0.00000000000E+00 -0.00000000000E+00 -0.15567897221E+04  0.15567897221E+04  0.00000000000E+00 0.  1.
         25    1    1    2    0    0 -0.79903934541E+02 -0.17952169541E+03 -0.20797040310E+03  0.31223287214E+03  0.12500000000E+03 0.  0.
         25    1    1    2    0    0 -0.28603329286E+02  0.66117161443E+02 -0.60074347537E+03  0.61782469414E+03  0.12500000000E+03 0.  0.
         25    1    1    2    0    0  0.10850726383E+03  0.11340453397E+03 -0.67276216803E+03  0.70204583138E+03  0.12500000000E+03 0.  0.
</event>
<event>
 5    0  0.5742040E-005  0.2267204E+03  0.7546771E-02  0.1128970E+00
         21   -1    0    0  502  501  0.00000000000E+00  0.00000000000E+00  0.35576972532E+02  0.35576972532E+02  0.00000000000E+00 0. -1.
         21   -1    0    0  501  502 -0.00000000000E+00 -0.00000000000E+00 -0.14448151376E+04  0.14448151376E+04  0.00000000000E+00 0. -1.
         25    1    1    2    0    0 -0.43369973241E+02 -0.89489385578E+01 -0.23930424713E+03  0.27359196036E+03  0.12500000000E+03 0.  0.
         25    1    1    2    0    0 -0.36513053524E+02  0.19318732787E+02 -0.35974304989E+03  0.38307502981E+03  0.12500000000E+03 0.  0.
         25    1    1    2    0    0  0.79883026765E+02 -0.10369794229E+02 -0.81019086809E+03  0.82372512001E+03  0.12500000000E+03 0.  0.
</event>
<event>
 5    0  0.5742040E-005  0.3346062E+03  0.7546771E-02  0.1069117E+00
         21   -1    0    0  502  501  0.00000000000E+00  0.00000000000E+00  0.10434119140E+04  0.10434119140E+04  0.00000000000E+00 0.  1.
         21   -1    0    0  501  502 -0.00000000000E+00 -0.00000000000E+00 -0.10730305104E+03  0.10730305104E+03  0.00000000000E+00 0.  1.
         25    1    1    2    0    0  0.58375470697E+02  0.14148669971E+03  0.49358025770E+02  0.20368455140E+03  0.12500000000E+03 0.  0.
         25    1    1    2    0    0  0.45897816442E+02 -0.54513530040E+02  0.46273181128E+03  0.48458648731E+03  0.12500000000E+03 0.  0.
         25    1    1    2    0    0 -0.10427328714E+03 -0.86973169667E+02  0.42401902589E+03  0.46244392630E+03  0.12500000000E+03 0.  0.
</event>
<event>
 5    0  0.5742040E-005  0.2875251E+03  0.7546771E-02  0.1091648E+00
         21   -1    0    0  502  501  0.00000000000E+00  0.00000000000E+00  0.18364784416E+03  0.18364784416E+03  0.00000000000E+00 0. -1.
         21   -1    0    0  501  502 -0.00000000000E+00 -0.00000000000E+00 -0.45015862756E+03  0.45015862756E+03  0.00000000000E+00 0. -1.
         25    1    1    2    0    0 -0.52888464439E+02 -0.15665584330E+03 -0.13847914009E+03  0.24927838886E+03  0.12500000000E+03 0.  0.
         25    1    1    2    0    0  0.66888177448E+02  0.18457632374E+03 -0.96016336953E+02  0.25176692501E+03  0.12500000000E+03 0.  0.
         25    1    1    2    0    0 -0.13999713009E+02 -0.27920480443E+02 -0.32015306358E+02  0.13276115785E+03  0.12500000000E+03 0.  0.
</event>
<event>
 5    0  0.5742040E-005  0.2653418E+03  0.7546771E-02  0.1103976E+00
         21   -1    0    0  502  501  0.00000000000E+00  0.00000000000E+00  0.89440965118E+02  0.89440965118E+02  0.00000000000E+00 0.  1.
         21   -1    0    0  501  502 -0.00000000000E+00 -0.00000000000E+00 -0.78718167514E+03  0.78718167514E+03  0.00000000000E+00 0.  1.
         25    1    1    2    0    0 -0.64722891423E+02  0.72927631653E+02 -0.37228830330E+03  0.40463696434E+03  0.12500000000E+03 0.  0.
         25    1    1    2    0    0 -0.22901692222E+02 -0.80106608627E+01 -0.26450854993E+02  0.13005116656E+03  0.12500000000E+03 0.  0.
         25    1    1    2    0    0  0.87624583646E+02 -0.64916970790E+02 -0.29900155173E+03  0.34193450936E+03  0.12500000000E+03 0.  0.
</event>
<event>
 5    0  0.5742040E-005  0.5926450E+03  0.7546771E-02  0.9920784E-01
         21   -1    0    0  502  501  0.00000000000E+00  0.00000000000E+00  0.99116589856E+03  0.99116589856E+03  0.00000000000E+00 0.  1.
         21   -1    0    0  501  502 -0.00000000000E+00 -0.00000000000E+00 -0.35435851805E+03  0.35435851805E+03  0.00000000000E+00 0.  1.
         25    1    1    2    0    0  0.59964172066E+02  0.15115969896E+03  0.14179309923E+02  0.20559914725E+03  0.12500000000E+03 0.  0.
         25    1    1    2    0    0  0.21573912096E+03 -0.25934322040E+03  0.71928832686E+03  0.80424061787E+03  0.12500000000E+03 0.  0.
         25    1    1    2    0    0 -0.27570329303E+03  0.10818352144E+03 -0.96660256270E+02  0.33568465148E+03  0.12500000000E+03 0.  0.
</event>
<event>
 5    0  0.5742040E-005  0.2261155E+03  0.7546771E-02  0.1129404E+00
         21   -1    0    0  502  501  0.00000000000E+00  0.00000000000E+00  0.72288324622E+02  0.72288324622E+02  0.00000000000E+00 0. -1.
         21   -1    0    0  501  502 -0.00000000000E+00 -0.00000000000E+00 -0.70728187415E+03  0.70728187415E+03  0.00000000000E+00 0. -1.
         25    1    1    2    0    0 -0.71639124687E+02  0.22637048734E+02 -0.33448117331E+03  0.36489348509E+03  0.12500000000E+03 0.  0.
         25    1    1    2    0    0  0.80600608446E+02 -0.23303193263E+02 -0.21688306483E+03  0.26401280406E+03  0.12500000000E+03 0.  0.
         25    1    1    2    0    0 -0.89614837594E+01  0.66614452950E+00 -0.83629311391E+02  0.15066390962E+03  0.12500000000E+03 0.  0.
</event>
<event>
 5    0  0.5742040E-005  0.2068399E+03  0.7546771E-02  0.1144093E+00
         21   -1    0    0  502  501  0.00000000000E+00  0.00000000000E+00  0.31027334212E+02  0.31027334212E+02  0.00000000000E+00 0. -1.
         21   -1    0    0  501  502 -0.00000000000E+00 -0.00000000000E+00 -0.13788728049E+04  0.13788728049E+04  0.00000000000E+00 0. -1.
         25    1    1    2    0    0 -0.34921803919E+02 -0.53685526338E+02 -0.51971332894E+03  0.53835732781E+03  0.12500000000E+03 0.  0.
         25    1    1    2    0    0  0.18550564594E+02  0.59789332156E+01 -0.52089624268E+03  0.53603896009E+03  0.12500000000E+03 0.  0.
         25    1    1    2    0    0  0.16371239325E+02  0.47706593122E+02 -0.30723589901E+03  0.33550385117E+03  0.12500000000E+03 0.  0.
</event>
<event>
 5    0  0.5742040E-005  0.3373050E+03  0.7546771E-02  0.1067950E+00
         21   -1    0    0  502  501  0.00000000000E+00  0.00000000000E+00  0.30514738801E+03  0.30514738801E+03  0.00000000000E+00 0. -1.
         21   -1    0    0  501  502 -0.00000000000E+00 -0.00000000000E+00 -0.37285158033E+03  0.37285158033E+03  0.00000000000E+00 0. -1.
         25    1    1    2    0    0 -0.65380670410E+02 -0.25034453125E+02 -0.93506201023E+02  0.17108408908E+03  0.12500000000E+03 0.  0.
         25    1    1    2    0    0  0.19313406274E+02  0.20747435064E+03 -0.82209721444E+02  0.25651910677E+03  0.12500000000E+03 0.  0.
         25    1    1    2    0    0  0.46067264136E+02 -0.18243989752E+03  0.10801173015E+03  0.25039577249E+03  0.12500000000E+03 0.  0.
</event>
<event>
 5    0  0.5742040E-005  0.2711957E+03  0.7546771E-02  0.1100597E+00
         21   -1    0    0  502  501  0.00000000000E+00  0.00000000000E+00  0.71950487779E+03  0.71950487779E+03  0.00000000000E+00 0. -1.
         21   -1    0    0  501  502 -0.00000000000E+00 -0.00000000000E+00 -0.10221903782E+03  0.10221903782E+03  0.00000000000E+00 0.  1.
         25    1    1    2    0    0  0.14440629244E+03 -0.36607626921E+02  0.31945871552E+03  0.37399487505E+03  0.12500000000E+03 0.  0.
         25    1    1    2    0    0 -0.47417709139E+02  0.48598356301E+02  0.23973322111E+03  0.27876021359E+03  0.12500000000E+03 0.  0.
         25    1    1    2    0    0 -0.96988583296E+02 -0.11990729380E+02  0.58093903343E+02  0.16896882697E+03  0.12500000000E+03 0.  0.
</event>
<event>
 5    0  0.5742040E-005  0.2675473E+03  0.7546771E-02  0.1102692E+00
         21   -1    0    0  502  501  0.00000000000E+00  0.00000000000E+00  0.28945288806E+03  0.28945288806E+03  0.00000000000E+00 0.  1.
         21   -1    0    0  501  502 -0.00000000000E+00 -0.00000000000E+00 -0.24729956030E+03  0.24729956030E+03  0.00000000000E+00 0.  1.
         25    1    1    2    0    0 -0.97301008457E+02  0.55461572129E+02  0.14025099018E+03  0.21872085515E+03  0.12500000000E+03 0.  0.
         25    1    1    2    0    0  0.19116299625E+02 -0.47513103028E+02 -0.10366137774E+03  0.17027509831E+03  0.12500000000E+03 0.  0.
         25    1    1    2    0    0  0.78184708832E+02 -0.79484691002E+01  0.55637153159E+01  0.14775649490E+03  0.12500000000E+03 0.  0.
</event>
<event>
 5    0  0.5742040E-005  0.3153928E+03  0.7546771E-02  0.1077789E+00
         21   -1    0    0  502  501  0.00000000000E+00  0.00000000000E+00  0.95013855971E+03  0.95013855971E+03  0.00000000000E+00 0.  1.
         21   -1    0    0  501  502 -0.00000000000E+00 -0.00000000000E+00 -0.10469273457E+03  0.10469273457E+03  0.00000000000E+00 0.  1.
         25    1    1    2    0    0 -0.96818694196E+02 -0.84221989355E+02  0.31963547570E+03  0.36641375569E+03  0.12500000000E+03 0.  0.
         25    1    1    2    0    0  0.40307098375E+02 -0.65478125776E+02  0.44723195574E+03  0.47069466681E+03  0.12500000000E+03 0.  0.
         25    1    1    2    0    0  0.56511595821E+02  0.14970011513E+03  0.78578393704E+02  0.21772287177E+03  0.12500000000E+03 0.  0.
</event>
<event>
 5    0  0.5742040E-005  0.4455609E+03  0.7546771E-02  0.1029054E+00
         21   -1    0    0  502  501  0.00000000000E+00  0.00000000000E+00  0.10942105096E+04  0.10942105096E+04  0.00000000000E+00 0.  1.
         21   -1    0    0  501  502 -0.00000000000E+00 -0.00000000000E+00 -0.18143174293E+03  0.18143174293E+03  0.00000000000E+00 0.  1.
         25    1    1    2    0    0 -0.11136402675E+03  0.53901975146E+02  0.13596556578E+03  0.22230385614E+03  0.12500000000E+03 0.  0.
         25    1    1    2    0    0  0.31262954715E+03  0.16603080301E+02  0.72675226680E+03  0.80112842499E+03  0.12500000000E+03 0.  0.
         25    1    1    2    0    0 -0.20126552040E+03 -0.70505055447E+02  0.50060934085E+02  0.25220997139E+03  0.12500000000E+03 0.  0.
</event>
<event>
 5    0  0.5742040E-005  0.3682409E+03  0.7546771E-02  0.1055368E+00
         21   -1    0    0  502  501  0.00000000000E+00  0.00000000000E+00  0.55709252024E+02  0.55709252024E+02  0.00000000000E+00 0.  1.
         21   -1    0    0  501  502 -0.00000000000E+00 -0.00000000000E+00 -0.24340905448E+04  0.24340905448E+04  0.00000000000E+00 0.  1.
         25    1    1    2    0    0 -0.16898737952E+03  0.15241227281E+03 -0.10157204244E+04  0.10483793282E+04  0.12500000000E+03 0.  0.
         25    1    1    2    0    0  0.14687377779E+02 -0.82447611050E+02 -0.15678107257E+03  0.21729848676E+03  0.12500000000E+03 0.  0.
         25    1    1    2    0    0  0.15430000174E+03 -0.69964661760E+02 -0.12058797958E+04  0.12241219818E+04  0.12500000000E+03 0.  0.
</event>
<event>
 5    0  0.5742040E-005  0.4606323E+03  0.7546771E-02  0.1024598E+00
         21   -1    0    0  502  501  0.00000000000E+00  0.00000000000E+00  0.10746384972E+03  0.10746384972E+03  0.00000000000E+00 0. -1.
         21   -1    0    0  501  502 -0.00000000000E+00 -0.00000000000E+00 -0.19744513680E+04  0.19744513680E+04  0.00000000000E+00 0. -1.
         25    1    1    2    0    0 -0.21430786914E+02  0.21364138601E+03 -0.55017540614E+03  0.60367201191E+03  0.12500000000E+03 0.  0.
         25    1    1    2    0    0  0.16184608863E+03 -0.19156336346E+03 -0.12444361823E+04  0.12755928388E+04  0.12500000000E+03 0.  0.
         25    1    1    2    0    0 -0.14041530171E+03 -0.22078022553E+02 -0.72375929895E+02  0.20265036704E+03  0.12500000000E+03 0.  0.
</event>
<event>
 5    0  0.5742040E-005  0.2616535E+03  0.7546771E-02  0.1106154E+00
         21   -1    0    0  502  501  0.00000000000E+00  0.00000000000E+00  0.89057129048E+03  0.89057129048E+03  0.00000000000E+00 0.  1.
         21   -1    0    0  501  502 -0.00000000000E+00 -0.00000000000E+00 -0.76874862046E+02  0.76874862046E+02  0.00000000000E+00 0.  1.
         25    1    1    2    0    0 -0.85978523489E+02  0.75892308007E+02  0.47121803464E+03  0.50082270824E+03  0.12500000000E+03 0.  0.
         25    1    1    2    0    0 -0.38916094371E+02 -0.30747297219E+02  0.14037593162E+03  0.19439717299E+03  0.12500000000E+03 0.  0.
         25    1    1    2    0    0  0.12489461786E+03 -0.45145010787E+02  0.20210246217E+03  0.27222627130E+03  0.12500000000E+03 0.  0.
</event>
<event>
 5    0  0.5742040E-005  0.4674618E+03  0.7546771E-02  0.1022639E+00
         21   -1    0    0  502  501  0.00000000000E+00  0.00000000000E+00  0.13776536359E+03  0.13776536359E+03  0.00000000000E+00 0.  1.
         21   -1    0    0  501  502 -0.00000000000E+00 -0.00000000000E+00 -0.15861788174E+04  0.15861788174E+04  0.00000000000E+00 0.  1.
         25    1    1    2    0    0  0.10936540772E+03  0.34158389904E+02 -0.11400833123E+04  0.11526242003E+04  0.12500000000E+03 0.  0.
         25    1    1    2    0    0  0.91642001273E+02 -0.14181480145E+03 -0.19854434443E+03  0.28905804090E+03  0.12500000000E+03 0.  0.
         25    1    1    2    0    0 -0.20100740899E+03  0.10765641154E+03 -0.10978579700E+03  0.28226193976E+03  0.12500000000E+03 0.  0.
</event>
<event>
 5    0  0.5742040E-005  0.2974393E+03  0.7546771E-02  0.1086528E+00
         21   -1    0    0  502  501  0.00000000000E+00  0.00000000000E+00  0.37153161285E+03  0.37153161285E+03  0.00000000000E+00 0.  1.
         21   -1    0    0  501  502 -0.00000000000E+00 -0.00000000000E+00 -0.23812284325E+03  0.23812284325E+03  0.00000000000E+00 0.  1.
         25    1    1    2    0    0 -0.15357606587E+03 -0.90314285167E+02  0.34402558261E+02  0.22034249279E+03  0.12500000000E+03 0.  0.
         25    1    1    2    0    0  0.12537354753E+02  0.63294536169E+02 -0.48150188579E+02  0.14868363808E+03  0.12500000000E+03 0.  0.
         25    1    1    2    0    0  0.14103871112E+03  0.27019748999E+02  0.14715639992E+03  0.24062832524E+03  0.12500000000E+03 0.  0.
</event>
<event>
 5    0  0.5742040E-005  0.3369562E+03  0.7546771E-02  0.1068100E+00
         21   -1    0    0  502  501  0.00000000000E+00  0.00000000000E+00  0.74057578512E+03  0.74057578512E+03  0.00000000000E+00 0. -1.
         21   -1    0    0  501  502 -0.00000000000E+00 -0.00000000000E+00 -0.15331241705E+03  0.15331241705E+03  0.00000000000E+00 0. -1.
         25    1    1    2    0    0  0.29093528800E+02 -0.17298286932E+02  0.16097322703E+02  0.13049822967E+03  0.12500000000E+03 0.  0.
         25    1    1    2    0    0 -0.20980953361E+03 -0.66013593309E+02  0.19318713797E+03  0.31831447528E+03  0.12500000000E+03 0.  0.
         25    1    1    2    0    0  0.18071600481E+03  0.83311880241E+02  0.37797890740E+03  0.44507549722E+03  0.12500000000E+03 0.  0.
</event>
<event>
 5    0  0.5742040E-005  0.3298798E+03  0.7546771E-02  0.1071190E+00
         21   -1    0    0  502  501  0.00000000000E+00  0.00000000000E+00  0.11392688205E+03  0.11392688205E+03  0.00000000000E+00 0.  1.
         21   -1    0    0  501  502 -0.00000000000E+00 -0.00000000000E+00 -0.95517998329E+03  0.95517998329E+03  0.00000000000E+00 0.  1.
         25    1    1    2    0    0 -0.23923662535E+02  0.14279767371E+03 -0.20606781766E+03  0.28116269795E+03  0.12500000000E+03 0.  0.
         25    1    1    2    0    0 -0.14680664385E+03 -0.15488485227E+03 -0.27353507837E+03  0.36876543662E+03  0.12500000000E+03 0.  0.
         25    1    1    2    0    0  0.17073030639E+03  0.12087178554E+02 -0.36165020521E+03  0.41917873077E+03  0.12500000000E+03 0.  0.
</event>
<event>
 5    0  0.5742040E-005  0.2840431E+03  0.7546771E-02  0.1093501E+00
         21   -1    0    0  502  501  0.00000000000E+00  0.00000000000E+00  0.19308175601E+03  0.19308175601E+03  0.00000000000E+00 0.  1.
         21   -1    0    0  501  502 -0.00000000000E+00 -0.00000000000E+00 -0.41785654929E+03  0.41785654929E+03  0.00000000000E+00 0.  1.
         25    1    1    2    0    0 -0.71491612369E+02  0.70752737451E+02  0.78664756822E+02  0.17869007936E+03  0.12500000000E+03 0.  0.
         25    1    1    2    0    0  0.43006230571E+02 -0.25091396094E+02 -0.48074128535E+02  0.14288189480E+03  0.12500000000E+03 0.  0.
         25    1    1    2    0    0  0.28485381797E+02 -0.45661341357E+02 -0.25536542156E+03  0.28936633115E+03  0.12500000000E+03 0.  0.
</event>
<event>
 5    0  0.5742040E-005  0.2468401E+03  0.7546771E-02  0.1115318E+00
         21   -1    0    0  502  501  0.00000000000E+00  0.00000000000E+00  0.55030129421E+03  0.55030129421E+03  0.00000000000E+00 0. -1.
         21   -1    0    0  501  502 -0.00000000000E+00 -0.00000000000E+00 -0.11072119034E+03  0.11072119034E+03  0.00000000000E+00 0. -1.
         25    1    1    2    0    0  0.70351893878E+02  0.48237949514E+02  0.85586760018E+02  0.17385736175E+03  0.12500000000E+03 0.  0.
         25    1    1    2    0    0  0.29971055207E+02 -0.35895819265E+02  0.48578144595E+02  0.14202679368E+03  0.12500000000E+03 0.  0.
         25    1    1    2    0    0 -0.10032294908E+03 -0.12342130249E+02  0.30541519925E+03  0.34513832912E+03  0.12500000000E+03 0.  0.
</event>
<event>
 5    0  0.5742040E-005  0.2852066E+03  0.7546771E-02  0.1092879E+00
         21   -1    0    0  502  501  0.00000000000E+00  0.00000000000E+00  0.75533977167E+03  0.75533977167E+03  0.00000000000E+00 0. -1.
         21   -1    0    0  501  502 -0.00000000000E+00 -0.00000000000E+00 -0.10769033936E+03  0.10769033936E+03  0.00000000000E+00 0. -1.
         25    1    1    2    0    0  0.11990078971E+03 -0.11674989950E+03  0.42634741205E+03  0.47476715785E+03  0.12500000000E+03 0.  0.
         25    1    1    2    0    0 -0.55927294430E+02  0.89627558668E+00  0.92263595344E+02  0.16512491211E+03  0.12500000000E+03 0.  0.
         25    1    1    2    0    0 -0.63973495279E+02  0.11585362391E+03  0.12903842491E+03  0.22313804107E+03  0.12500000000E+03 0.  0.
</event>
<event>
 5    0  0.5742040E-005  0.2944244E+03  0.7546771E-02  0.1088061E+00
         21   -1    0    0  502  501  0.00000000000E+00  0.00000000000E+00  0.14724531841E+03  0.14724531841E+03  0.00000000000E+00 0. -1.
         21   -1    0    0  501  502 -0.00000000000E+00 -0.00000000000E+00 -0.58871642529E+03  0.58871642529E+03  0.00000000000E+00 0. -1.
         25    1    1    2    0    0  0.10380459784E+03 -0.11941440981E+03 -0.58485507523E+02  0.20995416260E+03  0.12500000000E+03 0.  0.
         25    1    1    2    0    0 -0.28642618578E+02  0.90786963853E+01 -0.29757403419E+03  0.32415756685E+03  0.12500000000E+03 0.  0.
         25    1    1    2    0    0 -0.75161979263E+02  0.11033571343E+03 -0.85411565170E+02  0.20185001424E+03  0.12500000000E+03 0.  0.
</event>
<event>
 5    0  0.5742040E-005  0.2370446E+03  0.7546771E-02  0.1121777E+00
         21   -1    0    0  502  501  0.00000000000E+00  0.00000000000E+00  0.10080820288E+04  0.10080820288E+04  0.00000000000E+00 0. -1.
         21   -1    0    0  501  502 -0.00000000000E+00 -0.00000000000E+00 -0.55739639931E+02  0.55739639931E+02  0.00000000000E+00 0. -1.
         25    1    1    2    0    0 -0.69934087709E+02 -0.30853869978E+02  0.30967540491E+03  0.34258808258E+03  0.12500000000E+03 0.  0.
         25    1    1    2    0    0 -0.17569818508E+02 -0.70050165178E+02  0.29003640526E+03  0.32397814824E+03  0.12500000000E+03 0.  0.
         25    1    1    2    0    0  0.87503906217E+02  0.10090403516E+03  0.35263057867E+03  0.39725543789E+03  0.12500000000E+03 0.  0.
</event>
<event>
 5    0  0.6693433E-005  0.2996670E+03  0.7546771E-02  0.1085407E+00
         21   -1    0    0  502  501  0.00000000000E+00  0.00000000000E+00  0.22973278088E+03  0.22973278088E+03  0.00000000000E+00 0.  1.
         21   -1    0    0  501  502 -0.00000000000E+00 -0.00000000000E+00 -0.39089020809E+03  0.39089020809E+03  0.00000000000E+00 0.  1.
         25    1    1    2    0    0 -0.23559874005E+02  0.10035093108E+03  0.28837928444E+02  0.16456610571E+03  0.12500000000E+03 0.  0.
         25    1    1    2    0    0  0.86672299116E+02  0.37205865938E+02  0.31891286037E+02  0.15980744044E+03  0.12500000000E+03 0.  0.
         25    1    1    2    0    0 -0.63112425111E+02 -0.13755679702E+03 -0.22188664169E+03  0.29624944282E+03  0.12500000000E+03 0.  0.
</event>
<event>
 5    0  0.5742040E-005  0.2901418E+03  0.7546771E-02  0.1090275E+00
         21   -1    0    0  502  501  0.00000000000E+00  0.00000000000E+00  0.96769796984E+02  0.96769796984E+02  0.00000000000E+00 0. -1.
         21   -1    0    0  501  502 -0.00000000000E+00 -0.00000000000E+00 -0.86992283189E+03  0.86992283189E+03  0.00000000000E+00 0. -1.
         25    1    1    2    0    0  0.62711061221E+02  0.15639272307E+03 -0.13408076245E+03  0.24898596725E+03  0.12500000000E+03 0.  0.
         25    1    1    2    0    0 -0.64070144749E+02 -0.29250229256E+02 -0.22469081092E+03  0.26659242276E+03  0.12500000000E+03 0.  0.
         25    1    1    2    0    0  0.13590835281E+01 -0.12714249381E+03 -0.41438146154E+03  0.45111423887E+03  0.12500000000E+03 0.  0.
</event>
<event>
 5    0  0.5742040E-005  0.3002867E+03  0.7546771E-02  0.1085097E+00
         21   -1    0    0  502  501  0.00000000000E+00  0.00000000000E+00  0.85635613509E+03  0.85635613509E+03  0.00000000000E+00 0. -1.
         21   -1    0    0  501  502 -0.00000000000E+00 -0.00000000000E+00 -0.10529743717E+03  0.10529743717E+03  0.00000000000E+00 0. -1.
         25    1    1    2    0    0 -0.47102243286E+02  0.15054999664E+03  0.29617149985E+03  0.35808725212E+03  0.12500000000E+03 0.  0.
         25    1    1    2    0    0  0.72402810111E+01  0.67476516549E+02  0.16462965571E+03  0.21756246343E+03  0.12500000000E+03 0.  0.
         25    1    1    2    0    0  0.39861962275E+02 -0.21802651319E+03  0.29025754237E+03  0.38600385671E+03  0.12500000000E+03 0.  0.
</event>
<event>
 5    0  0.5742040E-005  0.4412903E+03  0.7546771E-02  0.1030352E+00
         21   -1    0    0  502  501  0.00000000000E+00  0.00000000000E+00  0.23849019925E+03  0.23849019925E+03  0.00000000000E+00 0.  1.
         21   -1    0    0  501  502 -0.00000000000E+00 -0.00000000000E+00 -0.81654130726E+03  0.81654130726E+03  0.00000000000E+00 0.  1.
         25    1    1    2    0    0 -0.54848740816E+01  0.22240183433E+03 -0.59979551305E+03  0.65182230496E+03  0.12500000000E+03 0.  0.
         25    1    1    2    0    0 -0.91989305538E+02 -0.51906239734E+02  0.43682721097E+02  0.16937966283E+03  0.12500000000E+03 0.  0.
         25    1    1    2    0    0  0.97474179619E+02 -0.17049559460E+03 -0.21938316053E+02  0.23382953873E+03  0.12500000000E+03 0.  0.
</event>
<event>
 5    0  0.5742040E-005  0.3706114E+03  0.7546771E-02  0.1054459E+00
         21   -1    0    0  502  501  0.00000000000E+00  0.00000000000E+00  0.58862527846E+02  0.58862527846E+02  0.00000000000E+00 0. -1.
         21   -1    0    0  501  502 -0.00000000000E+00 -0.00000000000E+00 -0.23334503991E+04  0.23334503991E+04  0.00000000000E+00 0. -1.
         25    1    1    2    0    0 -0.18458028718E+03 -0.81711559164E+02 -0.95502193013E+03  0.98409275393E+03  0.12500000000E+03 0.  0.
         25    1    1    2    0    0  0.15599020218E+03  0.20935283072E+03 -0.59879461419E+03  0.66508761896E+03  0.12500000000E+03 0.  0.
         25    1    1    2    0    0  0.28590084997E+02 -0.12764127155E+03 -0.72077132693E+03  0.74313255405E+03  0.12500000000E+03 0.  0.
</event>
<event>
 5    0  0.5742040E-005  0.5778667E+03  0.7546771E-02  0.9952420E-01
         21   -1    0    0  502  501  0.00000000000E+00  0.00000000000E+00  0.45580193465E+03  0.45580193465E+03  0.00000000000E+00 0. -1.
         21   -1    0    0  501  502 -0.00000000000E+00 -0.00000000000E+00 -0.73262080259E+03  0.73262080259E+03  0.00000000000E+00 0. -1.
         25    1    1    2    0    0 -0.43057484434E+02 -0.47803071836E-01  0.11679657456E+03  0.17640971935E+03  0.12500000000E+03 0.  0.
         25    1    1    2    0    0  0.30181455745E+03 -0.27264506526E+03  0.36732249442E+02  0.42708502297E+03  0.12500000000E+03 0.  0.
         25    1    1    2    0    0 -0.25875707302E+03  0.27269286833E+03 -0.43034769195E+03  0.58492799492E+03  0.12500000000E+03 0.  0.
</event>
<event>
 5    0  0.6445148E-005  0.2800996E+03  0.7546771E-02  0.1095635E+00
         21   -1    0    0  502  501  0.00000000000E+00  0.00000000000E+00  0.40636330003E+03  0.40636330003E+03  0.00000000000E+00 0.  1.
         21   -1    0    0  501  502 -0.00000000000E+00 -0.00000000000E+00 -0.19306804638E+03  0.19306804638E+03  0.00000000000E+00 0.  1.
         25    1    1    2    0    0  0.77653452630E+01  0.16380749417E+03  0.39777878902E+02  0.21000113186E+03  0.12500000000E+03 0.  0.
         25    1    1    2    0    0 -0.69923473076E+02 -0.76200597669E+02  0.18708391804E+02  0.16331205435E+03  0.12500000000E+03 0.  0.
         25    1    1    2    0    0  0.62158127813E+02 -0.87606896503E+02  0.15480898294E+03  0.22611816019E+03  0.12500000000E+03 0.  0.
</event>
<event>
 5    0  0.5742040E-005  0.3219929E+03  0.7546771E-02  0.1074736E+00
         21   -1    0    0  502  501  0.00000000000E+00  0.00000000000E+00  0.14547435625E+03  0.14547435625E+03  0.00000000000E+00 0. -1.
         21   -1    0    0  501  502 -0.00000000000E+00 -0.00000000000E+00 -0.71269907529E+03  0.71269907529E+03  0.00000000000E+00 0. -1.
         25    1    1    2    0    0  0.46737184171E+02  0.71191039131E+02 -0.72931613758E+02  0.16791827989E+03  0.12500000000E+03 0.  0.
         25    1    1    2    0    0 -0.91968683971E+02  0.13976778288E+03 -0.33369824316E+03  0.39366583475E+03  0.12500000000E+03 0.  0.
         25    1    1    2    0    0  0.45231499800E+02 -0.21095882201E+03 -0.16059486212E+03  0.29658931690E+03  0.12500000000E+03 0.  0.
</event>
<event>
 5    0  0.5742040E-005  0.2428660E+03  0.7546771E-02  0.1117898E+00
         21   -1    0    0  502  501  0.00000000000E+00  0.00000000000E+00  0.42808916896E+03  0.42808916896E+03  0.00000000000E+00 0. -1.
         21   -1    0    0  501  502 -0.00000000000E+00 -0.00000000000E+00 -0.13778418188E+03  0.13778418188E+03  0.00000000000E+00 0. -1.
         25    1    1    2    0    0 -0.19541120630E+02 -0.39507148086E+02  0.11862490132E+03  0.17787506109E+03  0.12500000000E+03 0.  0.
         25    1    1    2    0    0  0.87858879002E+02 -0.61315921726E+02  0.40135571284E+02  0.16945409101E+03  0.12500000000E+03 0.  0.
         25    1    1    2    0    0 -0.68317758372E+02  0.10082306981E+03  0.13154451447E+03  0.21854419874E+03  0.12500000000E+03 0.  0.
</event>
<event>
 5    0  0.5742040E-005  0.3393886E+03  0.7546771E-02  0.1067057E+00
         21   -1    0    0  502  501  0.00000000000E+00  0.00000000000E+00  0.27013450001E+03  0.27013450001E+03  0.00000000000E+00 0.  1.
         21   -1    0    0  501  502 -0.00000000000E+00 -0.00000000000E+00 -0.42639725752E+03  0.42639725752E+03  0.00000000000E+00 0.  1.
         25    1    1    2    0    0 -0.66748601694E+02 -0.85806829590E+02 -0.21028393098E+03  0.26769856081E+03  0.12500000000E+03 0.  0.
         25    1    1    2    0    0 -0.86506701738E+02 -0.11982809966E+02 -0.78461069991E+02  0.17148800741E+03  0.12500000000E+03 0.  0.
         25    1    1    2    0    0  0.15325530343E+03  0.97789639556E+02  0.13248224346E+03  0.25734518932E+03  0.12500000000E+03 0.  0.
</event>
<event>
 5    0  0.5742040E-005  0.3371959E+03  0.7546771E-02  0.1067997E+00
         21   -1    0    0  502  501  0.00000000000E+00  0.00000000000E+00  0.12495664916E+04  0.12495664916E+04  0.00000000000E+00 0. -1.
         21   -1    0    0  501  502 -0.00000000000E+00 -0.00000000000E+00 -0.90992400366E+02  0.90992400366E+02  0.00000000000E+00 0. -1.
         25    1    1    2    0    0 -0.22025645518E+03 -0.12086067310E+02  0.60257502737E+03  0.65374356033E+03  0.12500000000E+03 0.  0.
         25    1    1    2    0    0  0.11999531069E+02 -0.72691580735E+02  0.22229838917E+03  0.26546116191E+03  0.12500000000E+03 0.  0.
         25    1    1    2    0    0  0.20825692411E+03  0.84777648045E+02  0.33370067468E+03  0.42135416971E+03  0.12500000000E+03 0.  0.
</event>
<event>
 5    0  0.5742040E-005  0.2365571E+03  0.7546771E-02  0.1122108E+00
         21   -1    0    0  502  501  0.00000000000E+00  0.00000000000E+00  0.12515487177E+03  0.12515487177E+03  0.00000000000E+00 0. -1.
         21   -1    0    0  501  502 -0.00000000000E+00 -0.00000000000E+00 -0.44712002694E+03  0.44712002694E+03  0.00000000000E+00 0. -1.
         25    1    1    2    0    0  0.29245891312E+02  0.65375603174E+02 -0.88725438201E+02  0.16919366133E+03  0.12500000000E+03 0.  0.
         25    1    1    2    0    0 -0.74114505225E+01  0.43461995555E+02 -0.18775776214E+03  0.22983005004E+03  0.12500000000E+03 0.  0.
         25    1    1    2    0    0 -0.21834440789E+02 -0.10883759873E+03 -0.45481954818E+02  0.17325118734E+03  0.12500000000E+03 0.  0.
</event>
<event>
 5    0  0.5921640E-005  0.2968964E+03  0.7546771E-02  0.1086802E+00
         21   -1    0    0  502  501  0.00000000000E+00  0.00000000000E+00  0.11874386987E+03  0.11874386987E+03  0.00000000000E+00 0.  1.
         21   -1    0    0  501  502 -0.00000000000E+00 -0.00000000000E+00 -0.74233280059E+03  0.74233280059E+03  0.00000000000E+00 0.  1.
         25    1    1    2    0    0  0.12277341446E+03 -0.52766192440E+00 -0.22831692350E+03  0.28779716343E+03  0.12500000000E+03 0.  0.
         25    1    1    2    0    0  0.79029504459E+02 -0.45342161751E+01 -0.53928560416E+02  0.15747860591E+03  0.12500000000E+03 0.  0.
         25    1    1    2    0    0 -0.20180291891E+03  0.50618780995E+01 -0.34134344680E+03  0.41580090111E+03  0.12500000000E+03 0.  0.
</event>
<event>
 5    0  0.5742040E-005  0.2831882E+03  0.7546771E-02  0.1093960E+00
         21   -1    0    0  502  501  0.00000000000E+00  0.00000000000E+00  0.10732220968E+04  0.10732220968E+04  0.00000000000E+00 0. -1.
         21   -1    0    0  501  502 -0.00000000000E+00 -0.00000000000E+00 -0.74724102967E+02  0.74724102967E+02  0.00000000000E+00 0. -1.
         25    1    1    2    0    0 -0.61733355106E+02  0.97125681297E+02  0.58769715947E+03  0.61176576919E+03  0.12500000000E+03 0.  0.
         25    1    1    2    0    0  0.13246253057E+02 -0.86238921380E+02  0.66082022968E+02  0.16614586525E+03  0.12500000000E+03 0.  0.
         25    1    1    2    0    0  0.48487102049E+02 -0.10886759916E+02  0.34471881136E+03  0.37003456529E+03  0.12500000000E+03 0.  0.
</event>
<event>
 5    0  0.5742040E-005  0.2679729E+03  0.7546771E-02  0.1102445E+00
         21   -1    0    0  502  501  0.00000000000E+00  0.00000000000E+00  0.11215949714E+04  0.11215949714E+04  0.00000000000E+00 0. -1.
         21   -1    0    0  501  502 -0.00000000000E+00 -0.00000000000E+00 -0.64024435586E+02  0.64024435586E+02  0.00000000000E+00 0. -1.
         25    1    1    2    0    0 -0.47388043029E+02  0.50413641701E+02  0.24088490110E+03  0.28006730882E+03  0.12500000000E+03 0.  0.
         25    1    1    2    0    0  0.16625114853E+03 -0.65238447735E+02  0.44523275071E+03  0.49573450733E+03  0.12500000000E+03 0.  0.
         25    1    1    2    0    0 -0.11886310551E+03  0.14824806034E+02  0.37145288399E+03  0.40981759083E+03  0.12500000000E+03 0.  0.
</event>
<event>
 5    0  0.5742040E-005  0.2944348E+03  0.7546771E-02  0.1088056E+00
         21   -1    0    0  502  501  0.00000000000E+00  0.00000000000E+00  0.47489129578E+03  0.47489129578E+03  0.00000000000E+00 0.  1.
         21   -1    0    0  501  502 -0.00000000000E+00 -0.00000000000E+00 -0.18255096337E+03  0.18255096337E+03  0.00000000000E+00 0.  1.
         25    1    1    2    0    0  0.10975018844E+03  0.49991156280E+02  0.11986619866E+03  0.21103820779E+03  0.12500000000E+03 0.  0.
         25    1    1    2    0    0  0.10200219217E+03 -0.35059803973E+02  0.77444352860E+02  0.18236300297E+03  0.12500000000E+03 0.  0.
         25    1    1    2    0    0 -0.21175238061E+03 -0.14931352307E+02  0.95029780898E+02  0.26404104839E+03  0.12500000000E+03 0.  0.
</event>
<event>
 5    0  0.5742040E-005  0.2537460E+03  0.7546771E-02  0.1110960E+00
         21   -1    0    0  502  501  0.00000000000E+00  0.00000000000E+00  0.60165839430E+03  0.60165839430E+03  0.00000000000E+00 0.  1.
         21   -1    0    0  501  502 -0.00000000000E+00 -0.00000000000E+00 -0.10701595078E+03  0.10701595078E+03  0.00000000000E+00 0.  1.
         25    1    1    2    0    0 -0.11732460224E+03  0.55445423975E+02  0.30689265335E+03  0.35587548105E+03  0.12500000000E+03 0.  0.
         25    1    1    2    0    0  0.87725746043E+02 -0.56982740402E+02  0.14278284960E+03  0.21669051978E+03  0.12500000000E+03 0.  0.
         25    1    1    2    0    0  0.29598856196E+02  0.15373164272E+01  0.44966940577E+02  0.13610834425E+03  0.12500000000E+03 0.  0.
</event>
<event>
 5    0  0.5742040E-005  0.2294243E+03  0.7546771E-02  0.1127046E+00
         21   -1    0    0  502  501  0.00000000000E+00  0.00000000000E+00  0.14697600086E+04  0.14697600086E+04  0.00000000000E+00 0. -1.
         21   -1    0    0  501  502 -0.00000000000E+00 -0.00000000000E+00 -0.35812306300E+02  0.35812306300E+02  0.00000000000E+00 0. -1.
         25    1    1    2    0    0  0.68929961628E+02  0.65267950843E+02  0.48094542229E+03  0.50590981829E+03  0.12500000000E+03 0.  0.
         25    1    1    2    0    0  0.22348681017E+02 -0.88456455074E+01  0.29385607833E+03  0.32024069660E+03  0.12500000000E+03 0.  0.
         25    1    1    2    0    0 -0.91278642645E+02 -0.56422305336E+02  0.65914620163E+03  0.67942179997E+03  0.12500000000E+03 0.  0.
</event>
<event>
 5    0  0.5742040E-005  0.4002737E+03  0.7546771E-02  0.1043685E+00
         21   -1    0    0  502  501  0.00000000000E+00  0.00000000000E+00  0.18454647854E+03  0.18454647854E+03  0.00000000000E+00 0.  1.
         21   -1    0    0  501  502 -0.00000000000E+00 -0.00000000000E+00 -0.86817706049E+03  0.86817706049E+03  0.00000000000E+00 0.  1.
         25    1    1    2    0    0  0.14422162727E+03 -0.27640429871E+03 -0.23774226157E+03  0.41151621725E+03  0.12500000000E+03 0.  0.
         25    1    1    2    0    0 -0.13785730411E+03  0.21294006572E+03 -0.16550444466E+03  0.32766572767E+03  0.12500000000E+03 0.  0.
         25    1    1    2    0    0 -0.63643231545E+01  0.63464232995E+02 -0.28038387571E+03  0.31354159411E+03  0.12500000000E+03 0.  0.
</event>
<event>
 5    0  0.5742040E-005  0.4066887E+03  0.7546771E-02  0.1041488E+00
         21   -1    0    0  502  501  0.00000000000E+00  0.00000000000E+00  0.96025975965E+02  0.96025975965E+02  0.00000000000E+00 0.  1.
         21   -1    0    0  501  502 -0.00000000000E+00 -0.00000000000E+00 -0.17224061101E+04  0.17224061101E+04  0.00000000000E+00 0.  1.
         25    1    1    2    0    0  0.28547206479E+03  0.90246960697E+02 -0.71872373699E+03  0.78856047568E+03  0.12500000000E+03 0.  0.
         25    1    1    2    0    0 -0.25075337726E+00  0.51987656729E+02 -0.17569106937E+03  0.22179975470E+03  0.12500000000E+03 0.  0.
         25    1    1    2    0    0 -0.28522131142E+03 -0.14223461743E+03 -0.73196532778E+03  0.80807185569E+03  0.12500000000E+03 0.  0.
</event>
<event>
 5    0  0.6269430E-005  0.3163965E+03  0.7546771E-02  0.1077320E+00
         21   -1    0    0  502  501  0.00000000000E+00  0.00000000000E+00  0.45245293675E+03  0.45245293675E+03  0.00000000000E+00 0.  1.
         21   -1    0    0  501  502 -0.00000000000E+00 -0.00000000000E+00 -0.22125337521E+03  0.22125337521E+03  0.00000000000E+00 0.  1.
         25    1    1    2    0    0  0.56017264980E+02  0.43920183500E+02  0.19152147873E+03  0.23952535004E+03  0.12500000000E+03 0.  0.
         25    1    1    2    0    0  0.28452181214E+01  0.14112168280E+03 -0.34403449504E+02  0.19165599902E+03  0.12500000000E+03 0.  0.
         25    1    1    2    0    0 -0.58862483102E+02 -0.18504186630E+03  0.74081532302E+02  0.24252496290E+03  0.12500000000E+03 0.  0.
</event>
<event>
 5    0  0.5918183E-005  0.3017690E+03  0.7546771E-02  0.1084360E+00
         21   -1    0    0  502  501  0.00000000000E+00  0.00000000000E+00  0.19789410355E+03  0.19789410355E+03  0.00000000000E+00 0.  1.
         21   -1    0    0  501  502 -0.00000000000E+00 -0.00000000000E+00 -0.46016802805E+03  0.46016802805E+03  0.00000000000E+00 0.  1.
         25    1    1    2    0    0  0.14130675880E+03 -0.92196040840E+01 -0.49639572498E+02  0.19529897168E+03  0.12500000000E+03 0.  0.
         25    1    1    2    0    0 -0.13747679657E+03  0.20538855342E+02  0.30218748300E+02  0.18936706926E+03  0.12500000000E+03 0.  0.
         25    1    1    2    0    0 -0.38299622322E+01 -0.11319251258E+02 -0.24285310030E+03  0.27339609065E+03  0.12500000000E+03 0.  0.
</event>
<event>
 5    0  0.5742040E-005  0.2796229E+03  0.7546771E-02  0.1095895E+00
         21   -1    0    0  502  501  0.00000000000E+00  0.00000000000E+00  0.10514036413E+03  0.10514036413E+03  0.00000000000E+00 0. -1.
         21   -1    0    0  501  502 -0.00000000000E+00 -0.00000000000E+00 -0.74366260898E+03  0.74366260898E+03  0.00000000000E+00 0. -1.
         25    1    1    2    0    0 -0.11968159194E+03  0.50729013142E+02 -0.21155452925E+03  0.27798819232E+03  0.12500000000E+03 0.  0.
         25    1    1    2    0    0  0.59779017899E+02  0.45097892361E+02 -0.43679456592E+02  0.15211918289E+03  0.12500000000E+03 0.  0.
         25    1    1    2    0    0  0.59902574039E+02 -0.95826905503E+02 -0.38328825902E+03  0.41869559790E+03  0.12500000000E+03 0.  0.
</event>
<event>
 5    0  0.5742040E-005  0.5900702E+03  0.7546771E-02  0.9926224E-01
         21   -1    0    0  502  501  0.00000000000E+00  0.00000000000E+00  0.81225368826E+03  0.81225368826E+03  0.00000000000E+00 0.  1.
         21   -1    0    0  501  502 -0.00000000000E+00 -0.00000000000E+00 -0.42866274156E+03  0.42866274156E+03  0.00000000000E+00 0.  1.
         25    1    1    2    0    0  0.12862491874E+03  0.34990164365E+03  0.11928911068E+02  0.39337365045E+03  0.12500000000E+03 0.  0.
         25    1    1    2    0    0 -0.14469682537E+03 -0.51765366961E+03  0.27346768634E+03  0.61588316133E+03  0.12500000000E+03 0.  0.
         25    1    1    2    0    0  0.16071906636E+02  0.16775202596E+03  0.98194349296E+02  0.23165961804E+03  0.12500000000E+03 0.  0.
</event>
<event>
 5    0  0.5742040E-005  0.5891123E+03  0.7546771E-02  0.9928256E-01
         21   -1    0    0  502  501  0.00000000000E+00  0.00000000000E+00  0.22352355358E+03  0.22352355358E+03  0.00000000000E+00 0. -1.
         21   -1    0    0  501  502 -0.00000000000E+00 -0.00000000000E+00 -0.15526474508E+04  0.15526474508E+04  0.00000000000E+00 0. -1.
         25    1    1    2    0    0  0.16981190055E+03  0.65604592960E+02  0.43001049078E+02  0.22497585294E+03  0.12500000000E+03 0.  0.
         25    1    1    2    0    0  0.22833478057E+03 -0.13495232510E+03 -0.67213488044E+03  0.73330702954E+03  0.12500000000E+03 0.  0.
         25    1    1    2    0    0 -0.39814668113E+03  0.69347732138E+02 -0.69999006589E+03  0.81788812193E+03  0.12500000000E+03 0.  0.
</event>
<event>
 5    0  0.5742040E-005  0.3182716E+03  0.7546771E-02  0.1076448E+00
         21   -1    0    0  502  501  0.00000000000E+00  0.00000000000E+00  0.11453061187E+04  0.11453061187E+04  0.00000000000E+00 0. -1.
         21   -1    0    0  501  502 -0.00000000000E+00 -0.00000000000E+00 -0.88445202497E+02  0.88445202497E+02  0.00000000000E+00 0. -1.
         25    1    1    2    0    0 -0.16991315146E+02 -0.13715782230E+03  0.16986898096E+03  0.25215361132E+03  0.12500000000E+03 0.  0.
         25    1    1    2    0    0 -0.48123875720E+02  0.14622593978E+02  0.71539563973E+03  0.72797365956E+03  0.12500000000E+03 0.  0.
         25    1    1    2    0    0  0.65115190866E+02  0.12253522832E+03  0.17159629547E+03  0.25362405028E+03  0.12500000000E+03 0.  0.
</event>
