<event>
 5    0  0.5619558E-005  0.3833213E+03  0.7546771E-02  0.1049713E+00
         21   -1    0    0  502  501  0.00000000000E+00  0.00000000000E+00  0.38915110973E+03  0.38915110973E+03  0.00000000000E+00 0.  1.
         21   -1    0    0  501  502 -0.00000000000E+00 -0.00000000000E+00 -0.37757877395E+03  0.37757877395E+03  0.00000000000E+00 0.  1.
         25    1    1    2    0    0  0.86964493781E+02  0.10187706142E+03 -0.72162315081E+02  0.19691155004E+03  0.12500000000E+03 0.  0.
         25    1    1    2    0    0 -0.13493919019E+03 -0.27458989468E+03 -0.13164611222E+02  0.33076653745E+03  0.12500000000E+03 0.  0.
         25    1    1    2    0    0  0.47974696405E+02  0.17271283326E+03  0.96899262088E+02  0.23905179619E+03  0.12500000000E+03 0.  0.
</event>
<event>
 5    0  0.5619558E-005  0.3179627E+03  0.7546771E-02  0.1076591E+00
         21   -1    0    0  502  501  0.00000000000E+00  0.00000000000E+00  0.24015242724E+03  0.24015242724E+03  0.00000000000E+00 0.  1.
         21   -1    0    0  501  502 -0.00000000000E+00 -0.00000000000E+00 -0.42098372404E+03  0.42098372404E+03  0.00000000000E+00 0.  1.
         25    1    1    2    0    0  0.23874788101E+02  0.27636378233E+02 -0.65207891511E+02  0.14563943156E+03  0.12500000000E+03 0.  0.
         25    1    1    2    0    0 -0.19548955098E+02 -0.23833255318E+02 -0.28042828607E+03  0.30856961829E+03  0.12500000000E+03 0.  0.
         25    1    1    2    0    0 -0.43258330033E+01 -0.38031229152E+01  0.16480488079E+03  0.20692710143E+03  0.12500000000E+03 0.  0.
</event>
<event>
 5    0  0.5619558E-005  0.3533345E+03  0.7546771E-02  0.1061255E+00
         21   -1    0    0  502  501  0.00000000000E+00  0.00000000000E+00  0.15552700152E+03  0.15552700152E+03  0.00000000000E+00 0. -1.
         21   -1    0    0  501  502 -0.00000000000E+00 -0.00000000000E+00 -0.80272388091E+03  0.80272388091E+03  0.00000000000E+00 0. -1.
         25    1    1    2    0    0 -0.11713658707E+03  0.18406510172E+03 -0.28078034107E+03  0.37691317519E+03  0.12500000000E+03 0.  0.
         25    1    1    2    0    0  0.15242856838E+03 -0.13002871750E+03 -0.37191260332E+03  0.44055183616E+03  0.12500000000E+03 0.  0.
         25    1    1    2    0    0 -0.35291981315E+02 -0.54036384217E+02  0.54960649975E+01  0.14078587108E+03  0.12500000000E+03 0.  0.
</event>
<event>
 5    0  0.5619558E-005  0.2205678E+03  0.7546771E-02  0.1133460E+00
         21   -1    0    0  502  501  0.00000000000E+00  0.00000000000E+00  0.71095734423E+02  0.71095734423E+02  0.00000000000E+00 0.  1.
         21   -1    0    0  501  502 -0.00000000000E+00 -0.00000000000E+00 -0.68429078818E+03  0.68429078818E+03  0.00000000000E+00 0.  1.
         25    1    1    2    0    0  0.82729132375E+01 -0.28073488253E+02 -0.15775494188E+03  0.20339169974E+03  0.12500000000E+03 0.  0.
         25    1    1    2    0    0  0.44129663394E+02  0.92024166131E+02 -0.21837686290E+03  0.27153145047E+03  0.12500000000E+03 0.  0.
         25    1    1    2    0    0 -0.52402576632E+02 -0.63950677877E+02 -0.23706324898E+03  0.28046337239E+03  0.12500000000E+03 0.  0.
</event>
<event>
 5    0  0.5619558E-005  0.3176924E+03  0.7546771E-02  0.1076716E+00
         21   -1    0    0  502  501  0.00000000000E+00  0.00000000000E+00  0.56819575925E+03  0.56819575925E+03  0.00000000000E+00 0.  1.
         21   -1    0    0  501  502 -0.00000000000E+00 -0.00000000000E+00 -0.17762978434E+03  0.17762978434E+03  0.00000000000E+00 0.  1.
         25    1    1    2    0    0 -0.30805906789E+02  0.18815051674E+03  0.10845305670E+03  0.25246125712E+03  0.12500000000E+03 0.  0.
         25    1    1    2    0    0 -0.95209514346E+02 -0.12065360758E+03  0.73600012922E+02  0.21133884297E+03  0.12500000000E+03 0.  0.
         25    1    1    2    0    0  0.12601542113E+03 -0.67496909156E+02  0.20851290528E+03  0.28202544350E+03  0.12500000000E+03 0.  0.
</event>
<event>
 5    0  0.5619558E-005  0.3448663E+03  0.7546771E-02  0.1064742E+00
         21   -1    0    0  502  501  0.00000000000E+00  0.00000000000E+00  0.61169753619E+03  0.61169753619E+03  0.00000000000E+00 0. -1.
         21   -1    0    0  501  502 -0.00000000000E+00 -0.00000000000E+00 -0.19443064581E+03  0.19443064581E+03  0.00000000000E+00 0. -1.
         25    1    1    2    0    0  0.10548730096E+03 -0.46722487438E+02  0.42699706892E+03  0.45963252535E+03  0.12500000000E+03 0.  0.
         25    1    1    2    0    0 -0.15861883397E+03  0.39476289359E+02 -0.33300769875E+02  0.20845204049E+03  0.12500000000E+03 0.  0.
         25    1    1    2    0    0  0.53131533012E+02  0.72461980791E+01  0.23570591340E+02  0.13804361616E+03  0.12500000000E+03 0.  0.
</event>
<event>
 5    0  0.6842380E-005  0.3268763E+03  0.7546771E-02  0.1072527E+00
         21   -1    0    0  502  501  0.00000000000E+00  0.00000000000E+00  0.51981422359E+03  0.51981422359E+03  0.00000000000E+00 0.  1.
         21   -1    0    0  501  502 -0.00000000000E+00 -0.00000000000E+00 -0.20555057128E+03  0.20555057128E+03  0.00000000000E+00 0.  1.
         25    1    1    2    0    0  0.17160238002E+03  0.25388550661E+00  0.33102906440E+03  0.39325905300E+03  0.12500000000E+03 0.  0.
         25    1    1    2    0    0 -0.13221842778E+03 -0.43839909770E+02  0.22526407739E+02  0.18851018376E+03  0.12500000000E+03 0.  0.
         25    1    1    2    0    0 -0.39383952234E+02  0.43586024263E+02 -0.39291819831E+02  0.14359555811E+03  0.12500000000E+03 0.  0.
</event>
<event>
 5    0  0.5619558E-005  0.2577247E+03  0.7546771E-02  0.1108518E+00
         21   -1    0    0  502  501  0.00000000000E+00  0.00000000000E+00  0.36378478388E+03  0.36378478388E+03  0.00000000000E+00 0.  1.
         21   -1    0    0  501  502 -0.00000000000E+00 -0.00000000000E+00 -0.18258606672E+03  0.18258606672E+03  0.00000000000E+00 0.  1.
         25    1    1    2    0    0  0.98641273387E+01 -0.67375662297E+02  0.69984363069E+02  0.15861775422E+03  0.12500000000E+03 0.  0.
         25    1    1    2    0    0  0.37274403190E+01 -0.99075492737E+02  0.22723783322E+02  0.16115587920E+03  0.12500000000E+03 0.  0.
         25    1    1    2    0    0 -0.13591567658E+02  0.16645115503E+03  0.88490570769E+02  0.22659721719E+03  0.12500000000E+03 0.  0.
</event>
<event>
 5    0  0.5619558E-005  0.4250850E+03  0.7546771E-02  0.1035424E+00
         21   -1    0    0  502  501  0.00000000000E+00  0.00000000000E+00  0.11504369264E+04  0.11504369264E+04  0.00000000000E+00 0. -1.
         21   -1    0    0  501  502 -0.00000000000E+00 -0.00000000000E+00 -0.15706837739E+03  0.15706837739E+03  0.00000000000E+00 0. -1.
         25    1    1    2    0    0 -0.38887100678E+02  0.26559220155E+03  0.19483754871E+03  0.35445464380E+03  0.12500000000E+03 0.  0.
         25    1    1    2    0    0  0.13050503292E+03 -0.27120472846E+03  0.34891833606E+03  0.47744379103E+03  0.12500000000E+03 0.  0.
         25    1    1    2    0    0 -0.91617932245E+02  0.56125269097E+01  0.44961266427E+03  0.47560686900E+03  0.12500000000E+03 0.  0.
</event>
<event>
 5    0  0.5733169E-005  0.3655018E+03  0.7546771E-02  0.1056426E+00
         21   -1    0    0  502  501  0.00000000000E+00  0.00000000000E+00  0.40699607497E+03  0.40699607497E+03  0.00000000000E+00 0. -1.
         21   -1    0    0  501  502 -0.00000000000E+00 -0.00000000000E+00 -0.32823797560E+03  0.32823797560E+03  0.00000000000E+00 0. -1.
         25    1    1    2    0    0  0.13157277929E+03 -0.12567001351E+03  0.20388290246E+03  0.30049556812E+03  0.12500000000E+03 0.  0.
         25    1    1    2    0    0 -0.51961099406E+02 -0.61462976730E+02 -0.12774752255E+03  0.19601551693E+03  0.12500000000E+03 0.  0.
         25    1    1    2    0    0 -0.79611679884E+02  0.18713299024E+03  0.26227194531E+01  0.23872296552E+03  0.12500000000E+03 0.  0.
</event>
<event>
 5    0  0.5619558E-005  0.3047817E+03  0.7546771E-02  0.1082874E+00
         21   -1    0    0  502  501  0.00000000000E+00  0.00000000000E+00  0.62632077506E+02  0.62632077506E+02  0.00000000000E+00 0.  1.
         21   -1    0    0  501  502 -0.00000000000E+00 -0.00000000000E+00 -0.14831355991E+04  0.14831355991E+04  0.00000000000E+00 0.  1.
         25    1    1    2    0    0 -0.11017830123E+03 -0.12799588212E+03 -0.69560490132E+03  0.72664529355E+03  0.12500000000E+03 0.  0.
         25    1    1    2    0    0  0.14276147734E+03  0.99415929899E+02 -0.26600349696E+03  0.34153656748E+03  0.12500000000E+03 0.  0.
         25    1    1    2    0    0 -0.32583176109E+02  0.28579952219E+02 -0.45889512326E+03  0.47758581552E+03  0.12500000000E+03 0.  0.
</event>
<event>
 5    0  0.5619558E-005  0.2996424E+03  0.7546771E-02  0.1085419E+00
         21   -1    0    0  502  501  0.00000000000E+00  0.00000000000E+00  0.70554777856E+03  0.70554777856E+03  0.00000000000E+00 0. -1.
         21   -1    0    0  501  502 -0.00000000000E+00 -0.00000000000E+00 -0.12725655273E+03  0.12725655273E+03  0.00000000000E+00 0. -1.
         25    1    1    2    0    0 -0.10276954618E+02  0.49925734379E+02  0.48597016648E+03  0.50437109103E+03  0.12500000000E+03 0.  0.
         25    1    1    2    0    0  0.60735013505E+02 -0.96897135323E+02  0.72635293782E+02  0.18433307517E+03  0.12500000000E+03 0.  0.
         25    1    1    2    0    0 -0.50458058887E+02  0.46971400943E+02  0.19685765564E+02  0.14410016509E+03  0.12500000000E+03 0.  0.
</event>
<event>
 5    0  0.6041458E-005  0.2637798E+03  0.7546771E-02  0.1104893E+00
         21   -1    0    0  502  501  0.00000000000E+00  0.00000000000E+00  0.20468086209E+03  0.20468086209E+03  0.00000000000E+00 0.  1.
         21   -1    0    0  501  502 -0.00000000000E+00 -0.00000000000E+00 -0.33994291362E+03  0.33994291362E+03  0.00000000000E+00 0.  1.
         25    1    1    2    0    0  0.15529117307E+02 -0.51835554169E+00 -0.24670307576E+01  0.12598614375E+03  0.12500000000E+03 0.  0.
         25    1    1    2    0    0  0.12278843568E+03  0.40119281897E+01  0.21544065325E+02  0.17658494345E+03  0.12500000000E+03 0.  0.
         25    1    1    2    0    0 -0.13831755298E+03 -0.34935726480E+01 -0.15433908610E+03  0.24205268851E+03  0.12500000000E+03 0.  0.
</event>
<event>
 5    0  0.5619558E-005  0.2786273E+03  0.7546771E-02  0.1096441E+00
         21   -1    0    0  502  501  0.00000000000E+00  0.00000000000E+00  0.25884406371E+03  0.25884406371E+03  0.00000000000E+00 0. -1.
         21   -1    0    0  501  502 -0.00000000000E+00 -0.00000000000E+00 -0.29992252723E+03  0.29992252723E+03  0.00000000000E+00 0. -1.
         25    1    1    2    0    0  0.35346957253E+02  0.16601232465E+03 -0.37559436906E+02  0.21411494722E+03  0.12500000000E+03 0.  0.
         25    1    1    2    0    0 -0.64761006413E+02 -0.16385518238E+03  0.31011609693E+01  0.21604889711E+03  0.12500000000E+03 0.  0.
         25    1    1    2    0    0  0.29414049159E+02 -0.21571422783E+01 -0.66201875874E+01  0.12860274661E+03  0.12500000000E+03 0.  0.
</event>
<event>
 5    0  0.5619558E-005  0.2312996E+03  0.7546771E-02  0.1125728E+00
         21   -1    0    0  502  501  0.00000000000E+00  0.00000000000E+00  0.41515087205E+02  0.41515087205E+02  0.00000000000E+00 0.  1.
         21   -1    0    0  501  502 -0.00000000000E+00 -0.00000000000E+00 -0.12886766905E+04  0.12886766905E+04  0.00000000000E+00 0.  1.
         25    1    1    2    0    0 -0.13308301444E+02  0.47255605940E+02 -0.65478627077E+03  0.66841623527E+03  0.12500000000E+03 0.  0.
         25    1    1    2    0    0 -0.54995412580E+02 -0.64303284290E+02 -0.28230942846E+03  0.32012969430E+03  0.12500000000E+03 0.  0.
         25    1    1    2    0    0  0.68303714023E+02  0.17047678350E+02 -0.31006590407E+03  0.34164584814E+03  0.12500000000E+03 0.  0.
</event>
<event>
 5    0  0.5619558E-005  0.6051768E+03  0.7546771E-02  0.9894724E-01
         21   -1    0    0  502  501  0.00000000000E+00  0.00000000000E+00  0.44320064449E+03  0.44320064449E+03  0.00000000000E+00 0.  1.
         21   -1    0    0  501  502 -0.00000000000E+00 -0.00000000000E+00 -0.82635027789E+03  0.82635027789E+03  0.00000000000E+00 0.  1.
         25    1    1    2    0    0  0.44899575679E+02  0.13887308075E+03 -0.10540866269E+03  0.21917502281E+03  0.12500000000E+03 0.  0.
         25    1    1    2    0    0 -0.12870334171E+03  0.64558089943E+02 -0.60635213639E+03  0.63562584156E+03  0.12500000000E+03 0.  0.
         25    1    1    2    0    0  0.83803766027E+02 -0.20343117070E+03  0.32861116568E+03  0.41475005801E+03  0.12500000000E+03 0.  0.
</event>
<event>
 5    0  0.5619558E-005  0.4253289E+03  0.7546771E-02  0.1035346E+00
         21   -1    0    0  502  501  0.00000000000E+00  0.00000000000E+00  0.25212618652E+03  0.25212618652E+03  0.00000000000E+00 0. -1.
         21   -1    0    0  501  502 -0.00000000000E+00 -0.00000000000E+00 -0.71751642942E+03  0.71751642942E+03  0.00000000000E+00 0. -1.
         25    1    1    2    0    0 -0.32847040089E+03 -0.15367302982E+03 -0.20077556410E+03  0.43294807021E+03  0.12500000000E+03 0.  0.
         25    1    1    2    0    0  0.28017147628E+03  0.10268789192E+03 -0.18068051331E+03  0.37055540362E+03  0.12500000000E+03 0.  0.
         25    1    1    2    0    0  0.48298924615E+02  0.50985137900E+02 -0.83934165493E+02  0.16613914212E+03  0.12500000000E+03 0.  0.
</event>
<event>
 5    0  0.5619558E-005  0.4837796E+03  0.7546771E-02  0.1018102E+00
         21   -1    0    0  502  501  0.00000000000E+00  0.00000000000E+00  0.57547352837E+03  0.57547352837E+03  0.00000000000E+00 0.  1.
         21   -1    0    0  501  502 -0.00000000000E+00 -0.00000000000E+00 -0.40669584096E+03  0.40669584096E+03  0.00000000000E+00 0.  1.
         25    1    1    2    0    0  0.98620486009E+02 -0.27794160720E+03  0.26010641246E+03  0.41262317322E+03  0.12500000000E+03 0.  0.
         25    1    1    2    0    0 -0.14459343252E+03  0.18642889571E+03  0.12882442407E+03  0.29645189512E+03  0.12500000000E+03 0.  0.
         25    1    1    2    0    0  0.45972946508E+02  0.91512711494E+02 -0.22015314911E+03  0.27309430100E+03  0.12500000000E+03 0.  0.
</event>
<event>
 5    0  0.5619558E-005  0.2902385E+03  0.7546771E-02  0.1090225E+00
         21   -1    0    0  502  501  0.00000000000E+00  0.00000000000E+00  0.12437334520E+03  0.12437334520E+03  0.00000000000E+00 0.  1.
         21   -1    0    0  501  502 -0.00000000000E+00 -0.00000000000E+00 -0.67730269581E+03  0.67730269581E+03  0.00000000000E+00 0.  1.
         25    1    1    2    0    0 -0.33812510930E+02  0.62725707604E+02 -0.41460311866E+02  0.14973896537E+03  0.12500000000E+03 0.  0.
         25    1    1    2    0    0  0.15653577656E+03  0.35175567226E+02 -0.26751473080E+03  0.33605044423E+03  0.12500000000E+03 0.  0.
         25    1    1    2    0    0 -0.12272326563E+03 -0.97901274830E+02 -0.24395430795E+03  0.31588663142E+03  0.12500000000E+03 0.  0.
</event>
<event>
 5    0  0.5619558E-005  0.2633013E+03  0.7546771E-02  0.1105176E+00
         21   -1    0    0  502  501  0.00000000000E+00  0.00000000000E+00  0.60021612334E+03  0.60021612334E+03  0.00000000000E+00 0.  1.
         21   -1    0    0  501  502 -0.00000000000E+00 -0.00000000000E+00 -0.11550432512E+03  0.11550432512E+03  0.00000000000E+00 0.  1.
         25    1    1    2    0    0  0.44196521138E+02 -0.56429099795E+02  0.14144275482E+03  0.20191242823E+03  0.12500000000E+03 0.  0.
         25    1    1    2    0    0 -0.62112016209E+02 -0.10597249905E+03  0.17946735067E+03  0.25084178892E+03  0.12500000000E+03 0.  0.
         25    1    1    2    0    0  0.17915495071E+02  0.16240159884E+03  0.16380169273E+03  0.26296623131E+03  0.12500000000E+03 0.  0.
</event>
<event>
 5    0  0.5619558E-005  0.3046543E+03  0.7546771E-02  0.1082937E+00
         21   -1    0    0  502  501  0.00000000000E+00  0.00000000000E+00  0.10597218966E+04  0.10597218966E+04  0.00000000000E+00 0. -1.
         21   -1    0    0  501  502 -0.00000000000E+00 -0.00000000000E+00 -0.87583601761E+02  0.87583601761E+02  0.00000000000E+00 0. -1.
         25    1    1    2    0    0 -0.62558817272E+02 -0.10028576250E+03  0.56491843777E+03  0.59053254026E+03  0.12500000000E+03 0.  0.
         25    1    1    2    0    0 -0.64526992438E+02  0.42624429268E+02  0.53355853625E+02  0.15637270171E+03  0.12500000000E+03 0.  0.
         25    1    1    2    0    0  0.12708580971E+03  0.57661333231E+02  0.35386400341E+03  0.40040025635E+03  0.12500000000E+03 0.  0.
</event>
<event>
 5    0  0.5619558E-005  0.3387360E+03  0.7546771E-02  0.1067336E+00
         21   -1    0    0  502  501  0.00000000000E+00  0.00000000000E+00  0.18604172807E+03  0.18604172807E+03  0.00000000000E+00 0. -1.
         21   -1    0    0  501  502 -0.00000000000E+00 -0.00000000000E+00 -0.61675434809E+03  0.61675434809E+03  0.00000000000E+00 0. -1.
         25    1    1    2    0    0 -0.20886774201E+02  0.12837508226E+03 -0.33966725865E+03  0.38459753728E+03  0.12500000000E+03 0.  0.
         25    1    1    2    0    0 -0.29865412581E+02  0.75682403169E+02 -0.88770190479E+02  0.17356530683E+03  0.12500000000E+03 0.  0.
         25    1    1    2    0    0  0.50752186781E+02 -0.20405748543E+03 -0.22751708873E+01  0.24463323205E+03  0.12500000000E+03 0.  0.
</event>
<event>
 5    0  0.5619558E-005  0.3285098E+03  0.7546771E-02  0.1071798E+00
         21   -1    0    0  502  501  0.00000000000E+00  0.00000000000E+00  0.86602697966E+02  0.86602697966E+02  0.00000000000E+00 0. -1.
         21   -1    0    0  501  502 -0.00000000000E+00 -0.00000000000E+00 -0.12461352492E+04  0.12461352492E+04  0.00000000000E+00 0. -1.
         25    1    1    2    0    0  0.85249404972E+02 -0.77053555010E+02 -0.35190319070E+03  0.39072441313E+03  0.12500000000E+03 0.  0.
         25    1    1    2    0    0 -0.19370113285E+03  0.15105565736E+03 -0.63256217752E+03  0.68999844124E+03  0.12500000000E+03 0.  0.
         25    1    1    2    0    0  0.10845172788E+03 -0.74002102354E+02 -0.17506718304E+03  0.25201509283E+03  0.12500000000E+03 0.  0.
</event>
<event>
 5    0  0.5619558E-005  0.2436825E+03  0.7546771E-02  0.1117364E+00
         21   -1    0    0  502  501  0.00000000000E+00  0.00000000000E+00  0.17314053631E+04  0.17314053631E+04  0.00000000000E+00 0.  1.
         21   -1    0    0  501  502 -0.00000000000E+00 -0.00000000000E+00 -0.34296518146E+02  0.34296518146E+02  0.00000000000E+00 0.  1.
         25    1    1    2    0    0  0.21837703565E+02  0.10449480225E+03  0.38318625286E+03  0.41695653656E+03  0.12500000000E+03 0.  0.
         25    1    1    2    0    0 -0.50463901543E+02 -0.11306708606E+03  0.74883745085E+03  0.76922902903E+03  0.12500000000E+03 0.  0.
         25    1    1    2    0    0  0.28626197979E+02  0.85722838079E+01  0.56508514122E+03  0.57951631564E+03  0.12500000000E+03 0.  0.
</event>
<event>
 5    0  0.6332523E-005  0.2702710E+03  0.7546771E-02  0.1101125E+00
         21   -1    0    0  502  501  0.00000000000E+00  0.00000000000E+00  0.16151719560E+03  0.16151719560E+03  0.00000000000E+00 0. -1.
         21   -1    0    0  501  502 -0.00000000000E+00 -0.00000000000E+00 -0.45225159899E+03  0.45225159899E+03  0.00000000000E+00 0. -1.
         25    1    1    2    0    0 -0.16506207728E+03 -0.71199816571E+02 -0.63625431767E+02  0.22800898843E+03  0.12500000000E+03 0.  0.
         25    1    1    2    0    0  0.59178244278E+02  0.27166397654E+02 -0.12028892651E+03  0.18529571932E+03  0.12500000000E+03 0.  0.
         25    1    1    2    0    0  0.10588383300E+03  0.44033418917E+02 -0.10682004511E+03  0.20046408684E+03  0.12500000000E+03 0.  0.
</event>
<event>
 5    0  0.5619558E-005  0.2799558E+03  0.7546771E-02  0.1095713E+00
         21   -1    0    0  502  501  0.00000000000E+00  0.00000000000E+00  0.21425591651E+03  0.21425591651E+03  0.00000000000E+00 0.  1.
         21   -1    0    0  501  502 -0.00000000000E+00 -0.00000000000E+00 -0.36580202509E+03  0.36580202509E+03  0.00000000000E+00 0.  1.
         25    1    1    2    0    0  0.59000922707E+02 -0.84000353228E+02 -0.64159452759E+01  0.16187443460E+03  0.12500000000E+03 0.  0.
         25    1    1    2    0    0  0.48397848561E+02 -0.61592286482E+02  0.11862368633E+02  0.14799215280E+03  0.12500000000E+03 0.  0.
         25    1    1    2    0    0 -0.10739877127E+03  0.14559263971E+03 -0.15699253194E+03  0.27019135421E+03  0.12500000000E+03 0.  0.
</event>
<event>
 5    0  0.5619558E-005  0.2365303E+03  0.7546771E-02  0.1122126E+00
         21   -1    0    0  502  501  0.00000000000E+00  0.00000000000E+00  0.38127978391E+02  0.38127978391E+02  0.00000000000E+00 0. -1.
         21   -1    0    0  501  502 -0.00000000000E+00 -0.00000000000E+00 -0.14673371614E+04  0.14673371614E+04  0.00000000000E+00 0. -1.
         25    1    1    2    0    0  0.42709092445E+02 -0.12026354746E+03 -0.61756766621E+03  0.64288584505E+03  0.12500000000E+03 0.  0.
         25    1    1    2    0    0 -0.15566169656E+02  0.99117537509E+02 -0.39681651897E+03  0.42796605193E+03  0.12500000000E+03 0.  0.
         25    1    1    2    0    0 -0.27142922789E+02  0.21146009949E+02 -0.41482499780E+03  0.43461324278E+03  0.12500000000E+03 0.  0.
</event>
<event>
 5    0  0.5619558E-005  0.3413063E+03  0.7546771E-02  0.1066241E+00
         21   -1    0    0  502  501  0.00000000000E+00  0.00000000000E+00  0.15401714168E+04  0.15401714168E+04  0.00000000000E+00 0.  1.
         21   -1    0    0  501  502 -0.00000000000E+00 -0.00000000000E+00 -0.75634438370E+02  0.75634438370E+02  0.00000000000E+00 0.  1.
         25    1    1    2    0    0  0.15051597189E+01  0.41265412891E+02  0.27623823793E+03  0.30600271878E+03  0.12500000000E+03 0.  0.
         25    1    1    2    0    0 -0.63379744081E+02 -0.23374859640E+03  0.87545530038E+03  0.91689823931E+03  0.12500000000E+03 0.  0.
         25    1    1    2    0    0  0.61874584363E+02  0.19248318351E+03  0.31284344010E+03  0.39290489706E+03  0.12500000000E+03 0.  0.
</event>
<event>
 5    0  0.5619558E-005  0.3305916E+03  0.7546771E-02  0.1070875E+00
         21   -1    0    0  502  501  0.00000000000E+00  0.00000000000E+00  0.25317147803E+03  0.25317147803E+03  0.00000000000E+00 0.  1.
         21   -1    0    0  501  502 -0.00000000000E+00 -0.00000000000E+00 -0.43168678547E+03  0.43168678547E+03  0.00000000000E+00 0.  1.
         25    1    1    2    0    0 -0.22334254529E+03  0.87708185151E+02 -0.32578631620E+02  0.27250868888E+03  0.12500000000E+03 0.  0.
         25    1    1    2    0    0  0.44552554775E+02  0.12784499080E+02 -0.10273439598E+03  0.16830843612E+03  0.12500000000E+03 0.  0.
         25    1    1    2    0    0  0.17878999051E+03 -0.10049268423E+03 -0.43202279841E+02  0.24404113849E+03  0.12500000000E+03 0.  0.
</event>
<event>
 5    0  0.5619558E-005  0.2469376E+03  0.7546771E-02  0.1115256E+00
         21   -1    0    0  502  501  0.00000000000E+00  0.00000000000E+00  0.73271247528E+02  0.73271247528E+02  0.00000000000E+00 0. -1.
         21   -1    0    0  501  502 -0.00000000000E+00 -0.00000000000E+00 -0.83222546978E+03  0.83222546978E+03  0.00000000000E+00 0. -1.
         25    1    1    2    0    0  0.28599734938E+02  0.33263610028E+02 -0.88398587146E+02  0.15925992214E+03  0.12500000000E+03 0.  0.
         25    1    1    2    0    0 -0.41827662450E+02 -0.45018908433E+01 -0.11211667753E+03  0.17310392759E+03  0.12500000000E+03 0.  0.
         25    1    1    2    0    0  0.13227927511E+02 -0.28761719184E+02 -0.55843895758E+03  0.57313286758E+03  0.12500000000E+03 0.  0.
</event>
<event>
 5    0  0.5619558E-005  0.2666386E+03  0.7546771E-02  0.1103219E+00
         21   -1    0    0  502  501  0.00000000000E+00  0.00000000000E+00  0.64852367299E+03  0.64852367299E+03  0.00000000000E+00 0. -1.
         21   -1    0    0  501  502 -0.00000000000E+00 -0.00000000000E+00 -0.10962769455E+03  0.10962769455E+03  0.00000000000E+00 0. -1.
         25    1    1    2    0    0 -0.76542522425E+02 -0.41863984744E+02  0.25837113856E+03  0.29998666004E+03  0.12500000000E+03 0.  0.
         25    1    1    2    0    0 -0.23491567274E+02  0.12623591832E+03  0.11510232347E+03  0.21298099839E+03  0.12500000000E+03 0.  0.
         25    1    1    2    0    0  0.10003408970E+03 -0.84371933578E+02  0.16542251642E+03  0.24518370911E+03  0.12500000000E+03 0.  0.
</event>
<event>
 5    0  0.5619558E-005  0.2695995E+03  0.7546771E-02  0.1101509E+00
         21   -1    0    0  502  501  0.00000000000E+00  0.00000000000E+00  0.18932573555E+04  0.18932573555E+04  0.00000000000E+00 0.  1.
         21   -1    0    0  501  502 -0.00000000000E+00 -0.00000000000E+00 -0.38390923720E+02  0.38390923720E+02  0.00000000000E+00 0.  1.
         25    1    1    2    0    0 -0.13678584541E+03  0.51623514624E+02  0.49056223180E+03  0.52692661541E+03  0.12500000000E+03 0.  0.
         25    1    1    2    0    0  0.97136619057E+02 -0.10271943671E+03  0.65770234448E+03  0.68423985515E+03  0.12500000000E+03 0.  0.
         25    1    1    2    0    0  0.39649226348E+02  0.51095922090E+02  0.70660185546E+03  0.72048180862E+03  0.12500000000E+03 0.  0.
</event>
<event>
 5    0  0.5619558E-005  0.2964437E+03  0.7546771E-02  0.1087032E+00
         21   -1    0    0  502  501  0.00000000000E+00  0.00000000000E+00  0.24035307945E+03  0.24035307945E+03  0.00000000000E+00 0. -1.
         21   -1    0    0  501  502 -0.00000000000E+00 -0.00000000000E+00 -0.36562397844E+03  0.36562397844E+03  0.00000000000E+00 0. -1.
         25    1    1    2    0    0 -0.16531567844E+02  0.80599935061E+02 -0.44291606287E+02  0.15606533457E+03  0.12500000000E+03 0.  0.
         25    1    1    2    0    0  0.45337725789E+02  0.16371007981E+02 -0.20633882270E+03  0.24601672511E+03  0.12500000000E+03 0.  0.
         25    1    1    2    0    0 -0.28806157945E+02 -0.96970943042E+02  0.12535953001E+03  0.20389499821E+03  0.12500000000E+03 0.  0.
</event>
<event>
 5    0  0.5619558E-005  0.3220811E+03  0.7546771E-02  0.1074696E+00
         21   -1    0    0  502  501  0.00000000000E+00  0.00000000000E+00  0.14982265032E+03  0.14982265032E+03  0.00000000000E+00 0. -1.
         21   -1    0    0  501  502 -0.00000000000E+00 -0.00000000000E+00 -0.69239339583E+03  0.69239339583E+03  0.00000000000E+00 0. -1.
         25    1    1    2    0    0 -0.78323876970E+01  0.10179574669E+03 -0.32626173341E+03  0.36399922944E+03  0.12500000000E+03 0.  0.
         25    1    1    2    0    0  0.80322266658E+02 -0.60025592564E+02  0.53810209903E+02  0.16904223429E+03  0.12500000000E+03 0.  0.
         25    1    1    2    0    0 -0.72489878961E+02 -0.41770154123E+02 -0.27011922199E+03  0.30917458243E+03  0.12500000000E+03 0.  0.
</event>
<event>
 5    0  0.5619558E-005  0.1948118E+03  0.7546771E-02  0.1154192E+00
         21   -1    0    0  502  501  0.00000000000E+00  0.00000000000E+00  0.15014785321E+03  0.15014785321E+03  0.00000000000E+00 0. -1.
         21   -1    0    0  501  502 -0.00000000000E+00 -0.00000000000E+00 -0.25276170523E+03  0.25276170523E+03  0.00000000000E+00 0. -1.
         25    1    1    2    0    0  0.30787837218E+01  0.10691960711E+02 -0.34660798708E+02  0.13019281048E+03  0.12500000000E+03 0.  0.
         25    1    1    2    0    0 -0.10665794196E+02  0.17539793672E+02 -0.69188399777E+02  0.14433793054E+03  0.12500000000E+03 0.  0.
         25    1    1    2    0    0  0.75870104741E+01 -0.28231754383E+02  0.12353464578E+01  0.12837881743E+03  0.12500000000E+03 0.  0.
</event>
<event>
 5    0  0.5619558E-005  0.3614475E+03  0.7546771E-02  0.1058012E+00
         21   -1    0    0  502  501  0.00000000000E+00  0.00000000000E+00  0.18229349291E+04  0.18229349291E+04  0.00000000000E+00 0. -1.
         21   -1    0    0  501  502 -0.00000000000E+00 -0.00000000000E+00 -0.71667020097E+02  0.71667020097E+02  0.00000000000E+00 0. -1.
         25    1    1    2    0    0  0.43959793075E+02  0.28675909634E+02  0.84006639506E+02  0.15948945633E+03  0.12500000000E+03 0.  0.
         25    1    1    2    0    0  0.91783366350E+02 -0.45344680228E+02  0.14035528061E+04  0.14128219300E+04  0.12500000000E+03 0.  0.
         25    1    1    2    0    0 -0.13574315942E+03  0.16668770594E+02  0.26370846337E+03  0.32229056284E+03  0.12500000000E+03 0.  0.
</event>
<event>
 5    0  0.6460767E-005  0.5272838E+03  0.7546771E-02  0.1006893E+00
         21   -1    0    0  502  501  0.00000000000E+00  0.00000000000E+00  0.56662955429E+03  0.56662955429E+03  0.00000000000E+00 0.  1.
         21   -1    0    0  501  502 -0.00000000000E+00 -0.00000000000E+00 -0.49067011874E+03  0.49067011874E+03  0.00000000000E+00 0.  1.
         25    1    1    2    0    0 -0.60156061421E+02 -0.25909863651E+03 -0.19603375319E+03  0.35327763523E+03  0.12500000000E+03 0.  0.
         25    1    1    2    0    0 -0.20115803442E+03  0.39646942575E+02  0.23951734224E+03  0.33916071722E+03  0.12500000000E+03 0.  0.
         25    1    1    2    0    0  0.26131409584E+03  0.21945169393E+03  0.32475846498E+02  0.36486132059E+03  0.12500000000E+03 0.  0.
</event>
<event>
 5    0  0.5619558E-005  0.2212124E+03  0.7546771E-02  0.1132982E+00
         21   -1    0    0  502  501  0.00000000000E+00  0.00000000000E+00  0.30415477712E+03  0.30415477712E+03  0.00000000000E+00 0.  1.
         21   -1    0    0  501  502 -0.00000000000E+00 -0.00000000000E+00 -0.16088825730E+03  0.16088825730E+03  0.00000000000E+00 0.  1.
         25    1    1    2    0    0 -0.32578834192E+01 -0.18673886937E+02 -0.49774154967E+02  0.13587418578E+03  0.12500000000E+03 0.  0.
         25    1    1    2    0    0 -0.34204150240E+02  0.13557987575E+02  0.62489360107E+02  0.14451180937E+03  0.12500000000E+03 0.  0.
         25    1    1    2    0    0  0.37462033659E+02  0.51158993621E+01  0.13055131468E+03  0.18465703928E+03  0.12500000000E+03 0.  0.
</event>
<event>
 5    0  0.5619558E-005  0.2913427E+03  0.7546771E-02  0.1089650E+00
         21   -1    0    0  502  501  0.00000000000E+00  0.00000000000E+00  0.22662059720E+03  0.22662059720E+03  0.00000000000E+00 0. -1.
         21   -1    0    0  501  502 -0.00000000000E+00 -0.00000000000E+00 -0.37454915355E+03  0.37454915355E+03  0.00000000000E+00 0. -1.
         25    1    1    2    0    0 -0.22419026602E+02  0.48273398914E+02 -0.18246454435E+03  0.22748899697E+03  0.12500000000E+03 0.  0.
         25    1    1    2    0    0  0.74227088749E+02  0.84451562846E+01  0.13281100032E+03  0.19709069784E+03  0.12500000000E+03 0.  0.
         25    1    1    2    0    0 -0.51808062147E+02 -0.56718555199E+02 -0.98275012332E+02  0.17659005594E+03  0.12500000000E+03 0.  0.
</event>
<event>
 5    0  0.5619558E-005  0.3462598E+03  0.7546771E-02  0.1064161E+00
         21   -1    0    0  502  501  0.00000000000E+00  0.00000000000E+00  0.47559543225E+02  0.47559543225E+02  0.00000000000E+00 0. -1.
         21   -1    0    0  501  502 -0.00000000000E+00 -0.00000000000E+00 -0.25209633151E+04  0.25209633151E+04  0.00000000000E+00 0. -1.
         25    1    1    2    0    0 -0.10881007053E+02 -0.39552274960E+02 -0.13098797283E+03  0.18564920629E+03  0.12500000000E+03 0.  0.
         25    1    1    2    0    0 -0.15502712584E+03 -0.36769275659E+02 -0.82974811418E+03  0.85410322700E+03  0.12500000000E+03 0.  0.
         25    1    1    2    0    0  0.16590813289E+03  0.76321550618E+02 -0.15126676849E+04  0.15287704251E+04  0.12500000000E+03 0.  0.
</event>
<event>
 5    0  0.5619558E-005  0.2348067E+03  0.7546771E-02  0.1123302E+00
         21   -1    0    0  502  501  0.00000000000E+00  0.00000000000E+00  0.49254446434E+03  0.49254446434E+03  0.00000000000E+00 0.  1.
         21   -1    0    0  501  502 -0.00000000000E+00 -0.00000000000E+00 -0.11193747160E+03  0.11193747160E+03  0.00000000000E+00 0.  1.
         25    1    1    2    0    0 -0.37538584960E+02 -0.22441729652E+02  0.21232638771E+02  0.13412159237E+03  0.12500000000E+03 0.  0.
         25    1    1    2    0    0  0.95168438388E+02  0.38549375972E+02  0.15977853195E+03  0.22737032640E+03  0.12500000000E+03 0.  0.
         25    1    1    2    0    0 -0.57629853427E+02 -0.16107646320E+02  0.19959582202E+03  0.24299001717E+03  0.12500000000E+03 0.  0.
</event>
<event>
 5    0  0.5619558E-005  0.3442017E+03  0.7546771E-02  0.1065020E+00
         21   -1    0    0  502  501  0.00000000000E+00  0.00000000000E+00  0.95418057036E+02  0.95418057036E+02  0.00000000000E+00 0. -1.
         21   -1    0    0  501  502 -0.00000000000E+00 -0.00000000000E+00 -0.12416390354E+04  0.12416390354E+04  0.00000000000E+00 0. -1.
         25    1    1    2    0    0 -0.38309641760E+02  0.41044128205E+02 -0.64667312051E+02  0.15152263976E+03  0.12500000000E+03 0.  0.
         25    1    1    2    0    0  0.16320348682E+03 -0.16296194098E+03 -0.70290931038E+03  0.75026560027E+03  0.12500000000E+03 0.  0.
         25    1    1    2    0    0 -0.12489384506E+03  0.12191781278E+03 -0.37864435596E+03  0.43526885244E+03  0.12500000000E+03 0.  0.
</event>
<event>
 5    0  0.5619558E-005  0.2923694E+03  0.7546771E-02  0.1089119E+00
         21   -1    0    0  502  501  0.00000000000E+00  0.00000000000E+00  0.77894260025E+02  0.77894260025E+02  0.00000000000E+00 0.  1.
         21   -1    0    0  501  502 -0.00000000000E+00 -0.00000000000E+00 -0.10973831253E+04  0.10973831253E+04  0.00000000000E+00 0.  1.
         25    1    1    2    0    0  0.50562029205E+02 -0.18577825193E+02 -0.77419330080E+03  0.78606737714E+03  0.12500000000E+03 0.  0.
         25    1    1    2    0    0 -0.53623924261E+02  0.86779617404E+01 -0.22367987408E+03  0.26193227816E+03  0.12500000000E+03 0.  0.
         25    1    1    2    0    0  0.30618950565E+01  0.98998634528E+01 -0.21615690423E+02  0.12727773006E+03  0.12500000000E+03 0.  0.
</event>
<event>
 5    0  0.5619558E-005  0.4587433E+03  0.7546771E-02  0.1025146E+00
         21   -1    0    0  502  501  0.00000000000E+00  0.00000000000E+00  0.14192785089E+04  0.14192785089E+04  0.00000000000E+00 0.  1.
         21   -1    0    0  501  502 -0.00000000000E+00 -0.00000000000E+00 -0.14827632232E+03  0.14827632232E+03  0.00000000000E+00 0.  1.
         25    1    1    2    0    0 -0.98461028952E+02 -0.78662182766E+02 -0.47984050931E+02  0.18387436571E+03  0.12500000000E+03 0.  0.
         25    1    1    2    0    0  0.77672470564E+02  0.19446484161E+03  0.84872520317E+03  0.88306798028E+03  0.12500000000E+03 0.  0.
         25    1    1    2    0    0  0.20788558388E+02 -0.11580265885E+03  0.47026103436E+03  0.50061248526E+03  0.12500000000E+03 0.  0.
</event>
<event>
 5    0  0.5619558E-005  0.3209112E+03  0.7546771E-02  0.1075231E+00
         21   -1    0    0  502  501  0.00000000000E+00  0.00000000000E+00  0.53077687130E+03  0.53077687130E+03  0.00000000000E+00 0.  1.
         21   -1    0    0  501  502 -0.00000000000E+00 -0.00000000000E+00 -0.19402503131E+03  0.19402503131E+03  0.00000000000E+00 0.  1.
         25    1    1    2    0    0 -0.56099064299E+02 -0.46586062814E+02  0.82780240461E+02  0.16671812881E+03  0.12500000000E+03 0.  0.
         25    1    1    2    0    0 -0.10424478872E+03  0.18710511859E+03  0.15098822953E+03  0.29034074264E+03  0.12500000000E+03 0.  0.
         25    1    1    2    0    0  0.16034385302E+03 -0.14051905578E+03  0.10298337001E+03  0.26774303116E+03  0.12500000000E+03 0.  0.
</event>
<event>
 5    0  0.5619558E-005  0.2595250E+03  0.7546771E-02  0.1107429E+00
         21   -1    0    0  502  501  0.00000000000E+00  0.00000000000E+00  0.50540733562E+03  0.50540733562E+03  0.00000000000E+00 0.  1.
         21   -1    0    0  501  502 -0.00000000000E+00 -0.00000000000E+00 -0.13326519206E+03  0.13326519206E+03  0.00000000000E+00 0.  1.
         25    1    1    2    0    0  0.33461730991E+02 -0.51800021490E+02  0.19963740740E+03  0.24348105491E+03  0.12500000000E+03 0.  0.
         25    1    1    2    0    0 -0.49524135125E+02  0.11593002566E+03  0.18099824102E+03  0.25353061760E+03  0.12500000000E+03 0.  0.
         25    1    1    2    0    0  0.16062404134E+02 -0.64130004172E+02 -0.84935048611E+01  0.14166085517E+03  0.12500000000E+03 0.  0.
</event>
<event>
 5    0  0.5848504E-005  0.2752829E+03  0.7546771E-02  0.1098294E+00
         21   -1    0    0  502  501  0.00000000000E+00  0.00000000000E+00  0.29484104840E+03  0.29484104840E+03  0.00000000000E+00 0. -1.
         21   -1    0    0  501  502 -0.00000000000E+00 -0.00000000000E+00 -0.25702205366E+03  0.25702205366E+03  0.00000000000E+00 0. -1.
         25    1    1    2    0    0  0.29877527995E+02  0.10255230963E+03 -0.19408093263E+02  0.16556363421E+03  0.12500000000E+03 0.  0.
         25    1    1    2    0    0  0.12663717400E+02 -0.15706664472E+03  0.11559227418E+03  0.23198464275E+03  0.12500000000E+03 0.  0.
         25    1    1    2    0    0 -0.42541245395E+02  0.54514335089E+02 -0.58365186179E+02  0.15431482511E+03  0.12500000000E+03 0.  0.
</event>
<event>
 5    0  0.5619558E-005  0.2649047E+03  0.7546771E-02  0.1104232E+00
         21   -1    0    0  502  501  0.00000000000E+00  0.00000000000E+00  0.57016469390E+03  0.57016469390E+03  0.00000000000E+00 0.  1.
         21   -1    0    0  501  502 -0.00000000000E+00 -0.00000000000E+00 -0.12307758195E+03  0.12307758195E+03  0.00000000000E+00 0.  1.
         25    1    1    2    0    0  0.87360447289E+01  0.54288024907E+01  0.16229262551E+03  0.20510896292E+03  0.12500000000E+03 0.  0.
         25    1    1    2    0    0 -0.10004264588E+03 -0.35081363702E+02  0.28700289208E+03  0.33050702433E+03  0.12500000000E+03 0.  0.
         25    1    1    2    0    0  0.91306601148E+02  0.29652561211E+02 -0.22084056407E+01  0.15762628859E+03  0.12500000000E+03 0.  0.
</event>
<event>
 5    0  0.5619558E-005  0.2961805E+03  0.7546771E-02  0.1087166E+00
         21   -1    0    0  502  501  0.00000000000E+00  0.00000000000E+00  0.24414486444E+03  0.24414486444E+03  0.00000000000E+00 0.  1.
         21   -1    0    0  501  502 -0.00000000000E+00 -0.00000000000E+00 -0.35930666401E+03  0.35930666401E+03  0.00000000000E+00 0.  1.
         25    1    1    2    0    0 -0.53802555944E+02  0.15486644781E+03 -0.17632947659E+03  0.27128475077E+03  0.12500000000E+03 0.  0.
         25    1    1    2    0    0  0.52002258210E+02 -0.14346031465E+03  0.61542730854E+02  0.20663398670E+03  0.12500000000E+03 0.  0.
         25    1    1    2    0    0  0.18002977347E+01 -0.11406133157E+02 -0.37505382853E+00  0.12553279098E+03  0.12500000000E+03 0.  0.
</event>
<event>
 5    0  0.5619558E-005  0.2472351E+03  0.7546771E-02  0.1115065E+00
         21   -1    0    0  502  501  0.00000000000E+00  0.00000000000E+00  0.40055940819E+03  0.40055940819E+03  0.00000000000E+00 0. -1.
         21   -1    0    0  501  502 -0.00000000000E+00 -0.00000000000E+00 -0.15259957671E+03  0.15259957671E+03  0.00000000000E+00 0. -1.
         25    1    1    2    0    0 -0.43981071189E+02  0.53381602926E+02 -0.19644098206E+01  0.14287333222E+03  0.12500000000E+03 0.  0.
         25    1    1    2    0    0  0.10738488865E+03  0.21925850993E+02  0.12517618974E+03  0.20810174370E+03  0.12500000000E+03 0.  0.
         25    1    1    2    0    0 -0.63403817463E+02 -0.75307453919E+02  0.12474805156E+03  0.20218390898E+03  0.12500000000E+03 0.  0.
</event>
<event>
 5    0  0.5619558E-005  0.4227105E+03  0.7546771E-02  0.1036188E+00
         21   -1    0    0  502  501  0.00000000000E+00  0.00000000000E+00  0.60576397667E+03  0.60576397667E+03  0.00000000000E+00 0.  1.
         21   -1    0    0  501  502 -0.00000000000E+00 -0.00000000000E+00 -0.29497328486E+03  0.29497328486E+03  0.00000000000E+00 0.  1.
         25    1    1    2    0    0  0.52570592894E+02  0.11212295000E+03  0.29034984150E+03  0.33950442356E+03  0.12500000000E+03 0.  0.
         25    1    1    2    0    0  0.17927120067E+03 -0.17981773672E+03 -0.30143191093E+02  0.28461587060E+03  0.12500000000E+03 0.  0.
         25    1    1    2    0    0 -0.23184179357E+03  0.67694786720E+02  0.50584041399E+02  0.27661696737E+03  0.12500000000E+03 0.  0.
</event>
<event>
 5    0  0.5619558E-005  0.3289107E+03  0.7546771E-02  0.1071620E+00
         21   -1    0    0  502  501  0.00000000000E+00  0.00000000000E+00  0.92670482599E+03  0.92670482599E+03  0.00000000000E+00 0.  1.
         21   -1    0    0  501  502 -0.00000000000E+00 -0.00000000000E+00 -0.11673859801E+03  0.11673859801E+03  0.00000000000E+00 0.  1.
         25    1    1    2    0    0  0.11107546514E+03 -0.99400845151E+02  0.43051491795E+02  0.19924035213E+03  0.12500000000E+03 0.  0.
         25    1    1    2    0    0 -0.13961752667E+03  0.11191583936E+03  0.40549669363E+03  0.46051143026E+03  0.12500000000E+03 0.  0.
         25    1    1    2    0    0  0.28542061531E+02 -0.12514994214E+02  0.36141804255E+03  0.38369164160E+03  0.12500000000E+03 0.  0.
</event>
<event>
 5    0  0.5619558E-005  0.3521371E+03  0.7546771E-02  0.1061741E+00
         21   -1    0    0  502  501  0.00000000000E+00  0.00000000000E+00  0.46665970201E+03  0.46665970201E+03  0.00000000000E+00 0. -1.
         21   -1    0    0  501  502 -0.00000000000E+00 -0.00000000000E+00 -0.26571944577E+03  0.26571944577E+03  0.00000000000E+00 0. -1.
         25    1    1    2    0    0 -0.15440976157E+03 -0.17621188717E+02 -0.10634316260E+03  0.22602377970E+03  0.12500000000E+03 0.  0.
         25    1    1    2    0    0 -0.41606497933E+02  0.17100647679E+02  0.16207021988E+02  0.13383273285E+03  0.12500000000E+03 0.  0.
         25    1    1    2    0    0  0.19601625950E+03  0.52054103737E+00  0.29107639685E+03  0.37252263522E+03  0.12500000000E+03 0.  0.
</event>
<event>
 5    0  0.5619558E-005  0.3551982E+03  0.7546771E-02  0.1060501E+00
         21   -1    0    0  502  501  0.00000000000E+00  0.00000000000E+00  0.73922107774E+03  0.73922107774E+03  0.00000000000E+00 0.  1.
         21   -1    0    0  501  502 -0.00000000000E+00 -0.00000000000E+00 -0.17067390640E+03  0.17067390640E+03  0.00000000000E+00 0.  1.
         25    1    1    2    0    0  0.29948667301E+02  0.74102194430E+02 -0.57205989693E+02  0.15901441177E+03  0.12500000000E+03 0.  0.
         25    1    1    2    0    0  0.35203055146E+02 -0.14186862369E+03  0.13283440580E+03  0.23374332257E+03  0.12500000000E+03 0.  0.
         25    1    1    2    0    0 -0.65151722447E+02  0.67766429260E+02  0.49291875524E+03  0.51713724981E+03  0.12500000000E+03 0.  0.
</event>
<event>
 5    0  0.5619558E-005  0.2307477E+03  0.7546771E-02  0.1126115E+00
         21   -1    0    0  502  501  0.00000000000E+00  0.00000000000E+00  0.54899736507E+03  0.54899736507E+03  0.00000000000E+00 0.  1.
         21   -1    0    0  501  502 -0.00000000000E+00 -0.00000000000E+00 -0.96984991957E+02  0.96984991957E+02  0.00000000000E+00 0.  1.
         25    1    1    2    0    0  0.54848015735E+02 -0.25813846002E+02  0.55487151115E+02  0.14959439633E+03  0.12500000000E+03 0.  0.
         25    1    1    2    0    0  0.40160976588E+02  0.44434537551E+02  0.21324656763E+03  0.25433527238E+03  0.12500000000E+03 0.  0.
         25    1    1    2    0    0 -0.95008992323E+02 -0.18620691549E+02  0.18327865437E+03  0.24205268832E+03  0.12500000000E+03 0.  0.
</event>
<event>
 5    0  0.5619558E-005  0.5019206E+03  0.7546771E-02  0.1013279E+00
         21   -1    0    0  502  501  0.00000000000E+00  0.00000000000E+00  0.66025883408E+03  0.66025883408E+03  0.00000000000E+00 0.  1.
         21   -1    0    0  501  502 -0.00000000000E+00 -0.00000000000E+00 -0.38155390592E+03  0.38155390592E+03  0.00000000000E+00 0.  1.
         25    1    1    2    0    0  0.33222806712E+03 -0.28326452750E+02  0.25456351706E+03  0.43772761019E+03  0.12500000000E+03 0.  0.
         25    1    1    2    0    0  0.37987493818E+02  0.33067265513E+02  0.14215018404E+03  0.19587794301E+03  0.12500000000E+03 0.  0.
         25    1    1    2    0    0 -0.37021556094E+03 -0.47408127630E+01 -0.11800877294E+03  0.40820718680E+03  0.12500000000E+03 0.  0.
</event>
<event>
 5    0  0.5619558E-005  0.2413651E+03  0.7546771E-02  0.1118887E+00
         21   -1    0    0  502  501  0.00000000000E+00  0.00000000000E+00  0.65375526751E+03  0.65375526751E+03  0.00000000000E+00 0.  1.
         21   -1    0    0  501  502 -0.00000000000E+00 -0.00000000000E+00 -0.89111500606E+02  0.89111500606E+02  0.00000000000E+00 0.  1.
         25    1    1    2    0    0  0.18281293134E+02  0.94385775235E+02  0.23365593539E+03  0.28189178135E+03  0.12500000000E+03 0.  0.
         25    1    1    2    0    0  0.43323741688E+02 -0.84039033860E+02  0.26159654967E+03  0.30495452219E+03  0.12500000000E+03 0.  0.
         25    1    1    2    0    0 -0.61605034822E+02 -0.10346741375E+02  0.69391281842E+02  0.15602046458E+03  0.12500000000E+03 0.  0.
</event>
<event>
 5    0  0.5619558E-005  0.3072351E+03  0.7546771E-02  0.1081679E+00
         21   -1    0    0  502  501  0.00000000000E+00  0.00000000000E+00  0.82020012982E+02  0.82020012982E+02  0.00000000000E+00 0.  1.
         21   -1    0    0  501  502 -0.00000000000E+00 -0.00000000000E+00 -0.11508584763E+04  0.11508584763E+04  0.00000000000E+00 0. -1.
         25    1    1    2    0    0 -0.83638609184E+02 -0.14420316452E+03 -0.37012055487E+03  0.42474014967E+03  0.12500000000E+03 0.  0.
         25    1    1    2    0    0  0.35000806186E+02  0.17147193170E+03 -0.20989300127E+03  0.30051248190E+03  0.12500000000E+03 0.  0.
         25    1    1    2    0    0  0.48637802999E+02 -0.27268767181E+02 -0.48882490717E+03  0.50762585771E+03  0.12500000000E+03 0.  0.
</event>
<event>
 5    0  0.5619558E-005  0.2629309E+03  0.7546771E-02  0.1105395E+00
         21   -1    0    0  502  501  0.00000000000E+00  0.00000000000E+00  0.15753438665E+03  0.15753438665E+03  0.00000000000E+00 0.  1.
         21   -1    0    0  501  502 -0.00000000000E+00 -0.00000000000E+00 -0.43884163481E+03  0.43884163481E+03  0.00000000000E+00 0.  1.
         25    1    1    2    0    0 -0.79863780941E+02  0.18529973986E+02  0.38904820599E+02  0.15446737037E+03  0.12500000000E+03 0.  0.
         25    1    1    2    0    0  0.45483580938E+02 -0.85285370315E+02 -0.15138294889E+03  0.21882446787E+03  0.12500000000E+03 0.  0.
         25    1    1    2    0    0  0.34380200003E+02  0.66755396329E+02 -0.16882911986E+03  0.22308418322E+03  0.12500000000E+03 0.  0.
</event>
<event>
 5    0  0.5619558E-005  0.2375832E+03  0.7546771E-02  0.1121413E+00
         21   -1    0    0  502  501  0.00000000000E+00  0.00000000000E+00  0.32577287882E+03  0.32577287882E+03  0.00000000000E+00 0.  1.
         21   -1    0    0  501  502 -0.00000000000E+00 -0.00000000000E+00 -0.17326731902E+03  0.17326731902E+03  0.00000000000E+00 0.  1.
         25    1    1    2    0    0  0.66764485157E+02 -0.65260512630E+02  0.84180780139E+01  0.15624434398E+03  0.12500000000E+03 0.  0.
         25    1    1    2    0    0 -0.28749249987E+02 -0.41758582643E+02  0.10095990894E+03  0.16848798715E+03  0.12500000000E+03 0.  0.
         25    1    1    2    0    0 -0.38015235170E+02  0.10701909527E+03  0.43127572845E+02  0.17430786671E+03  0.12500000000E+03 0.  0.
</event>
<event>
 5    0  0.5619558E-005  0.2412507E+03  0.7546771E-02  0.1118962E+00
         21   -1    0    0  502  501  0.00000000000E+00  0.00000000000E+00  0.54124864367E+03  0.54124864367E+03  0.00000000000E+00 0. -1.
         21   -1    0    0  501  502 -0.00000000000E+00 -0.00000000000E+00 -0.10753264515E+03  0.10753264515E+03  0.00000000000E+00 0. -1.
         25    1    1    2    0    0  0.10338517449E+03  0.37017181608E+02  0.16490646644E+03  0.23426034387E+03  0.12500000000E+03 0.  0.
         25    1    1    2    0    0 -0.69740465018E+01 -0.72147166344E+02  0.77336829082E+02  0.16388970702E+03  0.12500000000E+03 0.  0.
         25    1    1    2    0    0 -0.96411127984E+02  0.35129984736E+02  0.19147270300E+03  0.25063123792E+03  0.12500000000E+03 0.  0.
</event>
<event>
 5    0  0.5619558E-005  0.2603347E+03  0.7546771E-02  0.1106942E+00
         21   -1    0    0  502  501  0.00000000000E+00  0.00000000000E+00  0.35032600049E+02  0.35032600049E+02  0.00000000000E+00 0.  1.
         21   -1    0    0  501  502 -0.00000000000E+00 -0.00000000000E+00 -0.19346032213E+04  0.19346032213E+04  0.00000000000E+00 0.  1.
         25    1    1    2    0    0  0.49231399152E+02  0.15130495300E+02 -0.31945387824E+03  0.34688390403E+03  0.12500000000E+03 0.  0.
         25    1    1    2    0    0 -0.14375385813E+03 -0.50297738652E+02 -0.10686072066E+04  0.10866192508E+04  0.12500000000E+03 0.  0.
         25    1    1    2    0    0  0.94522458976E+02  0.35167243352E+02 -0.51150953636E+03  0.53613266646E+03  0.12500000000E+03 0.  0.
</event>
<event>
 5    0  0.5619558E-005  0.2679239E+03  0.7546771E-02  0.1102474E+00
         21   -1    0    0  502  501  0.00000000000E+00  0.00000000000E+00  0.23284448642E+03  0.23284448642E+03  0.00000000000E+00 0. -1.
         21   -1    0    0  501  502 -0.00000000000E+00 -0.00000000000E+00 -0.30828828528E+03  0.30828828528E+03  0.00000000000E+00 0. -1.
         25    1    1    2    0    0 -0.10080709462E+03 -0.53325233169E+02 -0.10477340726E+03  0.19901788283E+03  0.12500000000E+03 0.  0.
         25    1    1    2    0    0  0.14717597217E+03  0.64756330231E+02  0.41155655210E+02  0.20778098336E+03  0.12500000000E+03 0.  0.
         25    1    1    2    0    0 -0.46368877551E+02 -0.11431097062E+02 -0.11826046821E+02  0.13433390551E+03  0.12500000000E+03 0.  0.
</event>
<event>
 5    0  0.5619558E-005  0.2363499E+03  0.7546771E-02  0.1122249E+00
         21   -1    0    0  502  501  0.00000000000E+00  0.00000000000E+00  0.44859712320E+03  0.44859712320E+03  0.00000000000E+00 0.  1.
         21   -1    0    0  501  502 -0.00000000000E+00 -0.00000000000E+00 -0.12452433041E+03  0.12452433041E+03  0.00000000000E+00 0.  1.
         25    1    1    2    0    0  0.15164622283E+02  0.21790950746E+02 -0.12188400045E+02  0.12836809728E+03  0.12500000000E+03 0.  0.
         25    1    1    2    0    0 -0.56435884036E+02 -0.53932682847E+00  0.25233342386E+03  0.28719759170E+03  0.12500000000E+03 0.  0.
         25    1    1    2    0    0  0.41271261753E+02 -0.21251623917E+02  0.83927768980E+02  0.15755576464E+03  0.12500000000E+03 0.  0.
</event>
<event>
 5    0  0.5619558E-005  0.4491440E+03  0.7546771E-02  0.1027978E+00
         21   -1    0    0  502  501  0.00000000000E+00  0.00000000000E+00  0.80973265229E+03  0.80973265229E+03  0.00000000000E+00 0. -1.
         21   -1    0    0  501  502 -0.00000000000E+00 -0.00000000000E+00 -0.24913198592E+03  0.24913198592E+03  0.00000000000E+00 0. -1.
         25    1    1    2    0    0 -0.11910066982E+03  0.33170924198E+02 -0.12888704123E+03  0.21799575492E+03  0.12500000000E+03 0.  0.
         25    1    1    2    0    0  0.28564185332E+02 -0.28802260437E+02  0.67285715152E+03  0.68557073248E+03  0.12500000000E+03 0.  0.
         25    1    1    2    0    0  0.90536484492E+02 -0.43686637606E+01  0.16630556088E+02  0.15529815080E+03  0.12500000000E+03 0.  0.
</event>
<event>
 5    0  0.5619558E-005  0.3707494E+03  0.7546771E-02  0.1054407E+00
         21   -1    0    0  502  501  0.00000000000E+00  0.00000000000E+00  0.11670102393E+04  0.11670102393E+04  0.00000000000E+00 0.  1.
         21   -1    0    0  501  502 -0.00000000000E+00 -0.00000000000E+00 -0.11778395744E+03  0.11778395744E+03  0.00000000000E+00 0.  1.
         25    1    1    2    0    0 -0.65749740010E+02  0.19964667450E+03  0.49016196756E+03  0.54778241792E+03  0.12500000000E+03 0.  0.
         25    1    1    2    0    0  0.13018095860E+03 -0.13471582372E+03  0.53472475014E+03  0.58021633341E+03  0.12500000000E+03 0.  0.
         25    1    1    2    0    0 -0.64431218589E+02 -0.64930850783E+02  0.24339564140E+02  0.15679544539E+03  0.12500000000E+03 0.  0.
</event>
<event>
 5    0  0.5619558E-005  0.4137155E+03  0.7546771E-02  0.1039131E+00
         21   -1    0    0  502  501  0.00000000000E+00  0.00000000000E+00  0.61994020196E+03  0.61994020196E+03  0.00000000000E+00 0. -1.
         21   -1    0    0  501  502 -0.00000000000E+00 -0.00000000000E+00 -0.27609197011E+03  0.27609197011E+03  0.00000000000E+00 0. -1.
         25    1    1    2    0    0  0.18647125521E+03 -0.10955906530E+03  0.14526693625E+03  0.28896747321E+03  0.12500000000E+03 0.  0.
         25    1    1    2    0    0 -0.25111341839E+03  0.24255265157E+03  0.77944404820E+02  0.37893280133E+03  0.12500000000E+03 0.  0.
         25    1    1    2    0    0  0.64642163186E+02 -0.13299358627E+03  0.12063689079E+03  0.22813189753E+03  0.12500000000E+03 0.  0.
</event>
<event>
 5    0  0.5619558E-005  0.2747533E+03  0.7546771E-02  0.1098590E+00
         21   -1    0    0  502  501  0.00000000000E+00  0.00000000000E+00  0.38942368738E+03  0.38942368738E+03  0.00000000000E+00 0. -1.
         21   -1    0    0  501  502 -0.00000000000E+00 -0.00000000000E+00 -0.19384893035E+03  0.19384893035E+03  0.00000000000E+00 0. -1.
         25    1    1    2    0    0 -0.12678800027E+03 -0.44597721814E+02  0.16023266294E+03  0.24364658847E+03  0.12500000000E+03 0.  0.
         25    1    1    2    0    0  0.90035918675E+02  0.11092040493E+03  0.28040102373E+01  0.18984905940E+03  0.12500000000E+03 0.  0.
         25    1    1    2    0    0  0.36752081597E+02 -0.66322683117E+02  0.32538083862E+02  0.14977696986E+03  0.12500000000E+03 0.  0.
</event>
<event>
 5    0  0.5619558E-005  0.3284052E+03  0.7546771E-02  0.1071845E+00
         21   -1    0    0  502  501  0.00000000000E+00  0.00000000000E+00  0.13564044476E+04  0.13564044476E+04  0.00000000000E+00 0.  1.
         21   -1    0    0  501  502 -0.00000000000E+00 -0.00000000000E+00 -0.79511667326E+02  0.79511667326E+02  0.00000000000E+00 0.  1.
         25    1    1    2    0    0 -0.73348779455E+00 -0.50315259289E+02  0.34819670090E+03  0.37336055742E+03  0.12500000000E+03 0.  0.
         25    1    1    2    0    0 -0.59675748506E+02  0.95078279297E+01  0.17497473031E+02  0.13993839828E+03  0.12500000000E+03 0.  0.
         25    1    1    2    0    0  0.60409236301E+02  0.40807431359E+02  0.91119860632E+03  0.92261715920E+03  0.12500000000E+03 0.  0.
</event>
<event>
 5    0  0.5619558E-005  0.2472433E+03  0.7546771E-02  0.1115060E+00
         21   -1    0    0  502  501  0.00000000000E+00  0.00000000000E+00  0.21949913478E+03  0.21949913478E+03  0.00000000000E+00 0.  1.
         21   -1    0    0  501  502 -0.00000000000E+00 -0.00000000000E+00 -0.27849417791E+03  0.27849417791E+03  0.00000000000E+00 0.  1.
         25    1    1    2    0    0  0.14122002764E+03  0.13698126919E+02 -0.28188499933E+02  0.19118139663E+03  0.12500000000E+03 0.  0.
         25    1    1    2    0    0 -0.95956154898E+02 -0.28651080301E+02 -0.57906819705E+02  0.17031343997E+03  0.12500000000E+03 0.  0.
         25    1    1    2    0    0 -0.45263872744E+02  0.14952953381E+02  0.27100276503E+02  0.13649847610E+03  0.12500000000E+03 0.  0.
</event>
<event>
 5    0  0.5619558E-005  0.2464458E+03  0.7546771E-02  0.1115572E+00
         21   -1    0    0  502  501  0.00000000000E+00  0.00000000000E+00  0.19131525520E+03  0.19131525520E+03  0.00000000000E+00 0. -1.
         21   -1    0    0  501  502 -0.00000000000E+00 -0.00000000000E+00 -0.31746317506E+03  0.31746317506E+03  0.00000000000E+00 0. -1.
         25    1    1    2    0    0  0.32022239429E+02 -0.23904034292E+02 -0.15618730435E+03  0.20400073704E+03  0.12500000000E+03 0.  0.
         25    1    1    2    0    0 -0.10469782367E+02 -0.66312344830E+02  0.43856948853E+02  0.14851052280E+03  0.12500000000E+03 0.  0.
         25    1    1    2    0    0 -0.21552457062E+02  0.90216379122E+02 -0.13817564372E+02  0.15626717042E+03  0.12500000000E+03 0.  0.
</event>
<event>
 5    0  0.5619558E-005  0.5005659E+03  0.7546771E-02  0.1013631E+00
         21   -1    0    0  502  501  0.00000000000E+00  0.00000000000E+00  0.15220304949E+03  0.15220304949E+03  0.00000000000E+00 0.  1.
         21   -1    0    0  501  502 -0.00000000000E+00 -0.00000000000E+00 -0.16462630824E+04  0.16462630824E+04  0.00000000000E+00 0.  1.
         25    1    1    2    0    0  0.31062521429E+02 -0.11177585115E+03 -0.42637542767E+02  0.17578874023E+03  0.12500000000E+03 0.  0.
         25    1    1    2    0    0 -0.25112032362E+03  0.29211774529E+03 -0.95056437703E+03  0.10332433542E+04  0.12500000000E+03 0.  0.
         25    1    1    2    0    0  0.22005780219E+03 -0.18034189415E+03 -0.50085811307E+03  0.58943403746E+03  0.12500000000E+03 0.  0.
</event>
<event>
 5    0  0.5619558E-005  0.3601510E+03  0.7546771E-02  0.1058524E+00
         21   -1    0    0  502  501  0.00000000000E+00  0.00000000000E+00  0.10298361612E+04  0.10298361612E+04  0.00000000000E+00 0. -1.
         21   -1    0    0  501  502 -0.00000000000E+00 -0.00000000000E+00 -0.12595083310E+03  0.12595083310E+03  0.00000000000E+00 0. -1.
         25    1    1    2    0    0 -0.22315901649E+03 -0.41814814668E+02  0.45613498305E+03  0.52462610317E+03  0.12500000000E+03 0.  0.
         25    1    1    2    0    0  0.74983635003E+02 -0.91910355131E+02  0.31947256482E+03  0.36298454315E+03  0.12500000000E+03 0.  0.
         25    1    1    2    0    0  0.14817538149E+03  0.13372516980E+03  0.12827778025E+03  0.26817634799E+03  0.12500000000E+03 0.  0.
</event>
<event>
 5    0  0.5619558E-005  0.2448736E+03  0.7546771E-02  0.1116588E+00
         21   -1    0    0  502  501  0.00000000000E+00  0.00000000000E+00  0.12011089194E+03  0.12011089194E+03  0.00000000000E+00 0.  1.
         21   -1    0    0  501  502 -0.00000000000E+00 -0.00000000000E+00 -0.49923107304E+03  0.49923107304E+03  0.00000000000E+00 0.  1.
         25    1    1    2    0    0  0.11344901577E+03  0.61105587285E+02 -0.60733716896E+02  0.18952085992E+03  0.12500000000E+03 0.  0.
         25    1    1    2    0    0 -0.51634113704E+02 -0.35326338964E+02 -0.20564725964E+03  0.24865604219E+03  0.12500000000E+03 0.  0.
         25    1    1    2    0    0 -0.61814902065E+02 -0.25779248321E+02 -0.11273920456E+03  0.18116506288E+03  0.12500000000E+03 0.  0.
</event>
<event>
 5    0  0.5619558E-005  0.2909494E+03  0.7546771E-02  0.1089854E+00
         21   -1    0    0  502  501  0.00000000000E+00  0.00000000000E+00  0.63582028472E+03  0.63582028472E+03  0.00000000000E+00 0. -1.
         21   -1    0    0  501  502 -0.00000000000E+00 -0.00000000000E+00 -0.13313758526E+03  0.13313758526E+03  0.00000000000E+00 0. -1.
         25    1    1    2    0    0 -0.40658086696E+02 -0.16949207108E+03  0.28556114905E+03  0.35714256540E+03  0.12500000000E+03 0.  0.
         25    1    1    2    0    0  0.85462785988E+02  0.32290236742E+02  0.12899536354E+03  0.20152258184E+03  0.12500000000E+03 0.  0.
         25    1    1    2    0    0 -0.44804699292E+02  0.13720183434E+03  0.88126186870E+02  0.21029272274E+03  0.12500000000E+03 0.  0.
</event>
<event>
 5    0  0.5619558E-005  0.2674275E+03  0.7546771E-02  0.1102761E+00
         21   -1    0    0  502  501  0.00000000000E+00  0.00000000000E+00  0.97674936901E+03  0.97674936901E+03  0.00000000000E+00 0. -1.
         21   -1    0    0  501  502 -0.00000000000E+00 -0.00000000000E+00 -0.73219893786E+02  0.73219893786E+02  0.00000000000E+00 0. -1.
         25    1    1    2    0    0 -0.31735606165E+02 -0.28265109985E+02  0.42316799677E+02  0.13864262215E+03  0.12500000000E+03 0.  0.
         25    1    1    2    0    0  0.45102848517E+02  0.74240152205E+02  0.58364934943E+03  0.60317280296E+03  0.12500000000E+03 0.  0.
         25    1    1    2    0    0 -0.13367242352E+02 -0.45975042220E+02  0.27756332612E+03  0.30815383769E+03  0.12500000000E+03 0.  0.
</event>
<event>
 5    0  0.5619558E-005  0.3134399E+03  0.7546771E-02  0.1078709E+00
         21   -1    0    0  502  501  0.00000000000E+00  0.00000000000E+00  0.10785389103E+03  0.10785389103E+03  0.00000000000E+00 0.  1.
         21   -1    0    0  501  502 -0.00000000000E+00 -0.00000000000E+00 -0.91090439024E+03  0.91090439024E+03  0.00000000000E+00 0.  1.
         25    1    1    2    0    0  0.22462230145E+03  0.84009976788E+01 -0.37474419220E+03  0.45451508738E+03  0.12500000000E+03 0.  0.
         25    1    1    2    0    0 -0.15250540779E+03  0.58990201324E+02 -0.21036273442E+03  0.29430464368E+03  0.12500000000E+03 0.  0.
         25    1    1    2    0    0 -0.72116893660E+02 -0.67391199002E+02 -0.21794357258E+03  0.26993855020E+03  0.12500000000E+03 0.  0.
</event>
<event>
 5    0  0.5619558E-005  0.2613246E+03  0.7546771E-02  0.1106350E+00
         21   -1    0    0  502  501  0.00000000000E+00  0.00000000000E+00  0.29229437012E+03  0.29229437012E+03  0.00000000000E+00 0. -1.
         21   -1    0    0  501  502 -0.00000000000E+00 -0.00000000000E+00 -0.23363612798E+03  0.23363612798E+03  0.00000000000E+00 0. -1.
         25    1    1    2    0    0  0.28266315672E+02  0.96885643363E+02  0.15389295823E+03  0.22247214451E+03  0.12500000000E+03 0.  0.
         25    1    1    2    0    0  0.13318018242E+02 -0.41781125295E+02 -0.90785588960E+02  0.16059282426E+03  0.12500000000E+03 0.  0.
         25    1    1    2    0    0 -0.41584333914E+02 -0.55104518067E+02 -0.44491271248E+01  0.14286552933E+03  0.12500000000E+03 0.  0.
</event>
<event>
 5    0  0.5619558E-005  0.4295204E+03  0.7546771E-02  0.1034012E+00
         21   -1    0    0  502  501  0.00000000000E+00  0.00000000000E+00  0.35677298609E+03  0.35677298609E+03  0.00000000000E+00 0.  1.
         21   -1    0    0  501  502 -0.00000000000E+00 -0.00000000000E+00 -0.51710121154E+03  0.51710121154E+03  0.00000000000E+00 0.  1.
         25    1    1    2    0    0 -0.13994810783E+03 -0.89504291512E+02  0.13794336405E+01  0.20790236632E+03  0.12500000000E+03 0.  0.
         25    1    1    2    0    0 -0.13991043424E+02  0.19072818521E+03  0.15699109121E+03  0.27720785099E+03  0.12500000000E+03 0.  0.
         25    1    1    2    0    0  0.15393915125E+03 -0.10122389370E+03 -0.31869875030E+03  0.38876398031E+03  0.12500000000E+03 0.  0.
</event>
<event>
 5    0  0.5619558E-005  0.2873050E+03  0.7546771E-02  0.1091765E+00
         21   -1    0    0  502  501  0.00000000000E+00  0.00000000000E+00  0.10145573268E+04  0.10145573268E+04  0.00000000000E+00 0. -1.
         21   -1    0    0  501  502 -0.00000000000E+00 -0.00000000000E+00 -0.81359805260E+02  0.81359805260E+02  0.00000000000E+00 0. -1.
         25    1    1    2    0    0 -0.11733830177E+03  0.10456000943E+02  0.32479676980E+03  0.36741740118E+03  0.12500000000E+03 0.  0.
         25    1    1    2    0    0  0.10100196908E+03  0.14334797432E+02  0.71563533534E+02  0.17650275779E+03  0.12500000000E+03 0.  0.
         25    1    1    2    0    0  0.16336332691E+02 -0.24790798375E+02  0.53683721821E+03  0.55199697310E+03  0.12500000000E+03 0.  0.
</event>
<event>
 5    0  0.5619558E-005  0.3722545E+03  0.7546771E-02  0.1053834E+00
         21   -1    0    0  502  501  0.00000000000E+00  0.00000000000E+00  0.38035228434E+03  0.38035228434E+03  0.00000000000E+00 0. -1.
         21   -1    0    0  501  502 -0.00000000000E+00 -0.00000000000E+00 -0.36432920104E+03  0.36432920104E+03  0.00000000000E+00 0. -1.
         25    1    1    2    0    0 -0.12881208044E+03 -0.81536467771E+02  0.61098966109E+02  0.20639484321E+03  0.12500000000E+03 0.  0.
         25    1    1    2    0    0 -0.80035421382E+02  0.12279579452E+03  0.13282825653E+03  0.23399320836E+03  0.12500000000E+03 0.  0.
         25    1    1    2    0    0  0.20884750183E+03 -0.41259326746E+02 -0.17790413935E+03  0.30429343381E+03  0.12500000000E+03 0.  0.
</event>
<event>
 5    0  0.5619558E-005  0.3423122E+03  0.7546771E-02  0.1065815E+00
         21   -1    0    0  502  501  0.00000000000E+00  0.00000000000E+00  0.15242063079E+04  0.15242063079E+04  0.00000000000E+00 0.  1.
         21   -1    0    0  501  502 -0.00000000000E+00 -0.00000000000E+00 -0.76877818047E+02  0.76877818047E+02  0.00000000000E+00 0.  1.
         25    1    1    2    0    0 -0.79411735374E+02  0.14641605327E+03  0.43212547877E+03  0.47968876761E+03  0.12500000000E+03 0.  0.
         25    1    1    2    0    0  0.84559019844E+01 -0.13977065925E+03  0.13928157358E+03  0.23373424269E+03  0.12500000000E+03 0.  0.
         25    1    1    2    0    0  0.70955833390E+02 -0.66453940172E+01  0.87592143746E+03  0.88766111561E+03  0.12500000000E+03 0.  0.
</event>
<event>
 5    0  0.5619558E-005  0.2813265E+03  0.7546771E-02  0.1094967E+00
         21   -1    0    0  502  501  0.00000000000E+00  0.00000000000E+00  0.21964457576E+04  0.21964457576E+04  0.00000000000E+00 0. -1.
         21   -1    0    0  501  502 -0.00000000000E+00 -0.00000000000E+00 -0.36033034563E+02  0.36033034563E+02  0.00000000000E+00 0. -1.
         25    1    1    2    0    0  0.17160374461E+03  0.62339117865E+02  0.78534404598E+03  0.81591928605E+03  0.12500000000E+03 0.  0.
         25    1    1    2    0    0 -0.12479021225E+03  0.28082686486E+02  0.75098870830E+03  0.77199111027E+03  0.12500000000E+03 0.  0.
         25    1    1    2    0    0 -0.46813532355E+02 -0.90421804351E+02  0.62407996875E+03  0.64456839583E+03  0.12500000000E+03 0.  0.
</event>
<event>
 5    0  0.5619558E-005  0.2601871E+03  0.7546771E-02  0.1107031E+00
         21   -1    0    0  502  501  0.00000000000E+00  0.00000000000E+00  0.10219066307E+03  0.10219066307E+03  0.00000000000E+00 0.  1.
         21   -1    0    0  501  502 -0.00000000000E+00 -0.00000000000E+00 -0.66246121226E+03  0.66246121226E+03  0.00000000000E+00 0.  1.
         25    1    1    2    0    0 -0.13419193123E+03  0.19285061909E+02 -0.14972019924E+03  0.23753005300E+03  0.12500000000E+03 0.  0.
         25    1    1    2    0    0  0.38254121656E+02  0.67349171118E+02 -0.22451993323E+03  0.26839055328E+03  0.12500000000E+03 0.  0.
         25    1    1    2    0    0  0.95937809570E+02 -0.86634233026E+02 -0.18603041672E+03  0.25873126905E+03  0.12500000000E+03 0.  0.
</event>
<event>
 5    0  0.5619558E-005  0.2850139E+03  0.7546771E-02  0.1092982E+00
         21   -1    0    0  502  501  0.00000000000E+00  0.00000000000E+00  0.48374973017E+02  0.48374973017E+02  0.00000000000E+00 0. -1.
         21   -1    0    0  501  502 -0.00000000000E+00 -0.00000000000E+00 -0.16792349735E+04  0.16792349735E+04  0.00000000000E+00 0. -1.
         25    1    1    2    0    0  0.13485167604E+03  0.10302273923E+03 -0.92993487687E+03  0.95352112433E+03  0.12500000000E+03 0.  0.
         25    1    1    2    0    0 -0.23579689886E+02 -0.11061971455E+02 -0.19259524692E+03  0.23107639024E+03  0.12500000000E+03 0.  0.
         25    1    1    2    0    0 -0.11127198615E+03 -0.91960767773E+02 -0.50832987666E+03  0.54301243191E+03  0.12500000000E+03 0.  0.
</event>
<event>
 5    0  0.5619558E-005  0.2239719E+03  0.7546771E-02  0.1130956E+00
         21   -1    0    0  502  501  0.00000000000E+00  0.00000000000E+00  0.51693647232E+03  0.51693647232E+03  0.00000000000E+00 0.  1.
         21   -1    0    0  501  502 -0.00000000000E+00 -0.00000000000E+00 -0.97039827841E+02  0.97039827841E+02  0.00000000000E+00 0.  1.
         25    1    1    2    0    0 -0.42888365280E+02  0.59068696895E+02  0.27419174011E+03  0.31005585492E+03  0.12500000000E+03 0.  0.
         25    1    1    2    0    0  0.25432877765E+02 -0.66995353640E+01  0.90485425488E+02  0.15653858078E+03  0.12500000000E+03 0.  0.
         25    1    1    2    0    0  0.17455487515E+02 -0.52369161531E+02  0.55219478884E+02  0.14738186446E+03  0.12500000000E+03 0.  0.
</event>
<event>
 5    0  0.5619558E-005  0.2958179E+03  0.7546771E-02  0.1087350E+00
         21   -1    0    0  502  501  0.00000000000E+00  0.00000000000E+00  0.39894805269E+03  0.39894805269E+03  0.00000000000E+00 0.  1.
         21   -1    0    0  501  502 -0.00000000000E+00 -0.00000000000E+00 -0.21934736621E+03  0.21934736621E+03  0.00000000000E+00 0.  1.
         25    1    1    2    0    0 -0.46576873263E+02  0.56761390365E+02 -0.64562513040E+02  0.15869649854E+03  0.12500000000E+03 0.  0.
         25    1    1    2    0    0  0.11480146841E+03 -0.11331527194E+03  0.22727127230E+03  0.30544550941E+03  0.12500000000E+03 0.  0.
         25    1    1    2    0    0 -0.68224595146E+02  0.56553881574E+02  0.16891927212E+02  0.15415341095E+03  0.12500000000E+03 0.  0.
</event>
<event>
 5    0  0.5619558E-005  0.2964302E+03  0.7546771E-02  0.1087039E+00
         21   -1    0    0  502  501  0.00000000000E+00  0.00000000000E+00  0.57606122249E+03  0.57606122249E+03  0.00000000000E+00 0.  1.
         21   -1    0    0  501  502 -0.00000000000E+00 -0.00000000000E+00 -0.15253734612E+03  0.15253734612E+03  0.00000000000E+00 0.  1.
         25    1    1    2    0    0 -0.12651763407E+03  0.21645687310E+02  0.13082195235E+03  0.22184370788E+03  0.12500000000E+03 0.  0.
         25    1    1    2    0    0  0.57909751228E+02 -0.15600816055E+03  0.96254316580E+02  0.22930760760E+03  0.12500000000E+03 0.  0.
         25    1    1    2    0    0  0.68607882843E+02  0.13436247324E+03  0.19644760744E+03  0.27744725313E+03  0.12500000000E+03 0.  0.
</event>
<event>
 5    0  0.5619558E-005  0.3579552E+03  0.7546771E-02  0.1059396E+00
         21   -1    0    0  502  501  0.00000000000E+00  0.00000000000E+00  0.72757318732E+03  0.72757318732E+03  0.00000000000E+00 0. -1.
         21   -1    0    0  501  502 -0.00000000000E+00 -0.00000000000E+00 -0.17610868434E+03  0.17610868434E+03  0.00000000000E+00 0. -1.
         25    1    1    2    0    0  0.87776761757E+02 -0.34917735124E+02  0.56199383255E+02  0.16645533578E+03  0.12500000000E+03 0.  0.
         25    1    1    2    0    0  0.14030556068E+03  0.11084684998E+03  0.38936228093E+03  0.44631901183E+03  0.12500000000E+03 0.  0.
         25    1    1    2    0    0 -0.22808232244E+03 -0.75929114855E+02  0.10590283880E+03  0.29090752406E+03  0.12500000000E+03 0.  0.
</event>
<event>
 5    0  0.5619558E-005  0.2469066E+03  0.7546771E-02  0.1115276E+00
         21   -1    0    0  502  501  0.00000000000E+00  0.00000000000E+00  0.13209750131E+03  0.13209750131E+03  0.00000000000E+00 0.  1.
         21   -1    0    0  501  502 -0.00000000000E+00 -0.00000000000E+00 -0.46149908383E+03  0.46149908383E+03  0.00000000000E+00 0.  1.
         25    1    1    2    0    0  0.75935512482E+02 -0.73838681441E+01 -0.16503587361E+03  0.22064125440E+03  0.12500000000E+03 0.  0.
         25    1    1    2    0    0 -0.78300107977E+02  0.94014754170E+02 -0.12749185510E+03  0.21644596098E+03  0.12500000000E+03 0.  0.
         25    1    1    2    0    0  0.23645954947E+01 -0.86630886025E+02 -0.36873853822E+02  0.15650936975E+03  0.12500000000E+03 0.  0.
</event>
<event>
 5    0  0.5619558E-005  0.2546065E+03  0.7546771E-02  0.1110428E+00
         21   -1    0    0  502  501  0.00000000000E+00  0.00000000000E+00  0.17734901342E+03  0.17734901342E+03  0.00000000000E+00 0. -1.
         21   -1    0    0  501  502 -0.00000000000E+00 -0.00000000000E+00 -0.36551920587E+03  0.36551920587E+03  0.00000000000E+00 0.  1.
         25    1    1    2    0    0  0.13140807287E+03 -0.59444075946E+02 -0.32598245094E+02  0.19362160356E+03  0.12500000000E+03 0.  0.
         25    1    1    2    0    0 -0.12288597947E+03  0.83012438284E+01 -0.68795650006E+02  0.18848797325E+03  0.12500000000E+03 0.  0.
         25    1    1    2    0    0 -0.85220933986E+01  0.51142832117E+02 -0.86776297354E+02  0.16075864249E+03  0.12500000000E+03 0.  0.
</event>
<event>
 5    0  0.5619558E-005  0.3672169E+03  0.7546771E-02  0.1055762E+00
         21   -1    0    0  502  501  0.00000000000E+00  0.00000000000E+00  0.14731643243E+03  0.14731643243E+03  0.00000000000E+00 0. -1.
         21   -1    0    0  501  502 -0.00000000000E+00 -0.00000000000E+00 -0.91536463705E+03  0.91536463705E+03  0.00000000000E+00 0. -1.
         25    1    1    2    0    0  0.94307115059E+02 -0.20831189289E+03 -0.33367513011E+03  0.42338135189E+03  0.12500000000E+03 0.  0.
         25    1    1    2    0    0  0.11782837436E+03  0.65018916066E+02 -0.18491071446E+03  0.26062992455E+03  0.12500000000E+03 0.  0.
         25    1    1    2    0    0 -0.21213548942E+03  0.14329297682E+03 -0.24946236005E+03  0.37866979304E+03  0.12500000000E+03 0.  0.
</event>
<event>
 5    0  0.5619558E-005  0.2507541E+03  0.7546771E-02  0.1112829E+00
         21   -1    0    0  502  501  0.00000000000E+00  0.00000000000E+00  0.39110660355E+03  0.39110660355E+03  0.00000000000E+00 0. -1.
         21   -1    0    0  501  502 -0.00000000000E+00 -0.00000000000E+00 -0.16076851750E+03  0.16076851750E+03  0.00000000000E+00 0. -1.
         25    1    1    2    0    0  0.10000289164E+03  0.11943540776E+03  0.60062926842E+02  0.20856162193E+03  0.12500000000E+03 0.  0.
         25    1    1    2    0    0 -0.48439896807E+02 -0.34675998095E+02  0.75810458692E+02  0.15786410008E+03  0.12500000000E+03 0.  0.
         25    1    1    2    0    0 -0.51562994832E+02 -0.84759409660E+02  0.94464700508E+02  0.18544939904E+03  0.12500000000E+03 0.  0.
</event>
<event>
 5    0  0.5619558E-005  0.2581116E+03  0.7546771E-02  0.1108283E+00
         21   -1    0    0  502  501  0.00000000000E+00  0.00000000000E+00  0.12694800141E+03  0.12694800141E+03  0.00000000000E+00 0.  1.
         21   -1    0    0  501  502 -0.00000000000E+00 -0.00000000000E+00 -0.52479440259E+03  0.52479440259E+03  0.00000000000E+00 0.  1.
         25    1    1    2    0    0 -0.24650328890E+02 -0.15844105793E+03 -0.12994398406E+03  0.24129162137E+03  0.12500000000E+03 0.  0.
         25    1    1    2    0    0  0.26673318400E+02  0.12807031146E+03 -0.17536372784E+03  0.25197402174E+03  0.12500000000E+03 0.  0.
         25    1    1    2    0    0 -0.20229895100E+01  0.30370746467E+02 -0.92538689271E+02  0.15847676088E+03  0.12500000000E+03 0.  0.
</event>
<event>
 5    0  0.5619558E-005  0.3513592E+03  0.7546771E-02  0.1062059E+00
         21   -1    0    0  502  501  0.00000000000E+00  0.00000000000E+00  0.77617910461E+02  0.77617910461E+02  0.00000000000E+00 0. -1.
         21   -1    0    0  501  502 -0.00000000000E+00 -0.00000000000E+00 -0.15905253374E+04  0.15905253374E+04  0.00000000000E+00 0. -1.
         25    1    1    2    0    0 -0.57147978389E+02 -0.91357192271E+02 -0.28585843374E+03  0.33007888778E+03  0.12500000000E+03 0.  0.
         25    1    1    2    0    0  0.55957464337E+02  0.87620975885E+02 -0.74656607791E+02  0.17890579174E+03  0.12500000000E+03 0.  0.
         25    1    1    2    0    0  0.11905140521E+01  0.37362163859E+01 -0.11523923854E+04  0.11591585683E+04  0.12500000000E+03 0.  0.
</event>
<event>
 5    0  0.5619558E-005  0.3025967E+03  0.7546771E-02  0.1083950E+00
         21   -1    0    0  502  501  0.00000000000E+00  0.00000000000E+00  0.11082722122E+03  0.11082722122E+03  0.00000000000E+00 0. -1.
         21   -1    0    0  501  502 -0.00000000000E+00 -0.00000000000E+00 -0.82619379711E+03  0.82619379711E+03  0.00000000000E+00 0. -1.
         25    1    1    2    0    0  0.64031712811E+02 -0.94303452275E+02 -0.13181299531E+03  0.21445947657E+03  0.12500000000E+03 0.  0.
         25    1    1    2    0    0  0.31377164202E+01  0.19966849157E+02 -0.54264818092E+03  0.55722577882E+03  0.12500000000E+03 0.  0.
         25    1    1    2    0    0 -0.67169429232E+02  0.74336603118E+02 -0.40905399649E+02  0.16533576294E+03  0.12500000000E+03 0.  0.
</event>
<event>
 5    0  0.5619558E-005  0.3327180E+03  0.7546771E-02  0.1069941E+00
         21   -1    0    0  502  501  0.00000000000E+00  0.00000000000E+00  0.46194411264E+03  0.46194411264E+03  0.00000000000E+00 0.  1.
         21   -1    0    0  501  502 -0.00000000000E+00 -0.00000000000E+00 -0.23964214492E+03  0.23964214492E+03  0.00000000000E+00 0.  1.
         25    1    1    2    0    0 -0.16691005745E+03 -0.81633340595E+02  0.45773357864E+02  0.22856764833E+03  0.12500000000E+03 0.  0.
         25    1    1    2    0    0 -0.52973533735E+02 -0.60573882577E+02  0.61690443961E+02  0.16095372441E+03  0.12500000000E+03 0.  0.
         25    1    1    2    0    0  0.21988359118E+03  0.14220722317E+03  0.11483816589E+03  0.31206488482E+03  0.12500000000E+03 0.  0.
</event>
<event>
 5    0  0.5619558E-005  0.2262613E+03  0.7546771E-02  0.1129299E+00
         21   -1    0    0  502  501  0.00000000000E+00  0.00000000000E+00  0.14439695543E+03  0.14439695543E+03  0.00000000000E+00 0.  1.
         21   -1    0    0  501  502 -0.00000000000E+00 -0.00000000000E+00 -0.35453769967E+03  0.35453769967E+03  0.00000000000E+00 0.  1.
         25    1    1    2    0    0 -0.30252923347E+00  0.36076712827E+02 -0.87579853770E+02  0.15683383410E+03  0.12500000000E+03 0.  0.
         25    1    1    2    0    0 -0.68625730008E+02  0.14851231221E+02 -0.12546319210E+03  0.19051525519E+03  0.12500000000E+03 0.  0.
         25    1    1    2    0    0  0.68928259242E+02 -0.50927944049E+02  0.29023016196E+01  0.15158556581E+03  0.12500000000E+03 0.  0.
</event>
<event>
 5    0  0.5619558E-005  0.3037610E+03  0.7546771E-02  0.1083375E+00
         21   -1    0    0  502  501  0.00000000000E+00  0.00000000000E+00  0.11380222795E+04  0.11380222795E+04  0.00000000000E+00 0. -1.
         21   -1    0    0  501  502 -0.00000000000E+00 -0.00000000000E+00 -0.81079930307E+02  0.81079930307E+02  0.00000000000E+00 0. -1.
         25    1    1    2    0    0 -0.97573665611E+02 -0.95701023471E+02  0.71157952057E+03  0.73528886855E+03  0.12500000000E+03 0.  0.
         25    1    1    2    0    0  0.10406807022E+03  0.10574982853E+03  0.28428797628E+03  0.34417705172E+03  0.12500000000E+03 0.  0.
         25    1    1    2    0    0 -0.64944046061E+01 -0.10048805056E+02  0.61074852381E+02  0.13963628958E+03  0.12500000000E+03 0.  0.
</event>
<event>
 5    0  0.5619558E-005  0.4012936E+03  0.7546771E-02  0.1043333E+00
         21   -1    0    0  502  501  0.00000000000E+00  0.00000000000E+00  0.67845849377E+03  0.67845849377E+03  0.00000000000E+00 0.  1.
         21   -1    0    0  501  502 -0.00000000000E+00 -0.00000000000E+00 -0.23735654119E+03  0.23735654119E+03  0.00000000000E+00 0.  1.
         25    1    1    2    0    0 -0.15011818813E+03  0.83608883126E+02 -0.94277697570E+02  0.23246333045E+03  0.12500000000E+03 0.  0.
         25    1    1    2    0    0  0.15638084506E+02 -0.17694468745E+03  0.24616014804E+03  0.32828918743E+03  0.12500000000E+03 0.  0.
         25    1    1    2    0    0  0.13448010362E+03  0.93335804321E+02  0.28921950211E+03  0.35506251708E+03  0.12500000000E+03 0.  0.
</event>
<event>
 5    0  0.5619558E-005  0.4547677E+03  0.7546771E-02  0.1026310E+00
         21   -1    0    0  502  501  0.00000000000E+00  0.00000000000E+00  0.20440933152E+03  0.20440933152E+03  0.00000000000E+00 0. -1.
         21   -1    0    0  501  502 -0.00000000000E+00 -0.00000000000E+00 -0.10117623645E+04  0.10117623645E+04  0.00000000000E+00 0. -1.
         25    1    1    2    0    0 -0.40852194640E+02 -0.20013453140E+03 -0.21618517046E+03  0.32262014877E+03  0.12500000000E+03 0.  0.
         25    1    1    2    0    0 -0.11007203232E+03 -0.13557167096E+03 -0.41394950713E+03  0.46634185392E+03  0.12500000000E+03 0.  0.
         25    1    1    2    0    0  0.15092422696E+03  0.33570620236E+03 -0.17721835538E+03  0.42720969332E+03  0.12500000000E+03 0.  0.
</event>
<event>
 5    0  0.5619558E-005  0.2210821E+03  0.7546771E-02  0.1133079E+00
         21   -1    0    0  502  501  0.00000000000E+00  0.00000000000E+00  0.10466860752E+04  0.10466860752E+04  0.00000000000E+00 0.  1.
         21   -1    0    0  501  502 -0.00000000000E+00 -0.00000000000E+00 -0.46697174822E+02  0.46697174822E+02  0.00000000000E+00 0.  1.
         25    1    1    2    0    0  0.30279694663E+02 -0.27989627481E+02  0.54596953043E+03  0.56161197219E+03  0.12500000000E+03 0.  0.
         25    1    1    2    0    0  0.92404995753E+01 -0.14792873496E+02  0.13821121062E+03  0.18716718377E+03  0.12500000000E+03 0.  0.
         25    1    1    2    0    0 -0.39520194238E+02  0.42782500977E+02  0.31580815929E+03  0.34460409402E+03  0.12500000000E+03 0.  0.
</event>
<event>
 5    0  0.5619558E-005  0.3264041E+03  0.7546771E-02  0.1072739E+00
         21   -1    0    0  502  501  0.00000000000E+00  0.00000000000E+00  0.14491138103E+03  0.14491138103E+03  0.00000000000E+00 0. -1.
         21   -1    0    0  501  502 -0.00000000000E+00 -0.00000000000E+00 -0.73520558587E+03  0.73520558587E+03  0.00000000000E+00 0. -1.
         25    1    1    2    0    0  0.16177134377E+02  0.10353556606E+03 -0.37823951651E+02  0.16744242125E+03  0.12500000000E+03 0.  0.
         25    1    1    2    0    0 -0.13088481451E+03 -0.13671094678E+03 -0.14280062559E+03  0.26802562621E+03  0.12500000000E+03 0.  0.
         25    1    1    2    0    0  0.11470768013E+03  0.33175380724E+02 -0.40966962760E+03  0.44464891943E+03  0.12500000000E+03 0.  0.
</event>
<event>
 5    0  0.5619558E-005  0.5244470E+03  0.7546771E-02  0.1007588E+00
         21   -1    0    0  502  501  0.00000000000E+00  0.00000000000E+00  0.11665857424E+04  0.11665857424E+04  0.00000000000E+00 0. -1.
         21   -1    0    0  501  502 -0.00000000000E+00 -0.00000000000E+00 -0.23576891489E+03  0.23576891489E+03  0.00000000000E+00 0. -1.
         25    1    1    2    0    0  0.17192035403E+03  0.39969366810E+02 -0.65886257770E+02  0.22609767220E+03  0.12500000000E+03 0.  0.
         25    1    1    2    0    0 -0.26729238587E+03  0.63154112054E+02  0.92839327831E+03  0.97620322711E+03  0.12500000000E+03 0.  0.
         25    1    1    2    0    0  0.95372031841E+02 -0.10312347886E+03  0.68309806961E+02  0.20005375797E+03  0.12500000000E+03 0.  0.
</event>
<event>
 5    0  0.5619558E-005  0.3459777E+03  0.7546771E-02  0.1064278E+00
         21   -1    0    0  502  501  0.00000000000E+00  0.00000000000E+00  0.59512205757E+03  0.59512205757E+03  0.00000000000E+00 0. -1.
         21   -1    0    0  501  502 -0.00000000000E+00 -0.00000000000E+00 -0.20113615806E+03  0.20113615806E+03  0.00000000000E+00 0. -1.
         25    1    1    2    0    0  0.17019054376E+01  0.80531091191E+02  0.15146375181E+03  0.21226026770E+03  0.12500000000E+03 0.  0.
         25    1    1    2    0    0  0.14598994605E+03  0.10518676800E+02  0.30549630491E+03  0.36107713750E+03  0.12500000000E+03 0.  0.
         25    1    1    2    0    0 -0.14769185149E+03 -0.91049767992E+02 -0.62974157208E+02  0.22292081043E+03  0.12500000000E+03 0.  0.
</event>
<event>
 5    0  0.5619558E-005  0.2022773E+03  0.7546771E-02  0.1147832E+00
         21   -1    0    0  502  501  0.00000000000E+00  0.00000000000E+00  0.75182987153E+03  0.75182987153E+03  0.00000000000E+00 0. -1.
         21   -1    0    0  501  502 -0.00000000000E+00 -0.00000000000E+00 -0.54422050382E+02  0.54422050382E+02  0.00000000000E+00 0. -1.
         25    1    1    2    0    0 -0.29839515532E+02 -0.46181864899E+02  0.26462265381E+03  0.29778064114E+03  0.12500000000E+03 0.  0.
         25    1    1    2    0    0 -0.19935715307E+02  0.10460812400E+02  0.18827924549E+03  0.22711436683E+03  0.12500000000E+03 0.  0.
         25    1    1    2    0    0  0.49775230840E+02  0.35721052498E+02  0.24450592185E+03  0.28135691393E+03  0.12500000000E+03 0.  0.
</event>
<event>
 5    0  0.6111067E-005  0.2880857E+03  0.7546771E-02  0.1091353E+00
         21   -1    0    0  502  501  0.00000000000E+00  0.00000000000E+00  0.94917491591E+02  0.94917491591E+02  0.00000000000E+00 0. -1.
         21   -1    0    0  501  502 -0.00000000000E+00 -0.00000000000E+00 -0.87437394374E+03  0.87437394374E+03  0.00000000000E+00 0. -1.
         25    1    1    2    0    0  0.62650890648E+02  0.34285687807E+02 -0.12927991009E+03  0.19349144074E+03  0.12500000000E+03 0.  0.
         25    1    1    2    0    0  0.66029581866E+02  0.10711520093E+03 -0.17804615884E+03  0.25131455714E+03  0.12500000000E+03 0.  0.
         25    1    1    2    0    0 -0.12868047251E+03 -0.14140088873E+03 -0.47213038322E+03  0.52448543745E+03  0.12500000000E+03 0.  0.
</event>
<event>
 5    0  0.5619558E-005  0.2974116E+03  0.7546771E-02  0.1086542E+00
         21   -1    0    0  502  501  0.00000000000E+00  0.00000000000E+00  0.31796661405E+03  0.31796661405E+03  0.00000000000E+00 0.  1.
         21   -1    0    0  501  502 -0.00000000000E+00 -0.00000000000E+00 -0.27818541681E+03  0.27818541681E+03  0.00000000000E+00 0.  1.
         25    1    1    2    0    0 -0.28209759253E+02  0.98316235676E+02  0.10516305045E+03  0.19273333882E+03  0.12500000000E+03 0.  0.
         25    1    1    2    0    0 -0.11419485580E+03 -0.18355448820E+02 -0.95988284859E+02  0.19548948418E+03  0.12500000000E+03 0.  0.
         25    1    1    2    0    0  0.14240461505E+03 -0.79960786856E+02  0.30606431646E+02  0.20792920786E+03  0.12500000000E+03 0.  0.
</event>
<event>
 5    0  0.6520109E-005  0.2742139E+03  0.7546771E-02  0.1098892E+00
         21   -1    0    0  502  501  0.00000000000E+00  0.00000000000E+00  0.41528100008E+03  0.41528100008E+03  0.00000000000E+00 0.  1.
         21   -1    0    0  501  502 -0.00000000000E+00 -0.00000000000E+00 -0.18106597390E+03  0.18106597390E+03  0.00000000000E+00 0.  1.
         25    1    1    2    0    0 -0.10268065075E+03  0.20614140817E+02  0.83219442953E+02  0.18308122385E+03  0.12500000000E+03 0.  0.
         25    1    1    2    0    0 -0.75144972479E+02  0.52331729997E+02  0.50982689715E+02  0.16312452760E+03  0.12500000000E+03 0.  0.
         25    1    1    2    0    0  0.17782562322E+03 -0.72945870815E+02  0.10001289352E+03  0.25014122254E+03  0.12500000000E+03 0.  0.
</event>
<event>
 5    0  0.5619558E-005  0.3003485E+03  0.7546771E-02  0.1085067E+00
         21   -1    0    0  502  501  0.00000000000E+00  0.00000000000E+00  0.19599292041E+04  0.19599292041E+04  0.00000000000E+00 0.  1.
         21   -1    0    0  501  502 -0.00000000000E+00 -0.00000000000E+00 -0.46026790382E+02  0.46026790382E+02  0.00000000000E+00 0.  1.
         25    1    1    2    0    0 -0.13516324736E+03 -0.80202510537E+02  0.76455675995E+03  0.79048945933E+03  0.12500000000E+03 0.  0.
         25    1    1    2    0    0  0.85750106310E+02 -0.28022332434E+02  0.89453481607E+03  0.90772014906E+03  0.12500000000E+03 0.  0.
         25    1    1    2    0    0  0.49413141045E+02  0.10822484297E+03  0.25481083771E+03  0.30774638610E+03  0.12500000000E+03 0.  0.
</event>
<event>
 5    0  0.5619558E-005  0.2657726E+03  0.7546771E-02  0.1103724E+00
         21   -1    0    0  502  501  0.00000000000E+00  0.00000000000E+00  0.27726252642E+03  0.27726252642E+03  0.00000000000E+00 0. -1.
         21   -1    0    0  501  502 -0.00000000000E+00 -0.00000000000E+00 -0.25475883186E+03  0.25475883186E+03  0.00000000000E+00 0. -1.
         25    1    1    2    0    0 -0.42372603650E+02 -0.85066549186E+02  0.42969642441E+02  0.16279786701E+03  0.12500000000E+03 0.  0.
         25    1    1    2    0    0 -0.33688954204E+01  0.13239437231E+03  0.76866779905E+02  0.19766922150E+03  0.12500000000E+03 0.  0.
         25    1    1    2    0    0  0.45741499070E+02 -0.47327823122E+02 -0.97332727786E+02  0.17155426977E+03  0.12500000000E+03 0.  0.
</event>
<event>
 5    0  0.5619558E-005  0.4432323E+03  0.7546771E-02  0.1029760E+00
         21   -1    0    0  502  501  0.00000000000E+00  0.00000000000E+00  0.21899993882E+03  0.21899993882E+03  0.00000000000E+00 0. -1.
         21   -1    0    0  501  502 -0.00000000000E+00 -0.00000000000E+00 -0.89705461804E+03  0.89705461804E+03  0.00000000000E+00 0. -1.
         25    1    1    2    0    0 -0.15347645446E+03 -0.27080456755E+03 -0.44048711390E+03  0.55366418828E+03  0.12500000000E+03 0.  0.
         25    1    1    2    0    0  0.48978082942E+02  0.11314917211E+01  0.42514647750E+02  0.14082836417E+03  0.12500000000E+03 0.  0.
         25    1    1    2    0    0  0.10449837151E+03  0.26967307583E+03 -0.28008221308E+03  0.42156200441E+03  0.12500000000E+03 0.  0.
</event>
<event>
 5    0  0.5619558E-005  0.5871822E+03  0.7546771E-02  0.9932362E-01
         21   -1    0    0  502  501  0.00000000000E+00  0.00000000000E+00  0.30523364783E+03  0.30523364783E+03  0.00000000000E+00 0. -1.
         21   -1    0    0  501  502 -0.00000000000E+00 -0.00000000000E+00 -0.11295706535E+04  0.11295706535E+04  0.00000000000E+00 0. -1.
         25    1    1    2    0    0  0.42196977610E+03 -0.13347428906E+03 -0.53578498652E+03  0.70609094992E+03  0.12500000000E+03 0.  0.
         25    1    1    2    0    0 -0.26115419705E+03  0.12344631673E+02 -0.37722615352E+03  0.47568737156E+03  0.12500000000E+03 0.  0.
         25    1    1    2    0    0 -0.16081557906E+03  0.12112965739E+03  0.88674134368E+02  0.25302597984E+03  0.12500000000E+03 0.  0.
</event>
<event>
 5    0  0.5619558E-005  0.6381951E+03  0.7546771E-02  0.9829186E-01
         21   -1    0    0  502  501  0.00000000000E+00  0.00000000000E+00  0.68844038731E+03  0.68844038731E+03  0.00000000000E+00 0. -1.
         21   -1    0    0  501  502 -0.00000000000E+00 -0.00000000000E+00 -0.59161695517E+03  0.59161695517E+03  0.00000000000E+00 0. -1.
         25    1    1    2    0    0 -0.90911443686E+02  0.18708431896E+03  0.46821319288E+03  0.52736517422E+03  0.12500000000E+03 0.  0.
         25    1    1    2    0    0 -0.67534944720E+02 -0.25779663680E+03 -0.43887717173E+03  0.52844890630E+03  0.12500000000E+03 0.  0.
         25    1    1    2    0    0  0.15844638841E+03  0.70712317840E+02  0.67487410985E+02  0.22424326196E+03  0.12500000000E+03 0.  0.
</event>
<event>
 5    0  0.5619558E-005  0.4098673E+03  0.7546771E-02  0.1040416E+00
         21   -1    0    0  502  501  0.00000000000E+00  0.00000000000E+00  0.36611687494E+03  0.36611687494E+03  0.00000000000E+00 0. -1.
         21   -1    0    0  501  502 -0.00000000000E+00 -0.00000000000E+00 -0.45884582949E+03  0.45884582949E+03  0.00000000000E+00 0. -1.
         25    1    1    2    0    0 -0.13846445598E+03  0.18024555238E+02 -0.23698442808E+03  0.30213227122E+03  0.12500000000E+03 0.  0.
         25    1    1    2    0    0  0.23994376273E+01  0.14512710141E+03 -0.62097394038E+02  0.20136712545E+03  0.12500000000E+03 0.  0.
         25    1    1    2    0    0  0.13606501835E+03 -0.16315165665E+03  0.20635286756E+03  0.32146330776E+03  0.12500000000E+03 0.  0.
</event>
<event>
 5    0  0.5619558E-005  0.3997864E+03  0.7546771E-02  0.1043854E+00
         21   -1    0    0  502  501  0.00000000000E+00  0.00000000000E+00  0.75890866043E+03  0.75890866043E+03  0.00000000000E+00 0. -1.
         21   -1    0    0  501  502 -0.00000000000E+00 -0.00000000000E+00 -0.21060394741E+03  0.21060394741E+03  0.00000000000E+00 0. -1.
         25    1    1    2    0    0 -0.11524243580E+03  0.12479897383E+03  0.47661011904E+03  0.52118884145E+03  0.12500000000E+03 0.  0.
         25    1    1    2    0    0  0.81948087388E+02 -0.12730878151E+03 -0.11016828875E+03  0.22513344204E+03  0.12500000000E+03 0.  0.
         25    1    1    2    0    0  0.33294348414E+02  0.25098076825E+01  0.18186288273E+03  0.22319032436E+03  0.12500000000E+03 0.  0.
</event>
<event>
 5    0  0.5619558E-005  0.4460647E+03  0.7546771E-02  0.1028902E+00
         21   -1    0    0  502  501  0.00000000000E+00  0.00000000000E+00  0.14479268094E+04  0.14479268094E+04  0.00000000000E+00 0. -1.
         21   -1    0    0  501  502 -0.00000000000E+00 -0.00000000000E+00 -0.13741976317E+03  0.13741976317E+03  0.00000000000E+00 0. -1.
         25    1    1    2    0    0  0.13693354279E+03 -0.28435123541E+03  0.54428438036E+03  0.64146465758E+03  0.12500000000E+03 0.  0.
         25    1    1    2    0    0  0.37957044563E+02 -0.35679705418E+02  0.81412313684E+02  0.15800868150E+03  0.12500000000E+03 0.  0.
         25    1    1    2    0    0 -0.17489058736E+03  0.32003094083E+03  0.68481035218E+03  0.78587323347E+03  0.12500000000E+03 0.  0.
</event>
<event>
 5    0  0.5619558E-005  0.3233875E+03  0.7546771E-02  0.1074101E+00
         21   -1    0    0  502  501  0.00000000000E+00  0.00000000000E+00  0.48234317500E+02  0.48234317500E+02  0.00000000000E+00 0.  1.
         21   -1    0    0  501  502 -0.00000000000E+00 -0.00000000000E+00 -0.21681552483E+04  0.21681552483E+04  0.00000000000E+00 0.  1.
         25    1    1    2    0    0 -0.15947513012E+03  0.82223191630E+02 -0.12588889806E+04  0.12777399719E+04  0.12500000000E+03 0.  0.
         25    1    1    2    0    0  0.61478916282E+02  0.65862989736E+02 -0.30490725345E+03  0.34162995151E+03  0.12500000000E+03 0.  0.
         25    1    1    2    0    0  0.97996213835E+02 -0.14808618137E+03 -0.55612469675E+03  0.59701964237E+03  0.12500000000E+03 0.  0.
</event>
<event>
 5    0  0.5619558E-005  0.3355676E+03  0.7546771E-02  0.1068700E+00
         21   -1    0    0  502  501  0.00000000000E+00  0.00000000000E+00  0.31385863375E+03  0.31385863375E+03  0.00000000000E+00 0. -1.
         21   -1    0    0  501  502 -0.00000000000E+00 -0.00000000000E+00 -0.35877807864E+03  0.35877807864E+03  0.00000000000E+00 0. -1.
         25    1    1    2    0    0 -0.16043736035E+03 -0.23944343927E+02  0.20480451277E+02  0.20581041540E+03  0.12500000000E+03 0.  0.
         25    1    1    2    0    0  0.30755329344E+02  0.14202469564E+03  0.79215890709E+02  0.20740554910E+03  0.12500000000E+03 0.  0.
         25    1    1    2    0    0  0.12968203101E+03 -0.11808035171E+03 -0.14461578687E+03  0.25942074790E+03  0.12500000000E+03 0.  0.
</event>
<event>
 5    0  0.5619558E-005  0.3119841E+03  0.7546771E-02  0.1079399E+00
         21   -1    0    0  502  501  0.00000000000E+00  0.00000000000E+00  0.28898570621E+03  0.28898570621E+03  0.00000000000E+00 0. -1.
         21   -1    0    0  501  502 -0.00000000000E+00 -0.00000000000E+00 -0.33681269136E+03  0.33681269136E+03  0.00000000000E+00 0. -1.
         25    1    1    2    0    0  0.64595821831E+02 -0.83565713242E+02 -0.16340359967E+03  0.23126085923E+03  0.12500000000E+03 0.  0.
         25    1    1    2    0    0  0.71711639932E+02  0.91765913005E+02  0.12096072561E+03  0.20933236547E+03  0.12500000000E+03 0.  0.
         25    1    1    2    0    0 -0.13630746176E+03 -0.82001997624E+01 -0.53841110926E+01  0.18520517288E+03  0.12500000000E+03 0.  0.
</event>
<event>
 5    0  0.7502942E-005  0.2588559E+03  0.7546771E-02  0.1107833E+00
         21   -1    0    0  502  501  0.00000000000E+00  0.00000000000E+00  0.10904321780E+03  0.10904321780E+03  0.00000000000E+00 0. -1.
         21   -1    0    0  501  502 -0.00000000000E+00 -0.00000000000E+00 -0.61449370420E+03  0.61449370420E+03  0.00000000000E+00 0. -1.
         25    1    1    2    0    0  0.11400604799E+02  0.61661922305E+02 -0.27595140216E+02  0.14254353095E+03  0.12500000000E+03 0.  0.
         25    1    1    2    0    0  0.13623673444E+01  0.67464356472E+02 -0.14800033812E+03  0.20513994132E+03  0.12500000000E+03 0.  0.
         25    1    1    2    0    0 -0.12762972143E+02 -0.12912627878E+03 -0.32985500806E+03  0.37585344973E+03  0.12500000000E+03 0.  0.
</event>
<event>
 5    0  0.5619558E-005  0.2847382E+03  0.7546771E-02  0.1093129E+00
         21   -1    0    0  502  501  0.00000000000E+00  0.00000000000E+00  0.14811655603E+03  0.14811655603E+03  0.00000000000E+00 0. -1.
         21   -1    0    0  501  502 -0.00000000000E+00 -0.00000000000E+00 -0.54737877569E+03  0.54737877569E+03  0.00000000000E+00 0. -1.
         25    1    1    2    0    0  0.32841803536E+02  0.32827899302E+02 -0.11600564971E+01  0.13335141830E+03  0.12500000000E+03 0.  0.
         25    1    1    2    0    0  0.36562613054E+02  0.17906419770E+02 -0.38848914623E+03  0.41012959084E+03  0.12500000000E+03 0.  0.
         25    1    1    2    0    0 -0.69404416590E+02 -0.50734319072E+02 -0.96130169311E+01  0.15201432258E+03  0.12500000000E+03 0.  0.
</event>
<event>
 5    0  0.5619558E-005  0.3064986E+03  0.7546771E-02  0.1082036E+00
         21   -1    0    0  502  501  0.00000000000E+00  0.00000000000E+00  0.54805800379E+03  0.54805800379E+03  0.00000000000E+00 0. -1.
         21   -1    0    0  501  502 -0.00000000000E+00 -0.00000000000E+00 -0.17140776278E+03  0.17140776278E+03  0.00000000000E+00 0. -1.
         25    1    1    2    0    0  0.73122556454E+01 -0.27689686923E+02 -0.83410812430E+02  0.15297892494E+03  0.12500000000E+03 0.  0.
         25    1    1    2    0    0 -0.23537535127E+02 -0.76159898282E+02  0.31459786726E+03  0.34778033837E+03  0.12500000000E+03 0.  0.
         25    1    1    2    0    0  0.16225279481E+02  0.10384958521E+03  0.14546318618E+03  0.21870650327E+03  0.12500000000E+03 0.  0.
</event>
<event>
 5    0  0.5619558E-005  0.2686860E+03  0.7546771E-02  0.1102034E+00
         21   -1    0    0  502  501  0.00000000000E+00  0.00000000000E+00  0.31701386227E+03  0.31701386227E+03  0.00000000000E+00 0.  1.
         21   -1    0    0  501  502 -0.00000000000E+00 -0.00000000000E+00 -0.22772562215E+03  0.22772562215E+03  0.00000000000E+00 0.  1.
         25    1    1    2    0    0  0.13594461278E+01  0.85721418233E+02  0.30168143042E+02  0.15454813649E+03  0.12500000000E+03 0.  0.
         25    1    1    2    0    0  0.12794270346E+03  0.12342690133E+02  0.45037366835E+02  0.18486492847E+03  0.12500000000E+03 0.  0.
         25    1    1    2    0    0 -0.12930214959E+03 -0.98064108366E+02  0.14082730247E+02  0.20532641946E+03  0.12500000000E+03 0.  0.
</event>
<event>
 5    0  0.5619558E-005  0.3101659E+03  0.7546771E-02  0.1080266E+00
         21   -1    0    0  502  501  0.00000000000E+00  0.00000000000E+00  0.15213328799E+04  0.15213328799E+04  0.00000000000E+00 0.  1.
         21   -1    0    0  501  502 -0.00000000000E+00 -0.00000000000E+00 -0.63235938402E+02  0.63235938402E+02  0.00000000000E+00 0.  1.
         25    1    1    2    0    0  0.40290748189E+02  0.11175301422E+03  0.94877913812E+03  0.96432304416E+03  0.12500000000E+03 0.  0.
         25    1    1    2    0    0  0.68866694147E+02  0.16865830857E+02  0.19430161893E+03  0.24167167177E+03  0.12500000000E+03 0.  0.
         25    1    1    2    0    0 -0.10915744234E+03 -0.12861884508E+03  0.31501618446E+03  0.37857410239E+03  0.12500000000E+03 0.  0.
</event>
<event>
 5    0  0.5619558E-005  0.2751749E+03  0.7546771E-02  0.1098354E+00
         21   -1    0    0  502  501  0.00000000000E+00  0.00000000000E+00  0.23931496515E+03  0.23931496515E+03  0.00000000000E+00 0. -1.
         21   -1    0    0  501  502 -0.00000000000E+00 -0.00000000000E+00 -0.31640831555E+03  0.31640831555E+03  0.00000000000E+00 0. -1.
         25    1    1    2    0    0  0.64182109510E+02 -0.27805206526E+02 -0.16372753797E+03  0.21754121306E+03  0.12500000000E+03 0.  0.
         25    1    1    2    0    0 -0.10589405525E+03  0.40672191002E+02  0.11306634186E+03  0.20316686669E+03  0.12500000000E+03 0.  0.
         25    1    1    2    0    0  0.41711945744E+02 -0.12866984476E+02 -0.26432154293E+02  0.13501520095E+03  0.12500000000E+03 0.  0.
</event>
<event>
 5    0  0.5619558E-005  0.3377901E+03  0.7546771E-02  0.1067741E+00
         21   -1    0    0  502  501  0.00000000000E+00  0.00000000000E+00  0.11858853069E+03  0.11858853069E+03  0.00000000000E+00 0.  1.
         21   -1    0    0  501  502 -0.00000000000E+00 -0.00000000000E+00 -0.96216824928E+03  0.96216824928E+03  0.00000000000E+00 0.  1.
         25    1    1    2    0    0 -0.37798867484E+02  0.10781562578E+02 -0.54571283853E+02  0.14194372651E+03  0.12500000000E+03 0.  0.
         25    1    1    2    0    0  0.35466315814E+02 -0.96527709033E+02 -0.29761647222E+02  0.16457889845E+03  0.12500000000E+03 0.  0.
         25    1    1    2    0    0  0.23325516703E+01  0.85746146455E+02 -0.75924678752E+03  0.77423415501E+03  0.12500000000E+03 0.  0.
</event>
<event>
 5    0  0.5619558E-005  0.3806229E+03  0.7546771E-02  0.1050704E+00
         21   -1    0    0  502  501  0.00000000000E+00  0.00000000000E+00  0.25435189192E+03  0.25435189192E+03  0.00000000000E+00 0. -1.
         21   -1    0    0  501  502 -0.00000000000E+00 -0.00000000000E+00 -0.56958026632E+03  0.56958026632E+03  0.00000000000E+00 0. -1.
         25    1    1    2    0    0  0.27697678511E+03  0.98674122872E+02 -0.15755889868E+03  0.35623381165E+03  0.12500000000E+03 0.  0.
         25    1    1    2    0    0 -0.27663929414E+03 -0.75409355267E+02 -0.12083093695E+03  0.33532221109E+03  0.12500000000E+03 0.  0.
         25    1    1    2    0    0 -0.33749097092E+00 -0.23264767605E+02 -0.36838538771E+02  0.13237613550E+03  0.12500000000E+03 0.  0.
</event>
<event>
 5    0  0.5619558E-005  0.2555460E+03  0.7546771E-02  0.1109849E+00
         21   -1    0    0  502  501  0.00000000000E+00  0.00000000000E+00  0.92273873834E+03  0.92273873834E+03  0.00000000000E+00 0.  1.
         21   -1    0    0  501  502 -0.00000000000E+00 -0.00000000000E+00 -0.70771649309E+02  0.70771649309E+02  0.00000000000E+00 0.  1.
         25    1    1    2    0    0 -0.10790616008E+02  0.10655504145E+03  0.25858421720E+03  0.30653093096E+03  0.12500000000E+03 0.  0.
         25    1    1    2    0    0  0.78552411583E+02  0.44657927840E+01  0.16106740246E+03  0.21853634207E+03  0.12500000000E+03 0.  0.
         25    1    1    2    0    0 -0.67761795575E+02 -0.11102083423E+03  0.43231546937E+03  0.46844311462E+03  0.12500000000E+03 0.  0.
</event>
<event>
 5    0  0.5619558E-005  0.2820446E+03  0.7546771E-02  0.1094577E+00
         21   -1    0    0  502  501  0.00000000000E+00  0.00000000000E+00  0.12271735601E+03  0.12271735601E+03  0.00000000000E+00 0.  1.
         21   -1    0    0  501  502 -0.00000000000E+00 -0.00000000000E+00 -0.64823078808E+03  0.64823078808E+03  0.00000000000E+00 0.  1.
         25    1    1    2    0    0 -0.12365240191E+03  0.68521037377E+02 -0.18768074845E+03  0.26614678731E+03  0.12500000000E+03 0.  0.
         25    1    1    2    0    0  0.72051839175E+01 -0.92251313400E+02 -0.39921764883E+02  0.16056452538E+03  0.12500000000E+03 0.  0.
         25    1    1    2    0    0  0.11644721799E+03  0.23730276023E+02 -0.29791091875E+03  0.34423683139E+03  0.12500000000E+03 0.  0.
</event>
<event>
 5    0  0.5619558E-005  0.2849683E+03  0.7546771E-02  0.1093006E+00
         21   -1    0    0  502  501  0.00000000000E+00  0.00000000000E+00  0.19426998396E+03  0.19426998396E+03  0.00000000000E+00 0.  1.
         21   -1    0    0  501  502 -0.00000000000E+00 -0.00000000000E+00 -0.41801082374E+03  0.41801082374E+03  0.00000000000E+00 0.  1.
         25    1    1    2    0    0 -0.54412412145E+02 -0.41083366415E+02 -0.12202004042E+03  0.18751651622E+03  0.12500000000E+03 0.  0.
         25    1    1    2    0    0  0.99730167952E+02 -0.64080050357E+01  0.92347923959E+02  0.18477096089E+03  0.12500000000E+03 0.  0.
         25    1    1    2    0    0 -0.45317755807E+02  0.47491371450E+02 -0.19406872333E+03  0.23999333059E+03  0.12500000000E+03 0.  0.
</event>
<event>
 5    0  0.5619558E-005  0.2585781E+03  0.7546771E-02  0.1108001E+00
         21   -1    0    0  502  501  0.00000000000E+00  0.00000000000E+00  0.33488200618E+03  0.33488200618E+03  0.00000000000E+00 0.  1.
         21   -1    0    0  501  502 -0.00000000000E+00 -0.00000000000E+00 -0.19966032071E+03  0.19966032071E+03  0.00000000000E+00 0.  1.
         25    1    1    2    0    0 -0.28021352337E+01  0.17735325033E+01  0.52219715636E+02  0.13550976378E+03  0.12500000000E+03 0.  0.
         25    1    1    2    0    0 -0.10398634812E+03  0.97796217134E+02  0.82308553189E+02  0.20682591378E+03  0.12500000000E+03 0.  0.
         25    1    1    2    0    0  0.10678848335E+03 -0.99569749637E+02  0.69341663781E+00  0.19220664933E+03  0.12500000000E+03 0.  0.
</event>
<event>
 5    0  0.5619558E-005  0.4419922E+03  0.7546771E-02  0.1030137E+00
         21   -1    0    0  502  501  0.00000000000E+00  0.00000000000E+00  0.25538415300E+04  0.25538415300E+04  0.00000000000E+00 0.  1.
         21   -1    0    0  501  502 -0.00000000000E+00 -0.00000000000E+00 -0.76495379944E+02  0.76495379944E+02  0.00000000000E+00 0.  1.
         25    1    1    2    0    0 -0.38835517191E+03 -0.58225428621E+02  0.11217215447E+04  0.11950289385E+04  0.12500000000E+03 0.  0.
         25    1    1    2    0    0  0.12666760438E+03  0.21023419846E+02  0.51415348018E+03  0.54448642532E+03  0.12500000000E+03 0.  0.
         25    1    1    2    0    0  0.26168756754E+03  0.37202008776E+02  0.84147112517E+03  0.89082154608E+03  0.12500000000E+03 0.  0.
</event>
<event>
 5    0  0.5619558E-005  0.5313143E+03  0.7546771E-02  0.1005914E+00
         21   -1    0    0  502  501  0.00000000000E+00  0.00000000000E+00  0.13378160325E+04  0.13378160325E+04  0.00000000000E+00 0. -1.
         21   -1    0    0  501  502 -0.00000000000E+00 -0.00000000000E+00 -0.21101172290E+03  0.21101172290E+03  0.00000000000E+00 0. -1.
         25    1    1    2    0    0 -0.17755229329E+03 -0.14285957095E+03  0.77125961302E+03  0.81387963762E+03  0.12500000000E+03 0.  0.
         25    1    1    2    0    0 -0.28956971027E+02 -0.14025721601E+03  0.30511846512E+03  0.35948973639E+03  0.12500000000E+03 0.  0.
         25    1    1    2    0    0  0.20650926432E+03  0.28311678696E+03  0.50426231429E+02  0.37545838135E+03  0.12500000000E+03 0.  0.
</event>
<event>
 5    0  0.5619558E-005  0.2694023E+03  0.7546771E-02  0.1101622E+00
         21   -1    0    0  502  501  0.00000000000E+00  0.00000000000E+00  0.23161264905E+04  0.23161264905E+04  0.00000000000E+00 0.  1.
         21   -1    0    0  501  502 -0.00000000000E+00 -0.00000000000E+00 -0.31335761220E+02  0.31335761220E+02  0.00000000000E+00 0.  1.
         25    1    1    2    0    0 -0.26127446832E+02 -0.29162117534E+02  0.62468615864E+03  0.63827178331E+03  0.12500000000E+03 0.  0.
         25    1    1    2    0    0  0.48592100043E+02 -0.76990586280E+01  0.14782231681E+04  0.14843143880E+04  0.12500000000E+03 0.  0.
         25    1    1    2    0    0 -0.22464653211E+02  0.36861176162E+02  0.18188140252E+03  0.22487608040E+03  0.12500000000E+03 0.  0.
</event>
<event>
 5    0  0.5619558E-005  0.2404691E+03  0.7546771E-02  0.1119481E+00
         21   -1    0    0  502  501  0.00000000000E+00  0.00000000000E+00  0.18299065745E+03  0.18299065745E+03  0.00000000000E+00 0.  1.
         21   -1    0    0  501  502 -0.00000000000E+00 -0.00000000000E+00 -0.31600185950E+03  0.31600185950E+03  0.00000000000E+00 0.  1.
         25    1    1    2    0    0  0.73742465108E+02  0.10139915278E+03 -0.10278797208E+03  0.20471958028E+03  0.12500000000E+03 0.  0.
         25    1    1    2    0    0 -0.22523948624E+02 -0.18813797492E+02 -0.43048921917E+02  0.13542339870E+03  0.12500000000E+03 0.  0.
         25    1    1    2    0    0 -0.51218516484E+02 -0.82585355285E+02  0.12825691946E+02  0.15884953797E+03  0.12500000000E+03 0.  0.
</event>
<event>
 5    0  0.5619558E-005  0.3026888E+03  0.7546771E-02  0.1083904E+00
         21   -1    0    0  502  501  0.00000000000E+00  0.00000000000E+00  0.19684274752E+04  0.19684274752E+04  0.00000000000E+00 0.  1.
         21   -1    0    0  501  502 -0.00000000000E+00 -0.00000000000E+00 -0.46545017236E+02  0.46545017236E+02  0.00000000000E+00 0.  1.
         25    1    1    2    0    0  0.14444951096E+02 -0.95693557511E+02  0.46372135032E+03  0.48992693772E+03  0.12500000000E+03 0.  0.
         25    1    1    2    0    0 -0.46008324456E+02  0.57493333284E+02  0.14533796802E+03  0.20535426521E+03  0.12500000000E+03 0.  0.
         25    1    1    2    0    0  0.31563373360E+02  0.38200224227E+02  0.13128231396E+04  0.13196912895E+04  0.12500000000E+03 0.  0.
</event>
<event>
 5    0  0.5619558E-005  0.3295298E+03  0.7546771E-02  0.1071345E+00
         21   -1    0    0  502  501  0.00000000000E+00  0.00000000000E+00  0.25693136659E+03  0.25693136659E+03  0.00000000000E+00 0.  1.
         21   -1    0    0  501  502 -0.00000000000E+00 -0.00000000000E+00 -0.42264154634E+03  0.42264154634E+03  0.00000000000E+00 0.  1.
         25    1    1    2    0    0  0.99929147172E+02 -0.93411231098E+02 -0.13907551449E+02  0.18582226061E+03  0.12500000000E+03 0.  0.
         25    1    1    2    0    0  0.50872475761E+02  0.58973746605E+02 -0.23567652704E+03  0.27791066366E+03  0.12500000000E+03 0.  0.
         25    1    1    2    0    0 -0.15080162293E+03  0.34437484493E+02  0.83873898741E+02  0.21583998867E+03  0.12500000000E+03 0.  0.
</event>
<event>
 5    0  0.6354405E-005  0.4808216E+03  0.7546771E-02  0.1018910E+00
         21   -1    0    0  502  501  0.00000000000E+00  0.00000000000E+00  0.22300880991E+03  0.22300880991E+03  0.00000000000E+00 0. -1.
         21   -1    0    0  501  502 -0.00000000000E+00 -0.00000000000E+00 -0.10366827770E+04  0.10366827770E+04  0.00000000000E+00 0. -1.
         25    1    1    2    0    0  0.20462704288E+02 -0.34481263814E+02 -0.54781765785E+03  0.56332660693E+03  0.12500000000E+03 0.  0.
         25    1    1    2    0    0 -0.28444915962E+03  0.79971737419E+02 -0.23795899026E+03  0.39944497023E+03  0.12500000000E+03 0.  0.
         25    1    1    2    0    0  0.26398645534E+03 -0.45490473605E+02 -0.27897318992E+02  0.29692000976E+03  0.12500000000E+03 0.  0.
</event>
<event>
 5    0  0.5619558E-005  0.2821283E+03  0.7546771E-02  0.1094532E+00
         21   -1    0    0  502  501  0.00000000000E+00  0.00000000000E+00  0.10109072547E+03  0.10109072547E+03  0.00000000000E+00 0.  1.
         21   -1    0    0  501  502 -0.00000000000E+00 -0.00000000000E+00 -0.78737580701E+03  0.78737580701E+03  0.00000000000E+00 0.  1.
         25    1    1    2    0    0  0.24533936414E+02 -0.34198442615E+02 -0.52564952862E+02  0.14198423075E+03  0.12500000000E+03 0.  0.
         25    1    1    2    0    0  0.34150277314E+02  0.10236169993E+03 -0.54343442641E+03  0.56797018836E+03  0.12500000000E+03 0.  0.
         25    1    1    2    0    0 -0.58684213728E+02 -0.68163257310E+02 -0.90285702261E+02  0.17851211337E+03  0.12500000000E+03 0.  0.
</event>
<event>
 5    0  0.5619558E-005  0.3520927E+03  0.7546771E-02  0.1061759E+00
         21   -1    0    0  502  501  0.00000000000E+00  0.00000000000E+00  0.94803686336E+02  0.94803686336E+02  0.00000000000E+00 0.  1.
         21   -1    0    0  501  502 -0.00000000000E+00 -0.00000000000E+00 -0.13076415672E+04  0.13076415672E+04  0.00000000000E+00 0.  1.
         25    1    1    2    0    0 -0.35507266218E+02  0.64931980071E+02 -0.90414304434E+03  0.91573826644E+03  0.12500000000E+03 0.  0.
         25    1    1    2    0    0  0.72196281399E+02  0.48684970258E+02 -0.24826237378E+02  0.15434983459E+03  0.12500000000E+03 0.  0.
         25    1    1    2    0    0 -0.36689015181E+02 -0.11361695033E+03 -0.28386859912E+03  0.33235715248E+03  0.12500000000E+03 0.  0.
</event>
<event>
 5    0  0.5619558E-005  0.5545569E+03  0.7546771E-02  0.1000445E+00
         21   -1    0    0  502  501  0.00000000000E+00  0.00000000000E+00  0.14271656939E+04  0.14271656939E+04  0.00000000000E+00 0.  1.
         21   -1    0    0  501  502 -0.00000000000E+00 -0.00000000000E+00 -0.21548542756E+03  0.21548542756E+03  0.00000000000E+00 0.  1.
         25    1    1    2    0    0 -0.43047128833E+02  0.18654590175E+02  0.92430125764E+03  0.93389446079E+03  0.12500000000E+03 0.  0.
         25    1    1    2    0    0  0.16285300826E+03 -0.76301209104E+02 -0.12897232799E+03  0.25416891666E+03  0.12500000000E+03 0.  0.
         25    1    1    2    0    0 -0.11980587943E+03  0.57646618929E+02  0.41635133666E+03  0.45458774396E+03  0.12500000000E+03 0.  0.
</event>
<event>
 5    0  0.5619558E-005  0.2679210E+03  0.7546771E-02  0.1102475E+00
         21   -1    0    0  502  501  0.00000000000E+00  0.00000000000E+00  0.37535396437E+03  0.37535396437E+03  0.00000000000E+00 0. -1.
         21   -1    0    0  501  502 -0.00000000000E+00 -0.00000000000E+00 -0.19123718787E+03  0.19123718787E+03  0.00000000000E+00 0. -1.
         25    1    1    2    0    0 -0.93847243788E+01  0.73163798905E+02  0.23657151003E+03  0.27754656164E+03  0.12500000000E+03 0.  0.
         25    1    1    2    0    0  0.17530768654E+02  0.39957107592E+01  0.15039919617E+02  0.12717897914E+03  0.12500000000E+03 0.  0.
         25    1    1    2    0    0 -0.81460442747E+01 -0.77159509664E+02 -0.67494653151E+02  0.16186561146E+03  0.12500000000E+03 0.  0.
</event>
<event>
 5    0  0.5619558E-005  0.2657694E+03  0.7546771E-02  0.1103726E+00
         21   -1    0    0  502  501  0.00000000000E+00  0.00000000000E+00  0.96602128106E+02  0.96602128106E+02  0.00000000000E+00 0. -1.
         21   -1    0    0  501  502 -0.00000000000E+00 -0.00000000000E+00 -0.73117846972E+03  0.73117846972E+03  0.00000000000E+00 0. -1.
         25    1    1    2    0    0 -0.20134556377E+01 -0.42364565554E+02 -0.50541606169E+03  0.52236884079E+03  0.12500000000E+03 0.  0.
         25    1    1    2    0    0  0.46198055004E+02 -0.10133572005E+02 -0.53211890420E+02  0.14385219793E+03  0.12500000000E+03 0.  0.
         25    1    1    2    0    0 -0.44184599366E+02  0.52498137558E+02 -0.75948389503E+02  0.16155955910E+03  0.12500000000E+03 0.  0.
</event>
<event>
 5    0  0.5619558E-005  0.2401337E+03  0.7546771E-02  0.1119704E+00
         21   -1    0    0  502  501  0.00000000000E+00  0.00000000000E+00  0.10670796427E+04  0.10670796427E+04  0.00000000000E+00 0.  1.
         21   -1    0    0  501  502 -0.00000000000E+00 -0.00000000000E+00 -0.54039278154E+02  0.54039278154E+02  0.00000000000E+00 0.  1.
         25    1    1    2    0    0 -0.19819186083E+02  0.48242506148E+02  0.60714975784E+03  0.62207392485E+03  0.12500000000E+03 0.  0.
         25    1    1    2    0    0 -0.35036728458E+02 -0.15201812960E+01  0.11124004447E+03  0.17096558363E+03  0.12500000000E+03 0.  0.
         25    1    1    2    0    0  0.54855914540E+02 -0.46722324852E+02  0.29465056228E+03  0.32807941241E+03  0.12500000000E+03 0.  0.
</event>
<event>
 5    0  0.5619558E-005  0.2258811E+03  0.7546771E-02  0.1129573E+00
         21   -1    0    0  502  501  0.00000000000E+00  0.00000000000E+00  0.12061028864E+03  0.12061028864E+03  0.00000000000E+00 0. -1.
         21   -1    0    0  501  502 -0.00000000000E+00 -0.00000000000E+00 -0.42303431549E+03  0.42303431549E+03  0.00000000000E+00 0. -1.
         25    1    1    2    0    0 -0.48920068861E+02 -0.24820606393E+02 -0.21729918581E+03  0.25661872845E+03  0.12500000000E+03 0.  0.
         25    1    1    2    0    0  0.49210240803E+02 -0.13753652623E+02 -0.82468317695E+01  0.13529161465E+03  0.12500000000E+03 0.  0.
         25    1    1    2    0    0 -0.29017194264E+00  0.38574259016E+02 -0.76878009276E+02  0.15173426102E+03  0.12500000000E+03 0.  0.
</event>
<event>
 5    0  0.5619558E-005  0.3355056E+03  0.7546771E-02  0.1068726E+00
         21   -1    0    0  502  501  0.00000000000E+00  0.00000000000E+00  0.26933395334E+03  0.26933395334E+03  0.00000000000E+00 0. -1.
         21   -1    0    0  501  502 -0.00000000000E+00 -0.00000000000E+00 -0.41793467816E+03  0.41793467816E+03  0.00000000000E+00 0. -1.
         25    1    1    2    0    0  0.20223635282E+03 -0.54191903391E+02  0.83899784689E+02  0.25787686726E+03  0.12500000000E+03 0.  0.
         25    1    1    2    0    0 -0.63604196770E+02 -0.25579929857E+02 -0.15886041419E+03  0.21345130090E+03  0.12500000000E+03 0.  0.
         25    1    1    2    0    0 -0.13863215605E+03  0.79771833248E+02 -0.73640095313E+02  0.21594046334E+03  0.12500000000E+03 0.  0.
</event>
<event>
 5    0  0.5619558E-005  0.2938583E+03  0.7546771E-02  0.1088352E+00
         21   -1    0    0  502  501  0.00000000000E+00  0.00000000000E+00  0.83063166681E+03  0.83063166681E+03  0.00000000000E+00 0. -1.
         21   -1    0    0  501  502 -0.00000000000E+00 -0.00000000000E+00 -0.10396030161E+03  0.10396030161E+03  0.00000000000E+00 0.  1.
         25    1    1    2    0    0 -0.72690808475E+02 -0.89924022610E+02  0.69130334657E+02  0.18377781871E+03  0.12500000000E+03 0.  0.
         25    1    1    2    0    0 -0.93908063865E+01 -0.63407625112E+02  0.33910789369E+03  0.36705296311E+03  0.12500000000E+03 0.  0.
         25    1    1    2    0    0  0.82081614862E+02  0.15333164772E+03  0.31843313686E+03  0.38376118660E+03  0.12500000000E+03 0.  0.
</event>
<event>
 5    0  0.5619558E-005  0.4342054E+03  0.7546771E-02  0.1032540E+00
         21   -1    0    0  502  501  0.00000000000E+00  0.00000000000E+00  0.30516896829E+03  0.30516896829E+03  0.00000000000E+00 0. -1.
         21   -1    0    0  501  502 -0.00000000000E+00 -0.00000000000E+00 -0.61780316890E+03  0.61780316890E+03  0.00000000000E+00 0. -1.
         25    1    1    2    0    0  0.29455295463E+03 -0.54093256107E+02 -0.34749519762E+03  0.47546339061E+03  0.12500000000E+03 0.  0.
         25    1    1    2    0    0 -0.12086086363E+03  0.50289899077E+02  0.12000082628E+03  0.21716726415E+03  0.12500000000E+03 0.  0.
         25    1    1    2    0    0 -0.17369209100E+03  0.38033570298E+01 -0.85139829277E+02  0.23034148243E+03  0.12500000000E+03 0.  0.
</event>
<event>
 5    0  0.5619558E-005  0.4972682E+03  0.7546771E-02  0.1014494E+00
         21   -1    0    0  502  501  0.00000000000E+00  0.00000000000E+00  0.77782721174E+03  0.77782721174E+03  0.00000000000E+00 0. -1.
         21   -1    0    0  501  502 -0.00000000000E+00 -0.00000000000E+00 -0.31790565587E+03  0.31790565587E+03  0.00000000000E+00 0. -1.
         25    1    1    2    0    0  0.19684122104E+03 -0.27822857301E+03  0.23283321770E+03  0.43127011536E+03  0.12500000000E+03 0.  0.
         25    1    1    2    0    0 -0.18511775237E+03  0.33343952003E+03  0.30738848997E+03  0.50553257019E+03  0.12500000000E+03 0.  0.
         25    1    1    2    0    0 -0.11723468666E+02 -0.55210947019E+02 -0.80300151799E+02  0.15893018205E+03  0.12500000000E+03 0.  0.
</event>
<event>
 5    0  0.5619558E-005  0.2196143E+03  0.7546771E-02  0.1134171E+00
         21   -1    0    0  502  501  0.00000000000E+00  0.00000000000E+00  0.14670990389E+03  0.14670990389E+03  0.00000000000E+00 0.  1.
         21   -1    0    0  501  502 -0.00000000000E+00 -0.00000000000E+00 -0.32874686731E+03  0.32874686731E+03  0.00000000000E+00 0.  1.
         25    1    1    2    0    0  0.82841393816E+02  0.53903136507E+01 -0.12347732850E+03  0.19432807997E+03  0.12500000000E+03 0.  0.
         25    1    1    2    0    0 -0.56696423583E+02  0.16883721991E+01  0.69179440993E+01  0.13744159850E+03  0.12500000000E+03 0.  0.
         25    1    1    2    0    0 -0.26144970233E+02 -0.70786858498E+01 -0.65477579014E+02  0.14368709272E+03  0.12500000000E+03 0.  0.
</event>
<event>
 5    0  0.5619558E-005  0.2418922E+03  0.7546771E-02  0.1118539E+00
         21   -1    0    0  502  501  0.00000000000E+00  0.00000000000E+00  0.18637857075E+03  0.18637857075E+03  0.00000000000E+00 0.  1.
         21   -1    0    0  501  502 -0.00000000000E+00 -0.00000000000E+00 -0.31394080760E+03  0.31394080760E+03  0.00000000000E+00 0.  1.
         25    1    1    2    0    0  0.16828364494E+02 -0.12763798230E+02 -0.92253342632E+02  0.15678580173E+03  0.12500000000E+03 0.  0.
         25    1    1    2    0    0  0.64587080881E+02  0.35430109843E+02 -0.10322493510E+03  0.17806507498E+03  0.12500000000E+03 0.  0.
         25    1    1    2    0    0 -0.81415445375E+02 -0.22666311613E+02  0.67916040882E+02  0.16546850165E+03  0.12500000000E+03 0.  0.
</event>
<event>
 5    0  0.5619558E-005  0.4207146E+03  0.7546771E-02  0.1036834E+00
         21   -1    0    0  502  501  0.00000000000E+00  0.00000000000E+00  0.25989867297E+03  0.25989867297E+03  0.00000000000E+00 0. -1.
         21   -1    0    0  501  502 -0.00000000000E+00 -0.00000000000E+00 -0.68103751355E+03  0.68103751355E+03  0.00000000000E+00 0. -1.
         25    1    1    2    0    0  0.36857410649E+00  0.68501852789E+02 -0.25325799160E+03  0.29061529553E+03  0.12500000000E+03 0.  0.
         25    1    1    2    0    0 -0.18419759507E+02  0.66973031764E+02  0.19564247509E+03  0.24233376278E+03  0.12500000000E+03 0.  0.
         25    1    1    2    0    0  0.18051185400E+02 -0.13547488455E+03 -0.36352332407E+03  0.40798712820E+03  0.12500000000E+03 0.  0.
</event>
<event>
 5    0  0.5619558E-005  0.3031153E+03  0.7546771E-02  0.1083694E+00
         21   -1    0    0  502  501  0.00000000000E+00  0.00000000000E+00  0.63339402311E+03  0.63339402311E+03  0.00000000000E+00 0. -1.
         21   -1    0    0  501  502 -0.00000000000E+00 -0.00000000000E+00 -0.14505799325E+03  0.14505799325E+03  0.00000000000E+00 0. -1.
         25    1    1    2    0    0 -0.13834078963E+03  0.67151471896E+02  0.11471053032E+03  0.22897816494E+03  0.12500000000E+03 0.  0.
         25    1    1    2    0    0 -0.39174509175E+02  0.67346612033E+02  0.12819457397E+03  0.19526663083E+03  0.12500000000E+03 0.  0.
         25    1    1    2    0    0  0.17751529881E+03 -0.13449808393E+03  0.24543092556E+03  0.35420722058E+03  0.12500000000E+03 0.  0.
</event>
<event>
 5    0  0.5619558E-005  0.2662237E+03  0.7546771E-02  0.1103461E+00
         21   -1    0    0  502  501  0.00000000000E+00  0.00000000000E+00  0.84053984767E+03  0.84053984767E+03  0.00000000000E+00 0.  1.
         21   -1    0    0  501  502 -0.00000000000E+00 -0.00000000000E+00 -0.84320880535E+02  0.84320880535E+02  0.00000000000E+00 0.  1.
         25    1    1    2    0    0 -0.50825656877E+01 -0.12965391163E+03  0.35862493039E+03  0.40133877208E+03  0.12500000000E+03 0.  0.
         25    1    1    2    0    0  0.86218383365E+02  0.26109595075E+02  0.13834738582E+03  0.20707563775E+03  0.12500000000E+03 0.  0.
         25    1    1    2    0    0 -0.81135817677E+02  0.10354431656E+03  0.25924665093E+03  0.31644631838E+03  0.12500000000E+03 0.  0.
</event>
<event>
 5    0  0.5619558E-005  0.2561911E+03  0.7546771E-02  0.1109454E+00
         21   -1    0    0  502  501  0.00000000000E+00  0.00000000000E+00  0.79895919749E+03  0.79895919749E+03  0.00000000000E+00 0.  1.
         21   -1    0    0  501  502 -0.00000000000E+00 -0.00000000000E+00 -0.82149236124E+02  0.82149236124E+02  0.00000000000E+00 0.  1.
         25    1    1    2    0    0  0.77796419598E+02 -0.47929998705E+02  0.20251142701E+03  0.25492243085E+03  0.12500000000E+03 0.  0.
         25    1    1    2    0    0 -0.15168564454E+03 -0.18098587226E+02  0.27119071085E+03  0.33541838839E+03  0.12500000000E+03 0.  0.
         25    1    1    2    0    0  0.73889224941E+02  0.66028585930E+02  0.24310782350E+03  0.29076761438E+03  0.12500000000E+03 0.  0.
</event>
<event>
 5    0  0.5619558E-005  0.3392151E+03  0.7546771E-02  0.1067131E+00
         21   -1    0    0  502  501  0.00000000000E+00  0.00000000000E+00  0.94270302420E+03  0.94270302420E+03  0.00000000000E+00 0. -1.
         21   -1    0    0  501  502 -0.00000000000E+00 -0.00000000000E+00 -0.12206055231E+03  0.12206055231E+03  0.00000000000E+00 0. -1.
         25    1    1    2    0    0 -0.32723657325E+02  0.35985654035E+02  0.28502910547E+01  0.13416008797E+03  0.12500000000E+03 0.  0.
         25    1    1    2    0    0  0.12637413582E+03 -0.61254653622E+02  0.13952273145E+03  0.23412421358E+03  0.12500000000E+03 0.  0.
         25    1    1    2    0    0 -0.93650478497E+02  0.25268999588E+02  0.67826944939E+03  0.69647927496E+03  0.12500000000E+03 0.  0.
</event>
<event>
 5    0  0.5619558E-005  0.4160829E+03  0.7546771E-02  0.1038349E+00
         21   -1    0    0  502  501  0.00000000000E+00  0.00000000000E+00  0.80168834611E+02  0.80168834611E+02  0.00000000000E+00 0.  1.
         21   -1    0    0  501  502 -0.00000000000E+00 -0.00000000000E+00 -0.21595051904E+04  0.21595051904E+04  0.00000000000E+00 0.  1.
         25    1    1    2    0    0  0.23460691750E+03 -0.35865785609E+02 -0.24195662567E+03  0.36124059715E+03  0.12500000000E+03 0.  0.
         25    1    1    2    0    0 -0.91831781079E+02 -0.39988729423E+02 -0.11566878146E+04  0.11677259417E+04  0.12500000000E+03 0.  0.
         25    1    1    2    0    0 -0.14277513643E+03  0.75854515032E+02 -0.68069191555E+03  0.71070748619E+03  0.12500000000E+03 0.  0.
</event>
<event>
 5    0  0.5619558E-005  0.4175608E+03  0.7546771E-02  0.1037863E+00
         21   -1    0    0  502  501  0.00000000000E+00  0.00000000000E+00  0.39706849596E+03  0.39706849596E+03  0.00000000000E+00 0.  1.
         21   -1    0    0  501  502 -0.00000000000E+00 -0.00000000000E+00 -0.43911074778E+03  0.43911074778E+03  0.00000000000E+00 0.  1.
         25    1    1    2    0    0 -0.89151305080E+02 -0.32510818342E+03  0.29780497820E+02  0.36077023737E+03  0.12500000000E+03 0.  0.
         25    1    1    2    0    0  0.15103538163E+03  0.19775211066E+03 -0.18153629078E+02  0.27905579733E+03  0.12500000000E+03 0.  0.
         25    1    1    2    0    0 -0.61884076551E+02  0.12735607276E+03 -0.53669120560E+02  0.19635320904E+03  0.12500000000E+03 0.  0.
</event>
<event>
 5    0  0.5619558E-005  0.3611879E+03  0.7546771E-02  0.1058114E+00
         21   -1    0    0  502  501  0.00000000000E+00  0.00000000000E+00  0.23335646767E+03  0.23335646767E+03  0.00000000000E+00 0. -1.
         21   -1    0    0  501  502 -0.00000000000E+00 -0.00000000000E+00 -0.55904476593E+03  0.55904476593E+03  0.00000000000E+00 0. -1.
         25    1    1    2    0    0  0.28964351897E+03 -0.28941411339E+02 -0.13533902027E+03  0.34448893129E+03  0.12500000000E+03 0.  0.
         25    1    1    2    0    0 -0.12408243582E+03  0.71663604042E+02 -0.11945671915E+03  0.22455963745E+03  0.12500000000E+03 0.  0.
         25    1    1    2    0    0 -0.16556108315E+03 -0.42722192703E+02 -0.70892558832E+02  0.22335266486E+03  0.12500000000E+03 0.  0.
</event>
<event>
 5    0  0.5619558E-005  0.2919972E+03  0.7546771E-02  0.1089311E+00
         21   -1    0    0  502  501  0.00000000000E+00  0.00000000000E+00  0.28676545960E+03  0.28676545960E+03  0.00000000000E+00 0. -1.
         21   -1    0    0  501  502 -0.00000000000E+00 -0.00000000000E+00 -0.29732443430E+03  0.29732443430E+03  0.00000000000E+00 0. -1.
         25    1    1    2    0    0 -0.62429160973E+02  0.38236094488E+02  0.13650461352E+02  0.14550166376E+03  0.12500000000E+03 0.  0.
         25    1    1    2    0    0  0.87711263433E+01 -0.14411010410E+03  0.10976719298E+03  0.22026913405E+03  0.12500000000E+03 0.  0.
         25    1    1    2    0    0  0.53658034630E+02  0.10587400961E+03 -0.13397662903E+03  0.21831909609E+03  0.12500000000E+03 0.  0.
</event>
<event>
 5    0  0.5619558E-005  0.2494116E+03  0.7546771E-02  0.1113677E+00
         21   -1    0    0  502  501  0.00000000000E+00  0.00000000000E+00  0.59081114132E+03  0.59081114132E+03  0.00000000000E+00 0. -1.
         21   -1    0    0  501  502 -0.00000000000E+00 -0.00000000000E+00 -0.10528943108E+03  0.10528943108E+03  0.00000000000E+00 0. -1.
         25    1    1    2    0    0 -0.28970246601E+02 -0.28699103273E+02  0.26851345603E+03  0.29897723958E+03  0.12500000000E+03 0.  0.
         25    1    1    2    0    0  0.60592144694E+02  0.16447152210E+02 -0.51394529328E+01  0.13997617937E+03  0.12500000000E+03 0.  0.
         25    1    1    2    0    0 -0.31621898093E+02  0.12251951063E+02  0.22214770714E+03  0.25714715346E+03  0.12500000000E+03 0.  0.
</event>
<event>
 5    0  0.6670134E-005  0.5255188E+03  0.7546771E-02  0.1007325E+00
         21   -1    0    0  502  501  0.00000000000E+00  0.00000000000E+00  0.42117426827E+03  0.42117426827E+03  0.00000000000E+00 0.  1.
         21   -1    0    0  501  502 -0.00000000000E+00 -0.00000000000E+00 -0.65571440420E+03  0.65571440420E+03  0.00000000000E+00 0.  1.
         25    1    1    2    0    0  0.27424693059E+02 -0.76739854139E+01 -0.43043400982E+03  0.44912074173E+03  0.12500000000E+03 0.  0.
         25    1    1    2    0    0 -0.22914233981E+03  0.16475242693E+03  0.69586321773E+02  0.31641243694E+03  0.12500000000E+03 0.  0.
         25    1    1    2    0    0  0.20171764675E+03 -0.15707844151E+03  0.12630755211E+03  0.31135549380E+03  0.12500000000E+03 0.  0.
</event>
<event>
 5    0  0.5619558E-005  0.3099072E+03  0.7546771E-02  0.1080390E+00
         21   -1    0    0  502  501  0.00000000000E+00  0.00000000000E+00  0.23129125259E+03  0.23129125259E+03  0.00000000000E+00 0.  1.
         21   -1    0    0  501  502 -0.00000000000E+00 -0.00000000000E+00 -0.41524477479E+03  0.41524477479E+03  0.00000000000E+00 0.  1.
         25    1    1    2    0    0  0.15167342848E+01 -0.20200680549E+03  0.29835542200E+02  0.23942474710E+03  0.12500000000E+03 0.  0.
         25    1    1    2    0    0 -0.54762378494E+02  0.66371201983E+02 -0.11988155815E+03  0.19339245729E+03  0.12500000000E+03 0.  0.
         25    1    1    2    0    0  0.53245644209E+02  0.13563560351E+03 -0.93907506251E+02  0.21371882298E+03  0.12500000000E+03 0.  0.
</event>
<event>
 5    0  0.5619558E-005  0.3543560E+03  0.7546771E-02  0.1060841E+00
         21   -1    0    0  502  501  0.00000000000E+00  0.00000000000E+00  0.46569352619E+02  0.46569352619E+02  0.00000000000E+00 0. -1.
         21   -1    0    0  501  502 -0.00000000000E+00 -0.00000000000E+00 -0.26963689014E+04  0.26963689014E+04  0.00000000000E+00 0. -1.
         25    1    1    2    0    0 -0.11827000178E+03  0.71121254424E+02 -0.15879848007E+04  0.15988642073E+04  0.12500000000E+03 0.  0.
         25    1    1    2    0    0  0.10049692182E+03  0.66332202003E+02 -0.21190679717E+03  0.27391437166E+03  0.12500000000E+03 0.  0.
         25    1    1    2    0    0  0.17773079961E+02 -0.13745345643E+03 -0.84990795093E+03  0.87015967506E+03  0.12500000000E+03 0.  0.
</event>
<event>
 5    0  0.5619558E-005  0.3032435E+03  0.7546771E-02  0.1083630E+00
         21   -1    0    0  502  501  0.00000000000E+00  0.00000000000E+00  0.61638294390E+03  0.61638294390E+03  0.00000000000E+00 0.  1.
         21   -1    0    0  501  502 -0.00000000000E+00 -0.00000000000E+00 -0.14918752198E+03  0.14918752198E+03  0.00000000000E+00 0.  1.
         25    1    1    2    0    0 -0.49119408239E+02  0.18438429533E+03  0.30973770113E+03  0.38467223467E+03  0.12500000000E+03 0.  0.
         25    1    1    2    0    0  0.92521774119E+02 -0.71304609909E+02  0.96827580741E+02  0.19658384082E+03  0.12500000000E+03 0.  0.
         25    1    1    2    0    0 -0.43402365880E+02 -0.11307968542E+03  0.60630140051E+02  0.18431439038E+03  0.12500000000E+03 0.  0.
</event>
<event>
 5    0  0.5619558E-005  0.2612043E+03  0.7546771E-02  0.1106422E+00
         21   -1    0    0  502  501  0.00000000000E+00  0.00000000000E+00  0.48093763244E+03  0.48093763244E+03  0.00000000000E+00 0.  1.
         21   -1    0    0  501  502 -0.00000000000E+00 -0.00000000000E+00 -0.14186384587E+03  0.14186384587E+03  0.00000000000E+00 0.  1.
         25    1    1    2    0    0  0.58059576730E+02  0.96104895632E+02  0.15350776099E+03  0.22758887956E+03  0.12500000000E+03 0.  0.
         25    1    1    2    0    0  0.30410018112E+02  0.49289838772E+02  0.72083997561E+02  0.15548427609E+03  0.12500000000E+03 0.  0.
         25    1    1    2    0    0 -0.88469594842E+02 -0.14539473440E+03  0.11348202801E+03  0.23972832266E+03  0.12500000000E+03 0.  0.
</event>
<event>
 5    0  0.5619558E-005  0.6788305E+03  0.7546771E-02  0.9754136E-01
         21   -1    0    0  502  501  0.00000000000E+00  0.00000000000E+00  0.15016935033E+03  0.15016935033E+03  0.00000000000E+00 0. -1.
         21   -1    0    0  501  502 -0.00000000000E+00 -0.00000000000E+00 -0.30686074783E+04  0.30686074783E+04  0.00000000000E+00 0. -1.
         25    1    1    2    0    0 -0.50115529180E+03 -0.37843596034E+03 -0.14862227763E+04  0.16182872253E+04  0.12500000000E+03 0.  0.
         25    1    1    2    0    0  0.40867055063E+03  0.32875618347E+03 -0.12106116828E+04  0.13252538978E+04  0.12500000000E+03 0.  0.
         25    1    1    2    0    0  0.92484741163E+02  0.49679776871E+02 -0.22160366892E+03  0.27523570564E+03  0.12500000000E+03 0.  0.
</event>
<event>
 5    0  0.5619558E-005  0.2460630E+03  0.7546771E-02  0.1115819E+00
         21   -1    0    0  502  501  0.00000000000E+00  0.00000000000E+00  0.72573069787E+03  0.72573069787E+03  0.00000000000E+00 0. -1.
         21   -1    0    0  501  502 -0.00000000000E+00 -0.00000000000E+00 -0.83428990007E+02  0.83428990007E+02  0.00000000000E+00 0. -1.
         25    1    1    2    0    0  0.70237470924E+01  0.28057196087E+02  0.28911955388E+03  0.31630943032E+03  0.12500000000E+03 0.  0.
         25    1    1    2    0    0 -0.31204528765E+02 -0.59405274956E+02  0.31296216721E+02  0.14528304268E+03  0.12500000000E+03 0.  0.
         25    1    1    2    0    0  0.24180781673E+02  0.31348078869E+02  0.32188593726E+03  0.34756721488E+03  0.12500000000E+03 0.  0.
</event>
<event>
 5    0  0.5619558E-005  0.6799024E+03  0.7546771E-02  0.9752233E-01
         21   -1    0    0  502  501  0.00000000000E+00  0.00000000000E+00  0.49889091573E+03  0.49889091573E+03  0.00000000000E+00 0.  1.
         21   -1    0    0  501  502 -0.00000000000E+00 -0.00000000000E+00 -0.92658985242E+03  0.92658985242E+03  0.00000000000E+00 0.  1.
         25    1    1    2    0    0 -0.33757898817E+02 -0.10355416668E+03 -0.35765106411E+03  0.39421104098E+03  0.12500000000E+03 0.  0.
         25    1    1    2    0    0  0.40311794872E+03  0.22190109385E+03 -0.30000845648E+03  0.56335978734E+03  0.12500000000E+03 0.  0.
         25    1    1    2    0    0 -0.36936004991E+03 -0.11834692717E+03  0.22996058390E+03  0.46790993982E+03  0.12500000000E+03 0.  0.
</event>
<event>
 5    0  0.5619558E-005  0.2507850E+03  0.7546771E-02  0.1112810E+00
         21   -1    0    0  502  501  0.00000000000E+00  0.00000000000E+00  0.13277660509E+03  0.13277660509E+03  0.00000000000E+00 0.  1.
         21   -1    0    0  501  502 -0.00000000000E+00 -0.00000000000E+00 -0.47367615231E+03  0.47367615231E+03  0.00000000000E+00 0.  1.
         25    1    1    2    0    0 -0.46676293843E+02  0.40771860490E+02 -0.59055174391E+02  0.15150423967E+03  0.12500000000E+03 0.  0.
         25    1    1    2    0    0 -0.22854308133E+02  0.69335364985E+02 -0.34621103965E+02  0.14883995793E+03  0.12500000000E+03 0.  0.
         25    1    1    2    0    0  0.69530601976E+02 -0.11010722547E+03 -0.24722326886E+03  0.30610855980E+03  0.12500000000E+03 0.  0.
</event>
<event>
 5    0  0.5619558E-005  0.2851790E+03  0.7546771E-02  0.1092893E+00
         21   -1    0    0  502  501  0.00000000000E+00  0.00000000000E+00  0.12247147381E+03  0.12247147381E+03  0.00000000000E+00 0.  1.
         21   -1    0    0  501  502 -0.00000000000E+00 -0.00000000000E+00 -0.66404882453E+03  0.66404882453E+03  0.00000000000E+00 0.  1.
         25    1    1    2    0    0  0.49234879792E+02  0.85714908764E+02 -0.28526193321E+03  0.32675753933E+03  0.12500000000E+03 0.  0.
         25    1    1    2    0    0 -0.10063680460E+03 -0.14675671628E+03 -0.21502592990E+03  0.30582094556E+03  0.12500000000E+03 0.  0.
         25    1    1    2    0    0  0.51401924813E+02  0.61041807516E+02 -0.41289487605E+02  0.15394181344E+03  0.12500000000E+03 0.  0.
</event>
<event>
 5    0  0.5619558E-005  0.3794977E+03  0.7546771E-02  0.1051120E+00
         21   -1    0    0  502  501  0.00000000000E+00  0.00000000000E+00  0.15511787124E+03  0.15511787124E+03  0.00000000000E+00 0. -1.
         21   -1    0    0  501  502 -0.00000000000E+00 -0.00000000000E+00 -0.92844566641E+03  0.92844566641E+03  0.00000000000E+00 0. -1.
         25    1    1    2    0    0  0.28692361757E+02  0.13650087214E+03 -0.12741403515E+03  0.22652831186E+03  0.12500000000E+03 0.  0.
         25    1    1    2    0    0 -0.13740933379E+03  0.69611870631E+02 -0.49245957278E+02  0.20439496534E+03  0.12500000000E+03 0.  0.
         25    1    1    2    0    0  0.10871697204E+03 -0.20611274277E+03 -0.59666780274E+03  0.65264026046E+03  0.12500000000E+03 0.  0.
</event>
<event>
 5    0  0.5619558E-005  0.2826410E+03  0.7546771E-02  0.1094255E+00
         21   -1    0    0  502  501  0.00000000000E+00  0.00000000000E+00  0.10043762047E+03  0.10043762047E+03  0.00000000000E+00 0. -1.
         21   -1    0    0  501  502 -0.00000000000E+00 -0.00000000000E+00 -0.79537884957E+03  0.79537884957E+03  0.00000000000E+00 0. -1.
         25    1    1    2    0    0 -0.34913434329E+02  0.98905355367E+02 -0.65674389054E+02  0.17589582882E+03  0.12500000000E+03 0.  0.
         25    1    1    2    0    0  0.10042278645E+03 -0.92938869168E+02 -0.22391857676E+03  0.29066630087E+03  0.12500000000E+03 0.  0.
         25    1    1    2    0    0 -0.65509352118E+02 -0.59664861991E+01 -0.40534826328E+03  0.42925434036E+03  0.12500000000E+03 0.  0.
</event>
<event>
 5    0  0.5619558E-005  0.2715459E+03  0.7546771E-02  0.1100398E+00
         21   -1    0    0  502  501  0.00000000000E+00  0.00000000000E+00  0.44318634375E+03  0.44318634375E+03  0.00000000000E+00 0.  1.
         21   -1    0    0  501  502 -0.00000000000E+00 -0.00000000000E+00 -0.16637959040E+03  0.16637959040E+03  0.00000000000E+00 0.  1.
         25    1    1    2    0    0 -0.10756400654E+03  0.10296070118E+02 -0.20947911172E+02  0.16655281308E+03  0.12500000000E+03 0.  0.
         25    1    1    2    0    0 -0.20546810287E+02 -0.43032352524E+02  0.68437174124E+02  0.15027508635E+03  0.12500000000E+03 0.  0.
         25    1    1    2    0    0  0.12811081682E+03  0.32736282406E+02  0.22931749040E+03  0.29273803473E+03  0.12500000000E+03 0.  0.
</event>
<event>
 5    0  0.5619558E-005  0.2126532E+03  0.7546771E-02  0.1139482E+00
         21   -1    0    0  502  501  0.00000000000E+00  0.00000000000E+00  0.17574220834E+03  0.17574220834E+03  0.00000000000E+00 0.  1.
         21   -1    0    0  501  502 -0.00000000000E+00 -0.00000000000E+00 -0.25731649479E+03  0.25731649479E+03  0.00000000000E+00 0.  1.
         25    1    1    2    0    0  0.35896678423E+02  0.88052625919E+01  0.40484666485E+02  0.13649216971E+03  0.12500000000E+03 0.  0.
         25    1    1    2    0    0  0.26157472530E+02 -0.73064363557E+01 -0.79710612687E+02  0.15071953807E+03  0.12500000000E+03 0.  0.
         25    1    1    2    0    0 -0.62054150953E+02 -0.14988262362E+01 -0.42348340248E+02  0.14584699535E+03  0.12500000000E+03 0.  0.
</event>
<event>
 5    0  0.5619558E-005  0.3055735E+03  0.7546771E-02  0.1082487E+00
         21   -1    0    0  502  501  0.00000000000E+00  0.00000000000E+00  0.60680863546E+03  0.60680863546E+03  0.00000000000E+00 0. -1.
         21   -1    0    0  501  502 -0.00000000000E+00 -0.00000000000E+00 -0.15387904927E+03  0.15387904927E+03  0.00000000000E+00 0. -1.
         25    1    1    2    0    0  0.52025100004E+02  0.14862310772E+03  0.40679856142E+02  0.20512262156E+03  0.12500000000E+03 0.  0.
         25    1    1    2    0    0 -0.17923555865E+02 -0.13746580924E+03  0.37722703460E+03  0.42088399613E+03  0.12500000000E+03 0.  0.
         25    1    1    2    0    0 -0.34101544139E+02 -0.11157298477E+02  0.35022695453E+02  0.13468106704E+03  0.12500000000E+03 0.  0.
</event>
<event>
 5    0  0.5619558E-005  0.4055944E+03  0.7546771E-02  0.1041860E+00
         21   -1    0    0  502  501  0.00000000000E+00  0.00000000000E+00  0.12678095653E+03  0.12678095653E+03  0.00000000000E+00 0.  1.
         21   -1    0    0  501  502 -0.00000000000E+00 -0.00000000000E+00 -0.12975672014E+04  0.12975672014E+04  0.00000000000E+00 0.  1.
         25    1    1    2    0    0 -0.23447983222E+02  0.62496914208E+01  0.64924877941E+02  0.14293042481E+03  0.12500000000E+03 0.  0.
         25    1    1    2    0    0  0.33297504513E+02  0.51213960393E+02 -0.98926145489E+03  0.99899690674E+03  0.12500000000E+03 0.  0.
         25    1    1    2    0    0 -0.98495212911E+01 -0.57463651814E+02 -0.24644966788E+03  0.28242082633E+03  0.12500000000E+03 0.  0.
</event>
<event>
 5    0  0.5619558E-005  0.2608304E+03  0.7546771E-02  0.1106645E+00
         21   -1    0    0  502  501  0.00000000000E+00  0.00000000000E+00  0.57808059214E+03  0.57808059214E+03  0.00000000000E+00 0. -1.
         21   -1    0    0  501  502 -0.00000000000E+00 -0.00000000000E+00 -0.11768684326E+03  0.11768684326E+03  0.00000000000E+00 0. -1.
         25    1    1    2    0    0  0.95993249469E+02 -0.16637653448E+02  0.84619732390E+02  0.17965804899E+03  0.12500000000E+03 0.  0.
         25    1    1    2    0    0 -0.92513572144E+02  0.11318707128E+03  0.17012977306E+03  0.25678631937E+03  0.12500000000E+03 0.  0.
         25    1    1    2    0    0 -0.34796773249E+01 -0.96549417834E+02  0.20564424343E+03  0.25932306703E+03  0.12500000000E+03 0.  0.
</event>
<event>
 5    0  0.5619558E-005  0.2427392E+03  0.7546771E-02  0.1117981E+00
         21   -1    0    0  502  501  0.00000000000E+00  0.00000000000E+00  0.70502051359E+02  0.70502051359E+02  0.00000000000E+00 0. -1.
         21   -1    0    0  501  502 -0.00000000000E+00 -0.00000000000E+00 -0.83575351269E+03  0.83575351269E+03  0.00000000000E+00 0. -1.
         25    1    1    2    0    0 -0.75479935060E+02  0.82050122735E+02 -0.19087652614E+03  0.25394544979E+03  0.12500000000E+03 0.  0.
         25    1    1    2    0    0  0.30018256183E+02  0.75563206245E+01 -0.37464725950E+03  0.39616128374E+03  0.12500000000E+03 0.  0.
         25    1    1    2    0    0  0.45461678877E+02 -0.89606443359E+02 -0.19972767569E+03  0.25614883051E+03  0.12500000000E+03 0.  0.
</event>
<event>
 5    0  0.5619558E-005  0.2788072E+03  0.7546771E-02  0.1096342E+00
         21   -1    0    0  502  501  0.00000000000E+00  0.00000000000E+00  0.73697573437E+02  0.73697573437E+02  0.00000000000E+00 0. -1.
         21   -1    0    0  501  502 -0.00000000000E+00 -0.00000000000E+00 -0.10547626542E+04  0.10547626542E+04  0.00000000000E+00 0. -1.
         25    1    1    2    0    0  0.10161124130E+03 -0.84468924747E+02 -0.19316794940E+03  0.26532753397E+03  0.12500000000E+03 0.  0.
         25    1    1    2    0    0 -0.94591375152E+02 -0.18410980547E+02 -0.57084714737E+03  0.59226510797E+03  0.12500000000E+03 0.  0.
         25    1    1    2    0    0 -0.70198661475E+01  0.10287990529E+03 -0.21704998402E+03  0.27086758573E+03  0.12500000000E+03 0.  0.
</event>
<event>
 5    0  0.5619558E-005  0.2682687E+03  0.7546771E-02  0.1102275E+00
         21   -1    0    0  502  501  0.00000000000E+00  0.00000000000E+00  0.59109656965E+02  0.59109656965E+02  0.00000000000E+00 0. -1.
         21   -1    0    0  501  502 -0.00000000000E+00 -0.00000000000E+00 -0.12175351376E+04  0.12175351376E+04  0.00000000000E+00 0. -1.
         25    1    1    2    0    0 -0.91745664210E+02 -0.95726096870E+01 -0.30298427252E+03  0.34048989875E+03  0.12500000000E+03 0.  0.
         25    1    1    2    0    0  0.12200429087E+02 -0.27397869618E+02 -0.93228532292E+02  0.15879563269E+03  0.12500000000E+03 0.  0.
         25    1    1    2    0    0  0.79545235123E+02  0.36970479305E+02 -0.76221267580E+03  0.77735926310E+03  0.12500000000E+03 0.  0.
</event>
<event>
 5    0  0.5619558E-005  0.2819650E+03  0.7546771E-02  0.1094621E+00
         21   -1    0    0  502  501  0.00000000000E+00  0.00000000000E+00  0.12638663332E+03  0.12638663332E+03  0.00000000000E+00 0. -1.
         21   -1    0    0  501  502 -0.00000000000E+00 -0.00000000000E+00 -0.62905585537E+03  0.62905585537E+03  0.00000000000E+00 0. -1.
         25    1    1    2    0    0  0.39690495195E+02 -0.83842349142E+02 -0.16206611842E+02  0.15650089197E+03  0.12500000000E+03 0.  0.
         25    1    1    2    0    0  0.79554837478E+02  0.63537443563E+02 -0.15015111232E+03  0.22030963536E+03  0.12500000000E+03 0.  0.
         25    1    1    2    0    0 -0.11924533267E+03  0.20304905579E+02 -0.33631149789E+03  0.37863196137E+03  0.12500000000E+03 0.  0.
</event>
<event>
 5    0  0.5619558E-005  0.3132834E+03  0.7546771E-02  0.1078783E+00
         21   -1    0    0  502  501  0.00000000000E+00  0.00000000000E+00  0.46562013227E+03  0.46562013227E+03  0.00000000000E+00 0. -1.
         21   -1    0    0  501  502 -0.00000000000E+00 -0.00000000000E+00 -0.21078667560E+03  0.21078667560E+03  0.00000000000E+00 0. -1.
         25    1    1    2    0    0  0.59784611274E+02 -0.84926958578E+02 -0.11254939561E+03  0.19768448217E+03  0.12500000000E+03 0.  0.
         25    1    1    2    0    0  0.26661737180E+02  0.48777885414E+02  0.10151079278E+03  0.17035131754E+03  0.12500000000E+03 0.  0.
         25    1    1    2    0    0 -0.86446348455E+02  0.36149073164E+02  0.26587205950E+03  0.30837100816E+03  0.12500000000E+03 0.  0.
</event>
<event>
 5    0  0.5619558E-005  0.3135445E+03  0.7546771E-02  0.1078659E+00
         21   -1    0    0  502  501  0.00000000000E+00  0.00000000000E+00  0.10062780951E+03  0.10062780951E+03  0.00000000000E+00 0. -1.
         21   -1    0    0  501  502 -0.00000000000E+00 -0.00000000000E+00 -0.97696775469E+03  0.97696775469E+03  0.00000000000E+00 0. -1.
         25    1    1    2    0    0 -0.94489773601E+02 -0.12951355042E+03 -0.99463230002E+02  0.22631838454E+03  0.12500000000E+03 0.  0.
         25    1    1    2    0    0  0.85525482859E+02 -0.37843198715E+01 -0.47196576439E+03  0.49568701017E+03  0.12500000000E+03 0.  0.
         25    1    1    2    0    0  0.89642907424E+01  0.13329787029E+03 -0.30491095079E+03  0.35559016950E+03  0.12500000000E+03 0.  0.
</event>
<event>
 5    0  0.5619558E-005  0.2633156E+03  0.7546771E-02  0.1105167E+00
         21   -1    0    0  502  501  0.00000000000E+00  0.00000000000E+00  0.44170013301E+03  0.44170013301E+03  0.00000000000E+00 0. -1.
         21   -1    0    0  501  502 -0.00000000000E+00 -0.00000000000E+00 -0.15697323560E+03  0.15697323560E+03  0.00000000000E+00 0. -1.
         25    1    1    2    0    0  0.11487298227E+03  0.94605081592E+02  0.13150357877E+03  0.23465744128E+03  0.12500000000E+03 0.  0.
         25    1    1    2    0    0  0.12207435711E+02 -0.84658873828E+02  0.63979349626E+02  0.16442172479E+03  0.12500000000E+03 0.  0.
         25    1    1    2    0    0 -0.12708041798E+03 -0.99462077638E+01  0.89243969014E+02  0.19959420254E+03  0.12500000000E+03 0.  0.
</event>
<event>
 5    0  0.5619558E-005  0.3101939E+03  0.7546771E-02  0.1080253E+00
         21   -1    0    0  502  501  0.00000000000E+00  0.00000000000E+00  0.47550804779E+03  0.47550804779E+03  0.00000000000E+00 0. -1.
         21   -1    0    0  501  502 -0.00000000000E+00 -0.00000000000E+00 -0.20235249602E+03  0.20235249602E+03  0.00000000000E+00 0. -1.
         25    1    1    2    0    0 -0.61329953902E+02 -0.20057504024E+02 -0.12121862459E+03  0.18569496940E+03  0.12500000000E+03 0.  0.
         25    1    1    2    0    0  0.34877925393E+02  0.50008171330E+02  0.10447385114E+03  0.17394560199E+03  0.12500000000E+03 0.  0.
         25    1    1    2    0    0  0.26452028509E+02 -0.29950667306E+02  0.28990032522E+03  0.31821997242E+03  0.12500000000E+03 0.  0.
</event>
<event>
 5    0  0.5619558E-005  0.3028490E+03  0.7546771E-02  0.1083825E+00
         21   -1    0    0  502  501  0.00000000000E+00  0.00000000000E+00  0.97598157852E+03  0.97598157852E+03  0.00000000000E+00 0. -1.
         21   -1    0    0  501  502 -0.00000000000E+00 -0.00000000000E+00 -0.93974629327E+02  0.93974629327E+02  0.00000000000E+00 0. -1.
         25    1    1    2    0    0 -0.31647256689E+02  0.18814995036E+03  0.37983041549E+03  0.44305541099E+03  0.12500000000E+03 0.  0.
         25    1    1    2    0    0  0.47539438385E+01  0.23705390758E+02  0.15550942025E+03  0.20097941517E+03  0.12500000000E+03 0.  0.
         25    1    1    2    0    0  0.26893312851E+02 -0.21185534111E+03  0.34666711345E+03  0.42592138169E+03  0.12500000000E+03 0.  0.
</event>
<event>
 5    0  0.5619558E-005  0.2855570E+03  0.7546771E-02  0.1092692E+00
         21   -1    0    0  502  501  0.00000000000E+00  0.00000000000E+00  0.13464933627E+04  0.13464933627E+04  0.00000000000E+00 0. -1.
         21   -1    0    0  501  502 -0.00000000000E+00 -0.00000000000E+00 -0.60559390449E+02  0.60559390449E+02  0.00000000000E+00 0. -1.
         25    1    1    2    0    0 -0.80006314714E+02 -0.71120495766E+02  0.44187718255E+03  0.47152898084E+03  0.12500000000E+03 0.  0.
         25    1    1    2    0    0 -0.77801880430E+01  0.85439193595E+02  0.11444076781E+03  0.18995282695E+03  0.12500000000E+03 0.  0.
         25    1    1    2    0    0  0.87786502757E+02 -0.14318697829E+02  0.72961602188E+03  0.74557094536E+03  0.12500000000E+03 0.  0.
</event>
<event>
 5    0  0.5619558E-005  0.2747618E+03  0.7546771E-02  0.1098585E+00
         21   -1    0    0  502  501  0.00000000000E+00  0.00000000000E+00  0.55703296058E+03  0.55703296058E+03  0.00000000000E+00 0. -1.
         21   -1    0    0  501  502 -0.00000000000E+00 -0.00000000000E+00 -0.13552890485E+03  0.13552890485E+03  0.00000000000E+00 0. -1.
         25    1    1    2    0    0  0.77108808504E+02 -0.58649545798E+02  0.28053193714E+03  0.32203836002E+03  0.12500000000E+03 0.  0.
         25    1    1    2    0    0 -0.48751450795E+02  0.13675751148E+03  0.92853703396E+02  0.21289934508E+03  0.12500000000E+03 0.  0.
         25    1    1    2    0    0 -0.28357357710E+02 -0.78107965682E+02  0.48118415198E+02  0.15762416033E+03  0.12500000000E+03 0.  0.
</event>
<event>
 5    0  0.5619558E-005  0.2912105E+03  0.7546771E-02  0.1089719E+00
         21   -1    0    0  502  501  0.00000000000E+00  0.00000000000E+00  0.30708978724E+03  0.30708978724E+03  0.00000000000E+00 0.  1.
         21   -1    0    0  501  502 -0.00000000000E+00 -0.00000000000E+00 -0.27615240717E+03  0.27615240717E+03  0.00000000000E+00 0.  1.
         25    1    1    2    0    0 -0.93475996391E+02 -0.10941573582E+03  0.10116072748E+02  0.19088452026E+03  0.12500000000E+03 0.  0.
         25    1    1    2    0    0  0.15480371219E+03 -0.90918486572E+01  0.54371809875E+02  0.20646584398E+03  0.12500000000E+03 0.  0.
         25    1    1    2    0    0 -0.61327715803E+02  0.11850758447E+03 -0.33550502551E+02  0.18589183017E+03  0.12500000000E+03 0.  0.
</event>
<event>
 5    0  0.5619558E-005  0.2570766E+03  0.7546771E-02  0.1108912E+00
         21   -1    0    0  502  501  0.00000000000E+00  0.00000000000E+00  0.93452997085E+02  0.93452997085E+02  0.00000000000E+00 0. -1.
         21   -1    0    0  501  502 -0.00000000000E+00 -0.00000000000E+00 -0.70718308665E+03  0.70718308665E+03  0.00000000000E+00 0. -1.
         25    1    1    2    0    0 -0.48112398640E+02  0.13842703726E+02 -0.23465842191E+03  0.27054758976E+03  0.12500000000E+03 0.  0.
         25    1    1    2    0    0  0.11737276822E+03 -0.81701236940E+02 -0.29521510292E+03  0.35103905172E+03  0.12500000000E+03 0.  0.
         25    1    1    2    0    0 -0.69260369584E+02  0.67858533213E+02 -0.83856564731E+02  0.17904944226E+03  0.12500000000E+03 0.  0.
</event>
<event>
 5    0  0.5619558E-005  0.2722767E+03  0.7546771E-02  0.1099984E+00
         21   -1    0    0  502  501  0.00000000000E+00  0.00000000000E+00  0.69743171483E+02  0.69743171483E+02  0.00000000000E+00 0. -1.
         21   -1    0    0  501  502 -0.00000000000E+00 -0.00000000000E+00 -0.10629656701E+04  0.10629656701E+04  0.00000000000E+00 0. -1.
         25    1    1    2    0    0  0.98731700278E+02  0.88207371435E+02 -0.52830425528E+03  0.55880128415E+03  0.12500000000E+03 0.  0.
         25    1    1    2    0    0  0.40647640427E+02 -0.12425072674E+02 -0.21849130026E+03  0.25528427565E+03  0.12500000000E+03 0.  0.
         25    1    1    2    0    0 -0.13937934071E+03 -0.75782298761E+02 -0.24642694305E+03  0.31862328176E+03  0.12500000000E+03 0.  0.
</event>
<event>
 5    0  0.5619558E-005  0.3001671E+03  0.7546771E-02  0.1085157E+00
         21   -1    0    0  502  501  0.00000000000E+00  0.00000000000E+00  0.54535540054E+02  0.54535540054E+02  0.00000000000E+00 0. -1.
         21   -1    0    0  501  502 -0.00000000000E+00 -0.00000000000E+00 -0.16521385564E+04  0.16521385564E+04  0.00000000000E+00 0. -1.
         25    1    1    2    0    0  0.25058364491E+02 -0.18475788169E+02 -0.15616327601E+03  0.20243825023E+03  0.12500000000E+03 0.  0.
         25    1    1    2    0    0  0.80925026681E+02  0.10234750250E+03 -0.11142828277E+04  0.11288379384E+04  0.12500000000E+03 0.  0.
         25    1    1    2    0    0 -0.10598339117E+03 -0.83871714328E+02 -0.32715691264E+03  0.37539790777E+03  0.12500000000E+03 0.  0.
</event>
<event>
 5    0  0.5619558E-005  0.2790700E+03  0.7546771E-02  0.1096198E+00
         21   -1    0    0  502  501  0.00000000000E+00  0.00000000000E+00  0.29335681717E+02  0.29335681717E+02  0.00000000000E+00 0. -1.
         21   -1    0    0  501  502 -0.00000000000E+00 -0.00000000000E+00 -0.26547895740E+04  0.26547895740E+04  0.00000000000E+00 0. -1.
         25    1    1    2    0    0 -0.52606579648E+02 -0.31311657894E+02 -0.78257168311E+03  0.79485301242E+03  0.12500000000E+03 0.  0.
         25    1    1    2    0    0  0.18509261167E+03  0.54584283022E+02 -0.91964373876E+03  0.94794953721E+03  0.12500000000E+03 0.  0.
         25    1    1    2    0    0 -0.13248603202E+03 -0.23272625128E+02 -0.92323847042E+03  0.94132270610E+03  0.12500000000E+03 0.  0.
</event>
<event>
 5    0  0.5619558E-005  0.2214843E+03  0.7546771E-02  0.1132781E+00
         21   -1    0    0  502  501  0.00000000000E+00  0.00000000000E+00  0.14093022601E+03  0.14093022601E+03  0.00000000000E+00 0.  1.
         21   -1    0    0  501  502 -0.00000000000E+00 -0.00000000000E+00 -0.34808202610E+03  0.34808202610E+03  0.00000000000E+00 0.  1.
         25    1    1    2    0    0 -0.57905181096E+02  0.35644473461E+02 -0.10303462044E+03  0.17568344116E+03  0.12500000000E+03 0.  0.
         25    1    1    2    0    0  0.61822317341E+02 -0.82043697436E+02 -0.49620014396E+02  0.16923449128E+03  0.12500000000E+03 0.  0.
         25    1    1    2    0    0 -0.39171362448E+01  0.46399223975E+02 -0.54497165255E+02  0.14409431968E+03  0.12500000000E+03 0.  0.
</event>
<event>
 5    0  0.5619558E-005  0.3307481E+03  0.7546771E-02  0.1070806E+00
         21   -1    0    0  502  501  0.00000000000E+00  0.00000000000E+00  0.10226103769E+04  0.10226103769E+04  0.00000000000E+00 0.  1.
         21   -1    0    0  501  502 -0.00000000000E+00 -0.00000000000E+00 -0.10697555385E+03  0.10697555385E+03  0.00000000000E+00 0.  1.
         25    1    1    2    0    0  0.11313344677E+03 -0.14683470966E+03  0.14348572169E+03  0.26565534263E+03  0.12500000000E+03 0.  0.
         25    1    1    2    0    0 -0.14129388920E+03  0.74383751944E+02  0.25257200002E+03  0.32390511091E+03  0.12500000000E+03 0.  0.
         25    1    1    2    0    0  0.28160442429E+02  0.72450957713E+02  0.51957710134E+03  0.54002547720E+03  0.12500000000E+03 0.  0.
</event>
<event>
 5    0  0.5619558E-005  0.2281927E+03  0.7546771E-02  0.1127918E+00
         21   -1    0    0  502  501  0.00000000000E+00  0.00000000000E+00  0.11297840066E+03  0.11297840066E+03  0.00000000000E+00 0.  1.
         21   -1    0    0  501  502 -0.00000000000E+00 -0.00000000000E+00 -0.46090129764E+03  0.46090129764E+03  0.00000000000E+00 0.  1.
         25    1    1    2    0    0 -0.51868461458E+02 -0.34296559069E+02 -0.30961384870E+02  0.14300419089E+03  0.12500000000E+03 0.  0.
         25    1    1    2    0    0  0.53520601133E+02 -0.84626165024E+01 -0.75831524847E+02  0.15592142503E+03  0.12500000000E+03 0.  0.
         25    1    1    2    0    0 -0.16521396750E+01  0.42759175572E+02 -0.24112998726E+03  0.27495408238E+03  0.12500000000E+03 0.  0.
</event>
<event>
 5    0  0.5619558E-005  0.3237027E+03  0.7546771E-02  0.1073958E+00
         21   -1    0    0  502  501  0.00000000000E+00  0.00000000000E+00  0.14415559757E+03  0.14415559757E+03  0.00000000000E+00 0. -1.
         21   -1    0    0  501  502 -0.00000000000E+00 -0.00000000000E+00 -0.72687748997E+03  0.72687748997E+03  0.00000000000E+00 0. -1.
         25    1    1    2    0    0  0.52841802026E+02 -0.21612392470E+03 -0.25890118155E+03  0.36353353171E+03  0.12500000000E+03 0.  0.
         25    1    1    2    0    0  0.33818441598E+02  0.13914030453E+03 -0.71690308957E+02  0.20314578936E+03  0.12500000000E+03 0.  0.
         25    1    1    2    0    0 -0.86660243625E+02  0.76983620168E+02 -0.25213040190E+03  0.30435376646E+03  0.12500000000E+03 0.  0.
</event>
<event>
 5    0  0.5619558E-005  0.2416751E+03  0.7546771E-02  0.1118682E+00
         21   -1    0    0  502  501  0.00000000000E+00  0.00000000000E+00  0.16238908867E+04  0.16238908867E+04  0.00000000000E+00 0.  1.
         21   -1    0    0  501  502 -0.00000000000E+00 -0.00000000000E+00 -0.35967224162E+02  0.35967224162E+02  0.00000000000E+00 0.  1.
         25    1    1    2    0    0 -0.24291399735E+01  0.81623447480E+01  0.80888032400E+03  0.81852605526E+03  0.12500000000E+03 0.  0.
         25    1    1    2    0    0  0.28443141910E+02 -0.66149715942E+02  0.58118161173E+03  0.59881705307E+03  0.12500000000E+03 0.  0.
         25    1    1    2    0    0 -0.26014001937E+02  0.57987371194E+02  0.19786172683E+03  0.24251500254E+03  0.12500000000E+03 0.  0.
</event>
<event>
 5    0  0.5619558E-005  0.4813986E+03  0.7546771E-02  0.1018751E+00
         21   -1    0    0  502  501  0.00000000000E+00  0.00000000000E+00  0.84274548516E+03  0.84274548516E+03  0.00000000000E+00 0. -1.
         21   -1    0    0  501  502 -0.00000000000E+00 -0.00000000000E+00 -0.27498770036E+03  0.27498770036E+03  0.00000000000E+00 0. -1.
         25    1    1    2    0    0  0.35637348881E+02  0.48270800039E+02 -0.16779067826E+03  0.21766672342E+03  0.12500000000E+03 0.  0.
         25    1    1    2    0    0  0.64411268799E+02 -0.15270958605E+02 -0.51530291713E+01  0.14153998529E+03  0.12500000000E+03 0.  0.
         25    1    1    2    0    0 -0.10004861768E+03 -0.32999841434E+02  0.74070149223E+03  0.75852647682E+03  0.12500000000E+03 0.  0.
</event>
<event>
 5    0  0.5619558E-005  0.3025620E+03  0.7546771E-02  0.1083967E+00
         21   -1    0    0  502  501  0.00000000000E+00  0.00000000000E+00  0.13050338753E+03  0.13050338753E+03  0.00000000000E+00 0. -1.
         21   -1    0    0  501  502 -0.00000000000E+00 -0.00000000000E+00 -0.70146665333E+03  0.70146665333E+03  0.00000000000E+00 0. -1.
         25    1    1    2    0    0 -0.10440160075E+03 -0.24507448189E+02  0.17479895982E+02  0.16562263136E+03  0.12500000000E+03 0.  0.
         25    1    1    2    0    0  0.76440782235E+02  0.60657167279E+02 -0.19699604467E+03  0.25289311329E+03  0.12500000000E+03 0.  0.
         25    1    1    2    0    0  0.27960818512E+02 -0.36149719091E+02 -0.39144711711E+03  0.41345429621E+03  0.12500000000E+03 0.  0.
</event>
<event>
 5    0  0.5619558E-005  0.2245103E+03  0.7546771E-02  0.1130564E+00
         21   -1    0    0  502  501  0.00000000000E+00  0.00000000000E+00  0.28955456665E+03  0.28955456665E+03  0.00000000000E+00 0. -1.
         21   -1    0    0  501  502 -0.00000000000E+00 -0.00000000000E+00 -0.17407724316E+03  0.17407724316E+03  0.00000000000E+00 0. -1.
         25    1    1    2    0    0  0.64541931600E+02  0.42478883067E+02  0.48816255938E+02  0.15484877554E+03  0.12500000000E+03 0.  0.
         25    1    1    2    0    0  0.28412671918E+01 -0.87389742302E+02  0.32012924228E+02  0.15586810827E+03  0.12500000000E+03 0.  0.
         25    1    1    2    0    0 -0.67383198792E+02  0.44910859235E+02  0.34648143322E+02  0.15291492600E+03  0.12500000000E+03 0.  0.
</event>
<event>
 5    0  0.5619558E-005  0.2664172E+03  0.7546771E-02  0.1103348E+00
         21   -1    0    0  502  501  0.00000000000E+00  0.00000000000E+00  0.18565552038E+03  0.18565552038E+03  0.00000000000E+00 0. -1.
         21   -1    0    0  501  502 -0.00000000000E+00 -0.00000000000E+00 -0.38231097191E+03  0.38231097191E+03  0.00000000000E+00 0. -1.
         25    1    1    2    0    0  0.66498174287E+02  0.82548849558E+02 -0.17337546842E+03  0.23857990862E+03  0.12500000000E+03 0.  0.
         25    1    1    2    0    0 -0.99342018419E+02 -0.91074326380E+02 -0.62342956205E+02  0.19410052483E+03  0.12500000000E+03 0.  0.
         25    1    1    2    0    0  0.32843844131E+02  0.85254768220E+01  0.39062973087E+02  0.13528605885E+03  0.12500000000E+03 0.  0.
</event>
<event>
 5    0  0.5619558E-005  0.3238110E+03  0.7546771E-02  0.1073909E+00
         21   -1    0    0  502  501  0.00000000000E+00  0.00000000000E+00  0.53974889348E+02  0.53974889348E+02  0.00000000000E+00 0.  1.
         21   -1    0    0  501  502 -0.00000000000E+00 -0.00000000000E+00 -0.19426357903E+04  0.19426357903E+04  0.00000000000E+00 0.  1.
         25    1    1    2    0    0 -0.17102349312E+03 -0.12942452568E+03 -0.92383746392E+03  0.95660880343E+03  0.12500000000E+03 0.  0.
         25    1    1    2    0    0  0.35789329331E+02  0.14381192336E+03 -0.60860247196E+03  0.63873681142E+03  0.12500000000E+03 0.  0.
         25    1    1    2    0    0  0.13523416379E+03 -0.14387397671E+02 -0.35622096504E+03  0.40126506477E+03  0.12500000000E+03 0.  0.
</event>
<event>
 5    0  0.5619558E-005  0.2880663E+03  0.7546771E-02  0.1091363E+00
         21   -1    0    0  502  501  0.00000000000E+00  0.00000000000E+00  0.14115517186E+03  0.14115517186E+03  0.00000000000E+00 0. -1.
         21   -1    0    0  501  502 -0.00000000000E+00 -0.00000000000E+00 -0.58787902913E+03  0.58787902913E+03  0.00000000000E+00 0. -1.
         25    1    1    2    0    0 -0.84200894379E+02  0.16389164630E+03 -0.27896022229E+03  0.35692305608E+03  0.12500000000E+03 0.  0.
         25    1    1    2    0    0  0.10266892956E+03 -0.79869192342E+02 -0.90378006819E+02  0.20177507552E+03  0.12500000000E+03 0.  0.
         25    1    1    2    0    0 -0.18468035183E+02 -0.84022453955E+02 -0.77385628156E+02  0.17033606940E+03  0.12500000000E+03 0.  0.
</event>
<event>
 5    0  0.5619558E-005  0.6368434E+03  0.7546771E-02  0.9831785E-01
         21   -1    0    0  502  501  0.00000000000E+00  0.00000000000E+00  0.26596505447E+03  0.26596505447E+03  0.00000000000E+00 0.  1.
         21   -1    0    0  501  502 -0.00000000000E+00 -0.00000000000E+00 -0.15248975505E+04  0.15248975505E+04  0.00000000000E+00 0.  1.
         25    1    1    2    0    0 -0.34404237835E+03  0.37859451351E+03 -0.17638531952E+03  0.55536991699E+03  0.12500000000E+03 0.  0.
         25    1    1    2    0    0  0.29462488687E+03 -0.22524993182E+03 -0.72465478782E+03  0.82358418954E+03  0.12500000000E+03 0.  0.
         25    1    1    2    0    0  0.49417491484E+02 -0.15334458169E+03 -0.35789238866E+03  0.41190849840E+03  0.12500000000E+03 0.  0.
</event>
<event>
 5    0  0.5619558E-005  0.2916207E+03  0.7546771E-02  0.1089506E+00
         21   -1    0    0  502  501  0.00000000000E+00  0.00000000000E+00  0.73872708092E+02  0.73872708092E+02  0.00000000000E+00 0. -1.
         21   -1    0    0  501  502 -0.00000000000E+00 -0.00000000000E+00 -0.11512050028E+04  0.11512050028E+04  0.00000000000E+00 0. -1.
         25    1    1    2    0    0  0.15309484080E+03 -0.82437532008E+02 -0.43522235426E+03  0.48505409452E+03  0.12500000000E+03 0.  0.
         25    1    1    2    0    0  0.22937540893E+02  0.49094865552E+02 -0.34751759176E+03  0.37326922347E+03  0.12500000000E+03 0.  0.
         25    1    1    2    0    0 -0.17603238169E+03  0.33342666455E+02 -0.29459234868E+03  0.36675439290E+03  0.12500000000E+03 0.  0.
</event>
<event>
 5    0  0.5619558E-005  0.3306127E+03  0.7546771E-02  0.1070866E+00
         21   -1    0    0  502  501  0.00000000000E+00  0.00000000000E+00  0.28478810055E+03  0.28478810055E+03  0.00000000000E+00 0. -1.
         21   -1    0    0  501  502 -0.00000000000E+00 -0.00000000000E+00 -0.38381088480E+03  0.38381088480E+03  0.00000000000E+00 0. -1.
         25    1    1    2    0    0 -0.99566689821E+01  0.18645332429E+03  0.12388190940E+03  0.25658469337E+03  0.12500000000E+03 0.  0.
         25    1    1    2    0    0  0.77481274554E+02 -0.11922679552E+03 -0.12010876704E+03  0.22420859171E+03  0.12500000000E+03 0.  0.
         25    1    1    2    0    0 -0.67524605572E+02 -0.67226528763E+02 -0.10279592660E+03  0.18780570027E+03  0.12500000000E+03 0.  0.
</event>
<event>
 5    0  0.5619558E-005  0.2242560E+03  0.7546771E-02  0.1130749E+00
         21   -1    0    0  502  501  0.00000000000E+00  0.00000000000E+00  0.53999953350E+03  0.53999953350E+03  0.00000000000E+00 0.  1.
         21   -1    0    0  501  502 -0.00000000000E+00 -0.00000000000E+00 -0.93131092553E+02  0.93131092553E+02  0.00000000000E+00 0.  1.
         25    1    1    2    0    0  0.70638274707E+02  0.71056463268E+02  0.10797403089E+03  0.19318948774E+03  0.12500000000E+03 0.  0.
         25    1    1    2    0    0 -0.56166919437E+02 -0.64313856942E+02  0.21726811178E+03  0.26480450795E+03  0.12500000000E+03 0.  0.
         25    1    1    2    0    0 -0.14471355271E+02 -0.67426063268E+01  0.12162629827E+03  0.17513663036E+03  0.12500000000E+03 0.  0.
</event>
<event>
 5    0  0.6515411E-005  0.3181163E+03  0.7546771E-02  0.1076519E+00
         21   -1    0    0  502  501  0.00000000000E+00  0.00000000000E+00  0.42260580057E+03  0.42260580057E+03  0.00000000000E+00 0. -1.
         21   -1    0    0  501  502 -0.00000000000E+00 -0.00000000000E+00 -0.23946194496E+03  0.23946194496E+03  0.00000000000E+00 0. -1.
         25    1    1    2    0    0 -0.11781798406E+03  0.12563433785E+03 -0.38196870933E+02  0.21621532130E+03  0.12500000000E+03 0.  0.
         25    1    1    2    0    0  0.80652053917E+02  0.25569023766E+02  0.19170010968E+03  0.24399274749E+03  0.12500000000E+03 0.  0.
         25    1    1    2    0    0  0.37165930145E+02 -0.15120336162E+03  0.29640616868E+02  0.20185967675E+03  0.12500000000E+03 0.  0.
</event>
<event>
 5    0  0.5619558E-005  0.3211452E+03  0.7546771E-02  0.1075123E+00
         21   -1    0    0  502  501  0.00000000000E+00  0.00000000000E+00  0.28751528533E+03  0.28751528533E+03  0.00000000000E+00 0.  1.
         21   -1    0    0  501  502 -0.00000000000E+00 -0.00000000000E+00 -0.35870869234E+03  0.35870869234E+03  0.00000000000E+00 0.  1.
         25    1    1    2    0    0  0.27139398225E+02 -0.21834239730E+02  0.50368592436E+02  0.13919510072E+03  0.12500000000E+03 0.  0.
         25    1    1    2    0    0  0.29249371695E+02 -0.18914588788E+02  0.15106652690E+03  0.19914663684E+03  0.12500000000E+03 0.  0.
         25    1    1    2    0    0 -0.56388769920E+02  0.40748828518E+02 -0.27262852634E+03  0.30788224011E+03  0.12500000000E+03 0.  0.
</event>
<event>
 5    0  0.5619558E-005  0.3011620E+03  0.7546771E-02  0.1084661E+00
         21   -1    0    0  502  501  0.00000000000E+00  0.00000000000E+00  0.41836992217E+02  0.41836992217E+02  0.00000000000E+00 0.  1.
         21   -1    0    0  501  502 -0.00000000000E+00 -0.00000000000E+00 -0.21679027661E+04  0.21679027661E+04  0.00000000000E+00 0.  1.
         25    1    1    2    0    0 -0.74140245011E+02 -0.16420939645E+03 -0.49660972593E+03  0.54286989390E+03  0.12500000000E+03 0.  0.
         25    1    1    2    0    0  0.12238929890E+03  0.79702379688E+02 -0.93855985724E+03  0.95804551846E+03  0.12500000000E+03 0.  0.
         25    1    1    2    0    0 -0.48249053889E+02  0.84507016767E+02 -0.69089619066E+03  0.70882434591E+03  0.12500000000E+03 0.  0.
</event>
<event>
 5    0  0.5619558E-005  0.3020690E+03  0.7546771E-02  0.1084211E+00
         21   -1    0    0  502  501  0.00000000000E+00  0.00000000000E+00  0.14331198102E+03  0.14331198102E+03  0.00000000000E+00 0.  1.
         21   -1    0    0  501  502 -0.00000000000E+00 -0.00000000000E+00 -0.63669264365E+03  0.63669264365E+03  0.00000000000E+00 0.  1.
         25    1    1    2    0    0  0.12771139001E+03  0.55338326316E+02 -0.17470323162E+03  0.25596630371E+03  0.12500000000E+03 0.  0.
         25    1    1    2    0    0 -0.11682228542E+02 -0.85351240500E+02  0.10412103849E+02  0.15216675269E+03  0.12500000000E+03 0.  0.
         25    1    1    2    0    0 -0.11602916147E+03  0.30012914184E+02 -0.32908953486E+03  0.37187156827E+03  0.12500000000E+03 0.  0.
</event>
<event>
 5    0  0.5619558E-005  0.3257256E+03  0.7546771E-02  0.1073044E+00
         21   -1    0    0  502  501  0.00000000000E+00  0.00000000000E+00  0.11933124022E+03  0.11933124022E+03  0.00000000000E+00 0. -1.
         21   -1    0    0  501  502 -0.00000000000E+00 -0.00000000000E+00 -0.88909808742E+03  0.88909808742E+03  0.00000000000E+00 0. -1.
         25    1    1    2    0    0  0.15090774249E+03  0.12258603982E+03 -0.25402905212E+03  0.34344758439E+03  0.12500000000E+03 0.  0.
         25    1    1    2    0    0 -0.21550668633E+03 -0.29293020011E+02 -0.30095846634E+03  0.39179358256E+03  0.12500000000E+03 0.  0.
         25    1    1    2    0    0  0.64598943832E+02 -0.93293019806E+02 -0.21477932874E+03  0.27318816070E+03  0.12500000000E+03 0.  0.
</event>
<event>
 5    0  0.5619558E-005  0.2824858E+03  0.7546771E-02  0.1094339E+00
         21   -1    0    0  502  501  0.00000000000E+00  0.00000000000E+00  0.38097943181E+03  0.38097943181E+03  0.00000000000E+00 0. -1.
         21   -1    0    0  501  502 -0.00000000000E+00 -0.00000000000E+00 -0.20945554278E+03  0.20945554278E+03  0.00000000000E+00 0. -1.
         25    1    1    2    0    0  0.61307779500E+02 -0.56703478226E+01  0.23871193866E+03  0.27640402734E+03  0.12500000000E+03 0.  0.
         25    1    1    2    0    0  0.43042170696E+02  0.25778455308E+02  0.49970374928E+01  0.13478548735E+03  0.12500000000E+03 0.  0.
         25    1    1    2    0    0 -0.10434995020E+03 -0.20108107486E+02 -0.72185087119E+02  0.17924545990E+03  0.12500000000E+03 0.  0.
</event>
<event>
 5    0  0.5619558E-005  0.3012090E+03  0.7546771E-02  0.1084638E+00
         21   -1    0    0  502  501  0.00000000000E+00  0.00000000000E+00  0.25249908318E+03  0.25249908318E+03  0.00000000000E+00 0. -1.
         21   -1    0    0  501  502 -0.00000000000E+00 -0.00000000000E+00 -0.35931560841E+03  0.35931560841E+03  0.00000000000E+00 0. -1.
         25    1    1    2    0    0 -0.95502652756E+02  0.33934243025E+02 -0.10450001466E+03  0.19187897904E+03  0.12500000000E+03 0.  0.
         25    1    1    2    0    0  0.92800485985E+02  0.54937748887E+02  0.13561123495E+03  0.21364805990E+03  0.12500000000E+03 0.  0.
         25    1    1    2    0    0  0.27021667707E+01 -0.88871991912E+02 -0.13792774553E+03  0.20628765266E+03  0.12500000000E+03 0.  0.
</event>
<event>
 5    0  0.5619558E-005  0.3377950E+03  0.7546771E-02  0.1067739E+00
         21   -1    0    0  502  501  0.00000000000E+00  0.00000000000E+00  0.12605189020E+03  0.12605189020E+03  0.00000000000E+00 0. -1.
         21   -1    0    0  501  502 -0.00000000000E+00 -0.00000000000E+00 -0.90522620546E+03  0.90522620546E+03  0.00000000000E+00 0. -1.
         25    1    1    2    0    0  0.34863162112E+02  0.21132768694E+03 -0.45937061859E+03  0.52203562767E+03  0.12500000000E+03 0.  0.
         25    1    1    2    0    0 -0.11751008656E+03 -0.16201598670E+03 -0.16286888013E+03  0.28672124530E+03  0.12500000000E+03 0.  0.
         25    1    1    2    0    0  0.82646924447E+02 -0.49311700237E+02 -0.15693481654E+03  0.22252122268E+03  0.12500000000E+03 0.  0.
</event>
<event>
 5    0  0.5619558E-005  0.2557417E+03  0.7546771E-02  0.1109729E+00
         21   -1    0    0  502  501  0.00000000000E+00  0.00000000000E+00  0.82338350808E+03  0.82338350808E+03  0.00000000000E+00 0.  1.
         21   -1    0    0  501  502 -0.00000000000E+00 -0.00000000000E+00 -0.79432981521E+02  0.79432981521E+02  0.00000000000E+00 0.  1.
         25    1    1    2    0    0  0.92908010607E+02  0.93647223650E+02  0.18102912561E+03  0.25651168638E+03  0.12500000000E+03 0.  0.
         25    1    1    2    0    0 -0.11376629139E+03 -0.80998395592E+02  0.37593239770E+03  0.42006389607E+03  0.12500000000E+03 0.  0.
         25    1    1    2    0    0  0.20858280782E+02 -0.12648828058E+02  0.18698900325E+03  0.22624090715E+03  0.12500000000E+03 0.  0.
</event>
<event>
 5    0  0.5619558E-005  0.2522488E+03  0.7546771E-02  0.1111892E+00
         21   -1    0    0  502  501  0.00000000000E+00  0.00000000000E+00  0.80049334618E+03  0.80049334618E+03  0.00000000000E+00 0.  1.
         21   -1    0    0  501  502 -0.00000000000E+00 -0.00000000000E+00 -0.79487804094E+02  0.79487804094E+02  0.00000000000E+00 0.  1.
         25    1    1    2    0    0 -0.13515501413E+03  0.36723586620E+02  0.27909907935E+03  0.33635813615E+03  0.12500000000E+03 0.  0.
         25    1    1    2    0    0  0.88992768105E+02 -0.11729451351E+01  0.33717948860E+03  0.37045390551E+03  0.12500000000E+03 0.  0.
         25    1    1    2    0    0  0.46162246025E+02 -0.35550641484E+02  0.10472697414E+03  0.17316910862E+03  0.12500000000E+03 0.  0.
</event>
<event>
 5    0  0.5619558E-005  0.2804207E+03  0.7546771E-02  0.1095459E+00
         21   -1    0    0  502  501  0.00000000000E+00  0.00000000000E+00  0.33562670869E+03  0.33562670869E+03  0.00000000000E+00 0. -1.
         21   -1    0    0  501  502 -0.00000000000E+00 -0.00000000000E+00 -0.23429528041E+03  0.23429528041E+03  0.00000000000E+00 0. -1.
         25    1    1    2    0    0 -0.88023911933E+02 -0.82180742261E+02  0.16749964678E+03  0.24121155681E+03  0.12500000000E+03 0.  0.
         25    1    1    2    0    0  0.54101093556E+02  0.23381155445E+02  0.48021217347E+02  0.14630326062E+03  0.12500000000E+03 0.  0.
         25    1    1    2    0    0  0.33922818378E+02  0.58799586815E+02 -0.11418943584E+03  0.18240717166E+03  0.12500000000E+03 0.  0.
</event>
<event>
 5    0  0.5619558E-005  0.2498053E+03  0.7546771E-02  0.1113428E+00
         21   -1    0    0  502  501  0.00000000000E+00  0.00000000000E+00  0.53849718090E+02  0.53849718090E+02  0.00000000000E+00 0.  1.
         21   -1    0    0  501  502 -0.00000000000E+00 -0.00000000000E+00 -0.11588307697E+04  0.11588307697E+04  0.00000000000E+00 0.  1.
         25    1    1    2    0    0 -0.14665826452E+02 -0.13824232113E+03 -0.33900213241E+03  0.38713495269E+03  0.12500000000E+03 0.  0.
         25    1    1    2    0    0 -0.36910884645E+02  0.82122457679E+02 -0.48245078764E+03  0.50644868837E+03  0.12500000000E+03 0.  0.
         25    1    1    2    0    0  0.51576711097E+02  0.56119863449E+02 -0.28352813152E+03  0.31909684668E+03  0.12500000000E+03 0.  0.
</event>
<event>
 5    0  0.5619558E-005  0.2650604E+03  0.7546771E-02  0.1104140E+00
         21   -1    0    0  502  501  0.00000000000E+00  0.00000000000E+00  0.12978484148E+04  0.12978484148E+04  0.00000000000E+00 0. -1.
         21   -1    0    0  501  502 -0.00000000000E+00 -0.00000000000E+00 -0.54133433923E+02  0.54133433923E+02  0.00000000000E+00 0. -1.
         25    1    1    2    0    0  0.46052672905E+02  0.55894430358E+02  0.27758671187E+03  0.31292877566E+03  0.12500000000E+03 0.  0.
         25    1    1    2    0    0 -0.48063635658E+02 -0.16319417052E+03  0.63557990678E+03  0.66972327738E+03  0.12500000000E+03 0.  0.
         25    1    1    2    0    0  0.20109627529E+01  0.10729974016E+03  0.33054836224E+03  0.36932979570E+03  0.12500000000E+03 0.  0.
</event>
<event>
 5    0  0.5619558E-005  0.3146185E+03  0.7546771E-02  0.1078153E+00
         21   -1    0    0  502  501  0.00000000000E+00  0.00000000000E+00  0.20714351838E+04  0.20714351838E+04  0.00000000000E+00 0.  1.
         21   -1    0    0  501  502 -0.00000000000E+00 -0.00000000000E+00 -0.47785625373E+02  0.47785625373E+02  0.00000000000E+00 0.  1.
         25    1    1    2    0    0 -0.59966404800E+02  0.39804081039E+02  0.84256729901E+03  0.85482453635E+03  0.12500000000E+03 0.  0.
         25    1    1    2    0    0  0.10904976587E+02 -0.10135424586E+03  0.10633157777E+04  0.10754799137E+04  0.12500000000E+03 0.  0.
         25    1    1    2    0    0  0.49061428212E+02  0.61550164826E+02  0.11776648170E+03  0.18891635911E+03  0.12500000000E+03 0.  0.
</event>
<event>
 5    0  0.5619558E-005  0.2940393E+03  0.7546771E-02  0.1088259E+00
         21   -1    0    0  502  501  0.00000000000E+00  0.00000000000E+00  0.27810985465E+03  0.27810985465E+03  0.00000000000E+00 0.  1.
         21   -1    0    0  501  502 -0.00000000000E+00 -0.00000000000E+00 -0.31088105186E+03  0.31088105186E+03  0.00000000000E+00 0.  1.
         25    1    1    2    0    0 -0.34993736345E+02  0.13196762501E+03  0.62317192828E+01  0.18521298540E+03  0.12500000000E+03 0.  0.
         25    1    1    2    0    0 -0.42110106869E+01 -0.58437893723E+02  0.12152546178E+03  0.18391888944E+03  0.12500000000E+03 0.  0.
         25    1    1    2    0    0  0.39204747032E+02 -0.73529731290E+02 -0.16052837827E+03  0.21985903167E+03  0.12500000000E+03 0.  0.
</event>
<event>
 5    0  0.5619558E-005  0.2726688E+03  0.7546771E-02  0.1099762E+00
         21   -1    0    0  502  501  0.00000000000E+00  0.00000000000E+00  0.47320095271E+02  0.47320095271E+02  0.00000000000E+00 0. -1.
         21   -1    0    0  501  502 -0.00000000000E+00 -0.00000000000E+00 -0.15711777306E+04  0.15711777306E+04  0.00000000000E+00 0. -1.
         25    1    1    2    0    0 -0.52248685350E+02  0.17856255532E+02 -0.17836634555E+03  0.22469607074E+03  0.12500000000E+03 0.  0.
         25    1    1    2    0    0 -0.71867815197E+02 -0.75803492850E+02 -0.43232519740E+03  0.46199700074E+03  0.12500000000E+03 0.  0.
         25    1    1    2    0    0  0.12411650055E+03  0.57947237318E+02 -0.91316609236E+03  0.93180475436E+03  0.12500000000E+03 0.  0.
</event>
<event>
 5    0  0.5619558E-005  0.2675142E+03  0.7546771E-02  0.1102711E+00
         21   -1    0    0  502  501  0.00000000000E+00  0.00000000000E+00  0.89584712431E+02  0.89584712431E+02  0.00000000000E+00 0. -1.
         21   -1    0    0  501  502 -0.00000000000E+00 -0.00000000000E+00 -0.79883988977E+03  0.79883988977E+03  0.00000000000E+00 0. -1.
         25    1    1    2    0    0  0.23953515055E+02  0.46151991350E+02 -0.52020040986E+02  0.14503400240E+03  0.12500000000E+03 0.  0.
         25    1    1    2    0    0 -0.10500219986E+03  0.35071453599E+02 -0.41777888416E+03  0.44991072990E+03  0.12500000000E+03 0.  0.
         25    1    1    2    0    0  0.81048684803E+02 -0.81223444949E+02 -0.23945625219E+03  0.29347986989E+03  0.12500000000E+03 0.  0.
</event>
<event>
 5    0  0.6857018E-005  0.5162049E+03  0.7546771E-02  0.1009634E+00
         21   -1    0    0  502  501  0.00000000000E+00  0.00000000000E+00  0.61619769894E+03  0.61619769894E+03  0.00000000000E+00 0.  1.
         21   -1    0    0  501  502 -0.00000000000E+00 -0.00000000000E+00 -0.43243832530E+03  0.43243832530E+03  0.00000000000E+00 0.  1.
         25    1    1    2    0    0  0.20280929208E+03 -0.31511559624E+03  0.15615502763E+03  0.42478093248E+03  0.12500000000E+03 0.  0.
         25    1    1    2    0    0 -0.18982454604E+03  0.11186500832E+03  0.20529603487E+03  0.32606533134E+03  0.12500000000E+03 0.  0.
         25    1    1    2    0    0 -0.12984746038E+02  0.20325058792E+03 -0.17769168886E+03  0.29778976042E+03  0.12500000000E+03 0.  0.
</event>
<event>
 5    0  0.5619558E-005  0.2459499E+03  0.7546771E-02  0.1115891E+00
         21   -1    0    0  502  501  0.00000000000E+00  0.00000000000E+00  0.31464158665E+03  0.31464158665E+03  0.00000000000E+00 0. -1.
         21   -1    0    0  501  502 -0.00000000000E+00 -0.00000000000E+00 -0.19225474134E+03  0.19225474134E+03  0.00000000000E+00 0. -1.
         25    1    1    2    0    0  0.74270655414E+02 -0.24106886789E+02  0.33942800386E+02  0.15124280460E+03  0.12500000000E+03 0.  0.
         25    1    1    2    0    0 -0.14882529703E+02 -0.39499027320E+02 -0.58221700444E+02  0.14420967115E+03  0.12500000000E+03 0.  0.
         25    1    1    2    0    0 -0.59388125711E+02  0.63605914109E+02  0.14666574537E+03  0.21144385224E+03  0.12500000000E+03 0.  0.
</event>
<event>
 5    0  0.5619558E-005  0.2147198E+03  0.7546771E-02  0.1137882E+00
         21   -1    0    0  502  501  0.00000000000E+00  0.00000000000E+00  0.15165977289E+03  0.15165977289E+03  0.00000000000E+00 0. -1.
         21   -1    0    0  501  502 -0.00000000000E+00 -0.00000000000E+00 -0.30400024147E+03  0.30400024147E+03  0.00000000000E+00 0. -1.
         25    1    1    2    0    0 -0.29870915347E+02 -0.16726285469E+02 -0.14253724692E+03  0.19264970015E+03  0.12500000000E+03 0.  0.
         25    1    1    2    0    0  0.90688966268E+01  0.44692533051E+02 -0.47725756718E+01  0.13314445116E+03  0.12500000000E+03 0.  0.
         25    1    1    2    0    0  0.20802018720E+02 -0.27966247582E+02 -0.50306459904E+01  0.12986586305E+03  0.12500000000E+03 0.  0.
</event>
<event>
 5    0  0.5619558E-005  0.4925164E+03  0.7546771E-02  0.1015751E+00
         21   -1    0    0  502  501  0.00000000000E+00  0.00000000000E+00  0.14380099917E+03  0.14380099917E+03  0.00000000000E+00 0. -1.
         21   -1    0    0  501  502 -0.00000000000E+00 -0.00000000000E+00 -0.16868619028E+04  0.16868619028E+04  0.00000000000E+00 0. -1.
         25    1    1    2    0    0 -0.16023354789E+03 -0.14450995710E+03 -0.45745752915E+01  0.24940698528E+03  0.12500000000E+03 0.  0.
         25    1    1    2    0    0  0.41247651206E+02  0.12178310898E+03 -0.57990503474E+03  0.60699863565E+03  0.12500000000E+03 0.  0.
         25    1    1    2    0    0  0.11898589668E+03  0.22726848117E+02 -0.95858129361E+03  0.97425728106E+03  0.12500000000E+03 0.  0.
</event>
<event>
 5    0  0.5619558E-005  0.4939571E+03  0.7546771E-02  0.1015368E+00
         21   -1    0    0  502  501  0.00000000000E+00  0.00000000000E+00  0.31322453267E+03  0.31322453267E+03  0.00000000000E+00 0.  1.
         21   -1    0    0  501  502 -0.00000000000E+00 -0.00000000000E+00 -0.77897344876E+03  0.77897344876E+03  0.00000000000E+00 0.  1.
         25    1    1    2    0    0  0.29670123624E+03  0.47479978529E+02  0.11713691446E+03  0.34587863287E+03  0.12500000000E+03 0.  0.
         25    1    1    2    0    0 -0.13317627613E+03 -0.11794710678E+03 -0.42540535287E+03  0.47774695684E+03  0.12500000000E+03 0.  0.
         25    1    1    2    0    0 -0.16352496011E+03  0.70467128248E+02 -0.15748047768E+03  0.26857239172E+03  0.12500000000E+03 0.  0.
</event>
<event>
 5    0  0.5619558E-005  0.4481433E+03  0.7546771E-02  0.1028277E+00
         21   -1    0    0  502  501  0.00000000000E+00  0.00000000000E+00  0.17744335473E+03  0.17744335473E+03  0.00000000000E+00 0.  1.
         21   -1    0    0  501  502 -0.00000000000E+00 -0.00000000000E+00 -0.11318115585E+04  0.11318115585E+04  0.00000000000E+00 0.  1.
         25    1    1    2    0    0 -0.98266927562E+02 -0.12966588400E+03 -0.21756070890E+03  0.29904396430E+03  0.12500000000E+03 0.  0.
         25    1    1    2    0    0 -0.13250414251E+03  0.20585106959E+03 -0.61457445258E+02  0.28166296919E+03  0.12500000000E+03 0.  0.
         25    1    1    2    0    0  0.23077107008E+03 -0.76185185581E+02 -0.67535004957E+03  0.72854797971E+03  0.12500000000E+03 0.  0.
</event>
<event>
 5    0  0.5619558E-005  0.3009978E+03  0.7546771E-02  0.1084743E+00
         21   -1    0    0  502  501  0.00000000000E+00  0.00000000000E+00  0.19590261097E+03  0.19590261097E+03  0.00000000000E+00 0. -1.
         21   -1    0    0  501  502 -0.00000000000E+00 -0.00000000000E+00 -0.46247303812E+03  0.46247303812E+03  0.00000000000E+00 0. -1.
         25    1    1    2    0    0 -0.68113844972E+02  0.18504326779E+03 -0.44155961713E+02  0.23760314768E+03  0.12500000000E+03 0.  0.
         25    1    1    2    0    0  0.61733116489E+02 -0.18177264041E+03 -0.11768392157E+03  0.25753985297E+03  0.12500000000E+03 0.  0.
         25    1    1    2    0    0  0.63807284835E+01 -0.32706273882E+01 -0.10473054386E+03  0.16323264844E+03  0.12500000000E+03 0.  0.
</event>
<event>
 5    0  0.5619558E-005  0.2812704E+03  0.7546771E-02  0.1094997E+00
         21   -1    0    0  502  501  0.00000000000E+00  0.00000000000E+00  0.13300874060E+04  0.13300874060E+04  0.00000000000E+00 0. -1.
         21   -1    0    0  501  502 -0.00000000000E+00 -0.00000000000E+00 -0.59479579087E+02  0.59479579087E+02  0.00000000000E+00 0. -1.
         25    1    1    2    0    0 -0.62304888064E+02 -0.27767666958E+02  0.78000677047E+03  0.79289879832E+03  0.12500000000E+03 0.  0.
         25    1    1    2    0    0  0.10669244368E+03  0.91597244155E+02  0.32117349559E+03  0.37222405476E+03  0.12500000000E+03 0.  0.
         25    1    1    2    0    0 -0.44387555613E+02 -0.63829577197E+02  0.16942756091E+03  0.22444413205E+03  0.12500000000E+03 0.  0.
</event>
<event>
 5    0  0.5619558E-005  0.3165581E+03  0.7546771E-02  0.1077244E+00
         21   -1    0    0  502  501  0.00000000000E+00  0.00000000000E+00  0.90565410177E+03  0.90565410177E+03  0.00000000000E+00 0. -1.
         21   -1    0    0  501  502 -0.00000000000E+00 -0.00000000000E+00 -0.11064821672E+03  0.11064821672E+03  0.00000000000E+00 0. -1.
         25    1    1    2    0    0  0.17791907835E+02 -0.50335408002E+01  0.11814422987E+03  0.17298828738E+03  0.12500000000E+03 0.  0.
         25    1    1    2    0    0 -0.98627330744E+02  0.20004662463E+03  0.38305393570E+03  0.46054459073E+03  0.12500000000E+03 0.  0.
         25    1    1    2    0    0  0.80835422909E+02 -0.19501308383E+03  0.29380771947E+03  0.38276944037E+03  0.12500000000E+03 0.  0.
</event>
<event>
 5    0  0.6840829E-005  0.2884260E+03  0.7546771E-02  0.1091174E+00
         21   -1    0    0  502  501  0.00000000000E+00  0.00000000000E+00  0.15334758416E+03  0.15334758416E+03  0.00000000000E+00 0.  1.
         21   -1    0    0  501  502 -0.00000000000E+00 -0.00000000000E+00 -0.54249029135E+03  0.54249029135E+03  0.00000000000E+00 0.  1.
         25    1    1    2    0    0  0.13731666180E+03 -0.23783870395E+02 -0.30176484938E+03  0.35511767405E+03  0.12500000000E+03 0.  0.
         25    1    1    2    0    0 -0.83053122094E+02 -0.61074256180E+02 -0.95271112914E+01  0.16230727558E+03  0.12500000000E+03 0.  0.
         25    1    1    2    0    0 -0.54263539710E+02  0.84858126575E+02 -0.77850746512E+02  0.17841292588E+03  0.12500000000E+03 0.  0.
</event>
<event>
 5    0  0.5619558E-005  0.2799238E+03  0.7546771E-02  0.1095731E+00
         21   -1    0    0  502  501  0.00000000000E+00  0.00000000000E+00  0.31461208520E+03  0.31461208520E+03  0.00000000000E+00 0. -1.
         21   -1    0    0  501  502 -0.00000000000E+00 -0.00000000000E+00 -0.24906009106E+03  0.24906009106E+03  0.00000000000E+00 0. -1.
         25    1    1    2    0    0  0.38989064523E+02  0.90103857855E+02 -0.86719546675E+02  0.18106388963E+03  0.12500000000E+03 0.  0.
         25    1    1    2    0    0 -0.55438115743E+02 -0.14649773165E+03  0.39394522870E+02  0.20423491006E+03  0.12500000000E+03 0.  0.
         25    1    1    2    0    0  0.16449051220E+02  0.56393873797E+02  0.11287701795E+03  0.17837337657E+03  0.12500000000E+03 0.  0.
</event>
<event>
 5    0  0.5619558E-005  0.3867079E+03  0.7546771E-02  0.1048482E+00
         21   -1    0    0  502  501  0.00000000000E+00  0.00000000000E+00  0.17741730955E+04  0.17741730955E+04  0.00000000000E+00 0.  1.
         21   -1    0    0  501  502 -0.00000000000E+00 -0.00000000000E+00 -0.84288841473E+02  0.84288841473E+02  0.00000000000E+00 0.  1.
         25    1    1    2    0    0  0.13499563159E+03  0.11653679920E+03  0.68039484834E+03  0.71439960510E+03  0.12500000000E+03 0.  0.
         25    1    1    2    0    0 -0.12629434265E+03  0.87993961778E+02  0.80438810945E+03  0.82846751833E+03  0.12500000000E+03 0.  0.
         25    1    1    2    0    0 -0.87012889403E+01 -0.20453076098E+03  0.20510129620E+03  0.31559481351E+03  0.12500000000E+03 0.  0.
</event>
<event>
 5    0  0.5619558E-005  0.3166958E+03  0.7546771E-02  0.1077180E+00
         21   -1    0    0  502  501  0.00000000000E+00  0.00000000000E+00  0.19336498595E+04  0.19336498595E+04  0.00000000000E+00 0.  1.
         21   -1    0    0  501  502 -0.00000000000E+00 -0.00000000000E+00 -0.51868856915E+02  0.51868856915E+02  0.00000000000E+00 0.  1.
         25    1    1    2    0    0  0.16021795349E+03 -0.12234105874E+03  0.67698652115E+03  0.71733735236E+03  0.12500000000E+03 0.  0.
         25    1    1    2    0    0 -0.55322100723E+02  0.60611276294E+02  0.93506256775E+03  0.94694311722E+03  0.12500000000E+03 0.  0.
         25    1    1    2    0    0 -0.10489585276E+03  0.61729782444E+02  0.26973191367E+03  0.32123824682E+03  0.12500000000E+03 0.  0.
</event>
<event>
 5    0  0.5619558E-005  0.2288838E+03  0.7546771E-02  0.1127428E+00
         21   -1    0    0  502  501  0.00000000000E+00  0.00000000000E+00  0.13183867287E+03  0.13183867287E+03  0.00000000000E+00 0. -1.
         21   -1    0    0  501  502 -0.00000000000E+00 -0.00000000000E+00 -0.39736279352E+03  0.39736279352E+03  0.00000000000E+00 0. -1.
         25    1    1    2    0    0  0.28279489019E+02  0.60066431677E+02 -0.17977149574E+02  0.14267404677E+03  0.12500000000E+03 0.  0.
         25    1    1    2    0    0 -0.12320609073E+02 -0.66207435482E+02 -0.46938791269E+02  0.14954421435E+03  0.12500000000E+03 0.  0.
         25    1    1    2    0    0 -0.15958879946E+02  0.61410038047E+01 -0.20060817980E+03  0.23698320527E+03  0.12500000000E+03 0.  0.
</event>
<event>
 5    0  0.5619558E-005  0.3063416E+03  0.7546771E-02  0.1082113E+00
         21   -1    0    0  502  501  0.00000000000E+00  0.00000000000E+00  0.79840689236E+03  0.79840689236E+03  0.00000000000E+00 0.  1.
         21   -1    0    0  501  502 -0.00000000000E+00 -0.00000000000E+00 -0.11754054529E+03  0.11754054529E+03  0.00000000000E+00 0.  1.
         25    1    1    2    0    0  0.96075446734E+02 -0.61342030570E+02  0.65456845693E+02  0.18139166141E+03  0.12500000000E+03 0.  0.
         25    1    1    2    0    0  0.70481161225E+02 -0.48496263506E+01  0.10067636732E+03  0.17536203665E+03  0.12500000000E+03 0.  0.
         25    1    1    2    0    0 -0.16655660796E+03  0.66191656920E+02  0.51473313406E+03  0.55919373959E+03  0.12500000000E+03 0.  0.
</event>
<event>
 5    0  0.5619558E-005  0.2286936E+03  0.7546771E-02  0.1127563E+00
         21   -1    0    0  502  501  0.00000000000E+00  0.00000000000E+00  0.32334197239E+03  0.32334197239E+03  0.00000000000E+00 0. -1.
         21   -1    0    0  501  502 -0.00000000000E+00 -0.00000000000E+00 -0.16175059664E+03  0.16175059664E+03  0.00000000000E+00 0. -1.
         25    1    1    2    0    0  0.39299569782E+02 -0.64863284303E+02 -0.10093938600E+02  0.14655575537E+03  0.12500000000E+03 0.  0.
         25    1    1    2    0    0 -0.68515038994E+02  0.44639274758E+01  0.12365486450E+03  0.18875847724E+03  0.12500000000E+03 0.  0.
         25    1    1    2    0    0  0.29215469211E+02  0.60399356828E+02  0.48030449848E+02  0.14977833641E+03  0.12500000000E+03 0.  0.
</event>
<event>
 5    0  0.5619558E-005  0.3746192E+03  0.7546771E-02  0.1052941E+00
         21   -1    0    0  502  501  0.00000000000E+00  0.00000000000E+00  0.11010305683E+03  0.11010305683E+03  0.00000000000E+00 0.  1.
         21   -1    0    0  501  502 -0.00000000000E+00 -0.00000000000E+00 -0.12746195733E+04  0.12746195733E+04  0.00000000000E+00 0.  1.
         25    1    1    2    0    0  0.14419198151E+03  0.64100812760E+02 -0.89889265529E+03  0.92115864403E+03  0.12500000000E+03 0.  0.
         25    1    1    2    0    0 -0.24425510844E+02 -0.12381484058E+03 -0.58312863387E+02  0.18695483509E+03  0.12500000000E+03 0.  0.
         25    1    1    2    0    0 -0.11976647067E+03  0.59714027820E+02 -0.20731099779E+03  0.27660915100E+03  0.12500000000E+03 0.  0.
</event>
<event>
 5    0  0.5619558E-005  0.3980181E+03  0.7546771E-02  0.1044468E+00
         21   -1    0    0  502  501  0.00000000000E+00  0.00000000000E+00  0.11469419190E+03  0.11469419190E+03  0.00000000000E+00 0.  1.
         21   -1    0    0  501  502 -0.00000000000E+00 -0.00000000000E+00 -0.13812240270E+04  0.13812240270E+04  0.00000000000E+00 0.  1.
         25    1    1    2    0    0  0.69104945462E+02 -0.15328733633E+03 -0.18848679287E+03  0.28182400901E+03  0.12500000000E+03 0.  0.
         25    1    1    2    0    0 -0.17141284256E+03  0.18169388018E+03 -0.98855751932E+03  0.10272614067E+04  0.12500000000E+03 0.  0.
         25    1    1    2    0    0  0.10230789710E+03 -0.28406543843E+02 -0.89485522941E+02  0.18683280322E+03  0.12500000000E+03 0.  0.
</event>
<event>
 5    0  0.5619558E-005  0.3269823E+03  0.7546771E-02  0.1072480E+00
         21   -1    0    0  502  501  0.00000000000E+00  0.00000000000E+00  0.20249905146E+03  0.20249905146E+03  0.00000000000E+00 0. -1.
         21   -1    0    0  501  502 -0.00000000000E+00 -0.00000000000E+00 -0.52798965444E+03  0.52798965444E+03  0.00000000000E+00 0. -1.
         25    1    1    2    0    0  0.15105711687E+03  0.13591801896E+03  0.28561885132E+02  0.24027638610E+03  0.12500000000E+03 0.  0.
         25    1    1    2    0    0 -0.79920015134E+02 -0.12288644815E+03 -0.17582666460E+03  0.26082236090E+03  0.12500000000E+03 0.  0.
         25    1    1    2    0    0 -0.71137101732E+02 -0.13031570810E+02 -0.17822582352E+03  0.22938995891E+03  0.12500000000E+03 0.  0.
</event>
<event>
 5    0  0.5619558E-005  0.2489062E+03  0.7546771E-02  0.1113998E+00
         21   -1    0    0  502  501  0.00000000000E+00  0.00000000000E+00  0.51789542593E+03  0.51789542593E+03  0.00000000000E+00 0. -1.
         21   -1    0    0  501  502 -0.00000000000E+00 -0.00000000000E+00 -0.11962699293E+03  0.11962699293E+03  0.00000000000E+00 0. -1.
         25    1    1    2    0    0 -0.57012460843E+02 -0.19809607969E+02  0.86387033366E+02  0.16349483415E+03  0.12500000000E+03 0.  0.
         25    1    1    2    0    0  0.41286105989E+02  0.72757250668E+02  0.30154783806E+03  0.33697812794E+03  0.12500000000E+03 0.  0.
         25    1    1    2    0    0  0.15726354854E+02 -0.52947642699E+02  0.10333561573E+02  0.13704945676E+03  0.12500000000E+03 0.  0.
</event>
<event>
 5    0  0.5619558E-005  0.2696408E+03  0.7546771E-02  0.1101485E+00
         21   -1    0    0  502  501  0.00000000000E+00  0.00000000000E+00  0.17833163176E+04  0.17833163176E+04  0.00000000000E+00 0.  1.
         21   -1    0    0  501  502 -0.00000000000E+00 -0.00000000000E+00 -0.40770204402E+02  0.40770204402E+02  0.00000000000E+00 0.  1.
         25    1    1    2    0    0 -0.10811866175E+03  0.24124543246E+02  0.48455423058E+03  0.51253238042E+03  0.12500000000E+03 0.  0.
         25    1    1    2    0    0  0.38331972446E+02  0.69480016341E+02  0.92929390514E+03  0.94101486435E+03  0.12500000000E+03 0.  0.
         25    1    1    2    0    0  0.69786689306E+02 -0.93604559587E+02  0.32869797747E+03  0.37053927724E+03  0.12500000000E+03 0.  0.
</event>
<event>
 5    0  0.5619558E-005  0.3860574E+03  0.7546771E-02  0.1048717E+00
         21   -1    0    0  502  501  0.00000000000E+00  0.00000000000E+00  0.17315138227E+03  0.17315138227E+03  0.00000000000E+00 0. -1.
         21   -1    0    0  501  502 -0.00000000000E+00 -0.00000000000E+00 -0.86075151178E+03  0.86075151178E+03  0.00000000000E+00 0. -1.
         25    1    1    2    0    0  0.43801099890E+02  0.36781071095E+02  0.83553503338E+01  0.13771781084E+03  0.12500000000E+03 0.  0.
         25    1    1    2    0    0 -0.16196441203E+02  0.14195969154E+03 -0.26659032504E+02  0.19170441504E+03  0.12500000000E+03 0.  0.
         25    1    1    2    0    0 -0.27604658687E+02 -0.17874076264E+03 -0.66929644734E+03  0.70448066817E+03  0.12500000000E+03 0.  0.
</event>
<event>
 5    0  0.5619558E-005  0.3108844E+03  0.7546771E-02  0.1079923E+00
         21   -1    0    0  502  501  0.00000000000E+00  0.00000000000E+00  0.18829236881E+03  0.18829236881E+03  0.00000000000E+00 0. -1.
         21   -1    0    0  501  502 -0.00000000000E+00 -0.00000000000E+00 -0.51329284303E+03  0.51329284303E+03  0.00000000000E+00 0. -1.
         25    1    1    2    0    0 -0.48435088737E+02 -0.16330166130E+03  0.10122688359E+02  0.21152035180E+03  0.12500000000E+03 0.  0.
         25    1    1    2    0    0  0.41630559222E+02  0.16285575752E+03 -0.12066796015E+03  0.24174544013E+03  0.12500000000E+03 0.  0.
         25    1    1    2    0    0  0.68045295147E+01  0.44590378658E+00 -0.21445520243E+03  0.24831941991E+03  0.12500000000E+03 0.  0.
</event>
<event>
 5    0  0.5619558E-005  0.2783454E+03  0.7546771E-02  0.1096596E+00
         21   -1    0    0  502  501  0.00000000000E+00  0.00000000000E+00  0.10193943080E+04  0.10193943080E+04  0.00000000000E+00 0.  1.
         21   -1    0    0  501  502 -0.00000000000E+00 -0.00000000000E+00 -0.76002175621E+02  0.76002175621E+02  0.00000000000E+00 0.  1.
         25    1    1    2    0    0  0.67640858231E+02 -0.93608550485E+02  0.28876248040E+03  0.33518146804E+03  0.12500000000E+03 0.  0.
         25    1    1    2    0    0 -0.62667054268E+02  0.70675648609E+02  0.60288102952E+03  0.62290668864E+03  0.12500000000E+03 0.  0.
         25    1    1    2    0    0 -0.49738039629E+01  0.22932901876E+02  0.51748622408E+02  0.13730832690E+03  0.12500000000E+03 0.  0.
</event>
<event>
 5    0  0.5619558E-005  0.2699918E+03  0.7546771E-02  0.1101284E+00
         21   -1    0    0  502  501  0.00000000000E+00  0.00000000000E+00  0.32629525645E+02  0.32629525645E+02  0.00000000000E+00 0. -1.
         21   -1    0    0  501  502 -0.00000000000E+00 -0.00000000000E+00 -0.22340377262E+04  0.22340377262E+04  0.00000000000E+00 0. -1.
         25    1    1    2    0    0  0.42125274022E+02  0.43004624633E+02 -0.57774361444E+03  0.59416884846E+03  0.12500000000E+03 0.  0.
         25    1    1    2    0    0  0.47453112803E+02  0.11270659703E+03 -0.56470630291E+03  0.59116223109E+03  0.12500000000E+03 0.  0.
         25    1    1    2    0    0 -0.89578386826E+02 -0.15571122166E+03 -0.10589582832E+04  0.10813361723E+04  0.12500000000E+03 0.  0.
</event>
<event>
 5    0  0.5619558E-005  0.2858547E+03  0.7546771E-02  0.1092534E+00
         21   -1    0    0  502  501  0.00000000000E+00  0.00000000000E+00  0.75213299965E+03  0.75213299965E+03  0.00000000000E+00 0.  1.
         21   -1    0    0  501  502 -0.00000000000E+00 -0.00000000000E+00 -0.10864157964E+03  0.10864157964E+03  0.00000000000E+00 0.  1.
         25    1    1    2    0    0  0.49229620175E+02 -0.58311848460E+02  0.30660234300E+03  0.33978496716E+03  0.12500000000E+03 0.  0.
         25    1    1    2    0    0  0.12289554879E+02 -0.10448692200E+03  0.67502181490E+02  0.17677696268E+03  0.12500000000E+03 0.  0.
         25    1    1    2    0    0 -0.61519175054E+02  0.16279877046E+03  0.26938689552E+03  0.34421264945E+03  0.12500000000E+03 0.  0.
</event>
<event>
 5    0  0.5619558E-005  0.2471989E+03  0.7546771E-02  0.1115088E+00
         21   -1    0    0  502  501  0.00000000000E+00  0.00000000000E+00  0.12800195052E+04  0.12800195052E+04  0.00000000000E+00 0. -1.
         21   -1    0    0  501  502 -0.00000000000E+00 -0.00000000000E+00 -0.47739357609E+02  0.47739357609E+02  0.00000000000E+00 0. -1.
         25    1    1    2    0    0 -0.34431291994E+01  0.42350504841E+02  0.62885221026E+03  0.64256168789E+03  0.12500000000E+03 0.  0.
         25    1    1    2    0    0 -0.72006284769E+01  0.34272980022E+02  0.46677472274E+03  0.48448955407E+03  0.12500000000E+03 0.  0.
         25    1    1    2    0    0  0.10643757676E+02 -0.76623484864E+02  0.13665321460E+03  0.20070762086E+03  0.12500000000E+03 0.  0.
</event>
<event>
 5    0  0.5619558E-005  0.3084116E+03  0.7546771E-02  0.1081110E+00
         21   -1    0    0  502  501  0.00000000000E+00  0.00000000000E+00  0.18896289159E+03  0.18896289159E+03  0.00000000000E+00 0.  1.
         21   -1    0    0  501  502 -0.00000000000E+00 -0.00000000000E+00 -0.50336705223E+03  0.50336705223E+03  0.00000000000E+00 0.  1.
         25    1    1    2    0    0  0.45051052976E+02 -0.96949707960E+02 -0.25407092745E+03  0.30266463194E+03  0.12500000000E+03 0.  0.
         25    1    1    2    0    0  0.68710988337E+02 -0.42176322689E+01 -0.11717632345E+03  0.18464636232E+03  0.12500000000E+03 0.  0.
         25    1    1    2    0    0 -0.11376204131E+03  0.10116734023E+03  0.56843090265E+02  0.20501894957E+03  0.12500000000E+03 0.  0.
</event>
<event>
 5    0  0.5619558E-005  0.3736469E+03  0.7546771E-02  0.1053307E+00
         21   -1    0    0  502  501  0.00000000000E+00  0.00000000000E+00  0.16612548146E+04  0.16612548146E+04  0.00000000000E+00 0.  1.
         21   -1    0    0  501  502 -0.00000000000E+00 -0.00000000000E+00 -0.84040096762E+02  0.84040096762E+02  0.00000000000E+00 0.  1.
         25    1    1    2    0    0  0.23917278299E+03  0.53110731234E+02  0.84904080656E+03  0.89247950178E+03  0.12500000000E+03 0.  0.
         25    1    1    2    0    0 -0.21193989453E+03  0.80383807673E+02  0.43597718196E+03  0.50703173334E+03  0.12500000000E+03 0.  0.
         25    1    1    2    0    0 -0.27232888461E+02 -0.13349453891E+03  0.29219672935E+03  0.34578367627E+03  0.12500000000E+03 0.  0.
</event>
<event>
 5    0  0.5619558E-005  0.2899716E+03  0.7546771E-02  0.1090364E+00
         21   -1    0    0  502  501  0.00000000000E+00  0.00000000000E+00  0.12239560844E+04  0.12239560844E+04  0.00000000000E+00 0. -1.
         21   -1    0    0  501  502 -0.00000000000E+00 -0.00000000000E+00 -0.68698159979E+02  0.68698159979E+02  0.00000000000E+00 0. -1.
         25    1    1    2    0    0 -0.12346019934E+03  0.19953753532E+01  0.84862624570E+03  0.86662443264E+03  0.12500000000E+03 0.  0.
         25    1    1    2    0    0  0.15430682658E+02  0.24690421451E+02  0.13759251900E+03  0.18816063394E+03  0.12500000000E+03 0.  0.
         25    1    1    2    0    0  0.10802951669E+03 -0.26685796804E+02  0.16903915968E+03  0.23786917777E+03  0.12500000000E+03 0.  0.
</event>
<event>
 5    0  0.7444257E-005  0.3599419E+03  0.7546771E-02  0.1058607E+00
         21   -1    0    0  502  501  0.00000000000E+00  0.00000000000E+00  0.10159747507E+04  0.10159747507E+04  0.00000000000E+00 0. -1.
         21   -1    0    0  501  502 -0.00000000000E+00 -0.00000000000E+00 -0.12752106708E+03  0.12752106708E+03  0.00000000000E+00 0. -1.
         25    1    1    2    0    0  0.32333911572E+02  0.34945054663E+02 -0.13801028793E+02  0.13446972551E+03  0.12500000000E+03 0.  0.
         25    1    1    2    0    0  0.35731443397E+02 -0.19511541932E+03  0.52922740750E+03  0.57883798403E+03  0.12500000000E+03 0.  0.
         25    1    1    2    0    0 -0.68065354970E+02  0.16017036466E+03  0.37302730489E+03  0.43018810823E+03  0.12500000000E+03 0.  0.
</event>
<event>
 5    0  0.5889404E-005  0.2990116E+03  0.7546771E-02  0.1085736E+00
         21   -1    0    0  502  501  0.00000000000E+00  0.00000000000E+00  0.13587988892E+03  0.13587988892E+03  0.00000000000E+00 0.  1.
         21   -1    0    0  501  502 -0.00000000000E+00 -0.00000000000E+00 -0.65799254031E+03  0.65799254031E+03  0.00000000000E+00 0.  1.
         25    1    1    2    0    0  0.55858424573E+02  0.62271963235E+02 -0.29214511949E+03  0.32859052306E+03  0.12500000000E+03 0.  0.
         25    1    1    2    0    0  0.23897968940E+02 -0.13204617454E+03 -0.23889006653E+03  0.30116568366E+03  0.12500000000E+03 0.  0.
         25    1    1    2    0    0 -0.79756393514E+02  0.69774211300E+02  0.89225346338E+01  0.16411622252E+03  0.12500000000E+03 0.  0.
</event>
<event>
 5    0  0.5619558E-005  0.3719048E+03  0.7546771E-02  0.1053967E+00
         21   -1    0    0  502  501  0.00000000000E+00  0.00000000000E+00  0.10342301542E+04  0.10342301542E+04  0.00000000000E+00 0.  1.
         21   -1    0    0  501  502 -0.00000000000E+00 -0.00000000000E+00 -0.13373538708E+03  0.13373538708E+03  0.00000000000E+00 0.  1.
         25    1    1    2    0    0 -0.45414401742E+02  0.13153977078E+03  0.18172975227E+03  0.26079854685E+03  0.12500000000E+03 0.  0.
         25    1    1    2    0    0  0.66417187843E+02  0.17120059446E+03  0.24364963396E+03  0.32971355828E+03  0.12500000000E+03 0.  0.
         25    1    1    2    0    0 -0.21002786101E+02 -0.30274036524E+03  0.47511538092E+03  0.57745343618E+03  0.12500000000E+03 0.  0.
</event>
<event>
 5    0  0.5619558E-005  0.2607356E+03  0.7546771E-02  0.1106702E+00
         21   -1    0    0  502  501  0.00000000000E+00  0.00000000000E+00  0.42553267216E+03  0.42553267216E+03  0.00000000000E+00 0. -1.
         21   -1    0    0  501  502 -0.00000000000E+00 -0.00000000000E+00 -0.15975988787E+03  0.15975988787E+03  0.00000000000E+00 0. -1.
         25    1    1    2    0    0  0.40314349733E+02  0.10949487590E+03  0.18589108982E+03  0.25257646747E+03  0.12500000000E+03 0.  0.
         25    1    1    2    0    0  0.66822262472E+01 -0.54635295781E+02  0.12114067405E+03  0.18256431908E+03  0.12500000000E+03 0.  0.
         25    1    1    2    0    0 -0.46996575980E+02 -0.54859580122E+02 -0.41258979575E+02  0.15015177348E+03  0.12500000000E+03 0.  0.
</event>
<event>
 5    0  0.5619558E-005  0.3051081E+03  0.7546771E-02  0.1082715E+00
         21   -1    0    0  502  501  0.00000000000E+00  0.00000000000E+00  0.91382523314E+02  0.91382523314E+02  0.00000000000E+00 0.  1.
         21   -1    0    0  501  502 -0.00000000000E+00 -0.00000000000E+00 -0.10186955214E+04  0.10186955214E+04  0.00000000000E+00 0.  1.
         25    1    1    2    0    0  0.80333631740E+02  0.11307780294E+03 -0.14500189496E+03  0.23641199515E+03  0.12500000000E+03 0.  0.
         25    1    1    2    0    0  0.23253000573E+02 -0.16549460701E+03 -0.33224493570E+03  0.39235298429E+03  0.12500000000E+03 0.  0.
         25    1    1    2    0    0 -0.10358663231E+03  0.52416804073E+02 -0.45006616740E+03  0.48131306526E+03  0.12500000000E+03 0.  0.
</event>
<event>
 5    0  0.6075130E-005  0.2890066E+03  0.7546771E-02  0.1090869E+00
         21   -1    0    0  502  501  0.00000000000E+00  0.00000000000E+00  0.66080125943E+03  0.66080125943E+03  0.00000000000E+00 0. -1.
         21   -1    0    0  501  502 -0.00000000000E+00 -0.00000000000E+00 -0.12639928343E+03  0.12639928343E+03  0.00000000000E+00 0. -1.
         25    1    1    2    0    0  0.53617770378E+02  0.10779041774E+03  0.12746128561E+03  0.21532537887E+03  0.12500000000E+03 0.  0.
         25    1    1    2    0    0 -0.16607424307E+03 -0.81519907977E+02  0.17234416922E+03  0.28205258778E+03  0.12500000000E+03 0.  0.
         25    1    1    2    0    0  0.11245647269E+03 -0.26270509763E+02  0.23459652117E+03  0.28982257621E+03  0.12500000000E+03 0.  0.
</event>
<event>
 5    0  0.5619558E-005  0.5870823E+03  0.7546771E-02  0.9932574E-01
         21   -1    0    0  502  501  0.00000000000E+00  0.00000000000E+00  0.27457943201E+04  0.27457943201E+04  0.00000000000E+00 0.  1.
         21   -1    0    0  501  502 -0.00000000000E+00 -0.00000000000E+00 -0.12552494645E+03  0.12552494645E+03  0.00000000000E+00 0.  1.
         25    1    1    2    0    0 -0.21221183062E+03  0.27333182396E+03  0.20824767987E+04  0.21147290049E+04  0.12500000000E+03 0.  0.
         25    1    1    2    0    0  0.83235293299E+02 -0.74647501111E+02  0.13996114145E+02  0.16828919955E+03  0.12500000000E+03 0.  0.
         25    1    1    2    0    0  0.12897653732E+03 -0.19868432285E+03  0.52379646086E+03  0.58830106215E+03  0.12500000000E+03 0.  0.
</event>
<event>
 5    0  0.5619558E-005  0.2630685E+03  0.7546771E-02  0.1105314E+00
         21   -1    0    0  502  501  0.00000000000E+00  0.00000000000E+00  0.63762753279E+02  0.63762753279E+02  0.00000000000E+00 0. -1.
         21   -1    0    0  501  502 -0.00000000000E+00 -0.00000000000E+00 -0.10853518895E+04  0.10853518895E+04  0.00000000000E+00 0. -1.
         25    1    1    2    0    0  0.94877898805E+02 -0.42857244568E+02 -0.42578330711E+03  0.45580147401E+03  0.12500000000E+03 0.  0.
         25    1    1    2    0    0 -0.49732726310E+01 -0.85341712071E+02 -0.29977290209E+03  0.33585225039E+03  0.12500000000E+03 0.  0.
         25    1    1    2    0    0 -0.89904626174E+02  0.12819895664E+03 -0.29603292699E+03  0.35746091835E+03  0.12500000000E+03 0.  0.
</event>
<event>
 5    0  0.5784442E-005  0.3111459E+03  0.7546771E-02  0.1079798E+00
         21   -1    0    0  502  501  0.00000000000E+00  0.00000000000E+00  0.59995337030E+03  0.59995337030E+03  0.00000000000E+00 0. -1.
         21   -1    0    0  501  502 -0.00000000000E+00 -0.00000000000E+00 -0.16136546023E+03  0.16136546023E+03  0.00000000000E+00 0. -1.
         25    1    1    2    0    0  0.49226036523E+02 -0.12385501442E+03  0.42254314643E+02  0.18754651256E+03  0.12500000000E+03 0.  0.
         25    1    1    2    0    0  0.94432655895E+02  0.15649673125E+03  0.22157271063E+03  0.31325424097E+03  0.12500000000E+03 0.  0.
         25    1    1    2    0    0 -0.14365869242E+03 -0.32641716835E+02  0.17476088480E+03  0.26051807700E+03  0.12500000000E+03 0.  0.
</event>
<event>
 5    0  0.5619558E-005  0.3136796E+03  0.7546771E-02  0.1078595E+00
         21   -1    0    0  502  501  0.00000000000E+00  0.00000000000E+00  0.48094490564E+02  0.48094490564E+02  0.00000000000E+00 0.  1.
         21   -1    0    0  501  502 -0.00000000000E+00 -0.00000000000E+00 -0.20458658921E+04  0.20458658921E+04  0.00000000000E+00 0.  1.
         25    1    1    2    0    0  0.30480220939E+02 -0.11790738125E+02 -0.66581492790E+02  0.14534841092E+03  0.12500000000E+03 0.  0.
         25    1    1    2    0    0 -0.21217373754E+02 -0.23549818698E+02 -0.10373805414E+04  0.10453650838E+04  0.12500000000E+03 0.  0.
         25    1    1    2    0    0 -0.92628471849E+01  0.35340556823E+02 -0.89380936735E+03  0.90324688788E+03  0.12500000000E+03 0.  0.
</event>
<event>
 5    0  0.5619558E-005  0.2720680E+03  0.7546771E-02  0.1100102E+00
         21   -1    0    0  502  501  0.00000000000E+00  0.00000000000E+00  0.13657558346E+03  0.13657558346E+03  0.00000000000E+00 0. -1.
         21   -1    0    0  501  502 -0.00000000000E+00 -0.00000000000E+00 -0.54197843212E+03  0.54197843212E+03  0.00000000000E+00 0. -1.
         25    1    1    2    0    0 -0.11779567842E+03  0.86334542171E+02 -0.32042119309E+02  0.19488758923E+03  0.12500000000E+03 0.  0.
         25    1    1    2    0    0  0.48374873291E+02 -0.33270049923E-01 -0.21596189051E+03  0.25417448264E+03  0.12500000000E+03 0.  0.
         25    1    1    2    0    0  0.69420805133E+02 -0.86301272121E+02 -0.15739883885E+03  0.22949194371E+03  0.12500000000E+03 0.  0.
</event>
<event>
 5    0  0.5619558E-005  0.3319066E+03  0.7546771E-02  0.1070296E+00
         21   -1    0    0  502  501  0.00000000000E+00  0.00000000000E+00  0.17340142395E+03  0.17340142395E+03  0.00000000000E+00 0.  1.
         21   -1    0    0  501  502 -0.00000000000E+00 -0.00000000000E+00 -0.63530031601E+03  0.63530031601E+03  0.00000000000E+00 0.  1.
         25    1    1    2    0    0 -0.86668597322E+00  0.10595219680E+03 -0.16965448124E+03  0.23586916322E+03  0.12500000000E+03 0.  0.
         25    1    1    2    0    0  0.84250563607E+02  0.10698462206E+03 -0.49095589062E+01  0.18491341378E+03  0.12500000000E+03 0.  0.
         25    1    1    2    0    0 -0.83383877634E+02 -0.21293681886E+03 -0.28733485191E+03  0.38791916297E+03  0.12500000000E+03 0.  0.
</event>
<event>
 5    0  0.5619558E-005  0.3382193E+03  0.7546771E-02  0.1067557E+00
         21   -1    0    0  502  501  0.00000000000E+00  0.00000000000E+00  0.20471266127E+03  0.20471266127E+03  0.00000000000E+00 0.  1.
         21   -1    0    0  501  502 -0.00000000000E+00 -0.00000000000E+00 -0.55879440311E+03  0.55879440311E+03  0.00000000000E+00 0.  1.
         25    1    1    2    0    0  0.14400151715E+03  0.96312478228E+02  0.31372254407E+02  0.21592070014E+03  0.12500000000E+03 0.  0.
         25    1    1    2    0    0 -0.16858674066E+03  0.18570666542E+02 -0.26215299426E+03  0.33632655438E+03  0.12500000000E+03 0.  0.
         25    1    1    2    0    0  0.24585223516E+02 -0.11488314477E+03 -0.12330100199E+03  0.21125980986E+03  0.12500000000E+03 0.  0.
</event>
<event>
 5    0  0.5619558E-005  0.3184012E+03  0.7546771E-02  0.1076387E+00
         21   -1    0    0  502  501  0.00000000000E+00  0.00000000000E+00  0.52480323392E+03  0.52480323392E+03  0.00000000000E+00 0.  1.
         21   -1    0    0  501  502 -0.00000000000E+00 -0.00000000000E+00 -0.19317582844E+03  0.19317582844E+03  0.00000000000E+00 0.  1.
         25    1    1    2    0    0 -0.94503079879E+02  0.61563023460E+02 -0.10528897337E+03  0.19857393051E+03  0.12500000000E+03 0.  0.
         25    1    1    2    0    0  0.35054637002E+02 -0.34890853983E+02  0.16246547135E+03  0.21087017012E+03  0.12500000000E+03 0.  0.
         25    1    1    2    0    0  0.59448442877E+02 -0.26672169477E+02  0.27445090749E+03  0.30853496173E+03  0.12500000000E+03 0.  0.
</event>
<event>
 5    0  0.5619558E-005  0.3716504E+03  0.7546771E-02  0.1054064E+00
         21   -1    0    0  502  501  0.00000000000E+00  0.00000000000E+00  0.15890990761E+03  0.15890990761E+03  0.00000000000E+00 0.  1.
         21   -1    0    0  501  502 -0.00000000000E+00 -0.00000000000E+00 -0.86919726176E+03  0.86919726176E+03  0.00000000000E+00 0.  1.
         25    1    1    2    0    0  0.21462847396E+03  0.30334095249E+02 -0.20031731605E+03  0.32052701333E+03  0.12500000000E+03 0.  0.
         25    1    1    2    0    0  0.13134573394E+02 -0.14372674960E+03 -0.29674646497E+03  0.35286450663E+03  0.12500000000E+03 0.  0.
         25    1    1    2    0    0 -0.22776304735E+03  0.11339265435E+03 -0.21322357313E+03  0.35471564941E+03  0.12500000000E+03 0.  0.
</event>
<event>
 5    0  0.5921873E-005  0.3486988E+03  0.7546771E-02  0.1063150E+00
         21   -1    0    0  502  501  0.00000000000E+00  0.00000000000E+00  0.28566594828E+03  0.28566594828E+03  0.00000000000E+00 0.  1.
         21   -1    0    0  501  502 -0.00000000000E+00 -0.00000000000E+00 -0.42564006576E+03  0.42564006576E+03  0.00000000000E+00 0.  1.
         25    1    1    2    0    0  0.94520886350E+02  0.16210235819E+02  0.18898081052E+03  0.24604007081E+03  0.12500000000E+03 0.  0.
         25    1    1    2    0    0 -0.27745983720E+02 -0.93591985301E+02 -0.10916110364E+03  0.19253686887E+03  0.12500000000E+03 0.  0.
         25    1    1    2    0    0 -0.66774902630E+02  0.77381749482E+02 -0.21979382435E+03  0.27272907435E+03  0.12500000000E+03 0.  0.
</event>
<event>
 5    0  0.5619558E-005  0.3941866E+03  0.7546771E-02  0.1045811E+00
         21   -1    0    0  502  501  0.00000000000E+00  0.00000000000E+00  0.30124094170E+04  0.30124094170E+04  0.00000000000E+00 0. -1.
         21   -1    0    0  501  502 -0.00000000000E+00 -0.00000000000E+00 -0.51580998727E+02  0.51580998727E+02  0.00000000000E+00 0. -1.
         25    1    1    2    0    0  0.31845107052E+03 -0.33431598733E+02  0.15039250479E+04  0.15427068113E+04  0.12500000000E+03 0.  0.
         25    1    1    2    0    0 -0.99394444017E+02 -0.28004847983E+02  0.77187564368E+03  0.78872082280E+03  0.12500000000E+03 0.  0.
         25    1    1    2    0    0 -0.21905662651E+03  0.61436446716E+02  0.68502772670E+03  0.73256278158E+03  0.12500000000E+03 0.  0.
</event>
<event>
 5    0  0.5619558E-005  0.3641319E+03  0.7546771E-02  0.1056960E+00
         21   -1    0    0  502  501  0.00000000000E+00  0.00000000000E+00  0.20116797889E+04  0.20116797889E+04  0.00000000000E+00 0. -1.
         21   -1    0    0  501  502 -0.00000000000E+00 -0.00000000000E+00 -0.65911119789E+02  0.65911119789E+02  0.00000000000E+00 0. -1.
         25    1    1    2    0    0 -0.27429041279E+03 -0.66064697136E+02  0.60400171116E+03  0.67826458100E+03  0.12500000000E+03 0.  0.
         25    1    1    2    0    0  0.49959289329E+02  0.20018553540E+02  0.48198444648E+03  0.50082999084E+03  0.12500000000E+03 0.  0.
         25    1    1    2    0    0  0.22433112346E+03  0.46046143596E+02  0.85978251143E+03  0.89849633681E+03  0.12500000000E+03 0.  0.
</event>
<event>
 5    0  0.5808948E-005  0.3517527E+03  0.7546771E-02  0.1061898E+00
         21   -1    0    0  502  501  0.00000000000E+00  0.00000000000E+00  0.19209392337E+03  0.19209392337E+03  0.00000000000E+00 0.  1.
         21   -1    0    0  501  502 -0.00000000000E+00 -0.00000000000E+00 -0.64411177118E+03  0.64411177118E+03  0.00000000000E+00 0.  1.
         25    1    1    2    0    0  0.21762204504E+02 -0.38680062315E+01 -0.35151204166E+03  0.37373021078E+03  0.12500000000E+03 0.  0.
         25    1    1    2    0    0 -0.10184981703E+03 -0.12903189780E+03 -0.15230342244E+03  0.25660075676E+03  0.12500000000E+03 0.  0.
         25    1    1    2    0    0  0.80087612530E+02  0.13289990403E+03  0.51797616283E+02  0.20587472702E+03  0.12500000000E+03 0.  0.
</event>
<event>
 5    0  0.5619558E-005  0.3685079E+03  0.7546771E-02  0.1055265E+00
         21   -1    0    0  502  501  0.00000000000E+00  0.00000000000E+00  0.91408101552E+02  0.91408101552E+02  0.00000000000E+00 0.  1.
         21   -1    0    0  501  502 -0.00000000000E+00 -0.00000000000E+00 -0.14856241233E+04  0.14856241233E+04  0.00000000000E+00 0.  1.
         25    1    1    2    0    0 -0.12549835208E+02  0.12390157949E+03 -0.29450643189E+03  0.34331929481E+03  0.12500000000E+03 0.  0.
         25    1    1    2    0    0  0.16504752436E+03  0.99108559736E+02 -0.69071404642E+03  0.72785581390E+03  0.12500000000E+03 0.  0.
         25    1    1    2    0    0 -0.15249768916E+03 -0.22301013922E+03 -0.40899554341E+03  0.50585711612E+03  0.12500000000E+03 0.  0.
</event>
<event>
 5    0  0.5619558E-005  0.2421248E+03  0.7546771E-02  0.1118385E+00
         21   -1    0    0  502  501  0.00000000000E+00  0.00000000000E+00  0.66690717908E+03  0.66690717908E+03  0.00000000000E+00 0.  1.
         21   -1    0    0  501  502 -0.00000000000E+00 -0.00000000000E+00 -0.87904926145E+02  0.87904926145E+02  0.00000000000E+00 0.  1.
         25    1    1    2    0    0  0.26798590834E+02 -0.71674470452E+02  0.22462714538E+03  0.26821213363E+03  0.12500000000E+03 0.  0.
         25    1    1    2    0    0 -0.34614484212E+02 -0.33910098952E+02  0.54138807397E+02  0.14458239103E+03  0.12500000000E+03 0.  0.
         25    1    1    2    0    0  0.78158933780E+01  0.10558456940E+03  0.30023630016E+03  0.34201758057E+03  0.12500000000E+03 0.  0.
</event>
<event>
 5    0  0.5619558E-005  0.3564381E+03  0.7546771E-02  0.1060003E+00
         21   -1    0    0  502  501  0.00000000000E+00  0.00000000000E+00  0.19210377691E+03  0.19210377691E+03  0.00000000000E+00 0.  1.
         21   -1    0    0  501  502 -0.00000000000E+00 -0.00000000000E+00 -0.66135162465E+03  0.66135162465E+03  0.00000000000E+00 0.  1.
         25    1    1    2    0    0  0.61230262315E+02  0.69235778578E+02 -0.28004066672E+03  0.32029753835E+03  0.12500000000E+03 0.  0.
         25    1    1    2    0    0 -0.77520879319E+02 -0.23054794064E+03 -0.32611286152E+02  0.27540939644E+03  0.12500000000E+03 0.  0.
         25    1    1    2    0    0  0.16290617004E+02  0.16131216206E+03 -0.15659589486E+03  0.25774846676E+03  0.12500000000E+03 0.  0.
</event>
<event>
 5    0  0.5619558E-005  0.4918862E+03  0.7546771E-02  0.1015919E+00
         21   -1    0    0  502  501  0.00000000000E+00  0.00000000000E+00  0.93521212195E+02  0.93521212195E+02  0.00000000000E+00 0. -1.
         21   -1    0    0  501  502 -0.00000000000E+00 -0.00000000000E+00 -0.25871355400E+04  0.25871355400E+04  0.00000000000E+00 0. -1.
         25    1    1    2    0    0  0.54247789119E+02  0.11410468158E+03 -0.77900222493E+03  0.79901950379E+03  0.12500000000E+03 0.  0.
         25    1    1    2    0    0 -0.94711661526E+02 -0.29304264604E+03 -0.15954124577E+04  0.16296656716E+04  0.12500000000E+03 0.  0.
         25    1    1    2    0    0  0.40463872407E+02  0.17893796446E+03 -0.11919964525E+03  0.25197157682E+03  0.12500000000E+03 0.  0.
</event>
<event>
 5    0  0.6234298E-005  0.2737659E+03  0.7546771E-02  0.1099143E+00
         21   -1    0    0  502  501  0.00000000000E+00  0.00000000000E+00  0.22221225254E+03  0.22221225254E+03  0.00000000000E+00 0.  1.
         21   -1    0    0  501  502 -0.00000000000E+00 -0.00000000000E+00 -0.33728000765E+03  0.33728000765E+03  0.00000000000E+00 0.  1.
         25    1    1    2    0    0 -0.55742557061E+02 -0.83208431451E+01 -0.13248679358E+03  0.19066782521E+03  0.12500000000E+03 0.  0.
         25    1    1    2    0    0  0.11415791347E+03  0.95058114619E+02  0.54567340702E+02  0.20166970281E+03  0.12500000000E+03 0.  0.
         25    1    1    2    0    0 -0.58415356406E+02 -0.86737271474E+02 -0.37148302229E+02  0.16715473217E+03  0.12500000000E+03 0.  0.
</event>
<event>
 5    0  0.6839092E-005  0.4773389E+03  0.7546771E-02  0.1019869E+00
         21   -1    0    0  502  501  0.00000000000E+00  0.00000000000E+00  0.59037799622E+03  0.59037799622E+03  0.00000000000E+00 0. -1.
         21   -1    0    0  501  502 -0.00000000000E+00 -0.00000000000E+00 -0.38594334535E+03  0.38594334535E+03  0.00000000000E+00 0.  1.
         25    1    1    2    0    0  0.30322153860E+03  0.94279233717E+02  0.12026984208E+03  0.36183105214E+03  0.12500000000E+03 0.  0.
         25    1    1    2    0    0 -0.18513874121E+02 -0.74878559334E+02 -0.16108422849E+03  0.21799699734E+03  0.12500000000E+03 0.  0.
         25    1    1    2    0    0 -0.28470766447E+03 -0.19400674384E+02  0.24524903728E+03  0.39649329208E+03  0.12500000000E+03 0.  0.
</event>
<event>
 5    0  0.5619558E-005  0.3350204E+03  0.7546771E-02  0.1068937E+00
         21   -1    0    0  502  501  0.00000000000E+00  0.00000000000E+00  0.35124688218E+03  0.35124688218E+03  0.00000000000E+00 0. -1.
         21   -1    0    0  501  502 -0.00000000000E+00 -0.00000000000E+00 -0.31954345009E+03  0.31954345009E+03  0.00000000000E+00 0.  1.
         25    1    1    2    0    0  0.10272964053E+03  0.35616944832E+02  0.17640166562E+02  0.16660768673E+03  0.12500000000E+03 0.  0.
         25    1    1    2    0    0  0.26747936680E+02  0.88080701683E+02 -0.16147769775E+03  0.22399488609E+03  0.12500000000E+03 0.  0.
         25    1    1    2    0    0 -0.12947757721E+03 -0.12369764651E+03  0.17554096327E+03  0.28018775944E+03  0.12500000000E+03 0.  0.
</event>
<event>
 5    0  0.5619558E-005  0.3201484E+03  0.7546771E-02  0.1075581E+00
         21   -1    0    0  502  501  0.00000000000E+00  0.00000000000E+00  0.98285659296E+02  0.98285659296E+02  0.00000000000E+00 0.  1.
         21   -1    0    0  501  502 -0.00000000000E+00 -0.00000000000E+00 -0.10428275508E+04  0.10428275508E+04  0.00000000000E+00 0.  1.
         25    1    1    2    0    0  0.91702863034E+02 -0.56971820803E+02 -0.60289685837E+03  0.62511185022E+03  0.12500000000E+03 0.  0.
         25    1    1    2    0    0  0.53866304914E+02 -0.13096931424E+02 -0.24728840027E+02  0.13895907292E+03  0.12500000000E+03 0.  0.
         25    1    1    2    0    0 -0.14556916795E+03  0.70068752227E+02 -0.31691619308E+03  0.37704228692E+03  0.12500000000E+03 0.  0.
</event>
<event>
 5    0  0.5947471E-005  0.3375126E+03  0.7546771E-02  0.1067860E+00
         21   -1    0    0  502  501  0.00000000000E+00  0.00000000000E+00  0.86248697010E+03  0.86248697010E+03  0.00000000000E+00 0. -1.
         21   -1    0    0  501  502 -0.00000000000E+00 -0.00000000000E+00 -0.13207708753E+03  0.13207708753E+03  0.00000000000E+00 0. -1.
         25    1    1    2    0    0 -0.66268226850E+02 -0.15733041012E+03  0.38738245173E+03  0.44140061140E+03  0.12500000000E+03 0.  0.
         25    1    1    2    0    0 -0.64934907189E+02 -0.21358309727E+02  0.23057197112E+02  0.14432378149E+03  0.12500000000E+03 0.  0.
         25    1    1    2    0    0  0.13120313404E+03  0.17868871985E+03  0.31997023373E+03  0.40883966473E+03  0.12500000000E+03 0.  0.
</event>
<event>
 5    0  0.5619558E-005  0.2814833E+03  0.7546771E-02  0.1094882E+00
         21   -1    0    0  502  501  0.00000000000E+00  0.00000000000E+00  0.64422490508E+02  0.64422490508E+02  0.00000000000E+00 0. -1.
         21   -1    0    0  501  502 -0.00000000000E+00 -0.00000000000E+00 -0.12298943638E+04  0.12298943638E+04  0.00000000000E+00 0. -1.
         25    1    1    2    0    0  0.95538403916E+02  0.11540821645E+03 -0.49312505203E+03  0.53032439128E+03  0.12500000000E+03 0.  0.
         25    1    1    2    0    0 -0.68703175388E+02  0.27488010653E+02 -0.15582749293E+03  0.21303268433E+03  0.12500000000E+03 0.  0.
         25    1    1    2    0    0 -0.26835228528E+02 -0.14289622710E+03 -0.51651932835E+03  0.55095977873E+03  0.12500000000E+03 0.  0.
</event>
<event>
 5    0  0.5619558E-005  0.6441862E+03  0.7546771E-02  0.9817750E-01
         21   -1    0    0  502  501  0.00000000000E+00  0.00000000000E+00  0.67796749851E+03  0.67796749851E+03  0.00000000000E+00 0.  1.
         21   -1    0    0  501  502 -0.00000000000E+00 -0.00000000000E+00 -0.61208821889E+03  0.61208821889E+03  0.00000000000E+00 0.  1.
         25    1    1    2    0    0 -0.22777707745E+03 -0.84414297001E+02  0.59019545549E+03  0.65035670692E+03  0.12500000000E+03 0.  0.
         25    1    1    2    0    0  0.16926956473E+03  0.57916776921E+02 -0.25285217348E+03  0.33401461080E+03  0.12500000000E+03 0.  0.
         25    1    1    2    0    0  0.58507512721E+02  0.26497520080E+02 -0.27146400239E+03  0.30568439968E+03  0.12500000000E+03 0.  0.
</event>
<event>
 5    0  0.5619558E-005  0.3263283E+03  0.7546771E-02  0.1072773E+00
         21   -1    0    0  502  501  0.00000000000E+00  0.00000000000E+00  0.39318072881E+03  0.39318072881E+03  0.00000000000E+00 0.  1.
         21   -1    0    0  501  502 -0.00000000000E+00 -0.00000000000E+00 -0.27084280033E+03  0.27084280033E+03  0.00000000000E+00 0.  1.
         25    1    1    2    0    0 -0.77377025270E+02 -0.89011786479E+02 -0.20212302860E+01  0.17187026370E+03  0.12500000000E+03 0.  0.
         25    1    1    2    0    0  0.79666172833E+02 -0.14715199613E+03  0.49534343735E+02  0.21466033697E+03  0.12500000000E+03 0.  0.
         25    1    1    2    0    0 -0.22891475631E+01  0.23616378261E+03  0.74824815032E+02  0.27749292848E+03  0.12500000000E+03 0.  0.
</event>
<event>
 5    0  0.5619558E-005  0.2391278E+03  0.7546771E-02  0.1120375E+00
         21   -1    0    0  502  501  0.00000000000E+00  0.00000000000E+00  0.34699921818E+02  0.34699921818E+02  0.00000000000E+00 0. -1.
         21   -1    0    0  501  502 -0.00000000000E+00 -0.00000000000E+00 -0.16479036484E+04  0.16479036484E+04  0.00000000000E+00 0. -1.
         25    1    1    2    0    0  0.56469911441E+02 -0.71950967953E+02 -0.48090214618E+03  0.50523031074E+03  0.12500000000E+03 0.  0.
         25    1    1    2    0    0 -0.10168791866E+02  0.21856252817E+02 -0.86675702896E+03  0.87605584718E+03  0.12500000000E+03 0.  0.
         25    1    1    2    0    0 -0.46301119575E+02  0.50094715136E+02 -0.26554455144E+03  0.30131741230E+03  0.12500000000E+03 0.  0.
</event>
<event>
 5    0  0.5619558E-005  0.3034565E+03  0.7546771E-02  0.1083525E+00
         21   -1    0    0  502  501  0.00000000000E+00  0.00000000000E+00  0.48621507062E+03  0.48621507062E+03  0.00000000000E+00 0.  1.
         21   -1    0    0  501  502 -0.00000000000E+00 -0.00000000000E+00 -0.18939324922E+03  0.18939324922E+03  0.00000000000E+00 0.  1.
         25    1    1    2    0    0 -0.24454035301E+02 -0.44636194699E+02 -0.21801852111E+02  0.13671397323E+03  0.12500000000E+03 0.  0.
         25    1    1    2    0    0  0.14461781912E+03  0.13240183601E+03  0.12261969911E+03  0.26287858489E+03  0.12500000000E+03 0.  0.
         25    1    1    2    0    0 -0.12016378382E+03 -0.87765641309E+02  0.19600397440E+03  0.27601576172E+03  0.12500000000E+03 0.  0.
</event>
<event>
 5    0  0.5619558E-005  0.3526994E+03  0.7546771E-02  0.1061513E+00
         21   -1    0    0  502  501  0.00000000000E+00  0.00000000000E+00  0.46361837386E+03  0.46361837386E+03  0.00000000000E+00 0. -1.
         21   -1    0    0  501  502 -0.00000000000E+00 -0.00000000000E+00 -0.26831734641E+03  0.26831734641E+03  0.00000000000E+00 0. -1.
         25    1    1    2    0    0 -0.12762180411E+03  0.23502284675E+03  0.52802817138E+02  0.29989364928E+03  0.12500000000E+03 0.  0.
         25    1    1    2    0    0  0.68874488716E+02 -0.18875177291E+03  0.12757536079E+02  0.23697823044E+03  0.12500000000E+03 0.  0.
         25    1    1    2    0    0  0.58747315396E+02 -0.46271073841E+02  0.12974067423E+03  0.19506384055E+03  0.12500000000E+03 0.  0.
</event>
<event>
 5    0  0.5619558E-005  0.3654957E+03  0.7546771E-02  0.1056429E+00
         21   -1    0    0  502  501  0.00000000000E+00  0.00000000000E+00  0.20736361924E+03  0.20736361924E+03  0.00000000000E+00 0. -1.
         21   -1    0    0  501  502 -0.00000000000E+00 -0.00000000000E+00 -0.64421681553E+03  0.64421681553E+03  0.00000000000E+00 0. -1.
         25    1    1    2    0    0  0.10591737445E+02  0.19259453293E+03 -0.40311497542E+03  0.46403827689E+03  0.12500000000E+03 0.  0.
         25    1    1    2    0    0 -0.10270698072E+03 -0.15974411814E+03 -0.19515428391E+02  0.22819456416E+03  0.12500000000E+03 0.  0.
         25    1    1    2    0    0  0.92115243272E+02 -0.32850414791E+02 -0.14222792475E+02  0.15934759371E+03  0.12500000000E+03 0.  0.
</event>
<event>
 5    0  0.5619558E-005  0.2761246E+03  0.7546771E-02  0.1097825E+00
         21   -1    0    0  502  501  0.00000000000E+00  0.00000000000E+00  0.63037113551E+03  0.63037113551E+03  0.00000000000E+00 0.  1.
         21   -1    0    0  501  502 -0.00000000000E+00 -0.00000000000E+00 -0.12095224864E+03  0.12095224864E+03  0.00000000000E+00 0.  1.
         25    1    1    2    0    0  0.11946699098E+02  0.14684918811E+03  0.10315111972E+03  0.21902639377E+03  0.12500000000E+03 0.  0.
         25    1    1    2    0    0  0.91586211424E+01  0.13836258066E+02  0.87509555888E+02  0.15348695303E+03  0.12500000000E+03 0.  0.
         25    1    1    2    0    0 -0.21105320241E+02 -0.16068544617E+03  0.31875821126E+03  0.37881003736E+03  0.12500000000E+03 0.  0.
</event>
<event>
 5    0  0.5619558E-005  0.3138554E+03  0.7546771E-02  0.1078512E+00
         21   -1    0    0  502  501  0.00000000000E+00  0.00000000000E+00  0.72956315259E+03  0.72956315259E+03  0.00000000000E+00 0.  1.
         21   -1    0    0  501  502 -0.00000000000E+00 -0.00000000000E+00 -0.13501948482E+03  0.13501948482E+03  0.00000000000E+00 0.  1.
         25    1    1    2    0    0 -0.62110871102E+02  0.18339633360E+03  0.25575473185E+03  0.34427817002E+03  0.12500000000E+03 0.  0.
         25    1    1    2    0    0 -0.42605078940E+02 -0.40979202591E+02  0.25122808346E+03  0.28676652126E+03  0.12500000000E+03 0.  0.
         25    1    1    2    0    0  0.10471595004E+03 -0.14241713101E+03  0.87560852456E+02  0.23353794613E+03  0.12500000000E+03 0.  0.
</event>
<event>
 5    0  0.5619558E-005  0.2404746E+03  0.7546771E-02  0.1119477E+00
         21   -1    0    0  502  501  0.00000000000E+00  0.00000000000E+00  0.89477572723E+02  0.89477572723E+02  0.00000000000E+00 0. -1.
         21   -1    0    0  501  502 -0.00000000000E+00 -0.00000000000E+00 -0.64628537744E+03  0.64628537744E+03  0.00000000000E+00 0. -1.
         25    1    1    2    0    0 -0.72600322683E+02 -0.73188042119E+02 -0.22293729890E+03  0.27559632727E+03  0.12500000000E+03 0.  0.
         25    1    1    2    0    0  0.92547680611E+02  0.27885412040E+01 -0.99516336398E+02  0.18466550939E+03  0.12500000000E+03 0.  0.
         25    1    1    2    0    0 -0.19947357928E+02  0.70399500915E+02 -0.23435416942E+03  0.27550111350E+03  0.12500000000E+03 0.  0.
</event>
<event>
 5    0  0.5619558E-005  0.2742314E+03  0.7546771E-02  0.1098882E+00
         21   -1    0    0  502  501  0.00000000000E+00  0.00000000000E+00  0.39629554280E+03  0.39629554280E+03  0.00000000000E+00 0. -1.
         21   -1    0    0  501  502 -0.00000000000E+00 -0.00000000000E+00 -0.18976459756E+03  0.18976459756E+03  0.00000000000E+00 0. -1.
         25    1    1    2    0    0 -0.90503158476E+01 -0.13077390956E+03 -0.39730751394E+02  0.18543801187E+03  0.12500000000E+03 0.  0.
         25    1    1    2    0    0 -0.26218291833E+02  0.12763493040E+03  0.17929736750E+03  0.25446143181E+03  0.12500000000E+03 0.  0.
         25    1    1    2    0    0  0.35268607681E+02  0.31389791613E+01  0.66964329141E+02  0.14616069668E+03  0.12500000000E+03 0.  0.
</event>
<event>
 5    0  0.5619558E-005  0.4340660E+03  0.7546771E-02  0.1032583E+00
         21   -1    0    0  502  501  0.00000000000E+00  0.00000000000E+00  0.15766420419E+03  0.15766420419E+03  0.00000000000E+00 0. -1.
         21   -1    0    0  501  502 -0.00000000000E+00 -0.00000000000E+00 -0.11950289786E+04  0.11950289786E+04  0.00000000000E+00 0. -1.
         25    1    1    2    0    0 -0.76603330506E+02 -0.59100007592E+01 -0.49866716950E+02  0.15496673131E+03  0.12500000000E+03 0.  0.
         25    1    1    2    0    0 -0.18841219430E+03  0.51367036643E+01 -0.83954572001E+03  0.86947544915E+03  0.12500000000E+03 0.  0.
         25    1    1    2    0    0  0.26501552481E+03  0.77329709483E+00 -0.14795233745E+03  0.32825100234E+03  0.12500000000E+03 0.  0.
</event>
<event>
 5    0  0.5619558E-005  0.2735519E+03  0.7546771E-02  0.1099264E+00
         21   -1    0    0  502  501  0.00000000000E+00  0.00000000000E+00  0.24823791900E+03  0.24823791900E+03  0.00000000000E+00 0.  1.
         21   -1    0    0  501  502 -0.00000000000E+00 -0.00000000000E+00 -0.30144715942E+03  0.30144715942E+03  0.00000000000E+00 0.  1.
         25    1    1    2    0    0  0.52693648324E+02 -0.31697406753E+02 -0.13637497061E+03  0.19494737438E+03  0.12500000000E+03 0.  0.
         25    1    1    2    0    0 -0.82624839936E+02  0.23822862962E+02  0.14678536695E+03  0.21110503766E+03  0.12500000000E+03 0.  0.
         25    1    1    2    0    0  0.29931191612E+02  0.78745437914E+01 -0.63619636760E+02  0.14363266638E+03  0.12500000000E+03 0.  0.
</event>
<event>
 5    0  0.5619558E-005  0.2426897E+03  0.7546771E-02  0.1118014E+00
         21   -1    0    0  502  501  0.00000000000E+00  0.00000000000E+00  0.23951910028E+03  0.23951910028E+03  0.00000000000E+00 0. -1.
         21   -1    0    0  501  502 -0.00000000000E+00 -0.00000000000E+00 -0.24590219511E+03  0.24590219511E+03  0.00000000000E+00 0. -1.
         25    1    1    2    0    0  0.31855654088E+02  0.51511514833E+02  0.10785725627E+03  0.17585905318E+03  0.12500000000E+03 0.  0.
         25    1    1    2    0    0 -0.14064133898E+02  0.38774121636E+02 -0.40511278649E+02  0.13772216985E+03  0.12500000000E+03 0.  0.
         25    1    1    2    0    0 -0.17791520191E+02 -0.90285636469E+02 -0.73729072444E+02  0.17184007235E+03  0.12500000000E+03 0.  0.
</event>
<event>
 5    0  0.5619558E-005  0.2720278E+03  0.7546771E-02  0.1100125E+00
         21   -1    0    0  502  501  0.00000000000E+00  0.00000000000E+00  0.32432297583E+04  0.32432297583E+04  0.00000000000E+00 0.  1.
         21   -1    0    0  501  502 -0.00000000000E+00 -0.00000000000E+00 -0.22816485249E+02  0.22816485249E+02  0.00000000000E+00 0.  1.
         25    1    1    2    0    0 -0.40394332777E+02  0.13107693436E+03  0.19540759679E+04  0.19628679918E+04  0.12500000000E+03 0.  0.
         25    1    1    2    0    0  0.36169219376E+02 -0.76905473881E+01  0.47413072878E+03  0.49172380960E+03  0.12500000000E+03 0.  0.
         25    1    1    2    0    0  0.42251134010E+01 -0.12338638698E+03  0.79220657640E+03  0.81145444220E+03  0.12500000000E+03 0.  0.
</event>
<event>
 5    0  0.5619558E-005  0.3637445E+03  0.7546771E-02  0.1057111E+00
         21   -1    0    0  502  501  0.00000000000E+00  0.00000000000E+00  0.21491584009E+03  0.21491584009E+03  0.00000000000E+00 0.  1.
         21   -1    0    0  501  502 -0.00000000000E+00 -0.00000000000E+00 -0.61563672481E+03  0.61563672481E+03  0.00000000000E+00 0.  1.
         25    1    1    2    0    0 -0.46565442465E+02 -0.58214975366E+02 -0.10917257491E+03  0.18193673324E+03  0.12500000000E+03 0.  0.
         25    1    1    2    0    0 -0.14885612423E+03 -0.13436042407E+03 -0.10638503848E+02  0.23653550905E+03  0.12500000000E+03 0.  0.
         25    1    1    2    0    0  0.19542156669E+03  0.19257539943E+03 -0.28090980596E+03  0.41208032261E+03  0.12500000000E+03 0.  0.
</event>
<event>
 5    0  0.5619558E-005  0.2373552E+03  0.7546771E-02  0.1121567E+00
         21   -1    0    0  502  501  0.00000000000E+00  0.00000000000E+00  0.48125616879E+02  0.48125616879E+02  0.00000000000E+00 0. -1.
         21   -1    0    0  501  502 -0.00000000000E+00 -0.00000000000E+00 -0.11706343915E+04  0.11706343915E+04  0.00000000000E+00 0. -1.
         25    1    1    2    0    0 -0.77066244734E+02  0.10369642389E+03 -0.37910344391E+03  0.41956712883E+03  0.12500000000E+03 0.  0.
         25    1    1    2    0    0  0.25320368423E+02 -0.86902185234E+02 -0.34032634160E+03  0.37368453225E+03  0.12500000000E+03 0.  0.
         25    1    1    2    0    0  0.51745876311E+02 -0.16794238652E+02 -0.40307898915E+03  0.42550834735E+03  0.12500000000E+03 0.  0.
</event>
<event>
 5    0  0.5619558E-005  0.4568704E+03  0.7546771E-02  0.1025693E+00
         21   -1    0    0  502  501  0.00000000000E+00  0.00000000000E+00  0.62431713516E+03  0.62431713516E+03  0.00000000000E+00 0.  1.
         21   -1    0    0  501  502 -0.00000000000E+00 -0.00000000000E+00 -0.33433420913E+03  0.33433420913E+03  0.00000000000E+00 0.  1.
         25    1    1    2    0    0  0.53398480531E+02  0.20826177370E+01  0.17051152632E+03  0.21807089587E+03  0.12500000000E+03 0.  0.
         25    1    1    2    0    0  0.25998803639E+03 -0.12042081202E+02 -0.13415209790E+03  0.31837175779E+03  0.12500000000E+03 0.  0.
         25    1    1    2    0    0 -0.31338651692E+03  0.99594634653E+01  0.25362349761E+03  0.42220869063E+03  0.12500000000E+03 0.  0.
</event>
<event>
 5    0  0.5619558E-005  0.2621465E+03  0.7546771E-02  0.1105860E+00
         21   -1    0    0  502  501  0.00000000000E+00  0.00000000000E+00  0.52196672238E+02  0.52196672238E+02  0.00000000000E+00 0.  1.
         21   -1    0    0  501  502 -0.00000000000E+00 -0.00000000000E+00 -0.13165740969E+04  0.13165740969E+04  0.00000000000E+00 0.  1.
         25    1    1    2    0    0  0.52761094667E+02  0.34293601568E+02 -0.13610493316E+03  0.19521612907E+03  0.12500000000E+03 0.  0.
         25    1    1    2    0    0 -0.23276323068E+02  0.12465465851E+02 -0.21486803269E+03  0.24998089232E+03  0.12500000000E+03 0.  0.
         25    1    1    2    0    0 -0.29484771599E+02 -0.46759067419E+02 -0.91340445885E+03  0.92357374778E+03  0.12500000000E+03 0.  0.
</event>
<event>
 5    0  0.5619558E-005  0.4191925E+03  0.7546771E-02  0.1037329E+00
         21   -1    0    0  502  501  0.00000000000E+00  0.00000000000E+00  0.12228721467E+04  0.12228721467E+04  0.00000000000E+00 0.  1.
         21   -1    0    0  501  502 -0.00000000000E+00 -0.00000000000E+00 -0.14369640120E+03  0.14369640120E+03  0.00000000000E+00 0.  1.
         25    1    1    2    0    0 -0.10411928644E+03 -0.53897540938E+02  0.18815307884E+03  0.25450412925E+03  0.12500000000E+03 0.  0.
         25    1    1    2    0    0  0.15313798575E+03  0.51343227646E+02 -0.67067430137E+01  0.20434615266E+03  0.12500000000E+03 0.  0.
         25    1    1    2    0    0 -0.49018699309E+02  0.25543132920E+01  0.89772940971E+03  0.90771826602E+03  0.12500000000E+03 0.  0.
</event>
<event>
 5    0  0.5619558E-005  0.2578771E+03  0.7546771E-02  0.1108425E+00
         21   -1    0    0  502  501  0.00000000000E+00  0.00000000000E+00  0.41481558095E+03  0.41481558095E+03  0.00000000000E+00 0. -1.
         21   -1    0    0  501  502 -0.00000000000E+00 -0.00000000000E+00 -0.16031369385E+03  0.16031369385E+03  0.00000000000E+00 0. -1.
         25    1    1    2    0    0 -0.12567412706E+03  0.34642589554E+01  0.14434552112E+03  0.22861893353E+03  0.12500000000E+03 0.  0.
         25    1    1    2    0    0 -0.24901248108E+02 -0.18823586882E+02  0.68200867374E+02  0.14577639689E+03  0.12500000000E+03 0.  0.
         25    1    1    2    0    0  0.15057537516E+03  0.15359327926E+02  0.41955498599E+02  0.20073394437E+03  0.12500000000E+03 0.  0.
</event>
<event>
 5    0  0.5619558E-005  0.2876558E+03  0.7546771E-02  0.1091579E+00
         21   -1    0    0  502  501  0.00000000000E+00  0.00000000000E+00  0.74799825149E+02  0.74799825149E+02  0.00000000000E+00 0. -1.
         21   -1    0    0  501  502 -0.00000000000E+00 -0.00000000000E+00 -0.11062304313E+04  0.11062304313E+04  0.00000000000E+00 0. -1.
         25    1    1    2    0    0 -0.54888463815E+02 -0.11727155202E+03 -0.17560423241E+03  0.25145020743E+03  0.12500000000E+03 0.  0.
         25    1    1    2    0    0 -0.11232084239E+02 -0.54398365104E+02 -0.26380993109E+03  0.29716329111E+03  0.12500000000E+03 0.  0.
         25    1    1    2    0    0  0.66120548054E+02  0.17166991713E+03 -0.59201644267E+03  0.63241675793E+03  0.12500000000E+03 0.  0.
</event>
<event>
 5    0  0.5619558E-005  0.2430895E+03  0.7546771E-02  0.1117752E+00
         21   -1    0    0  502  501  0.00000000000E+00  0.00000000000E+00  0.88080056681E+03  0.88080056681E+03  0.00000000000E+00 0. -1.
         21   -1    0    0  501  502 -0.00000000000E+00 -0.00000000000E+00 -0.67089558861E+02  0.67089558861E+02  0.00000000000E+00 0. -1.
         25    1    1    2    0    0  0.89413183489E+02 -0.10884415259E+02  0.14203221208E+03  0.20955032127E+03  0.12500000000E+03 0.  0.
         25    1    1    2    0    0 -0.10672851163E+03 -0.15852140244E+02  0.47726347319E+03  0.50502246325E+03  0.12500000000E+03 0.  0.
         25    1    1    2    0    0  0.17315328138E+02  0.26736555504E+02  0.19441532267E+03  0.23331734114E+03  0.12500000000E+03 0.  0.
</event>
<event>
 5    0  0.5619558E-005  0.2592246E+03  0.7546771E-02  0.1107610E+00
         21   -1    0    0  502  501  0.00000000000E+00  0.00000000000E+00  0.17783332596E+03  0.17783332596E+03  0.00000000000E+00 0.  1.
         21   -1    0    0  501  502 -0.00000000000E+00 -0.00000000000E+00 -0.37786736876E+03  0.37786736876E+03  0.00000000000E+00 0.  1.
         25    1    1    2    0    0  0.32916247674E+02  0.14114512664E+03 -0.75861151802E+01  0.19154105377E+03  0.12500000000E+03 0.  0.
         25    1    1    2    0    0 -0.17504677348E+02 -0.11864915751E+03 -0.69290609099E+02  0.18657498444E+03  0.12500000000E+03 0.  0.
         25    1    1    2    0    0 -0.15411570326E+02 -0.22495969124E+02 -0.12315731851E+03  0.17758465652E+03  0.12500000000E+03 0.  0.
</event>
<event>
 5    0  0.5619558E-005  0.2430398E+03  0.7546771E-02  0.1117784E+00
         21   -1    0    0  502  501  0.00000000000E+00  0.00000000000E+00  0.32806197877E+03  0.32806197877E+03  0.00000000000E+00 0.  1.
         21   -1    0    0  501  502 -0.00000000000E+00 -0.00000000000E+00 -0.18005235882E+03  0.18005235882E+03  0.00000000000E+00 0.  1.
         25    1    1    2    0    0 -0.69991090630E+01 -0.53552050279E+02  0.12075767277E+03  0.18200061854E+03  0.12500000000E+03 0.  0.
         25    1    1    2    0    0  0.42563535346E+02  0.43420658668E+02 -0.77263082127E+02  0.15903330469E+03  0.12500000000E+03 0.  0.
         25    1    1    2    0    0 -0.35564426283E+02  0.10131391610E+02  0.10451502930E+03  0.16708041436E+03  0.12500000000E+03 0.  0.
</event>
<event>
 5    0  0.5619558E-005  0.3225307E+03  0.7546771E-02  0.1074490E+00
         21   -1    0    0  502  501  0.00000000000E+00  0.00000000000E+00  0.55563962702E+03  0.55563962702E+03  0.00000000000E+00 0.  1.
         21   -1    0    0  501  502 -0.00000000000E+00 -0.00000000000E+00 -0.18721852698E+03  0.18721852698E+03  0.00000000000E+00 0.  1.
         25    1    1    2    0    0  0.13800479938E+03  0.27114613419E+02  0.22830897168E+02  0.18954360126E+03  0.12500000000E+03 0.  0.
         25    1    1    2    0    0  0.18997117784E+02  0.98700161653E+02  0.25182263739E+03  0.29856699935E+03  0.12500000000E+03 0.  0.
         25    1    1    2    0    0 -0.15700191717E+03 -0.12581477507E+03  0.93767565478E+02  0.25474755339E+03  0.12500000000E+03 0.  0.
</event>
<event>
 5    0  0.5619558E-005  0.2932433E+03  0.7546771E-02  0.1088668E+00
         21   -1    0    0  502  501  0.00000000000E+00  0.00000000000E+00  0.36229951945E+03  0.36229951945E+03  0.00000000000E+00 0. -1.
         21   -1    0    0  501  502 -0.00000000000E+00 -0.00000000000E+00 -0.23734952178E+03  0.23734952178E+03  0.00000000000E+00 0. -1.
         25    1    1    2    0    0 -0.10714775389E+03  0.15486854667E+03  0.88590977771E+02  0.24277205204E+03  0.12500000000E+03 0.  0.
         25    1    1    2    0    0  0.17109000865E+02 -0.11386373902E+03 -0.47890763754E+02  0.17656781765E+03  0.12500000000E+03 0.  0.
         25    1    1    2    0    0  0.90038753025E+02 -0.41004807646E+02  0.84249783655E+02  0.18030917154E+03  0.12500000000E+03 0.  0.
</event>
<event>
 5    0  0.5619558E-005  0.2921333E+03  0.7546771E-02  0.1089241E+00
         21   -1    0    0  502  501  0.00000000000E+00  0.00000000000E+00  0.49535463097E+03  0.49535463097E+03  0.00000000000E+00 0.  1.
         21   -1    0    0  501  502 -0.00000000000E+00 -0.00000000000E+00 -0.17228436958E+03  0.17228436958E+03  0.00000000000E+00 0.  1.
         25    1    1    2    0    0 -0.16553518623E+02  0.35957622744E+02 -0.81916433973E+02  0.15460359558E+03  0.12500000000E+03 0.  0.
         25    1    1    2    0    0  0.17307691822E+02 -0.71683937382E+02  0.86302086874E+02  0.16885257852E+03  0.12500000000E+03 0.  0.
         25    1    1    2    0    0 -0.75417319875E+00  0.35726314638E+02  0.31868460849E+03  0.34418282645E+03  0.12500000000E+03 0.  0.
</event>
<event>
 5    0  0.5619558E-005  0.2639109E+03  0.7546771E-02  0.1104816E+00
         21   -1    0    0  502  501  0.00000000000E+00  0.00000000000E+00  0.11201402111E+03  0.11201402111E+03  0.00000000000E+00 0. -1.
         21   -1    0    0  501  502 -0.00000000000E+00 -0.00000000000E+00 -0.62178779668E+03  0.62178779668E+03  0.00000000000E+00 0. -1.
         25    1    1    2    0    0 -0.16946207631E+02 -0.64950438998E+02  0.73758230112E-01  0.14188283518E+03  0.12500000000E+03 0.  0.
         25    1    1    2    0    0  0.53349387226E+02  0.48856750978E+02 -0.38346527047E+03  0.40976060437E+03  0.12500000000E+03 0.  0.
         25    1    1    2    0    0 -0.36403179595E+02  0.16093688020E+02 -0.12638226333E+03  0.18215837824E+03  0.12500000000E+03 0.  0.
</event>
<event>
 5    0  0.5619558E-005  0.2571395E+03  0.7546771E-02  0.1108874E+00
         21   -1    0    0  502  501  0.00000000000E+00  0.00000000000E+00  0.35738745263E+03  0.35738745263E+03  0.00000000000E+00 0.  1.
         21   -1    0    0  501  502 -0.00000000000E+00 -0.00000000000E+00 -0.18501134142E+03  0.18501134142E+03  0.00000000000E+00 0.  1.
         25    1    1    2    0    0 -0.13491563710E+03 -0.57393900373E+02  0.73382783573E+02  0.20617061347E+03  0.12500000000E+03 0.  0.
         25    1    1    2    0    0  0.10208498827E+02  0.24248540447E+02 -0.64767387424E+01  0.12790290578E+03  0.12500000000E+03 0.  0.
         25    1    1    2    0    0  0.12470713827E+03  0.33145359926E+02  0.10547006637E+03  0.20832527480E+03  0.12500000000E+03 0.  0.
</event>
<event>
 5    0  0.5619558E-005  0.3673702E+03  0.7546771E-02  0.1055703E+00
         21   -1    0    0  502  501  0.00000000000E+00  0.00000000000E+00  0.22812602829E+03  0.22812602829E+03  0.00000000000E+00 0. -1.
         21   -1    0    0  501  502 -0.00000000000E+00 -0.00000000000E+00 -0.59160651510E+03  0.59160651510E+03  0.00000000000E+00 0. -1.
         25    1    1    2    0    0  0.76952353779E+01  0.17556947680E+03 -0.35945341262E+03  0.41918446259E+03  0.12500000000E+03 0.  0.
         25    1    1    2    0    0  0.54259519338E+02  0.15606118329E+01  0.82199996186E+02  0.15914889356E+03  0.12500000000E+03 0.  0.
         25    1    1    2    0    0 -0.61954754716E+02 -0.17713008864E+03 -0.86227070370E+02  0.24139918723E+03  0.12500000000E+03 0.  0.
</event>
<event>
 5    0  0.5619558E-005  0.3108349E+03  0.7546771E-02  0.1079946E+00
         21   -1    0    0  502  501  0.00000000000E+00  0.00000000000E+00  0.49834490284E+02  0.49834490284E+02  0.00000000000E+00 0.  1.
         21   -1    0    0  501  502 -0.00000000000E+00 -0.00000000000E+00 -0.19387847223E+04  0.19387847223E+04  0.00000000000E+00 0.  1.
         25    1    1    2    0    0 -0.96996133990E+02  0.12134690630E+03 -0.31634968926E+03  0.37394578159E+03  0.12500000000E+03 0.  0.
         25    1    1    2    0    0  0.47236302431E+02 -0.25202149558E+02 -0.27716449811E+03  0.30872572879E+03  0.12500000000E+03 0.  0.
         25    1    1    2    0    0  0.49759831559E+02 -0.96144756743E+02 -0.12954360446E+04  0.13059477022E+04  0.12500000000E+03 0.  0.
</event>
<event>
 5    0  0.5619558E-005  0.2743250E+03  0.7546771E-02  0.1098830E+00
         21   -1    0    0  502  501  0.00000000000E+00  0.00000000000E+00  0.10058041339E+03  0.10058041339E+03  0.00000000000E+00 0. -1.
         21   -1    0    0  501  502 -0.00000000000E+00 -0.00000000000E+00 -0.74819920554E+03  0.74819920554E+03  0.00000000000E+00 0. -1.
         25    1    1    2    0    0  0.20800393295E+02  0.58235961979E+01  0.12873541667E+02  0.12750411252E+03  0.12500000000E+03 0.  0.
         25    1    1    2    0    0  0.61191072025E+02  0.83034961767E+01 -0.33233901133E+03  0.36039910349E+03  0.12500000000E+03 0.  0.
         25    1    1    2    0    0 -0.81991465320E+02 -0.14127092375E+02 -0.32815332249E+03  0.36087640292E+03  0.12500000000E+03 0.  0.
</event>
<event>
 5    0  0.5619558E-005  0.3167123E+03  0.7546771E-02  0.1077172E+00
         21   -1    0    0  502  501  0.00000000000E+00  0.00000000000E+00  0.29252090263E+03  0.29252090263E+03  0.00000000000E+00 0. -1.
         21   -1    0    0  501  502 -0.00000000000E+00 -0.00000000000E+00 -0.34290426765E+03  0.34290426765E+03  0.00000000000E+00 0. -1.
         25    1    1    2    0    0 -0.68679203636E+02  0.12327556296E+03  0.94823259364E+02  0.21102167650E+03  0.12500000000E+03 0.  0.
         25    1    1    2    0    0  0.57019586989E+02  0.37980544933E+01 -0.19536186673E+03  0.23886589855E+03  0.12500000000E+03 0.  0.
         25    1    1    2    0    0  0.11659616647E+02 -0.12707361746E+03  0.50155242339E+02  0.18553759524E+03  0.12500000000E+03 0.  0.
</event>
<event>
 5    0  0.5619558E-005  0.2346330E+03  0.7546771E-02  0.1123421E+00
         21   -1    0    0  502  501  0.00000000000E+00  0.00000000000E+00  0.27179286900E+03  0.27179286900E+03  0.00000000000E+00 0. -1.
         21   -1    0    0  501  502 -0.00000000000E+00 -0.00000000000E+00 -0.20255375206E+03  0.20255375206E+03  0.00000000000E+00 0. -1.
         25    1    1    2    0    0  0.22975096375E+02 -0.17579899625E+02  0.55290110225E+02  0.13971007198E+03  0.12500000000E+03 0.  0.
         25    1    1    2    0    0  0.83299834979E+02  0.46052161313E+01  0.62918192701E+02  0.16292258743E+03  0.12500000000E+03 0.  0.
         25    1    1    2    0    0 -0.10627493135E+03  0.12974683493E+02 -0.48969185991E+02  0.17171396164E+03  0.12500000000E+03 0.  0.
</event>
<event>
 5    0  0.5619558E-005  0.2880399E+03  0.7546771E-02  0.1091377E+00
         21   -1    0    0  502  501  0.00000000000E+00  0.00000000000E+00  0.80801341731E+03  0.80801341731E+03  0.00000000000E+00 0.  1.
         21   -1    0    0  501  502 -0.00000000000E+00 -0.00000000000E+00 -0.10268019739E+03  0.10268019739E+03  0.00000000000E+00 0.  1.
         25    1    1    2    0    0  0.10792527495E+03  0.94391506809E+02  0.34686276006E+03  0.39559625358E+03  0.12500000000E+03 0.  0.
         25    1    1    2    0    0  0.50915902265E+02 -0.27837767468E+01  0.20432949446E+03  0.24489940960E+03  0.12500000000E+03 0.  0.
         25    1    1    2    0    0 -0.15884117722E+03 -0.91607730063E+02  0.15414096539E+03  0.27019795151E+03  0.12500000000E+03 0.  0.
</event>
<event>
 5    0  0.5619558E-005  0.2781468E+03  0.7546771E-02  0.1096705E+00
         21   -1    0    0  502  501  0.00000000000E+00  0.00000000000E+00  0.11722305357E+04  0.11722305357E+04  0.00000000000E+00 0.  1.
         21   -1    0    0  501  502 -0.00000000000E+00 -0.00000000000E+00 -0.65998643767E+02  0.65998643767E+02  0.00000000000E+00 0.  1.
         25    1    1    2    0    0  0.14709728793E+03 -0.83700757490E+02  0.42987017535E+03  0.47859878455E+03  0.12500000000E+03 0.  0.
         25    1    1    2    0    0  0.64045214152E+01  0.43192252444E+02  0.17785770634E+03  0.22173171237E+03  0.12500000000E+03 0.  0.
         25    1    1    2    0    0 -0.15350180935E+03  0.40508505047E+02  0.49850401028E+03  0.53789868258E+03  0.12500000000E+03 0.  0.
</event>
<event>
 5    0  0.5619558E-005  0.3850540E+03  0.7546771E-02  0.1049081E+00
         21   -1    0    0  502  501  0.00000000000E+00  0.00000000000E+00  0.73379464824E+02  0.73379464824E+02  0.00000000000E+00 0. -1.
         21   -1    0    0  501  502 -0.00000000000E+00 -0.00000000000E+00 -0.20205462005E+04  0.20205462005E+04  0.00000000000E+00 0. -1.
         25    1    1    2    0    0  0.17756945572E+03  0.19259800795E+03 -0.10108904833E+04  0.10517364087E+04  0.12500000000E+03 0.  0.
         25    1    1    2    0    0 -0.17632808745E+03 -0.14973622851E+03 -0.83578659880E+03  0.87617165629E+03  0.12500000000E+03 0.  0.
         25    1    1    2    0    0 -0.12413682757E+01 -0.42861779444E+02 -0.10048965362E+03  0.16601760032E+03  0.12500000000E+03 0.  0.
</event>
<event>
 5    0  0.5619558E-005  0.2285076E+03  0.7546771E-02  0.1127695E+00
         21   -1    0    0  502  501  0.00000000000E+00  0.00000000000E+00  0.35918380039E+03  0.35918380039E+03  0.00000000000E+00 0. -1.
         21   -1    0    0  501  502 -0.00000000000E+00 -0.00000000000E+00 -0.14537326912E+03  0.14537326912E+03  0.00000000000E+00 0. -1.
         25    1    1    2    0    0 -0.18772117979E+01 -0.77138700377E+02  0.69317722282E+02  0.16243106120E+03  0.12500000000E+03 0.  0.
         25    1    1    2    0    0 -0.50849283373E+02  0.31221904888E+02  0.14272977815E+03  0.19889003629E+03  0.12500000000E+03 0.  0.
         25    1    1    2    0    0  0.52726495170E+02  0.45916795488E+02  0.17630308349E+01  0.14323597201E+03  0.12500000000E+03 0.  0.
</event>
<event>
 5    0  0.5619558E-005  0.4604946E+03  0.7546771E-02  0.1024638E+00
         21   -1    0    0  502  501  0.00000000000E+00  0.00000000000E+00  0.14700927530E+03  0.14700927530E+03  0.00000000000E+00 0.  1.
         21   -1    0    0  501  502 -0.00000000000E+00 -0.00000000000E+00 -0.14424621074E+04  0.14424621074E+04  0.00000000000E+00 0.  1.
         25    1    1    2    0    0  0.22377095640E+03  0.20170150157E+03 -0.29716105680E+03  0.44123307938E+03  0.12500000000E+03 0.  0.
         25    1    1    2    0    0 -0.28646146956E+03  0.10526657823E+02 -0.52787908003E+03  0.61355709368E+03  0.12500000000E+03 0.  0.
         25    1    1    2    0    0  0.62690513162E+02 -0.21222815939E+03 -0.47041269525E+03  0.53468120963E+03  0.12500000000E+03 0.  0.
</event>
<event>
 5    0  0.5619558E-005  0.2492918E+03  0.7546771E-02  0.1113753E+00
         21   -1    0    0  502  501  0.00000000000E+00  0.00000000000E+00  0.11489720389E+03  0.11489720389E+03  0.00000000000E+00 0.  1.
         21   -1    0    0  501  502 -0.00000000000E+00 -0.00000000000E+00 -0.54088700910E+03  0.54088700910E+03  0.00000000000E+00 0.  1.
         25    1    1    2    0    0 -0.59160437137E+01  0.13978045491E+03 -0.78559701020E+02  0.20339666117E+03  0.12500000000E+03 0.  0.
         25    1    1    2    0    0  0.16305021718E+02 -0.66332699656E+02 -0.19809186974E+03  0.24399030643E+03  0.12500000000E+03 0.  0.
         25    1    1    2    0    0 -0.10388978004E+02 -0.73447755259E+02 -0.14933823445E+03  0.20839724539E+03  0.12500000000E+03 0.  0.
</event>
<event>
 5    0  0.5619558E-005  0.4711789E+03  0.7546771E-02  0.1021588E+00
         21   -1    0    0  502  501  0.00000000000E+00  0.00000000000E+00  0.20267206946E+04  0.20267206946E+04  0.00000000000E+00 0. -1.
         21   -1    0    0  501  502 -0.00000000000E+00 -0.00000000000E+00 -0.10954128087E+03  0.10954128087E+03  0.00000000000E+00 0. -1.
         25    1    1    2    0    0  0.95405967671E+01  0.59741764698E+02  0.62391806791E+02  0.15224269766E+03  0.12500000000E+03 0.  0.
         25    1    1    2    0    0  0.26407566904E+03  0.15715688865E+03  0.94541443880E+03  0.10019319876E+04  0.12500000000E+03 0.  0.
         25    1    1    2    0    0 -0.27361626581E+03 -0.21689865334E+03  0.90937316817E+03  0.98208729028E+03  0.12500000000E+03 0.  0.
</event>
<event>
 5    0  0.5619558E-005  0.2308062E+03  0.7546771E-02  0.1126074E+00
         21   -1    0    0  502  501  0.00000000000E+00  0.00000000000E+00  0.13436288259E+04  0.13436288259E+04  0.00000000000E+00 0. -1.
         21   -1    0    0  501  502 -0.00000000000E+00 -0.00000000000E+00 -0.39647483029E+02  0.39647483029E+02  0.00000000000E+00 0. -1.
         25    1    1    2    0    0  0.43944066690E+02 -0.22490901428E+02  0.17521486770E+03  0.22082158297E+03  0.12500000000E+03 0.  0.
         25    1    1    2    0    0 -0.65419394147E+02 -0.20239475547E+02  0.52243735857E+03  0.54153035661E+03  0.12500000000E+03 0.  0.
         25    1    1    2    0    0  0.21475327457E+02  0.42730376975E+02  0.60632911660E+03  0.62092436934E+03  0.12500000000E+03 0.  0.
</event>
<event>
 5    0  0.5619558E-005  0.3092700E+03  0.7546771E-02  0.1080696E+00
         21   -1    0    0  502  501  0.00000000000E+00  0.00000000000E+00  0.14262507513E+04  0.14262507513E+04  0.00000000000E+00 0. -1.
         21   -1    0    0  501  502 -0.00000000000E+00 -0.00000000000E+00 -0.67062500734E+02  0.67062500734E+02  0.00000000000E+00 0. -1.
         25    1    1    2    0    0  0.12154278425E+03 -0.10666214201E+03  0.22357950055E+03  0.30292285158E+03  0.12500000000E+03 0.  0.
         25    1    1    2    0    0 -0.12984051584E+03  0.10518836284E+03  0.89627623697E+03  0.92024955539E+03  0.12500000000E+03 0.  0.
         25    1    1    2    0    0  0.82977315899E+01  0.14737791737E+01  0.23933251303E+03  0.27014084506E+03  0.12500000000E+03 0.  0.
</event>
<event>
 5    0  0.5619558E-005  0.3190907E+03  0.7546771E-02  0.1076069E+00
         21   -1    0    0  502  501  0.00000000000E+00  0.00000000000E+00  0.95035297137E+02  0.95035297137E+02  0.00000000000E+00 0.  1.
         21   -1    0    0  501  502 -0.00000000000E+00 -0.00000000000E+00 -0.10713793585E+04  0.10713793585E+04  0.00000000000E+00 0.  1.
         25    1    1    2    0    0  0.36655696845E+02  0.13493323178E+02 -0.57064218841E+03  0.58547691421E+03  0.12500000000E+03 0.  0.
         25    1    1    2    0    0  0.56596261598E+02 -0.12683406954E+03 -0.31867698355E+03  0.36941851317E+03  0.12500000000E+03 0.  0.
         25    1    1    2    0    0 -0.93251958443E+02  0.11334074637E+03 -0.87024889371E+02  0.21151922823E+03  0.12500000000E+03 0.  0.
</event>
<event>
 5    0  0.6859086E-005  0.2926921E+03  0.7546771E-02  0.1088952E+00
         21   -1    0    0  502  501  0.00000000000E+00  0.00000000000E+00  0.60326030972E+02  0.60326030972E+02  0.00000000000E+00 0. -1.
         21   -1    0    0  501  502 -0.00000000000E+00 -0.00000000000E+00 -0.14200947493E+04  0.14200947493E+04  0.00000000000E+00 0. -1.
         25    1    1    2    0    0 -0.11590457095E+03 -0.83253394008E+02 -0.89409317432E+03  0.91399814089E+03  0.12500000000E+03 0.  0.
         25    1    1    2    0    0  0.64770180915E+02 -0.25234445698E+02 -0.15641752043E+03  0.21195139604E+03  0.12500000000E+03 0.  0.
         25    1    1    2    0    0  0.51134390040E+02  0.10848783971E+03 -0.30925802355E+03  0.35447124332E+03  0.12500000000E+03 0.  0.
</event>
<event>
 5    0  0.6825015E-005  0.2825615E+03  0.7546771E-02  0.1094298E+00
         21   -1    0    0  502  501  0.00000000000E+00  0.00000000000E+00  0.52352493339E+03  0.52352493339E+03  0.00000000000E+00 0.  1.
         21   -1    0    0  501  502 -0.00000000000E+00 -0.00000000000E+00 -0.15250655790E+03  0.15250655790E+03  0.00000000000E+00 0.  1.
         25    1    1    2    0    0  0.70678147535E+02  0.80964711003E+02  0.34145275095E+03  0.37916443148E+03  0.12500000000E+03 0.  0.
         25    1    1    2    0    0  0.89204757409E+01 -0.75722315390E+02  0.24810412265E+02  0.14850589380E+03  0.12500000000E+03 0.  0.
         25    1    1    2    0    0 -0.79598623276E+02 -0.52423956135E+01  0.47552122803E+01  0.14836116602E+03  0.12500000000E+03 0.  0.
</event>
<event>
 5    0  0.5619558E-005  0.2936945E+03  0.7546771E-02  0.1088436E+00
         21   -1    0    0  502  501  0.00000000000E+00  0.00000000000E+00  0.56962982054E+03  0.56962982054E+03  0.00000000000E+00 0. -1.
         21   -1    0    0  501  502 -0.00000000000E+00 -0.00000000000E+00 -0.15142542685E+03  0.15142542685E+03  0.00000000000E+00 0. -1.
         25    1    1    2    0    0  0.13031450096E+03 -0.11350311480E+03  0.28583371162E+03  0.35663810359E+03  0.12500000000E+03 0.  0.
         25    1    1    2    0    0 -0.10854131793E+03  0.66850043098E+02  0.14309657441E+03  0.22880510389E+03  0.12500000000E+03 0.  0.
         25    1    1    2    0    0 -0.21773183032E+02  0.46653071704E+02 -0.10725892346E+02  0.13561203990E+03  0.12500000000E+03 0.  0.
</event>
<event>
 5    0  0.5619558E-005  0.5870540E+03  0.7546771E-02  0.9932635E-01
         21   -1    0    0  502  501  0.00000000000E+00  0.00000000000E+00  0.72715940780E+03  0.72715940780E+03  0.00000000000E+00 0. -1.
         21   -1    0    0  501  502 -0.00000000000E+00 -0.00000000000E+00 -0.47394344244E+03  0.47394344244E+03  0.00000000000E+00 0. -1.
         25    1    1    2    0    0  0.95783380288E+02 -0.35078786792E+03 -0.23223204003E+03  0.44920296597E+03  0.12500000000E+03 0.  0.
         25    1    1    2    0    0 -0.23472772840E+03  0.20594848518E+03  0.31051248776E+03  0.45777165714E+03  0.12500000000E+03 0.  0.
         25    1    1    2    0    0  0.13894434811E+03  0.14483938274E+03  0.17493551763E+03  0.29412822713E+03  0.12500000000E+03 0.  0.
</event>
<event>
 5    0  0.5619558E-005  0.2450918E+03  0.7546771E-02  0.1116447E+00
         21   -1    0    0  502  501  0.00000000000E+00  0.00000000000E+00  0.82499923745E+03  0.82499923745E+03  0.00000000000E+00 0.  1.
         21   -1    0    0  501  502 -0.00000000000E+00 -0.00000000000E+00 -0.72812203849E+02  0.72812203849E+02  0.00000000000E+00 0.  1.
         25    1    1    2    0    0  0.12732169368E+03  0.13292227745E+01  0.43600423232E+03  0.47110218756E+03  0.12500000000E+03 0.  0.
         25    1    1    2    0    0 -0.49831155448E+02  0.16207981299E+02  0.12100030184E+03  0.18169181532E+03  0.12500000000E+03 0.  0.
         25    1    1    2    0    0 -0.77490538232E+02 -0.17537204073E+02  0.19518249944E+03  0.24501743842E+03  0.12500000000E+03 0.  0.
</event>
<event>
 5    0  0.5619558E-005  0.2452793E+03  0.7546771E-02  0.1116325E+00
         21   -1    0    0  502  501  0.00000000000E+00  0.00000000000E+00  0.24724030613E+03  0.24724030613E+03  0.00000000000E+00 0. -1.
         21   -1    0    0  501  502 -0.00000000000E+00 -0.00000000000E+00 -0.24333378886E+03  0.24333378886E+03  0.00000000000E+00 0. -1.
         25    1    1    2    0    0 -0.98879086849E+02 -0.26143967801E+02  0.11227588936E+03  0.19670143924E+03  0.12500000000E+03 0.  0.
         25    1    1    2    0    0  0.58977342958E+02  0.47975420893E+01 -0.37833115038E+02  0.14337952429E+03  0.12500000000E+03 0.  0.
         25    1    1    2    0    0  0.39901743891E+02  0.21346425712E+02 -0.70536257049E+02  0.15049313145E+03  0.12500000000E+03 0.  0.
</event>
<event>
 5    0  0.5619558E-005  0.2825984E+03  0.7546771E-02  0.1094278E+00
         21   -1    0    0  502  501  0.00000000000E+00  0.00000000000E+00  0.36883739963E+03  0.36883739963E+03  0.00000000000E+00 0.  1.
         21   -1    0    0  501  502 -0.00000000000E+00 -0.00000000000E+00 -0.21652325871E+03  0.21652325871E+03  0.00000000000E+00 0.  1.
         25    1    1    2    0    0  0.95074300404E+02  0.74194929309E+02  0.64491432404E+02  0.18527858750E+03  0.12500000000E+03 0.  0.
         25    1    1    2    0    0 -0.67973310254E+02  0.92695714529E+02 -0.57959475872E+01  0.16991603635E+03  0.12500000000E+03 0.  0.
         25    1    1    2    0    0 -0.27100990150E+02 -0.16689064384E+03  0.93618656099E+02  0.23016603450E+03  0.12500000000E+03 0.  0.
</event>
<event>
 5    0  0.6264655E-005  0.3107163E+03  0.7546771E-02  0.1080003E+00
         21   -1    0    0  502  501  0.00000000000E+00  0.00000000000E+00  0.15037913958E+03  0.15037913958E+03  0.00000000000E+00 0.  1.
         21   -1    0    0  501  502 -0.00000000000E+00 -0.00000000000E+00 -0.64200798605E+03  0.64200798605E+03  0.00000000000E+00 0.  1.
         25    1    1    2    0    0 -0.71578812685E+02  0.20108791699E+03 -0.13731103174E+03  0.28291199378E+03  0.12500000000E+03 0.  0.
         25    1    1    2    0    0  0.99954957541E+02 -0.97720540268E+02 -0.11840297246E+03  0.22177592614E+03  0.12500000000E+03 0.  0.
         25    1    1    2    0    0 -0.28376144856E+02 -0.10336737672E+03 -0.23591484227E+03  0.28769920571E+03  0.12500000000E+03 0.  0.
</event>
<event>
 5    0  0.5619558E-005  0.3611247E+03  0.7546771E-02  0.1058139E+00
         21   -1    0    0  502  501  0.00000000000E+00  0.00000000000E+00  0.14118259066E+03  0.14118259066E+03  0.00000000000E+00 0.  1.
         21   -1    0    0  501  502 -0.00000000000E+00 -0.00000000000E+00 -0.92370488789E+03  0.92370488789E+03  0.00000000000E+00 0.  1.
         25    1    1    2    0    0 -0.47450208351E+02 -0.19972531854E+02  0.40531003792E+02  0.14113180566E+03  0.12500000000E+03 0.  0.
         25    1    1    2    0    0  0.50270657564E+02  0.24804660517E+02 -0.77922627414E+03  0.79117696915E+03  0.12500000000E+03 0.  0.
         25    1    1    2    0    0 -0.28204492124E+01 -0.48321286633E+01 -0.43827026872E+02  0.13257870374E+03  0.12500000000E+03 0.  0.
</event>
<event>
 5    0  0.5619558E-005  0.3188167E+03  0.7546771E-02  0.1076195E+00
         21   -1    0    0  502  501  0.00000000000E+00  0.00000000000E+00  0.93708344584E+03  0.93708344584E+03  0.00000000000E+00 0.  1.
         21   -1    0    0  501  502 -0.00000000000E+00 -0.00000000000E+00 -0.10846857087E+03  0.10846857087E+03  0.00000000000E+00 0.  1.
         25    1    1    2    0    0  0.61679401892E+02  0.10205329809E+03  0.32093509625E+03  0.36447710528E+03  0.12500000000E+03 0.  0.
         25    1    1    2    0    0 -0.10371992172E+03  0.79892244449E+02  0.38411307021E+03  0.42462741738E+03  0.12500000000E+03 0.  0.
         25    1    1    2    0    0  0.42040519823E+02 -0.18194554254E+03  0.12356670851E+03  0.25644749405E+03  0.12500000000E+03 0.  0.
</event>
<event>
 5    0  0.5619558E-005  0.3030222E+03  0.7546771E-02  0.1083740E+00
         21   -1    0    0  502  501  0.00000000000E+00  0.00000000000E+00  0.13044384640E+04  0.13044384640E+04  0.00000000000E+00 0. -1.
         21   -1    0    0  501  502 -0.00000000000E+00 -0.00000000000E+00 -0.70392340507E+02  0.70392340507E+02  0.00000000000E+00 0. -1.
         25    1    1    2    0    0  0.90383391434E+02  0.14986284108E+02  0.57156824408E+03  0.59220689273E+03  0.12500000000E+03 0.  0.
         25    1    1    2    0    0 -0.30032194869E+02 -0.45025001445E+02  0.36893747727E+02  0.14112169254E+03  0.12500000000E+03 0.  0.
         25    1    1    2    0    0 -0.60351196565E+02  0.30038717337E+02  0.62558413170E+03  0.64150221924E+03  0.12500000000E+03 0.  0.
</event>
<event>
 5    0  0.5619558E-005  0.2468837E+03  0.7546771E-02  0.1115290E+00
         21   -1    0    0  502  501  0.00000000000E+00  0.00000000000E+00  0.65919266035E+03  0.65919266035E+03  0.00000000000E+00 0.  1.
         21   -1    0    0  501  502 -0.00000000000E+00 -0.00000000000E+00 -0.92463973412E+02  0.92463973412E+02  0.00000000000E+00 0.  1.
         25    1    1    2    0    0 -0.54984046532E+02 -0.68882058972E+02  0.58992393849E+02  0.16393012522E+03  0.12500000000E+03 0.  0.
         25    1    1    2    0    0 -0.56230993234E+01  0.14865901706E+02  0.34378727799E+03  0.36615202688E+03  0.12500000000E+03 0.  0.
         25    1    1    2    0    0  0.60607145856E+02  0.54016157266E+02  0.16394901510E+03  0.22157448167E+03  0.12500000000E+03 0.  0.
</event>
<event>
 5    0  0.5619558E-005  0.2282108E+03  0.7546771E-02  0.1127905E+00
         21   -1    0    0  502  501  0.00000000000E+00  0.00000000000E+00  0.22081341716E+02  0.22081341716E+02  0.00000000000E+00 0.  1.
         21   -1    0    0  501  502 -0.00000000000E+00 -0.00000000000E+00 -0.23585600847E+04  0.23585600847E+04  0.00000000000E+00 0.  1.
         25    1    1    2    0    0  0.42902463620E+02  0.73817038985E+02 -0.64445728055E+03  0.66199679991E+03  0.12500000000E+03 0.  0.
         25    1    1    2    0    0  0.25252997745E+02 -0.80889978823E+02 -0.10629732410E+04  0.10736470620E+04  0.12500000000E+03 0.  0.
         25    1    1    2    0    0 -0.68155461365E+02  0.70729398382E+01 -0.62904822143E+03  0.64499756455E+03  0.12500000000E+03 0.  0.
</event>
<event>
 5    0  0.5619558E-005  0.2545412E+03  0.7546771E-02  0.1110468E+00
         21   -1    0    0  502  501  0.00000000000E+00  0.00000000000E+00  0.22863951421E+03  0.22863951421E+03  0.00000000000E+00 0.  1.
         21   -1    0    0  501  502 -0.00000000000E+00 -0.00000000000E+00 -0.28337714922E+03  0.28337714922E+03  0.00000000000E+00 0.  1.
         25    1    1    2    0    0 -0.12836117275E+03 -0.11580131435E+02 -0.78707199082E+02  0.19603702023E+03  0.12500000000E+03 0.  0.
         25    1    1    2    0    0  0.40922220701E+02 -0.56563557581E+02 -0.16357782467E+02  0.14410635392E+03  0.12500000000E+03 0.  0.
         25    1    1    2    0    0  0.87438952045E+02  0.68143689016E+02  0.40327346539E+02  0.17187328928E+03  0.12500000000E+03 0.  0.
</event>
<event>
 5    0  0.5619558E-005  0.2935896E+03  0.7546771E-02  0.1088490E+00
         21   -1    0    0  502  501  0.00000000000E+00  0.00000000000E+00  0.53504406299E+03  0.53504406299E+03  0.00000000000E+00 0.  1.
         21   -1    0    0  501  502 -0.00000000000E+00 -0.00000000000E+00 -0.16109859370E+03  0.16109859370E+03  0.00000000000E+00 0.  1.
         25    1    1    2    0    0  0.23365802644E+02  0.11096239860E+03  0.25619518748E+03  0.30678916005E+03  0.12500000000E+03 0.  0.
         25    1    1    2    0    0 -0.25726807357E+02  0.73746538164E+02  0.35336212665E+02  0.15157199093E+03  0.12500000000E+03 0.  0.
         25    1    1    2    0    0  0.23610047127E+01 -0.18470893677E+03  0.82414069150E+02  0.23778150571E+03  0.12500000000E+03 0.  0.
</event>
<event>
 5    0  0.5619558E-005  0.5103697E+03  0.7546771E-02  0.1011107E+00
         21   -1    0    0  502  501  0.00000000000E+00  0.00000000000E+00  0.38791838770E+03  0.38791838770E+03  0.00000000000E+00 0. -1.
         21   -1    0    0  501  502 -0.00000000000E+00 -0.00000000000E+00 -0.67147435925E+03  0.67147435925E+03  0.00000000000E+00 0. -1.
         25    1    1    2    0    0 -0.11695669238E+03  0.70724821067E+02 -0.30756385536E+03  0.35902840184E+03  0.12500000000E+03 0.  0.
         25    1    1    2    0    0  0.25599184589E+03 -0.13346010150E+03  0.24897614771E+03  0.40119514701E+03  0.12500000000E+03 0.  0.
         25    1    1    2    0    0 -0.13903515352E+03  0.62735280434E+02 -0.22496826391E+03  0.29916919810E+03  0.12500000000E+03 0.  0.
</event>
<event>
 5    0  0.5619558E-005  0.3103242E+03  0.7546771E-02  0.1080191E+00
         21   -1    0    0  502  501  0.00000000000E+00  0.00000000000E+00  0.22313153446E+03  0.22313153446E+03  0.00000000000E+00 0.  1.
         21   -1    0    0  501  502 -0.00000000000E+00 -0.00000000000E+00 -0.43158892988E+03  0.43158892988E+03  0.00000000000E+00 0.  1.
         25    1    1    2    0    0  0.71539189459E+02  0.19614432771E+02  0.95196661610E+02  0.17375265749E+03  0.12500000000E+03 0.  0.
         25    1    1    2    0    0 -0.57587826298E+02  0.56091758654E+02 -0.56030337349E+01  0.14872470243E+03  0.12500000000E+03 0.  0.
         25    1    1    2    0    0 -0.13951363161E+02 -0.75706191426E+02 -0.29805102329E+03  0.33224310442E+03  0.12500000000E+03 0.  0.
</event>
<event>
 5    0  0.5619558E-005  0.3963182E+03  0.7546771E-02  0.1045062E+00
         21   -1    0    0  502  501  0.00000000000E+00  0.00000000000E+00  0.35475196174E+03  0.35475196174E+03  0.00000000000E+00 0.  1.
         21   -1    0    0  501  502 -0.00000000000E+00 -0.00000000000E+00 -0.44275473314E+03  0.44275473314E+03  0.00000000000E+00 0.  1.
         25    1    1    2    0    0 -0.15166694783E+03  0.23246042194E+02 -0.58776645295E+02  0.20645322854E+03  0.12500000000E+03 0.  0.
         25    1    1    2    0    0  0.27623628468E+03  0.14302091395E+03  0.43184603718E+02  0.33801091225E+03  0.12500000000E+03 0.  0.
         25    1    1    2    0    0 -0.12456933685E+03 -0.16626695614E+03 -0.72410729823E+02  0.25304255409E+03  0.12500000000E+03 0.  0.
</event>
<event>
 5    0  0.5619558E-005  0.2520996E+03  0.7546771E-02  0.1111985E+00
         21   -1    0    0  502  501  0.00000000000E+00  0.00000000000E+00  0.79295142538E+03  0.79295142538E+03  0.00000000000E+00 0.  1.
         21   -1    0    0  501  502 -0.00000000000E+00 -0.00000000000E+00 -0.80148901850E+02  0.80148901850E+02  0.00000000000E+00 0.  1.
         25    1    1    2    0    0  0.45584672540E+02 -0.11198806496E+03  0.20905350238E+03  0.27193318282E+03  0.12500000000E+03 0.  0.
         25    1    1    2    0    0 -0.57086720987E+02  0.46636043811E+02  0.40051585314E+03  0.42599502687E+03  0.12500000000E+03 0.  0.
         25    1    1    2    0    0  0.11502048447E+02  0.65352021148E+02  0.10323316800E+03  0.17517211754E+03  0.12500000000E+03 0.  0.
</event>
<event>
 5    0  0.5619558E-005  0.3176846E+03  0.7546771E-02  0.1076720E+00
         21   -1    0    0  502  501  0.00000000000E+00  0.00000000000E+00  0.20844056367E+04  0.20844056367E+04  0.00000000000E+00 0.  1.
         21   -1    0    0  501  502 -0.00000000000E+00 -0.00000000000E+00 -0.48418363733E+02  0.48418363733E+02  0.00000000000E+00 0.  1.
         25    1    1    2    0    0  0.16044281794E+02  0.50737511663E+02  0.16945001028E+04  0.16999374437E+04  0.12500000000E+03 0.  0.
         25    1    1    2    0    0 -0.17588279956E+02  0.66998650519E+01  0.13678995139E+03  0.18625446729E+03  0.12500000000E+03 0.  0.
         25    1    1    2    0    0  0.15439981627E+01 -0.57437376714E+02  0.20469721878E+03  0.24663208945E+03  0.12500000000E+03 0.  0.
</event>
<event>
 5    0  0.5619558E-005  0.4683049E+03  0.7546771E-02  0.1022400E+00
         21   -1    0    0  502  501  0.00000000000E+00  0.00000000000E+00  0.10108175298E+04  0.10108175298E+04  0.00000000000E+00 0. -1.
         21   -1    0    0  501  502 -0.00000000000E+00 -0.00000000000E+00 -0.21696249842E+03  0.21696249842E+03  0.00000000000E+00 0. -1.
         25    1    1    2    0    0 -0.12454330175E+03 -0.11007436827E+03 -0.10837552385E+03  0.23451578781E+03  0.12500000000E+03 0.  0.
         25    1    1    2    0    0  0.16441193089E+03  0.11530896596E+03  0.32913015699E+03  0.40531358340E+03  0.12500000000E+03 0.  0.
         25    1    1    2    0    0 -0.39868629143E+02 -0.52345976863E+01  0.57310039825E+03  0.58795065701E+03  0.12500000000E+03 0.  0.
</event>
<event>
 5    0  0.5619558E-005  0.3462226E+03  0.7546771E-02  0.1064176E+00
         21   -1    0    0  502  501  0.00000000000E+00  0.00000000000E+00  0.13443214588E+04  0.13443214588E+04  0.00000000000E+00 0.  1.
         21   -1    0    0  501  502 -0.00000000000E+00 -0.00000000000E+00 -0.89167750117E+02  0.89167750117E+02  0.00000000000E+00 0.  1.
         25    1    1    2    0    0  0.20865220071E+03 -0.18572907189E+02  0.71648642412E+03  0.75687415711E+03  0.12500000000E+03 0.  0.
         25    1    1    2    0    0  0.17691391954E+02  0.44637041014E+02  0.27782472160E+03  0.30841048412E+03  0.12500000000E+03 0.  0.
         25    1    1    2    0    0 -0.22634359266E+03 -0.26064133825E+02  0.26084256291E+03  0.36820456765E+03  0.12500000000E+03 0.  0.
</event>
<event>
 5    0  0.5619558E-005  0.2571791E+03  0.7546771E-02  0.1108850E+00
         21   -1    0    0  502  501  0.00000000000E+00  0.00000000000E+00  0.60898266955E+02  0.60898266955E+02  0.00000000000E+00 0.  1.
         21   -1    0    0  501  502 -0.00000000000E+00 -0.00000000000E+00 -0.10860916732E+04  0.10860916732E+04  0.00000000000E+00 0.  1.
         25    1    1    2    0    0  0.39151827472E+02 -0.11545793712E+03 -0.44336418167E+03  0.47650834035E+03  0.12500000000E+03 0.  0.
         25    1    1    2    0    0  0.50253142146E+02  0.11556043588E+03 -0.34833918137E+03  0.39095367746E+03  0.12500000000E+03 0.  0.
         25    1    1    2    0    0 -0.89404969618E+02 -0.10249875879E+00 -0.23349004321E+03  0.27952792236E+03  0.12500000000E+03 0.  0.
</event>
<event>
 5    0  0.5619558E-005  0.4087360E+03  0.7546771E-02  0.1040796E+00
         21   -1    0    0  502  501  0.00000000000E+00  0.00000000000E+00  0.13512990981E+04  0.13512990981E+04  0.00000000000E+00 0.  1.
         21   -1    0    0  501  502 -0.00000000000E+00 -0.00000000000E+00 -0.12363294074E+03  0.12363294074E+03  0.00000000000E+00 0.  1.
         25    1    1    2    0    0  0.13521572147E+03 -0.23207654429E+02  0.39940960878E+03  0.44042584182E+03  0.12500000000E+03 0.  0.
         25    1    1    2    0    0  0.47262031730E+02  0.23067498866E+03  0.59474968456E+03  0.65176440323E+03  0.12500000000E+03 0.  0.
         25    1    1    2    0    0 -0.18247775320E+03 -0.20746733423E+03  0.23350686407E+03  0.38274179384E+03  0.12500000000E+03 0.  0.
</event>
<event>
 5    0  0.5619558E-005  0.3832842E+03  0.7546771E-02  0.1049727E+00
         21   -1    0    0  502  501  0.00000000000E+00  0.00000000000E+00  0.19704873300E+03  0.19704873300E+03  0.00000000000E+00 0. -1.
         21   -1    0    0  501  502 -0.00000000000E+00 -0.00000000000E+00 -0.74553536106E+03  0.74553536106E+03  0.00000000000E+00 0. -1.
         25    1    1    2    0    0 -0.35050190620E+02  0.22224613906E+03 -0.43124453094E+03  0.50221380671E+03  0.12500000000E+03 0.  0.
         25    1    1    2    0    0 -0.10951077374E+03 -0.13481660510E+03 -0.50546340822E+02  0.21988192092E+03  0.12500000000E+03 0.  0.
         25    1    1    2    0    0  0.14456096436E+03 -0.87429533960E+02 -0.66695756301E+02  0.22048836643E+03  0.12500000000E+03 0.  0.
</event>
<event>
 5    0  0.5619558E-005  0.3148926E+03  0.7546771E-02  0.1078024E+00
         21   -1    0    0  502  501  0.00000000000E+00  0.00000000000E+00  0.18637394427E+03  0.18637394427E+03  0.00000000000E+00 0.  1.
         21   -1    0    0  501  502 -0.00000000000E+00 -0.00000000000E+00 -0.53203451997E+03  0.53203451997E+03  0.00000000000E+00 0.  1.
         25    1    1    2    0    0 -0.15922843112E+03  0.10186925262E+03 -0.18494054373E+02  0.22737209141E+03  0.12500000000E+03 0.  0.
         25    1    1    2    0    0  0.37745556161E+02 -0.13105556141E+03 -0.20530944080E+03  0.27636434949E+03  0.12500000000E+03 0.  0.
         25    1    1    2    0    0  0.12148287496E+03  0.29186308791E+02 -0.12185708053E+03  0.21467202334E+03  0.12500000000E+03 0.  0.
</event>
<event>
 5    0  0.5619558E-005  0.3340517E+03  0.7546771E-02  0.1069358E+00
         21   -1    0    0  502  501  0.00000000000E+00  0.00000000000E+00  0.17573683762E+04  0.17573683762E+04  0.00000000000E+00 0.  1.
         21   -1    0    0  501  502 -0.00000000000E+00 -0.00000000000E+00 -0.63498669954E+02  0.63498669954E+02  0.00000000000E+00 0.  1.
         25    1    1    2    0    0 -0.11645053491E+03 -0.23214861060E+03  0.54234783964E+03  0.61418228861E+03  0.12500000000E+03 0.  0.
         25    1    1    2    0    0  0.64363408910E+02  0.11895625641E+03  0.58366627828E+03  0.61203313942E+03  0.12500000000E+03 0.  0.
         25    1    1    2    0    0  0.52087126001E+02  0.11319235419E+03  0.56785558831E+03  0.59465161810E+03  0.12500000000E+03 0.  0.
</event>
<event>
 5    0  0.5619558E-005  0.3096495E+03  0.7546771E-02  0.1080514E+00
         21   -1    0    0  502  501  0.00000000000E+00  0.00000000000E+00  0.31445366173E+03  0.31445366173E+03  0.00000000000E+00 0.  1.
         21   -1    0    0  501  502 -0.00000000000E+00 -0.00000000000E+00 -0.30491877553E+03  0.30491877553E+03  0.00000000000E+00 0.  1.
         25    1    1    2    0    0 -0.71908596469E+02  0.11369066375E+03  0.42177983745E+02  0.18841548658E+03  0.12500000000E+03 0.  0.
         25    1    1    2    0    0 -0.15373708201E+02 -0.17253369000E+03  0.84682112868E+02  0.22978312673E+03  0.12500000000E+03 0.  0.
         25    1    1    2    0    0  0.87282304670E+02  0.58843026250E+02 -0.11732521041E+03  0.20117382395E+03  0.12500000000E+03 0.  0.
</event>
<event>
 5    0  0.5619558E-005  0.4840945E+03  0.7546771E-02  0.1018016E+00
         21   -1    0    0  502  501  0.00000000000E+00  0.00000000000E+00  0.83219153615E+03  0.83219153615E+03  0.00000000000E+00 0. -1.
         21   -1    0    0  501  502 -0.00000000000E+00 -0.00000000000E+00 -0.28160281536E+03  0.28160281536E+03  0.00000000000E+00 0. -1.
         25    1    1    2    0    0  0.37129121928E+03 -0.18381937232E+03  0.29578914864E+03  0.52417835858E+03  0.12500000000E+03 0.  0.
         25    1    1    2    0    0 -0.10577533265E+03  0.70379656857E+02  0.20403130491E+03  0.27091602108E+03  0.12500000000E+03 0.  0.
         25    1    1    2    0    0 -0.26551588664E+03  0.11343971546E+03  0.50768267245E+02  0.31869997185E+03  0.12500000000E+03 0.  0.
</event>
<event>
 5    0  0.5619558E-005  0.3510026E+03  0.7546771E-02  0.1062204E+00
         21   -1    0    0  502  501  0.00000000000E+00  0.00000000000E+00  0.28881986711E+03  0.28881986711E+03  0.00000000000E+00 0. -1.
         21   -1    0    0  501  502 -0.00000000000E+00 -0.00000000000E+00 -0.42657324698E+03  0.42657324698E+03  0.00000000000E+00 0. -1.
         25    1    1    2    0    0  0.17492278874E+03  0.17369535836E+03 -0.11477980177E+03  0.29927823581E+03  0.12500000000E+03 0.  0.
         25    1    1    2    0    0 -0.18363962374E+02 -0.85013306247E+02 -0.10191432831E+03  0.18323762623E+03  0.12500000000E+03 0.  0.
         25    1    1    2    0    0 -0.15655882636E+03 -0.88682052110E+02  0.78940750215E+02  0.23287725205E+03  0.12500000000E+03 0.  0.
</event>
<event>
 5    0  0.5619558E-005  0.4486585E+03  0.7546771E-02  0.1028123E+00
         21   -1    0    0  502  501  0.00000000000E+00  0.00000000000E+00  0.20187695350E+03  0.20187695350E+03  0.00000000000E+00 0. -1.
         21   -1    0    0  501  502 -0.00000000000E+00 -0.00000000000E+00 -0.99711469995E+03  0.99711469995E+03  0.00000000000E+00 0. -1.
         25    1    1    2    0    0 -0.15561823811E+02  0.36247852983E+03 -0.26911867644E+03  0.46870322909E+03  0.12500000000E+03 0.  0.
         25    1    1    2    0    0 -0.20108084170E+02 -0.15521843447E+03 -0.41657946139E+03  0.46223429676E+03  0.12500000000E+03 0.  0.
         25    1    1    2    0    0  0.35669907980E+02 -0.20726009537E+03 -0.10953960862E+03  0.26805412760E+03  0.12500000000E+03 0.  0.
</event>
<event>
 5    0  0.5619558E-005  0.3795182E+03  0.7546771E-02  0.1051112E+00
         21   -1    0    0  502  501  0.00000000000E+00  0.00000000000E+00  0.86330866273E+03  0.86330866273E+03  0.00000000000E+00 0. -1.
         21   -1    0    0  501  502 -0.00000000000E+00 -0.00000000000E+00 -0.16683961687E+03  0.16683961687E+03  0.00000000000E+00 0. -1.
         25    1    1    2    0    0 -0.12271903644E+03 -0.22294435133E+03  0.73579815779E+02  0.29292172160E+03  0.12500000000E+03 0.  0.
         25    1    1    2    0    0  0.24919099534E+02  0.69674049284E+02  0.39114558493E+03  0.41724729271E+03  0.12500000000E+03 0.  0.
         25    1    1    2    0    0  0.97799936906E+02  0.15327030205E+03  0.23174364515E+03  0.31997926529E+03  0.12500000000E+03 0.  0.
</event>
<event>
 5    0  0.5619558E-005  0.4039149E+03  0.7546771E-02  0.1042432E+00
         21   -1    0    0  502  501  0.00000000000E+00  0.00000000000E+00  0.12282166944E+03  0.12282166944E+03  0.00000000000E+00 0.  1.
         21   -1    0    0  501  502 -0.00000000000E+00 -0.00000000000E+00 -0.13283261408E+04  0.13283261408E+04  0.00000000000E+00 0.  1.
         25    1    1    2    0    0 -0.12632902490E+03  0.19148400673E+03 -0.83468220230E+03  0.87461107139E+03  0.12500000000E+03 0.  0.
         25    1    1    2    0    0  0.74209251735E+02 -0.76410819131E+02  0.12153699608E+01  0.16423185881E+03  0.12500000000E+03 0.  0.
         25    1    1    2    0    0  0.52119773167E+02 -0.11507318760E+03 -0.37203763906E+03  0.41230488008E+03  0.12500000000E+03 0.  0.
</event>
<event>
 5    0  0.6599188E-005  0.4905424E+03  0.7546771E-02  0.1016277E+00
         21   -1    0    0  502  501  0.00000000000E+00  0.00000000000E+00  0.74862536096E+03  0.74862536096E+03  0.00000000000E+00 0.  1.
         21   -1    0    0  501  502 -0.00000000000E+00 -0.00000000000E+00 -0.32143155056E+03  0.32143155056E+03  0.00000000000E+00 0.  1.
         25    1    1    2    0    0 -0.54707019598E+02 -0.17697308706E+03  0.46527694219E+03  0.51615885585E+03  0.12500000000E+03 0.  0.
         25    1    1    2    0    0  0.71744228591E+02 -0.89531842007E+02 -0.16150959516E+03  0.23425100725E+03  0.12500000000E+03 0.  0.
         25    1    1    2    0    0 -0.17037208993E+02  0.26650492907E+03  0.12342646337E+03  0.31964704843E+03  0.12500000000E+03 0.  0.
</event>
<event>
 5    0  0.5619558E-005  0.3118648E+03  0.7546771E-02  0.1079455E+00
         21   -1    0    0  502  501  0.00000000000E+00  0.00000000000E+00  0.28888118433E+03  0.28888118433E+03  0.00000000000E+00 0.  1.
         21   -1    0    0  501  502 -0.00000000000E+00 -0.00000000000E+00 -0.33667699361E+03  0.33667699361E+03  0.00000000000E+00 0.  1.
         25    1    1    2    0    0  0.44493929382E+02  0.13892967957E+02 -0.96251501679E+02  0.16450554971E+03  0.12500000000E+03 0.  0.
         25    1    1    2    0    0  0.33031110053E+02 -0.18177249883E+03 -0.28678418635E+02  0.22489941587E+03  0.12500000000E+03 0.  0.
         25    1    1    2    0    0 -0.77525039435E+02  0.16787953088E+03  0.77134111032E+02  0.23615321237E+03  0.12500000000E+03 0.  0.
</event>
<event>
 5    0  0.5619558E-005  0.3144809E+03  0.7546771E-02  0.1078218E+00
         21   -1    0    0  502  501  0.00000000000E+00  0.00000000000E+00  0.24527487190E+03  0.24527487190E+03  0.00000000000E+00 0. -1.
         21   -1    0    0  501  502 -0.00000000000E+00 -0.00000000000E+00 -0.40321388038E+03  0.40321388038E+03  0.00000000000E+00 0. -1.
         25    1    1    2    0    0 -0.34535803269E+02 -0.54235392087E+02 -0.19663850287E+03  0.24171450158E+03  0.12500000000E+03 0.  0.
         25    1    1    2    0    0 -0.10426730967E+03 -0.71283482150E+01 -0.75310208242E+02  0.17949683195E+03  0.12500000000E+03 0.  0.
         25    1    1    2    0    0  0.13880311293E+03  0.61363740302E+02  0.11400970263E+03  0.22727741876E+03  0.12500000000E+03 0.  0.
</event>
<event>
 5    0  0.5619558E-005  0.2991862E+03  0.7546771E-02  0.1085648E+00
         21   -1    0    0  502  501  0.00000000000E+00  0.00000000000E+00  0.54841201913E+03  0.54841201913E+03  0.00000000000E+00 0. -1.
         21   -1    0    0  501  502 -0.00000000000E+00 -0.00000000000E+00 -0.16322107972E+03  0.16322107972E+03  0.00000000000E+00 0. -1.
         25    1    1    2    0    0 -0.31610190395E+01  0.70232603985E+02  0.59212463703E+02  0.15515710284E+03  0.12500000000E+03 0.  0.
         25    1    1    2    0    0  0.16282765119E+03 -0.18117757677E+02  0.27018463472E+03  0.33980263974E+03  0.12500000000E+03 0.  0.
         25    1    1    2    0    0 -0.15966663215E+03 -0.52114846307E+02  0.55793840982E+02  0.21667335627E+03  0.12500000000E+03 0.  0.
</event>
<event>
 5    0  0.5619558E-005  0.3694205E+03  0.7546771E-02  0.1054915E+00
         21   -1    0    0  502  501  0.00000000000E+00  0.00000000000E+00  0.35882184869E+03  0.35882184869E+03  0.00000000000E+00 0.  1.
         21   -1    0    0  501  502 -0.00000000000E+00 -0.00000000000E+00 -0.38033218623E+03  0.38033218623E+03  0.00000000000E+00 0.  1.
         25    1    1    2    0    0 -0.36897351447E+02 -0.84636186452E+02  0.79453546565E+02  0.17453528200E+03  0.12500000000E+03 0.  0.
         25    1    1    2    0    0 -0.59181234571E+02  0.22757651349E+03 -0.19689213718E+03  0.33118726078E+03  0.12500000000E+03 0.  0.
         25    1    1    2    0    0  0.96078586019E+02 -0.14294032704E+03  0.95928253080E+02  0.23343149214E+03  0.12500000000E+03 0.  0.
</event>
<event>
 5    0  0.5619558E-005  0.2850124E+03  0.7546771E-02  0.1092982E+00
         21   -1    0    0  502  501  0.00000000000E+00  0.00000000000E+00  0.10070002504E+04  0.10070002504E+04  0.00000000000E+00 0.  1.
         21   -1    0    0  501  502 -0.00000000000E+00 -0.00000000000E+00 -0.80667394444E+02  0.80667394444E+02  0.00000000000E+00 0.  1.
         25    1    1    2    0    0 -0.79425790880E+02 -0.31643553593E+02  0.27732532836E+03  0.31598118376E+03  0.12500000000E+03 0.  0.
         25    1    1    2    0    0 -0.11599476894E+03 -0.37539059299E+02  0.24869915846E+03  0.30387536724E+03  0.12500000000E+03 0.  0.
         25    1    1    2    0    0  0.19542055982E+03  0.69182612892E+02  0.40030836916E+03  0.46781109387E+03  0.12500000000E+03 0.  0.
</event>
<event>
 5    0  0.5619558E-005  0.3077886E+03  0.7546771E-02  0.1081411E+00
         21   -1    0    0  502  501  0.00000000000E+00  0.00000000000E+00  0.24635599361E+04  0.24635599361E+04  0.00000000000E+00 0. -1.
         21   -1    0    0  501  502 -0.00000000000E+00 -0.00000000000E+00 -0.38454036271E+02  0.38454036271E+02  0.00000000000E+00 0. -1.
         25    1    1    2    0    0  0.69241082538E+02  0.64744776197E-01  0.15243276274E+03  0.20893797850E+03  0.12500000000E+03 0.  0.
         25    1    1    2    0    0  0.45502522558E+02  0.17066013244E+02  0.10696012364E+04  0.10779765922E+04  0.12500000000E+03 0.  0.
         25    1    1    2    0    0 -0.11474360510E+03 -0.17130758020E+02  0.12030719008E+04  0.12150994018E+04  0.12500000000E+03 0.  0.
</event>
<event>
 5    0  0.5619558E-005  0.2747708E+03  0.7546771E-02  0.1098580E+00
         21   -1    0    0  502  501  0.00000000000E+00  0.00000000000E+00  0.36223195450E+03  0.36223195450E+03  0.00000000000E+00 0.  1.
         21   -1    0    0  501  502 -0.00000000000E+00 -0.00000000000E+00 -0.20842724123E+03  0.20842724123E+03  0.00000000000E+00 0.  1.
         25    1    1    2    0    0 -0.77927335450E+02 -0.14677217572E+01  0.24333366443E+03  0.28444875824E+03  0.12500000000E+03 0.  0.
         25    1    1    2    0    0  0.39388699321E+02  0.13046452506E+02 -0.86635727536E+01  0.13199142794E+03  0.12500000000E+03 0.  0.
         25    1    1    2    0    0  0.38538636129E+02 -0.11578730748E+02 -0.80865378411E+02  0.15421900955E+03  0.12500000000E+03 0.  0.
</event>
<event>
 5    0  0.5619558E-005  0.3097376E+03  0.7546771E-02  0.1080472E+00
         21   -1    0    0  502  501  0.00000000000E+00  0.00000000000E+00  0.52944279281E+02  0.52944279281E+02  0.00000000000E+00 0.  1.
         21   -1    0    0  501  502 -0.00000000000E+00 -0.00000000000E+00 -0.18120440477E+04  0.18120440477E+04  0.00000000000E+00 0.  1.
         25    1    1    2    0    0 -0.21614040350E+02  0.95226921234E+02 -0.30937770131E+03  0.34767067080E+03  0.12500000000E+03 0.  0.
         25    1    1    2    0    0  0.60542558919E+02 -0.19887315871E+03 -0.11392668541E+04  0.11648046616E+04  0.12500000000E+03 0.  0.
         25    1    1    2    0    0 -0.38928518569E+02  0.10364623748E+03 -0.31045521296E+03  0.35251299459E+03  0.12500000000E+03 0.  0.
</event>
<event>
 5    0  0.5619558E-005  0.2724321E+03  0.7546771E-02  0.1099896E+00
         21   -1    0    0  502  501  0.00000000000E+00  0.00000000000E+00  0.71494967515E+03  0.71494967515E+03  0.00000000000E+00 0. -1.
         21   -1    0    0  501  502 -0.00000000000E+00 -0.00000000000E+00 -0.10381048652E+03  0.10381048652E+03  0.00000000000E+00 0. -1.
         25    1    1    2    0    0 -0.10022743221E+03  0.61082724184E+02  0.54177394522E+02  0.17982443504E+03  0.12500000000E+03 0.  0.
         25    1    1    2    0    0  0.10291056766E+03 -0.79813988297E+02  0.38776299959E+03  0.42772187402E+03  0.12500000000E+03 0.  0.
         25    1    1    2    0    0 -0.26831354564E+01  0.18731264114E+02  0.16919879452E+03  0.21121385262E+03  0.12500000000E+03 0.  0.
</event>
<event>
 5    0  0.5619558E-005  0.4422736E+03  0.7546771E-02  0.1030051E+00
         21   -1    0    0  502  501  0.00000000000E+00  0.00000000000E+00  0.14416438967E+04  0.14416438967E+04  0.00000000000E+00 0. -1.
         21   -1    0    0  501  502 -0.00000000000E+00 -0.00000000000E+00 -0.13568257896E+03  0.13568257896E+03  0.00000000000E+00 0. -1.
         25    1    1    2    0    0  0.53624558184E+02 -0.40114517778E+02  0.21173409104E+02  0.14338089493E+03  0.12500000000E+03 0.  0.
         25    1    1    2    0    0  0.11439454640E+03 -0.22006977443E+03  0.78628969396E+03  0.83390245274E+03  0.12500000000E+03 0.  0.
         25    1    1    2    0    0 -0.16801910458E+03  0.26018429220E+03  0.49849821463E+03  0.60004312795E+03  0.12500000000E+03 0.  0.
</event>
<event>
 5    0  0.5619558E-005  0.2233073E+03  0.7546771E-02  0.1131441E+00
         21   -1    0    0  502  501  0.00000000000E+00  0.00000000000E+00  0.51841141854E+02  0.51841141854E+02  0.00000000000E+00 0.  1.
         21   -1    0    0  501  502 -0.00000000000E+00 -0.00000000000E+00 -0.96190261507E+03  0.96190261507E+03  0.00000000000E+00 0.  1.
         25    1    1    2    0    0  0.12985621315E+02 -0.86113925397E+02 -0.37246982868E+03  0.40242143058E+03  0.12500000000E+03 0.  0.
         25    1    1    2    0    0  0.38384743431E+01  0.53775989947E+02 -0.39703364091E+03  0.41972288833E+03  0.12500000000E+03 0.  0.
         25    1    1    2    0    0 -0.16824095658E+02  0.32337935450E+02 -0.14055800363E+03  0.19159943802E+03  0.12500000000E+03 0.  0.
</event>
<event>
 5    0  0.5619558E-005  0.2486699E+03  0.7546771E-02  0.1114148E+00
         21   -1    0    0  502  501  0.00000000000E+00  0.00000000000E+00  0.32621167589E+03  0.32621167589E+03  0.00000000000E+00 0. -1.
         21   -1    0    0  501  502 -0.00000000000E+00 -0.00000000000E+00 -0.18956005274E+03  0.18956005274E+03  0.00000000000E+00 0. -1.
         25    1    1    2    0    0 -0.76597956994E+01  0.13485164299E+02  0.69109908861E+02  0.14367220201E+03  0.12500000000E+03 0.  0.
         25    1    1    2    0    0  0.10657605000E+03  0.50536798979E+02  0.97698750987E+02  0.19769286388E+03  0.12500000000E+03 0.  0.
         25    1    1    2    0    0 -0.98916254301E+02 -0.64021963278E+02 -0.30157036701E+02  0.17440666274E+03  0.12500000000E+03 0.  0.
</event>
<event>
 5    0  0.5619558E-005  0.5131728E+03  0.7546771E-02  0.1010397E+00
         21   -1    0    0  502  501  0.00000000000E+00  0.00000000000E+00  0.40430822296E+03  0.40430822296E+03  0.00000000000E+00 0.  1.
         21   -1    0    0  501  502 -0.00000000000E+00 -0.00000000000E+00 -0.65135039711E+03  0.65135039711E+03  0.00000000000E+00 0.  1.
         25    1    1    2    0    0  0.73546747269E+02  0.26204326933E+03  0.27368736266E+03  0.40571612184E+03  0.12500000000E+03 0.  0.
         25    1    1    2    0    0 -0.40905315118E+02 -0.21049079271E+03 -0.36161706780E+03  0.43860178105E+03  0.12500000000E+03 0.  0.
         25    1    1    2    0    0 -0.32641432150E+02 -0.51552476622E+02 -0.15911246903E+03  0.21134071718E+03  0.12500000000E+03 0.  0.
</event>
<event>
 5    0  0.5619558E-005  0.3318784E+03  0.7546771E-02  0.1070309E+00
         21   -1    0    0  502  501  0.00000000000E+00  0.00000000000E+00  0.42545249838E+03  0.42545249838E+03  0.00000000000E+00 0.  1.
         21   -1    0    0  501  502 -0.00000000000E+00 -0.00000000000E+00 -0.25888504772E+03  0.25888504772E+03  0.00000000000E+00 0.  1.
         25    1    1    2    0    0  0.63225960046E+01  0.47849691553E+02 -0.10149811546E+03  0.16809650694E+03  0.12500000000E+03 0.  0.
         25    1    1    2    0    0  0.15570432821E+03 -0.52691841538E+02  0.41016776800E+02  0.21054131178E+03  0.12500000000E+03 0.  0.
         25    1    1    2    0    0 -0.16202692421E+03  0.48421499851E+01  0.22704878932E+03  0.30569972738E+03  0.12500000000E+03 0.  0.
</event>
<event>
 5    0  0.5619558E-005  0.4844849E+03  0.7546771E-02  0.1017910E+00
         21   -1    0    0  502  501  0.00000000000E+00  0.00000000000E+00  0.15904849844E+04  0.15904849844E+04  0.00000000000E+00 0. -1.
         21   -1    0    0  501  502 -0.00000000000E+00 -0.00000000000E+00 -0.14758115480E+03  0.14758115480E+03  0.00000000000E+00 0. -1.
         25    1    1    2    0    0  0.19751389020E+01  0.84883673350E+02  0.89441626694E+02  0.17559596738E+03  0.12500000000E+03 0.  0.
         25    1    1    2    0    0  0.24650994887E+03  0.20903737534E+03  0.84025470795E+03  0.90890965085E+03  0.12500000000E+03 0.  0.
         25    1    1    2    0    0 -0.24848508777E+03 -0.29392104869E+03  0.51320749500E+03  0.65356052101E+03  0.12500000000E+03 0.  0.
</event>
<event>
 5    0  0.5619558E-005  0.5440958E+03  0.7546771E-02  0.1002870E+00
         21   -1    0    0  502  501  0.00000000000E+00  0.00000000000E+00  0.46519302403E+03  0.46519302403E+03  0.00000000000E+00 0. -1.
         21   -1    0    0  501  502 -0.00000000000E+00 -0.00000000000E+00 -0.63638142621E+03  0.63638142621E+03  0.00000000000E+00 0. -1.
         25    1    1    2    0    0  0.97451173029E+02 -0.16909856837E+03 -0.28315110543E+03  0.36591065229E+03  0.12500000000E+03 0.  0.
         25    1    1    2    0    0  0.68206957070E+02  0.27281554209E+02 -0.25354325624E+03  0.29207131831E+03  0.12500000000E+03 0.  0.
         25    1    1    2    0    0 -0.16565813010E+03  0.14181701416E+03  0.36550595949E+03  0.44359247965E+03  0.12500000000E+03 0.  0.
</event>
<event>
 5    0  0.5619558E-005  0.3195593E+03  0.7546771E-02  0.1075852E+00
         21   -1    0    0  502  501  0.00000000000E+00  0.00000000000E+00  0.14388273438E+03  0.14388273438E+03  0.00000000000E+00 0. -1.
         21   -1    0    0  501  502 -0.00000000000E+00 -0.00000000000E+00 -0.70973173713E+03  0.70973173713E+03  0.00000000000E+00 0. -1.
         25    1    1    2    0    0 -0.59819876250E+02 -0.17839397377E+03 -0.13445737980E+03  0.26288136955E+03  0.12500000000E+03 0.  0.
         25    1    1    2    0    0  0.85894368955E+02  0.78343986757E+02 -0.38634224683E+03  0.42237537164E+03  0.12500000000E+03 0.  0.
         25    1    1    2    0    0 -0.26074492705E+02  0.10004998701E+03 -0.45049376118E+02  0.16835773032E+03  0.12500000000E+03 0.  0.
</event>
<event>
 5    0  0.5619558E-005  0.2860909E+03  0.7546771E-02  0.1092408E+00
         21   -1    0    0  502  501  0.00000000000E+00  0.00000000000E+00  0.11425619783E+03  0.11425619783E+03  0.00000000000E+00 0.  1.
         21   -1    0    0  501  502 -0.00000000000E+00 -0.00000000000E+00 -0.71635483199E+03  0.71635483199E+03  0.00000000000E+00 0.  1.
         25    1    1    2    0    0 -0.12181593929E+02 -0.66033839091E+02 -0.25485937094E+02  0.14416446207E+03  0.12500000000E+03 0.  0.
         25    1    1    2    0    0  0.13262326418E+03  0.75032017003E+02 -0.27496858995E+03  0.33830675317E+03  0.12500000000E+03 0.  0.
         25    1    1    2    0    0 -0.12044167025E+03 -0.89981779114E+01 -0.30164410711E+03  0.34813981457E+03  0.12500000000E+03 0.  0.
</event>
<event>
 5    0  0.5619558E-005  0.2403678E+03  0.7546771E-02  0.1119548E+00
         21   -1    0    0  502  501  0.00000000000E+00  0.00000000000E+00  0.62746579171E+03  0.62746579171E+03  0.00000000000E+00 0.  1.
         21   -1    0    0  501  502 -0.00000000000E+00 -0.00000000000E+00 -0.92079378908E+02  0.92079378908E+02  0.00000000000E+00 0.  1.
         25    1    1    2    0    0 -0.10009516472E+03  0.55645366115E+01  0.15486490155E+03  0.22284107297E+03  0.12500000000E+03 0.  0.
         25    1    1    2    0    0 -0.35541634238E+02  0.23113662263E+02  0.17254052632E+03  0.21723876811E+03  0.12500000000E+03 0.  0.
         25    1    1    2    0    0  0.13563679896E+03 -0.28678198874E+02  0.20798098493E+03  0.27946532954E+03  0.12500000000E+03 0.  0.
</event>
<event>
 5    0  0.5619558E-005  0.2724553E+03  0.7546771E-02  0.1099883E+00
         21   -1    0    0  502  501  0.00000000000E+00  0.00000000000E+00  0.34308527584E+02  0.34308527584E+02  0.00000000000E+00 0. -1.
         21   -1    0    0  501  502 -0.00000000000E+00 -0.00000000000E+00 -0.21636575478E+04  0.21636575478E+04  0.00000000000E+00 0. -1.
         25    1    1    2    0    0 -0.15239073630E+03 -0.64834261246E+01 -0.55824561241E+03  0.59205416568E+03  0.12500000000E+03 0.  0.
         25    1    1    2    0    0  0.52567603818E+02  0.76977008439E+02 -0.82462982098E+03  0.83924260762E+03  0.12500000000E+03 0.  0.
         25    1    1    2    0    0  0.99823132481E+02 -0.70493582315E+02 -0.74647358684E+03  0.76666930209E+03  0.12500000000E+03 0.  0.
</event>
<event>
 5    0  0.5619558E-005  0.2408665E+03  0.7546771E-02  0.1119217E+00
         21   -1    0    0  502  501  0.00000000000E+00  0.00000000000E+00  0.77747280106E+02  0.77747280106E+02  0.00000000000E+00 0.  1.
         21   -1    0    0  501  502 -0.00000000000E+00 -0.00000000000E+00 -0.74622150736E+03  0.74622150736E+03  0.00000000000E+00 0.  1.
         25    1    1    2    0    0 -0.92373531733E+02 -0.18895791210E+02 -0.21204066989E+03  0.26358331886E+03  0.12500000000E+03 0.  0.
         25    1    1    2    0    0  0.64512287180E+02  0.55189799609E+02 -0.37510284905E+03  0.40439448135E+03  0.12500000000E+03 0.  0.
         25    1    1    2    0    0  0.27861244553E+02 -0.36294008399E+02 -0.81330708312E+02  0.15599098727E+03  0.12500000000E+03 0.  0.
</event>
<event>
 5    0  0.5619558E-005  0.5871615E+03  0.7546771E-02  0.9932406E-01
         21   -1    0    0  502  501  0.00000000000E+00  0.00000000000E+00  0.40918321606E+03  0.40918321606E+03  0.00000000000E+00 0. -1.
         21   -1    0    0  501  502 -0.00000000000E+00 -0.00000000000E+00 -0.84255326406E+03  0.84255326406E+03  0.00000000000E+00 0. -1.
         25    1    1    2    0    0  0.29605034396E+03  0.30204207957E+03  0.63802645139E+02  0.44561306255E+03  0.12500000000E+03 0.  0.
         25    1    1    2    0    0 -0.97186071925E+02  0.86211377603E+02 -0.12724128750E+03  0.22066463117E+03  0.12500000000E+03 0.  0.
         25    1    1    2    0    0 -0.19886427203E+03 -0.38825345717E+03 -0.36993140565E+03  0.58545878640E+03  0.12500000000E+03 0.  0.
</event>
<event>
 5    0  0.5619558E-005  0.3253660E+03  0.7546771E-02  0.1073206E+00
         21   -1    0    0  502  501  0.00000000000E+00  0.00000000000E+00  0.13881906712E+04  0.13881906712E+04  0.00000000000E+00 0. -1.
         21   -1    0    0  501  502 -0.00000000000E+00 -0.00000000000E+00 -0.76259738038E+02  0.76259738038E+02  0.00000000000E+00 0. -1.
         25    1    1    2    0    0  0.21966081881E+03 -0.13489813045E+03  0.57641453757E+03  0.64368245280E+03  0.12500000000E+03 0.  0.
         25    1    1    2    0    0 -0.10497827758E+03  0.34833529986E+02  0.35626564273E+03  0.39342600545E+03  0.12500000000E+03 0.  0.
         25    1    1    2    0    0 -0.11468254123E+03  0.10006460047E+03  0.37925075289E+03  0.42734195101E+03  0.12500000000E+03 0.  0.
</event>
<event>
 5    0  0.5619558E-005  0.2318449E+03  0.7546771E-02  0.1125348E+00
         21   -1    0    0  502  501  0.00000000000E+00  0.00000000000E+00  0.69874238961E+02  0.69874238961E+02  0.00000000000E+00 0.  1.
         21   -1    0    0  501  502 -0.00000000000E+00 -0.00000000000E+00 -0.76926884564E+03  0.76926884564E+03  0.00000000000E+00 0.  1.
         25    1    1    2    0    0  0.48210457392E+02 -0.28432244861E+02 -0.32796673684E+03  0.35541499859E+03  0.12500000000E+03 0.  0.
         25    1    1    2    0    0  0.40953078939E+02  0.44338694501E+02 -0.98621043392E+02  0.17027678851E+03  0.12500000000E+03 0.  0.
         25    1    1    2    0    0 -0.89163536330E+02 -0.15906449640E+02 -0.27280682645E+03  0.31345129750E+03  0.12500000000E+03 0.  0.
</event>
<event>
 5    0  0.5619558E-005  0.2504167E+03  0.7546771E-02  0.1113042E+00
         21   -1    0    0  502  501  0.00000000000E+00  0.00000000000E+00  0.80863445897E+02  0.80863445897E+02  0.00000000000E+00 0.  1.
         21   -1    0    0  501  502 -0.00000000000E+00 -0.00000000000E+00 -0.77548681687E+03  0.77548681687E+03  0.00000000000E+00 0.  1.
         25    1    1    2    0    0 -0.12090401689E+03 -0.22817668058E+01 -0.17069537227E+03  0.24369016778E+03  0.12500000000E+03 0.  0.
         25    1    1    2    0    0 -0.12434981626E+02 -0.42254232218E+01 -0.14489473284E+03  0.19181232123E+03  0.12500000000E+03 0.  0.
         25    1    1    2    0    0  0.13333899851E+03  0.65071900276E+01 -0.37903326586E+03  0.42084777376E+03  0.12500000000E+03 0.  0.
</event>
<event>
 5    0  0.5619558E-005  0.2646481E+03  0.7546771E-02  0.1104382E+00
         21   -1    0    0  502  501  0.00000000000E+00  0.00000000000E+00  0.14095390418E+03  0.14095390418E+03  0.00000000000E+00 0.  1.
         21   -1    0    0  501  502 -0.00000000000E+00 -0.00000000000E+00 -0.49689004276E+03  0.49689004276E+03  0.00000000000E+00 0.  1.
         25    1    1    2    0    0 -0.35984451812E+02 -0.88454556167E+02 -0.30807001422E+03  0.34590637887E+03  0.12500000000E+03 0.  0.
         25    1    1    2    0    0 -0.28071673058E+02  0.66926107714E+02 -0.10027324390E+02  0.14488847420E+03  0.12500000000E+03 0.  0.
         25    1    1    2    0    0  0.64056124870E+02  0.21528448453E+02 -0.37838799961E+02  0.14704909387E+03  0.12500000000E+03 0.  0.
</event>
<event>
 5    0  0.5619558E-005  0.5184930E+03  0.7546771E-02  0.1009062E+00
         21   -1    0    0  502  501  0.00000000000E+00  0.00000000000E+00  0.45475503475E+03  0.45475503475E+03  0.00000000000E+00 0. -1.
         21   -1    0    0  501  502 -0.00000000000E+00 -0.00000000000E+00 -0.59116438877E+03  0.59116438877E+03  0.00000000000E+00 0. -1.
         25    1    1    2    0    0  0.77539717391E+01  0.38275232002E+03 -0.20302260836E+03  0.45100182047E+03  0.12500000000E+03 0.  0.
         25    1    1    2    0    0 -0.33267607391E+02 -0.31406058985E+03 -0.11859565015E+03  0.35976480655E+03  0.12500000000E+03 0.  0.
         25    1    1    2    0    0  0.25513635652E+02 -0.68691730168E+02  0.18520890449E+03  0.23515279650E+03  0.12500000000E+03 0.  0.
</event>
<event>
 5    0  0.5619558E-005  0.3953781E+03  0.7546771E-02  0.1045392E+00
         21   -1    0    0  502  501  0.00000000000E+00  0.00000000000E+00  0.15982062626E+03  0.15982062626E+03  0.00000000000E+00 0. -1.
         21   -1    0    0  501  502 -0.00000000000E+00 -0.00000000000E+00 -0.97812057812E+03  0.97812057812E+03  0.00000000000E+00 0. -1.
         25    1    1    2    0    0 -0.37871874716E+02  0.11061878133E+02  0.24469726991E+02  0.13334320973E+03  0.12500000000E+03 0.  0.
         25    1    1    2    0    0  0.11905534187E+03 -0.10065752682E+03 -0.80126708999E+03  0.82580873187E+03  0.12500000000E+03 0.  0.
         25    1    1    2    0    0 -0.81183467157E+02  0.89595648687E+02 -0.41502588858E+02  0.17878926278E+03  0.12500000000E+03 0.  0.
</event>
<event>
 5    0  0.5619558E-005  0.9851094E+03  0.7546771E-02  0.9325029E-01
         21   -1    0    0  502  501  0.00000000000E+00  0.00000000000E+00  0.10288825735E+04  0.10288825735E+04  0.00000000000E+00 0.  1.
         21   -1    0    0  501  502 -0.00000000000E+00 -0.00000000000E+00 -0.94319844424E+03  0.94319844424E+03  0.00000000000E+00 0.  1.
         25    1    1    2    0    0  0.77949591959E+02 -0.99516810621E+02  0.48853829337E+02  0.18436765205E+03  0.12500000000E+03 0.  0.
         25    1    1    2    0    0  0.10300157725E+03  0.69820663116E+03  0.60162675171E+03  0.93577859191E+03  0.12500000000E+03 0.  0.
         25    1    1    2    0    0 -0.18095116921E+03 -0.59868982054E+03 -0.56479645177E+03  0.85193477378E+03  0.12500000000E+03 0.  0.
</event>
<event>
 5    0  0.5619558E-005  0.3561918E+03  0.7546771E-02  0.1060102E+00
         21   -1    0    0  502  501  0.00000000000E+00  0.00000000000E+00  0.13441765849E+03  0.13441765849E+03  0.00000000000E+00 0.  1.
         21   -1    0    0  501  502 -0.00000000000E+00 -0.00000000000E+00 -0.94386865904E+03  0.94386865904E+03  0.00000000000E+00 0.  1.
         25    1    1    2    0    0  0.48399953058E+02 -0.24233044781E+02 -0.12001550363E+03  0.18154480722E+03  0.12500000000E+03 0.  0.
         25    1    1    2    0    0 -0.13984823660E+03  0.69426598297E+02 -0.12008190310E+02  0.20036661016E+03  0.12500000000E+03 0.  0.
         25    1    1    2    0    0  0.91448283540E+02 -0.45193553516E+02 -0.67742730661E+03  0.69637490016E+03  0.12500000000E+03 0.  0.
</event>
<event>
 5    0  0.5619558E-005  0.3308858E+03  0.7546771E-02  0.1070746E+00
         21   -1    0    0  502  501  0.00000000000E+00  0.00000000000E+00  0.95723286913E+03  0.95723286913E+03  0.00000000000E+00 0. -1.
         21   -1    0    0  501  502 -0.00000000000E+00 -0.00000000000E+00 -0.11437696335E+03  0.11437696335E+03  0.00000000000E+00 0. -1.
         25    1    1    2    0    0  0.34604732417E+02 -0.14176781110E+02  0.12033080496E+03  0.17749076385E+03  0.12500000000E+03 0.  0.
         25    1    1    2    0    0 -0.55353204455E+02 -0.19238821057E+03  0.54442122573E+03  0.59337734355E+03  0.12500000000E+03 0.  0.
         25    1    1    2    0    0  0.20748472038E+02  0.20656499168E+03  0.17810387509E+03  0.30074172508E+03  0.12500000000E+03 0.  0.
</event>
<event>
 5    0  0.5619558E-005  0.3019903E+03  0.7546771E-02  0.1084250E+00
         21   -1    0    0  502  501  0.00000000000E+00  0.00000000000E+00  0.35884446937E+03  0.35884446937E+03  0.00000000000E+00 0.  1.
         21   -1    0    0  501  502 -0.00000000000E+00 -0.00000000000E+00 -0.25414389750E+03  0.25414389750E+03  0.00000000000E+00 0.  1.
         25    1    1    2    0    0 -0.33930717111E+02 -0.24784690372E+02 -0.35696714770E+02  0.13661928812E+03  0.12500000000E+03 0.  0.
         25    1    1    2    0    0 -0.15011584774E+03 -0.73221391982E+02  0.94234937511E+02  0.22891344092E+03  0.12500000000E+03 0.  0.
         25    1    1    2    0    0  0.18404656486E+03  0.98006082354E+02  0.46162349127E+02  0.24745563782E+03  0.12500000000E+03 0.  0.
</event>
<event>
 5    0  0.5619558E-005  0.3056546E+03  0.7546771E-02  0.1082448E+00
         21   -1    0    0  502  501  0.00000000000E+00  0.00000000000E+00  0.23567480047E+03  0.23567480047E+03  0.00000000000E+00 0.  1.
         21   -1    0    0  501  502 -0.00000000000E+00 -0.00000000000E+00 -0.39641372310E+03  0.39641372310E+03  0.00000000000E+00 0.  1.
         25    1    1    2    0    0 -0.71175642377E+00 -0.37204891755E+02 -0.13585272190E+03  0.18832331936E+03  0.12500000000E+03 0.  0.
         25    1    1    2    0    0  0.12713408095E+02 -0.11159384142E+03 -0.13899952032E+03  0.21808411872E+03  0.12500000000E+03 0.  0.
         25    1    1    2    0    0 -0.12001651672E+02  0.14879873317E+03  0.11411331960E+03  0.22568108549E+03  0.12500000000E+03 0.  0.
</event>
<event>
 5    0  0.5619558E-005  0.3843997E+03  0.7546771E-02  0.1049319E+00
         21   -1    0    0  502  501  0.00000000000E+00  0.00000000000E+00  0.13871386921E+04  0.13871386921E+04  0.00000000000E+00 0. -1.
         21   -1    0    0  501  502 -0.00000000000E+00 -0.00000000000E+00 -0.10652370651E+03  0.10652370651E+03  0.00000000000E+00 0. -1.
         25    1    1    2    0    0  0.42847489290E+02  0.68204316996E+02  0.16112119511E+03  0.21925504717E+03  0.12500000000E+03 0.  0.
         25    1    1    2    0    0 -0.11547415122E+02  0.23890995600E+03  0.59128604512E+03  0.64996576604E+03  0.12500000000E+03 0.  0.
         25    1    1    2    0    0 -0.31300074168E+02 -0.30711427299E+03  0.52820774539E+03  0.62444158543E+03  0.12500000000E+03 0.  0.
</event>
<event>
 5    0  0.5619558E-005  0.3434784E+03  0.7546771E-02  0.1065324E+00
         21   -1    0    0  502  501  0.00000000000E+00  0.00000000000E+00  0.93145341907E+03  0.93145341907E+03  0.00000000000E+00 0.  1.
         21   -1    0    0  501  502 -0.00000000000E+00 -0.00000000000E+00 -0.12665946268E+03  0.12665946268E+03  0.00000000000E+00 0.  1.
         25    1    1    2    0    0 -0.19838464762E+03  0.75970900991E+01  0.30022480772E+03  0.38101721662E+03  0.12500000000E+03 0.  0.
         25    1    1    2    0    0  0.13856631870E+03 -0.13220789516E+03  0.14135291135E+03  0.26885906674E+03  0.12500000000E+03 0.  0.
         25    1    1    2    0    0  0.59818328914E+02  0.12461080506E+03  0.36321623732E+03  0.40823659839E+03  0.12500000000E+03 0.  0.
</event>
<event>
 5    0  0.5619558E-005  0.3838296E+03  0.7546771E-02  0.1049527E+00
         21   -1    0    0  502  501  0.00000000000E+00  0.00000000000E+00  0.28233229096E+03  0.28233229096E+03  0.00000000000E+00 0.  1.
         21   -1    0    0  501  502 -0.00000000000E+00 -0.00000000000E+00 -0.52181479545E+03  0.52181479545E+03  0.00000000000E+00 0.  1.
         25    1    1    2    0    0 -0.27616958063E+02 -0.14131843167E+03  0.18713562056E+03  0.26716724347E+03  0.12500000000E+03 0.  0.
         25    1    1    2    0    0  0.28733729723E+02  0.12517623777E+03 -0.15268788806E+03  0.23544279324E+03  0.12500000000E+03 0.  0.
         25    1    1    2    0    0 -0.11167716601E+01  0.16142193900E+02 -0.27393023699E+03  0.30153704970E+03  0.12500000000E+03 0.  0.
</event>
<event>
 5    0  0.6413506E-005  0.3501229E+03  0.7546771E-02  0.1062565E+00
         21   -1    0    0  502  501  0.00000000000E+00  0.00000000000E+00  0.72647293676E+03  0.72647293676E+03  0.00000000000E+00 0. -1.
         21   -1    0    0  501  502 -0.00000000000E+00 -0.00000000000E+00 -0.16874133761E+03  0.16874133761E+03  0.00000000000E+00 0. -1.
         25    1    1    2    0    0 -0.16083658052E+03  0.86678216335E+01  0.32348766582E+03  0.38237783239E+03  0.12500000000E+03 0.  0.
         25    1    1    2    0    0 -0.12936262056E+02  0.13798028332E+03  0.15182291670E+03  0.24058491951E+03  0.12500000000E+03 0.  0.
         25    1    1    2    0    0  0.17377284258E+03 -0.14664810496E+03  0.82421016619E+02  0.27225152247E+03  0.12500000000E+03 0.  0.
</event>
<event>
 5    0  0.5619558E-005  0.2910858E+03  0.7546771E-02  0.1089784E+00
         21   -1    0    0  502  501  0.00000000000E+00  0.00000000000E+00  0.92000706359E+03  0.92000706359E+03  0.00000000000E+00 0.  1.
         21   -1    0    0  501  502 -0.00000000000E+00 -0.00000000000E+00 -0.92098145052E+02  0.92098145052E+02  0.00000000000E+00 0.  1.
         25    1    1    2    0    0 -0.12269673148E+03  0.13381735743E+03  0.25583539541E+03  0.33769560644E+03  0.12500000000E+03 0.  0.
         25    1    1    2    0    0 -0.30503266032E+02 -0.39487161416E+02  0.26473388087E+03  0.29698268104E+03  0.12500000000E+03 0.  0.
         25    1    1    2    0    0  0.15319999751E+03 -0.94330196010E+02  0.30733964225E+03  0.37742692116E+03  0.12500000000E+03 0.  0.
</event>
<event>
 5    0  0.5619558E-005  0.3943035E+03  0.7546771E-02  0.1045770E+00
         21   -1    0    0  502  501  0.00000000000E+00  0.00000000000E+00  0.43523708546E+03  0.43523708546E+03  0.00000000000E+00 0.  1.
         21   -1    0    0  501  502 -0.00000000000E+00 -0.00000000000E+00 -0.35721958602E+03  0.35721958602E+03  0.00000000000E+00 0.  1.
         25    1    1    2    0    0 -0.12660872092E+03 -0.63567183753E+02  0.92080845289E+02  0.21017715655E+03  0.12500000000E+03 0.  0.
         25    1    1    2    0    0 -0.14781577569E+03 -0.12051542021E+03 -0.20223696937E+02  0.22892677425E+03  0.12500000000E+03 0.  0.
         25    1    1    2    0    0  0.27442449661E+03  0.18408260397E+03  0.61603510868E+01  0.35335274069E+03  0.12500000000E+03 0.  0.
</event>
<event>
 5    0  0.5619558E-005  0.3647950E+03  0.7546771E-02  0.1056701E+00
         21   -1    0    0  502  501  0.00000000000E+00  0.00000000000E+00  0.16848232928E+03  0.16848232928E+03  0.00000000000E+00 0. -1.
         21   -1    0    0  501  502 -0.00000000000E+00 -0.00000000000E+00 -0.78984765799E+03  0.78984765799E+03  0.00000000000E+00 0. -1.
         25    1    1    2    0    0  0.10121086923E+02 -0.11772229677E+03 -0.24667724922E+03  0.30072519156E+03  0.12500000000E+03 0.  0.
         25    1    1    2    0    0  0.54625917393E+02  0.91947918310E+02 -0.46168826321E+03  0.49012188578E+03  0.12500000000E+03 0.  0.
         25    1    1    2    0    0 -0.64747004316E+02  0.25774378456E+02  0.87000183719E+02  0.16748290993E+03  0.12500000000E+03 0.  0.
</event>
<event>
 5    0  0.5619558E-005  0.4162572E+03  0.7546771E-02  0.1038291E+00
         21   -1    0    0  502  501  0.00000000000E+00  0.00000000000E+00  0.88795770577E+02  0.88795770577E+02  0.00000000000E+00 0.  1.
         21   -1    0    0  501  502 -0.00000000000E+00 -0.00000000000E+00 -0.19513318813E+04  0.19513318813E+04  0.00000000000E+00 0.  1.
         25    1    1    2    0    0 -0.11579443912E+03 -0.31999202643E+03 -0.83484802401E+03  0.91016453035E+03  0.12500000000E+03 0.  0.
         25    1    1    2    0    0  0.10215488795E+03  0.70515464038E+02 -0.53897040172E+03  0.56702922829E+03  0.12500000000E+03 0.  0.
         25    1    1    2    0    0  0.13639551173E+02  0.24947656240E+03 -0.48871768503E+03  0.56293389328E+03  0.12500000000E+03 0.  0.
</event>
<event>
 5    0  0.5619558E-005  0.2910889E+03  0.7546771E-02  0.1089782E+00
         21   -1    0    0  502  501  0.00000000000E+00  0.00000000000E+00  0.25809140351E+04  0.25809140351E+04  0.00000000000E+00 0. -1.
         21   -1    0    0  501  502 -0.00000000000E+00 -0.00000000000E+00 -0.32830517489E+02  0.32830517489E+02  0.00000000000E+00 0. -1.
         25    1    1    2    0    0  0.10215271636E+02  0.35515243789E+02  0.28972435960E+03  0.31769622104E+03  0.12500000000E+03 0.  0.
         25    1    1    2    0    0  0.15362267889E+03  0.22870842541E+02  0.11579170368E+04  0.11749552617E+04  0.12500000000E+03 0.  0.
         25    1    1    2    0    0 -0.16383795052E+03 -0.58386086330E+02  0.11004421211E+04  0.11210930698E+04  0.12500000000E+03 0.  0.
</event>
<event>
 5    0  0.5619558E-005  0.2818460E+03  0.7546771E-02  0.1094685E+00
         21   -1    0    0  502  501  0.00000000000E+00  0.00000000000E+00  0.76268771420E+03  0.76268771420E+03  0.00000000000E+00 0.  1.
         21   -1    0    0  501  502 -0.00000000000E+00 -0.00000000000E+00 -0.10415423762E+03  0.10415423762E+03  0.00000000000E+00 0.  1.
         25    1    1    2    0    0 -0.55541826361E+02  0.12136247333E+03  0.26573238686E+03  0.32257161350E+03  0.12500000000E+03 0.  0.
         25    1    1    2    0    0  0.95294956033E+02 -0.15016801629E+03  0.33203509602E+03  0.39686756828E+03  0.12500000000E+03 0.  0.
         25    1    1    2    0    0 -0.39753129672E+02  0.28805542959E+02  0.60765993689E+02  0.14740277003E+03  0.12500000000E+03 0.  0.
</event>
<event>
 5    0  0.5619558E-005  0.2560627E+03  0.7546771E-02  0.1109532E+00
         21   -1    0    0  502  501  0.00000000000E+00  0.00000000000E+00  0.35630369234E+03  0.35630369234E+03  0.00000000000E+00 0. -1.
         21   -1    0    0  501  502 -0.00000000000E+00 -0.00000000000E+00 -0.18402304797E+03  0.18402304797E+03  0.00000000000E+00 0. -1.
         25    1    1    2    0    0 -0.18410580896E+02  0.10535169744E+03  0.12793717349E+03  0.20840069578E+03  0.12500000000E+03 0.  0.
         25    1    1    2    0    0 -0.60328440488E+02 -0.11491946436E+03  0.13474913892E+02  0.18070024163E+03  0.12500000000E+03 0.  0.
         25    1    1    2    0    0  0.78739021384E+02  0.95677669175E+01  0.30868556991E+02  0.15122580290E+03  0.12500000000E+03 0.  0.
</event>
<event>
 5    0  0.5619558E-005  0.3172252E+03  0.7546771E-02  0.1076933E+00
         21   -1    0    0  502  501  0.00000000000E+00  0.00000000000E+00  0.18175817255E+04  0.18175817255E+04  0.00000000000E+00 0. -1.
         21   -1    0    0  501  502 -0.00000000000E+00 -0.00000000000E+00 -0.55365780592E+02  0.55365780592E+02  0.00000000000E+00 0. -1.
         25    1    1    2    0    0  0.10146383837E+03  0.56881601195E+02  0.37016137205E+03  0.40764551807E+03  0.12500000000E+03 0.  0.
         25    1    1    2    0    0  0.18597281019E+02  0.11150921441E+03  0.27603610055E+03  0.32342092165E+03  0.12500000000E+03 0.  0.
         25    1    1    2    0    0 -0.12006111939E+03 -0.16839081560E+03  0.11160184723E+04  0.11418810663E+04  0.12500000000E+03 0.  0.
</event>
<event>
 5    0  0.5619558E-005  0.3249965E+03  0.7546771E-02  0.1073372E+00
         21   -1    0    0  502  501  0.00000000000E+00  0.00000000000E+00  0.12599786560E+03  0.12599786560E+03  0.00000000000E+00 0.  1.
         21   -1    0    0  501  502 -0.00000000000E+00 -0.00000000000E+00 -0.83828964121E+03  0.83828964121E+03  0.00000000000E+00 0.  1.
         25    1    1    2    0    0 -0.93739096851E+01 -0.19826295024E+03 -0.26679315840E+03  0.35524591059E+03  0.12500000000E+03 0.  0.
         25    1    1    2    0    0  0.12378472109E+03  0.10833909542E+03 -0.31614903492E+03  0.37767079455E+03  0.12500000000E+03 0.  0.
         25    1    1    2    0    0 -0.11441081140E+03  0.89923854818E+02 -0.12934958228E+03  0.23137080167E+03  0.12500000000E+03 0.  0.
</event>
<event>
 5    0  0.5677321E-005  0.2998300E+03  0.7546771E-02  0.1085326E+00
         21   -1    0    0  502  501  0.00000000000E+00  0.00000000000E+00  0.57360912665E+03  0.57360912665E+03  0.00000000000E+00 0. -1.
         21   -1    0    0  501  502 -0.00000000000E+00 -0.00000000000E+00 -0.15672354160E+03  0.15672354160E+03  0.00000000000E+00 0. -1.
         25    1    1    2    0    0 -0.59343258164E+02  0.33683181668E+02 -0.45039152013E+02  0.14936433386E+03  0.12500000000E+03 0.  0.
         25    1    1    2    0    0  0.11884842039E+03  0.47916966664E+02  0.16554840353E+03  0.24382833436E+03  0.12500000000E+03 0.  0.
         25    1    1    2    0    0 -0.59505162225E+02 -0.81600148332E+02  0.29637633354E+03  0.33714000003E+03  0.12500000000E+03 0.  0.
</event>
<event>
 5    0  0.5619558E-005  0.2673946E+03  0.7546771E-02  0.1102780E+00
         21   -1    0    0  502  501  0.00000000000E+00  0.00000000000E+00  0.16749288173E+03  0.16749288173E+03  0.00000000000E+00 0. -1.
         21   -1    0    0  501  502 -0.00000000000E+00 -0.00000000000E+00 -0.42688301306E+03  0.42688301306E+03  0.00000000000E+00 0. -1.
         25    1    1    2    0    0 -0.15954845289E+02 -0.11998272997E+02 -0.16365385830E+03  0.20689635323E+03  0.12500000000E+03 0.  0.
         25    1    1    2    0    0  0.90124222653E+02  0.66816388930E+02  0.49202128066E+02  0.17502186933E+03  0.12500000000E+03 0.  0.
         25    1    1    2    0    0 -0.74169377364E+02 -0.54818115933E+02 -0.14493840110E+03  0.21245767222E+03  0.12500000000E+03 0.  0.
</event>
<event>
 5    0  0.5619558E-005  0.2768867E+03  0.7546771E-02  0.1097402E+00
         21   -1    0    0  502  501  0.00000000000E+00  0.00000000000E+00  0.24916328924E+03  0.24916328924E+03  0.00000000000E+00 0.  1.
         21   -1    0    0  501  502 -0.00000000000E+00 -0.00000000000E+00 -0.30769477791E+03  0.30769477791E+03  0.00000000000E+00 0.  1.
         25    1    1    2    0    0 -0.17550231994E+03 -0.74455600692E+02  0.10188232438E+02  0.22819618941E+03  0.12500000000E+03 0.  0.
         25    1    1    2    0    0  0.74626207387E+02  0.32809453679E+02 -0.46269457394E+00  0.14923386065E+03  0.12500000000E+03 0.  0.
         25    1    1    2    0    0  0.10087611255E+03  0.41646147013E+02 -0.68257026534E+02  0.17942801709E+03  0.12500000000E+03 0.  0.
</event>
<event>
 5    0  0.5619558E-005  0.2908390E+03  0.7546771E-02  0.1089912E+00
         21   -1    0    0  502  501  0.00000000000E+00  0.00000000000E+00  0.14642879306E+03  0.14642879306E+03  0.00000000000E+00 0.  1.
         21   -1    0    0  501  502 -0.00000000000E+00 -0.00000000000E+00 -0.57766847754E+03  0.57766847754E+03  0.00000000000E+00 0.  1.
         25    1    1    2    0    0  0.10375211075E+03 -0.12920965608E+02 -0.82955657834E+02  0.18286085695E+03  0.12500000000E+03 0.  0.
         25    1    1    2    0    0 -0.10331518103E+02 -0.12565049432E+03 -0.25954344851E+03  0.31445602022E+03  0.12500000000E+03 0.  0.
         25    1    1    2    0    0 -0.93420592645E+02  0.13857145993E+03 -0.88740578137E+02  0.22678039343E+03  0.12500000000E+03 0.  0.
</event>
<event>
 5    0  0.5619558E-005  0.4762947E+03  0.7546771E-02  0.1020158E+00
         21   -1    0    0  502  501  0.00000000000E+00  0.00000000000E+00  0.53599589549E+03  0.53599589549E+03  0.00000000000E+00 0. -1.
         21   -1    0    0  501  502 -0.00000000000E+00 -0.00000000000E+00 -0.42324330663E+03  0.42324330663E+03  0.00000000000E+00 0. -1.
         25    1    1    2    0    0  0.60774674382E+01  0.58557063538E+02 -0.27077658696E+03  0.30399148894E+03  0.12500000000E+03 0.  0.
         25    1    1    2    0    0 -0.76823417945E+02 -0.23531669213E+03  0.10757992421E+03  0.29744616863E+03  0.12500000000E+03 0.  0.
         25    1    1    2    0    0  0.70745950507E+02  0.17675962860E+03  0.27594925161E+03  0.35780154454E+03  0.12500000000E+03 0.  0.
</event>
<event>
 5    0  0.5619558E-005  0.2569669E+03  0.7546771E-02  0.1108979E+00
         21   -1    0    0  502  501  0.00000000000E+00  0.00000000000E+00  0.10523756176E+03  0.10523756176E+03  0.00000000000E+00 0.  1.
         21   -1    0    0  501  502 -0.00000000000E+00 -0.00000000000E+00 -0.62745640881E+03  0.62745640881E+03  0.00000000000E+00 0.  1.
         25    1    1    2    0    0  0.65514978058E+02 -0.28995308287E+02 -0.20087537579E+03  0.24720205673E+03  0.12500000000E+03 0.  0.
         25    1    1    2    0    0  0.95783807328E+02  0.15216946620E+02 -0.12089248387E+03  0.19911324885E+03  0.12500000000E+03 0.  0.
         25    1    1    2    0    0 -0.16129878539E+03  0.13778361667E+02 -0.20045098739E+03  0.28637866499E+03  0.12500000000E+03 0.  0.
</event>
<event>
 5    0  0.5619558E-005  0.5148377E+03  0.7546771E-02  0.1009977E+00
         21   -1    0    0  502  501  0.00000000000E+00  0.00000000000E+00  0.72288781676E+03  0.72288781676E+03  0.00000000000E+00 0.  1.
         21   -1    0    0  501  502 -0.00000000000E+00 -0.00000000000E+00 -0.36666528783E+03  0.36666528783E+03  0.00000000000E+00 0.  1.
         25    1    1    2    0    0  0.47436491904E+02  0.46129782170E+02 -0.32057446324E+03  0.35038716308E+03  0.12500000000E+03 0.  0.
         25    1    1    2    0    0  0.47489348005E+02 -0.39709545197E+02  0.29505526640E+03  0.32636589342E+03  0.12500000000E+03 0.  0.
         25    1    1    2    0    0 -0.94925839909E+02 -0.64202369732E+01  0.38174172576E+03  0.41280004810E+03  0.12500000000E+03 0.  0.
</event>
<event>
 5    0  0.5619558E-005  0.3215174E+03  0.7546771E-02  0.1074953E+00
         21   -1    0    0  502  501  0.00000000000E+00  0.00000000000E+00  0.11749423754E+04  0.11749423754E+04  0.00000000000E+00 0.  1.
         21   -1    0    0  501  502 -0.00000000000E+00 -0.00000000000E+00 -0.87981694512E+02  0.87981694512E+02  0.00000000000E+00 0.  1.
         25    1    1    2    0    0 -0.45266817369E+02 -0.46968697224E+02  0.16951744075E+03  0.22049105649E+03  0.12500000000E+03 0.  0.
         25    1    1    2    0    0  0.11147452657E+03  0.19300903866E+03  0.69786719925E+03  0.74318415407E+03  0.12500000000E+03 0.  0.
         25    1    1    2    0    0 -0.66207709201E+02 -0.14604034143E+03  0.21957604086E+03  0.29924885932E+03  0.12500000000E+03 0.  0.
</event>
<event>
 5    0  0.5619558E-005  0.5136790E+03  0.7546771E-02  0.1010269E+00
         21   -1    0    0  502  501  0.00000000000E+00  0.00000000000E+00  0.33006241197E+03  0.33006241197E+03  0.00000000000E+00 0.  1.
         21   -1    0    0  501  502 -0.00000000000E+00 -0.00000000000E+00 -0.79944306730E+03  0.79944306730E+03  0.00000000000E+00 0.  1.
         25    1    1    2    0    0 -0.59331725595E+02 -0.68048575328E+02  0.31771341728E+02  0.15743341583E+03  0.12500000000E+03 0.  0.
         25    1    1    2    0    0 -0.20518657007E+03 -0.25949727332E+03 -0.37428717313E+03  0.51493324944E+03  0.12500000000E+03 0.  0.
         25    1    1    2    0    0  0.26451829567E+03  0.32754584865E+03 -0.12686482392E+03  0.45713881400E+03  0.12500000000E+03 0.  0.
</event>
<event>
 5    0  0.5673663E-005  0.2764018E+03  0.7546771E-02  0.1097671E+00
         21   -1    0    0  502  501  0.00000000000E+00  0.00000000000E+00  0.14598357566E+03  0.14598357566E+03  0.00000000000E+00 0.  1.
         21   -1    0    0  501  502 -0.00000000000E+00 -0.00000000000E+00 -0.52333253905E+03  0.52333253905E+03  0.00000000000E+00 0.  1.
         25    1    1    2    0    0  0.47846984619E+02  0.40777003742E+02 -0.29321476038E+02  0.14295750043E+03  0.12500000000E+03 0.  0.
         25    1    1    2    0    0  0.69532768233E+02 -0.10473995648E+03 -0.64019810419E+02  0.18849084983E+03  0.12500000000E+03 0.  0.
         25    1    1    2    0    0 -0.11737975285E+03  0.63962952742E+02 -0.28400767693E+03  0.33786776446E+03  0.12500000000E+03 0.  0.
</event>
<event>
 5    0  0.5619558E-005  0.3239499E+03  0.7546771E-02  0.1073846E+00
         21   -1    0    0  502  501  0.00000000000E+00  0.00000000000E+00  0.19037211346E+03  0.19037211346E+03  0.00000000000E+00 0.  1.
         21   -1    0    0  501  502 -0.00000000000E+00 -0.00000000000E+00 -0.55125465234E+03  0.55125465234E+03  0.00000000000E+00 0.  1.
         25    1    1    2    0    0 -0.16990705542E+03  0.10757874716E+03 -0.20549833222E+03  0.31352218241E+03  0.12500000000E+03 0.  0.
         25    1    1    2    0    0  0.28737181831E+02  0.50987400245E+02 -0.22869361838E+01  0.13804264081E+03  0.12500000000E+03 0.  0.
         25    1    1    2    0    0  0.14116987359E+03 -0.15856614740E+03 -0.15309727047E+03  0.29006194259E+03  0.12500000000E+03 0.  0.
</event>
<event>
 5    0  0.5619558E-005  0.2726474E+03  0.7546771E-02  0.1099774E+00
         21   -1    0    0  502  501  0.00000000000E+00  0.00000000000E+00  0.14346029596E+03  0.14346029596E+03  0.00000000000E+00 0.  1.
         21   -1    0    0  501  502 -0.00000000000E+00 -0.00000000000E+00 -0.51816859373E+03  0.51816859373E+03  0.00000000000E+00 0.  1.
         25    1    1    2    0    0 -0.50522870298E+00 -0.64900716222E+01 -0.20022688598E+03  0.23613170510E+03  0.12500000000E+03 0.  0.
         25    1    1    2    0    0 -0.10496702819E+03 -0.99527816123E+02 -0.10793203959E+03  0.21954085807E+03  0.12500000000E+03 0.  0.
         25    1    1    2    0    0  0.10547225690E+03  0.10601788774E+03 -0.66549372199E+02  0.20595632653E+03  0.12500000000E+03 0.  0.
</event>
<event>
 5    0  0.5619558E-005  0.2799434E+03  0.7546771E-02  0.1095720E+00
         21   -1    0    0  502  501  0.00000000000E+00  0.00000000000E+00  0.22289705300E+03  0.22289705300E+03  0.00000000000E+00 0. -1.
         21   -1    0    0  501  502 -0.00000000000E+00 -0.00000000000E+00 -0.35158965378E+03  0.35158965378E+03  0.00000000000E+00 0. -1.
         25    1    1    2    0    0 -0.11191318384E+03  0.15628168566E+02 -0.70477242972E+02  0.18264950629E+03  0.12500000000E+03 0.  0.
         25    1    1    2    0    0  0.19702427760E+03 -0.30924197347E+02 -0.40139753037E+02  0.23876991377E+03  0.12500000000E+03 0.  0.
         25    1    1    2    0    0 -0.85111093760E+02  0.15296028781E+02 -0.18075604770E+02  0.15306728672E+03  0.12500000000E+03 0.  0.
</event>
<event>
 5    0  0.5619558E-005  0.3687548E+03  0.7546771E-02  0.1055170E+00
         21   -1    0    0  502  501  0.00000000000E+00  0.00000000000E+00  0.89861216233E+02  0.89861216233E+02  0.00000000000E+00 0. -1.
         21   -1    0    0  501  502 -0.00000000000E+00 -0.00000000000E+00 -0.15132238129E+04  0.15132238129E+04  0.00000000000E+00 0. -1.
         25    1    1    2    0    0 -0.17274843856E+03 -0.71576074891E+02 -0.51844780022E+03  0.56513562892E+03  0.12500000000E+03 0.  0.
         25    1    1    2    0    0 -0.66923716000E+02  0.88846640038E+01 -0.63551749669E+03  0.65120289435E+03  0.12500000000E+03 0.  0.
         25    1    1    2    0    0  0.23967215456E+03  0.62691410887E+02 -0.26939729973E+03  0.38674650583E+03  0.12500000000E+03 0.  0.
</event>
<event>
 5    0  0.5619558E-005  0.4729279E+03  0.7546771E-02  0.1021097E+00
         21   -1    0    0  502  501  0.00000000000E+00  0.00000000000E+00  0.11371035003E+04  0.11371035003E+04  0.00000000000E+00 0. -1.
         21   -1    0    0  501  502 -0.00000000000E+00 -0.00000000000E+00 -0.19669342587E+03  0.19669342587E+03  0.00000000000E+00 0. -1.
         25    1    1    2    0    0 -0.75541072778E+02  0.18307512080E+03  0.45059943977E+03  0.50782655371E+03  0.12500000000E+03 0.  0.
         25    1    1    2    0    0 -0.20217912112E+03 -0.18085891167E+03  0.41681429527E+03  0.51278211717E+03  0.12500000000E+03 0.  0.
         25    1    1    2    0    0  0.27772019390E+03 -0.22162091249E+01  0.72996339395E+02  0.31318825529E+03  0.12500000000E+03 0.  0.
</event>
<event>
 5    0  0.5619558E-005  0.2841526E+03  0.7546771E-02  0.1093442E+00
         21   -1    0    0  502  501  0.00000000000E+00  0.00000000000E+00  0.19320949997E+03  0.19320949997E+03  0.00000000000E+00 0. -1.
         21   -1    0    0  501  502 -0.00000000000E+00 -0.00000000000E+00 -0.41790235022E+03  0.41790235022E+03  0.00000000000E+00 0. -1.
         25    1    1    2    0    0 -0.41112373143E+02  0.64059145062E+02 -0.93709045505E+02  0.17378200857E+03  0.12500000000E+03 0.  0.
         25    1    1    2    0    0  0.19786089690E+02  0.64659893190E+02 -0.19876524934E+03  0.24434609774E+03  0.12500000000E+03 0.  0.
         25    1    1    2    0    0  0.21326283453E+02 -0.12871903825E+03  0.67781444603E+02  0.19298374389E+03  0.12500000000E+03 0.  0.
</event>
<event>
 5    0  0.5619558E-005  0.3336641E+03  0.7546771E-02  0.1069527E+00
         21   -1    0    0  502  501  0.00000000000E+00  0.00000000000E+00  0.14761672397E+03  0.14761672397E+03  0.00000000000E+00 0.  1.
         21   -1    0    0  501  502 -0.00000000000E+00 -0.00000000000E+00 -0.75419458059E+03  0.75419458059E+03  0.00000000000E+00 0.  1.
         25    1    1    2    0    0  0.95545974578E+02 -0.13235023920E+03 -0.25662516220E+03  0.32882684342E+03  0.12500000000E+03 0.  0.
         25    1    1    2    0    0 -0.10297142666E+03  0.83240419805E+01  0.19806080464E+02  0.16336978058E+03  0.12500000000E+03 0.  0.
         25    1    1    2    0    0  0.74254520790E+01  0.12402619722E+03 -0.36975877488E+03  0.40961468057E+03  0.12500000000E+03 0.  0.
</event>
<event>
 5    0  0.5742289E-005  0.3315394E+03  0.7546771E-02  0.1070458E+00
         21   -1    0    0  502  501  0.00000000000E+00  0.00000000000E+00  0.17246797361E+03  0.17246797361E+03  0.00000000000E+00 0.  1.
         21   -1    0    0  501  502 -0.00000000000E+00 -0.00000000000E+00 -0.63732623086E+03  0.63732623086E+03  0.00000000000E+00 0.  1.
         25    1    1    2    0    0 -0.38633673495E+02 -0.11212315423E+03 -0.10985942921E+03  0.20434837075E+03  0.12500000000E+03 0.  0.
         25    1    1    2    0    0  0.81796370445E+01 -0.43880059910E+02 -0.37923077871E+03  0.40178769225E+03  0.12500000000E+03 0.  0.
         25    1    1    2    0    0  0.30454036451E+02  0.15600321414E+03  0.24231950669E+02  0.20365814148E+03  0.12500000000E+03 0.  0.
</event>
<event>
 5    0  0.5619558E-005  0.2875235E+03  0.7546771E-02  0.1091649E+00
         21   -1    0    0  502  501  0.00000000000E+00  0.00000000000E+00  0.40287187559E+03  0.40287187559E+03  0.00000000000E+00 0. -1.
         21   -1    0    0  501  502 -0.00000000000E+00 -0.00000000000E+00 -0.20520117600E+03  0.20520117600E+03  0.00000000000E+00 0. -1.
         25    1    1    2    0    0  0.94150065174E+02 -0.10000648981E+03  0.18106309030E+03  0.25937304302E+03  0.12500000000E+03 0.  0.
         25    1    1    2    0    0 -0.12113142428E+03 -0.13709061013E+02  0.29551391553E+02  0.17708485267E+03  0.12500000000E+03 0.  0.
         25    1    1    2    0    0  0.26981359103E+02  0.11371555082E+03 -0.12943782268E+02  0.17161515591E+03  0.12500000000E+03 0.  0.
</event>
<event>
 5    0  0.5619558E-005  0.2279071E+03  0.7546771E-02  0.1128122E+00
         21   -1    0    0  502  501  0.00000000000E+00  0.00000000000E+00  0.28067674560E+03  0.28067674560E+03  0.00000000000E+00 0.  1.
         21   -1    0    0  501  502 -0.00000000000E+00 -0.00000000000E+00 -0.18505858397E+03  0.18505858397E+03  0.00000000000E+00 0.  1.
         25    1    1    2    0    0  0.10818299960E+03  0.28835837457E+02  0.22060587476E+02  0.16925346804E+03  0.12500000000E+03 0.  0.
         25    1    1    2    0    0 -0.67843457480E+02  0.51485105370E+00  0.77237093892E+02  0.16184427227E+03  0.12500000000E+03 0.  0.
         25    1    1    2    0    0 -0.40339542116E+02 -0.29350688510E+02 -0.36795197351E+01  0.13463758925E+03  0.12500000000E+03 0.  0.
</event>
<event>
 5    0  0.5619558E-005  0.2708766E+03  0.7546771E-02  0.1100779E+00
         21   -1    0    0  502  501  0.00000000000E+00  0.00000000000E+00  0.44749111679E+02  0.44749111679E+02  0.00000000000E+00 0. -1.
         21   -1    0    0  501  502 -0.00000000000E+00 -0.00000000000E+00 -0.16396784622E+04  0.16396784622E+04  0.00000000000E+00 0. -1.
         25    1    1    2    0    0 -0.74594526769E+02 -0.16838882756E+02 -0.87619415529E+03  0.88836315162E+03  0.12500000000E+03 0.  0.
         25    1    1    2    0    0  0.84106234745E+02 -0.83235859808E+02 -0.27717946948E+03  0.32627522949E+03  0.12500000000E+03 0.  0.
         25    1    1    2    0    0 -0.95117079763E+01  0.10007474256E+03 -0.44155572571E+03  0.46978919272E+03  0.12500000000E+03 0.  0.
</event>
<event>
 5    0  0.5619558E-005  0.3790284E+03  0.7546771E-02  0.1051293E+00
         21   -1    0    0  502  501  0.00000000000E+00  0.00000000000E+00  0.49283612022E+03  0.49283612022E+03  0.00000000000E+00 0. -1.
         21   -1    0    0  501  502 -0.00000000000E+00 -0.00000000000E+00 -0.29150166782E+03  0.29150166782E+03  0.00000000000E+00 0. -1.
         25    1    1    2    0    0  0.71459652129E+02  0.24340030205E+03 -0.12657457188E+01  0.28280168146E+03  0.12500000000E+03 0.  0.
         25    1    1    2    0    0 -0.67265598442E+02 -0.24046946406E+03  0.19689188310E+02  0.27993372076E+03  0.12500000000E+03 0.  0.
         25    1    1    2    0    0 -0.41940536872E+01 -0.29308379882E+01  0.18291100980E+03  0.22160238583E+03  0.12500000000E+03 0.  0.
</event>
<event>
 5    0  0.5619558E-005  0.2464517E+03  0.7546771E-02  0.1115568E+00
         21   -1    0    0  502  501  0.00000000000E+00  0.00000000000E+00  0.56062589396E+02  0.56062589396E+02  0.00000000000E+00 0.  1.
         21   -1    0    0  501  502 -0.00000000000E+00 -0.00000000000E+00 -0.10834038376E+04  0.10834038376E+04  0.00000000000E+00 0.  1.
         25    1    1    2    0    0  0.88890277439E+02  0.10422191519E+03 -0.51134915183E+03  0.54393625004E+03  0.12500000000E+03 0.  0.
         25    1    1    2    0    0 -0.35574902792E+02 -0.76188402644E+01 -0.21070058072E+03  0.24767590749E+03  0.12500000000E+03 0.  0.
         25    1    1    2    0    0 -0.53315374646E+02 -0.96603074922E+02 -0.30529151569E+03  0.34785426950E+03  0.12500000000E+03 0.  0.
</event>
<event>
 5    0  0.5619558E-005  0.2750231E+03  0.7546771E-02  0.1098439E+00
         21   -1    0    0  502  501  0.00000000000E+00  0.00000000000E+00  0.62675658550E+03  0.62675658550E+03  0.00000000000E+00 0. -1.
         21   -1    0    0  501  502 -0.00000000000E+00 -0.00000000000E+00 -0.12068114881E+03  0.12068114881E+03  0.00000000000E+00 0. -1.
         25    1    1    2    0    0 -0.11354799223E+03  0.87169656322E+02  0.23018079917E+03  0.29849605664E+03  0.12500000000E+03 0.  0.
         25    1    1    2    0    0  0.59322009770E+02  0.30212882068E+02  0.21808409223E+03  0.26003382543E+03  0.12500000000E+03 0.  0.
         25    1    1    2    0    0  0.54225982459E+02 -0.11738253839E+03  0.57810545285E+02  0.18890785224E+03  0.12500000000E+03 0.  0.
</event>
<event>
 5    0  0.5619558E-005  0.3327204E+03  0.7546771E-02  0.1069939E+00
         21   -1    0    0  502  501  0.00000000000E+00  0.00000000000E+00  0.68519415573E+03  0.68519415573E+03  0.00000000000E+00 0. -1.
         21   -1    0    0  501  502 -0.00000000000E+00 -0.00000000000E+00 -0.16156419009E+03  0.16156419009E+03  0.00000000000E+00 0. -1.
         25    1    1    2    0    0  0.60988998367E+02  0.31296608151E+02  0.31915222086E+01  0.14259846219E+03  0.12500000000E+03 0.  0.
         25    1    1    2    0    0  0.17429618770E+02 -0.20739228263E+03  0.23669530511E+03  0.33906491704E+03  0.12500000000E+03 0.  0.
         25    1    1    2    0    0 -0.78418617138E+02  0.17609567448E+03  0.28374313833E+03  0.36509496659E+03  0.12500000000E+03 0.  0.
</event>
<event>
 5    0  0.5619558E-005  0.4193471E+03  0.7546771E-02  0.1037279E+00
         21   -1    0    0  502  501  0.00000000000E+00  0.00000000000E+00  0.38812301086E+03  0.38812301086E+03  0.00000000000E+00 0.  1.
         21   -1    0    0  501  502 -0.00000000000E+00 -0.00000000000E+00 -0.45308322929E+03  0.45308322929E+03  0.00000000000E+00 0.  1.
         25    1    1    2    0    0 -0.41151242851E+02 -0.75430131960E+02  0.13447333755E+03  0.20270966456E+03  0.12500000000E+03 0.  0.
         25    1    1    2    0    0  0.14524782844E+03  0.19534262337E+03  0.87719988174E+02  0.28735947608E+03  0.12500000000E+03 0.  0.
         25    1    1    2    0    0 -0.10409658559E+03 -0.11991249141E+03 -0.28715354415E+03  0.35113709950E+03  0.12500000000E+03 0.  0.
</event>
<event>
 5    0  0.5619558E-005  0.2829860E+03  0.7546771E-02  0.1094069E+00
         21   -1    0    0  502  501  0.00000000000E+00  0.00000000000E+00  0.17623782458E+03  0.17623782458E+03  0.00000000000E+00 0.  1.
         21   -1    0    0  501  502 -0.00000000000E+00 -0.00000000000E+00 -0.45439203632E+03  0.45439203632E+03  0.00000000000E+00 0.  1.
         25    1    1    2    0    0  0.72685525756E+02 -0.11547405921E+03 -0.71087279688E+02  0.19823179699E+03  0.12500000000E+03 0.  0.
         25    1    1    2    0    0 -0.72965010724E+01  0.17762431112E+03 -0.76539495508E+02  0.23040600947E+03  0.12500000000E+03 0.  0.
         25    1    1    2    0    0 -0.65389024683E+02 -0.62150251917E+02 -0.13052743654E+03  0.20199205443E+03  0.12500000000E+03 0.  0.
</event>
<event>
 5    0  0.5619558E-005  0.2355985E+03  0.7546771E-02  0.1122760E+00
         21   -1    0    0  502  501  0.00000000000E+00  0.00000000000E+00  0.62211311035E+03  0.62211311035E+03  0.00000000000E+00 0. -1.
         21   -1    0    0  501  502 -0.00000000000E+00 -0.00000000000E+00 -0.89222753261E+02  0.89222753261E+02  0.00000000000E+00 0.  1.
         25    1    1    2    0    0 -0.74621449903E+02 -0.56257213443E+02  0.22460339206E+03  0.27350487852E+03  0.12500000000E+03 0.  0.
         25    1    1    2    0    0  0.43522648013E+00  0.30480740182E+02  0.45600421289E+02  0.13650517707E+03  0.12500000000E+03 0.  0.
         25    1    1    2    0    0  0.74186223422E+02  0.25776473261E+02  0.26268654374E+03  0.30132580802E+03  0.12500000000E+03 0.  0.
</event>
<event>
 5    0  0.5619558E-005  0.4415227E+03  0.7546771E-02  0.1030281E+00
         21   -1    0    0  502  501  0.00000000000E+00  0.00000000000E+00  0.54927063584E+03  0.54927063584E+03  0.00000000000E+00 0.  1.
         21   -1    0    0  501  502 -0.00000000000E+00 -0.00000000000E+00 -0.35491123730E+03  0.35491123730E+03  0.00000000000E+00 0.  1.
         25    1    1    2    0    0 -0.13104924529E+03 -0.34447376698E+03 -0.26930304404E+02  0.39011065369E+03  0.12500000000E+03 0.  0.
         25    1    1    2    0    0  0.11467311973E+03  0.16692905717E+03  0.67143316041E+02  0.24728214534E+03  0.12500000000E+03 0.  0.
         25    1    1    2    0    0  0.16376125564E+02  0.17754470980E+03  0.15414638691E+03  0.26678907411E+03  0.12500000000E+03 0.  0.
</event>
<event>
 5    0  0.5619558E-005  0.3667331E+03  0.7546771E-02  0.1055949E+00
         21   -1    0    0  502  501  0.00000000000E+00  0.00000000000E+00  0.11376769352E+03  0.11376769352E+03  0.00000000000E+00 0. -1.
         21   -1    0    0  501  502 -0.00000000000E+00 -0.00000000000E+00 -0.11821734661E+04  0.11821734661E+04  0.00000000000E+00 0. -1.
         25    1    1    2    0    0 -0.15604059985E+03 -0.22962619331E+03 -0.32410068558E+03  0.44468315894E+03  0.12500000000E+03 0.  0.
         25    1    1    2    0    0  0.53531042382E+02  0.23647070552E+02 -0.16221296273E+03  0.21298544955E+03  0.12500000000E+03 0.  0.
         25    1    1    2    0    0  0.10250955746E+03  0.20597912276E+03 -0.58209212424E+03  0.63827255110E+03  0.12500000000E+03 0.  0.
</event>
<event>
 5    0  0.5619558E-005  0.3427194E+03  0.7546771E-02  0.1065644E+00
         21   -1    0    0  502  501  0.00000000000E+00  0.00000000000E+00  0.62283199397E+03  0.62283199397E+03  0.00000000000E+00 0. -1.
         21   -1    0    0  501  502 -0.00000000000E+00 -0.00000000000E+00 -0.18858471131E+03  0.18858471131E+03  0.00000000000E+00 0. -1.
         25    1    1    2    0    0  0.61841907708E+02 -0.22367398988E+03  0.20677474648E+03  0.33501532962E+03  0.12500000000E+03 0.  0.
         25    1    1    2    0    0 -0.13855122032E+03  0.19214769467E+03  0.13222146769E+03  0.29870502798E+03  0.12500000000E+03 0.  0.
         25    1    1    2    0    0  0.76709312613E+02  0.31526295208E+02  0.95251068488E+02  0.17769634768E+03  0.12500000000E+03 0.  0.
</event>
<event>
 5    0  0.5619558E-005  0.2495560E+03  0.7546771E-02  0.1113586E+00
         21   -1    0    0  502  501  0.00000000000E+00  0.00000000000E+00  0.16179749649E+03  0.16179749649E+03  0.00000000000E+00 0. -1.
         21   -1    0    0  501  502 -0.00000000000E+00 -0.00000000000E+00 -0.38491459956E+03  0.38491459956E+03  0.00000000000E+00 0. -1.
         25    1    1    2    0    0 -0.58484687001E+02  0.77733432502E+02  0.28466295463E+02  0.16092941036E+03  0.12500000000E+03 0.  0.
         25    1    1    2    0    0  0.72310232220E+02 -0.38459399596E+02 -0.18603683717E+03  0.23862648613E+03  0.12500000000E+03 0.  0.
         25    1    1    2    0    0 -0.13825545219E+02 -0.39274032906E+02 -0.65546561368E+02  0.14715619956E+03  0.12500000000E+03 0.  0.
</event>
<event>
 5    0  0.5619558E-005  0.2306074E+03  0.7546771E-02  0.1126213E+00
         21   -1    0    0  502  501  0.00000000000E+00  0.00000000000E+00  0.28030356951E+03  0.28030356951E+03  0.00000000000E+00 0. -1.
         21   -1    0    0  501  502 -0.00000000000E+00 -0.00000000000E+00 -0.18972209393E+03  0.18972209393E+03  0.00000000000E+00 0. -1.
         25    1    1    2    0    0  0.56700707129E+00 -0.11614059933E+03 -0.11003704430E+02  0.17098257754E+03  0.12500000000E+03 0.  0.
         25    1    1    2    0    0 -0.10988308628E+02  0.81832557778E+02  0.69268505033E+02  0.16504676982E+03  0.12500000000E+03 0.  0.
         25    1    1    2    0    0  0.10421301557E+02  0.34308041554E+02  0.32316674973E+02  0.13399631608E+03  0.12500000000E+03 0.  0.
</event>
<event>
 5    0  0.5619558E-005  0.2665575E+03  0.7546771E-02  0.1103266E+00
         21   -1    0    0  502  501  0.00000000000E+00  0.00000000000E+00  0.65961942093E+02  0.65961942093E+02  0.00000000000E+00 0.  1.
         21   -1    0    0  501  502 -0.00000000000E+00 -0.00000000000E+00 -0.10771799622E+04  0.10771799622E+04  0.00000000000E+00 0.  1.
         25    1    1    2    0    0 -0.32963601966E+02  0.16320730262E+02 -0.49276136597E+03  0.50969768401E+03  0.12500000000E+03 0.  0.
         25    1    1    2    0    0 -0.30936337720E+02  0.16419517692E+02 -0.43210692811E+02  0.13681674432E+03  0.12500000000E+03 0.  0.
         25    1    1    2    0    0  0.63899939687E+02 -0.32740247954E+02 -0.47524596132E+03  0.49662747596E+03  0.12500000000E+03 0.  0.
</event>
<event>
 5    0  0.5619558E-005  0.2798306E+03  0.7546771E-02  0.1095781E+00
         21   -1    0    0  502  501  0.00000000000E+00  0.00000000000E+00  0.83124707123E+03  0.83124707123E+03  0.00000000000E+00 0.  1.
         21   -1    0    0  501  502 -0.00000000000E+00 -0.00000000000E+00 -0.94202051324E+02  0.94202051324E+02  0.00000000000E+00 0.  1.
         25    1    1    2    0    0  0.11984603609E+03 -0.97544936214E+02  0.20359671091E+03  0.28452540773E+03  0.12500000000E+03 0.  0.
         25    1    1    2    0    0 -0.13923517573E+03  0.18747784272E+02  0.39513113324E+03  0.43759744746E+03  0.12500000000E+03 0.  0.
         25    1    1    2    0    0  0.19389139639E+02  0.78797151942E+02  0.13831717576E+03  0.20332626736E+03  0.12500000000E+03 0.  0.
</event>
<event>
 5    0  0.5619558E-005  0.2609268E+03  0.7546771E-02  0.1106588E+00
         21   -1    0    0  502  501  0.00000000000E+00  0.00000000000E+00  0.67949563995E+02  0.67949563995E+02  0.00000000000E+00 0.  1.
         21   -1    0    0  501  502 -0.00000000000E+00 -0.00000000000E+00 -0.10019605311E+04  0.10019605311E+04  0.00000000000E+00 0.  1.
         25    1    1    2    0    0 -0.10655362409E+03  0.94647824958E+02 -0.37266744660E+03  0.41811231903E+03  0.12500000000E+03 0.  0.
         25    1    1    2    0    0  0.79501057947E+02  0.76496007333E+01 -0.37743391571E+03  0.40553704558E+03  0.12500000000E+03 0.  0.
         25    1    1    2    0    0  0.27052566138E+02 -0.10229742569E+03 -0.18390960477E+03  0.24626073045E+03  0.12500000000E+03 0.  0.
</event>
<event>
 5    0  0.5619558E-005  0.2472740E+03  0.7546771E-02  0.1115040E+00
         21   -1    0    0  502  501  0.00000000000E+00  0.00000000000E+00  0.22691033335E+03  0.22691033335E+03  0.00000000000E+00 0.  1.
         21   -1    0    0  501  502 -0.00000000000E+00 -0.00000000000E+00 -0.26946526426E+03  0.26946526426E+03  0.00000000000E+00 0.  1.
         25    1    1    2    0    0 -0.90272208668E+02  0.10753601094E+03 -0.41015557688E+02  0.19240670799E+03  0.12500000000E+03 0.  0.
         25    1    1    2    0    0  0.33113551532E+02 -0.39013725413E+01 -0.19745131677E+02  0.13086862965E+03  0.12500000000E+03 0.  0.
         25    1    1    2    0    0  0.57158657136E+02 -0.10363463840E+03  0.18205758453E+02  0.17310025997E+03  0.12500000000E+03 0.  0.
</event>
<event>
 5    0  0.5619558E-005  0.4704339E+03  0.7546771E-02  0.1021798E+00
         21   -1    0    0  502  501  0.00000000000E+00  0.00000000000E+00  0.24360489856E+03  0.24360489856E+03  0.00000000000E+00 0. -1.
         21   -1    0    0  501  502 -0.00000000000E+00 -0.00000000000E+00 -0.90847130625E+03  0.90847130625E+03  0.00000000000E+00 0. -1.
         25    1    1    2    0    0  0.29314467223E+03  0.14338797708E+03 -0.48350931461E+02  0.35278424483E+03  0.12500000000E+03 0.  0.
         25    1    1    2    0    0 -0.27363037193E+02 -0.13039582389E+03 -0.10890596915E+03  0.21269065990E+03  0.12500000000E+03 0.  0.
         25    1    1    2    0    0 -0.26578163504E+03 -0.12992153194E+02 -0.50760950708E+03  0.58660130007E+03  0.12500000000E+03 0.  0.
</event>
<event>
 5    0  0.5619558E-005  0.2991411E+03  0.7546771E-02  0.1085671E+00
         21   -1    0    0  502  501  0.00000000000E+00  0.00000000000E+00  0.11111228485E+04  0.11111228485E+04  0.00000000000E+00 0. -1.
         21   -1    0    0  501  502 -0.00000000000E+00 -0.00000000000E+00 -0.80536019463E+02  0.80536019463E+02  0.00000000000E+00 0. -1.
         25    1    1    2    0    0  0.56909409903E+02  0.10118020916E+03  0.64071618057E+03  0.66303720838E+03  0.12500000000E+03 0.  0.
         25    1    1    2    0    0  0.47054962729E+01 -0.15107802498E+03  0.28983091066E+03  0.34996238098E+03  0.12500000000E+03 0.  0.
         25    1    1    2    0    0 -0.61614906176E+02  0.49897815816E+02  0.10003973780E+03  0.17865927858E+03  0.12500000000E+03 0.  0.
</event>
<event>
 5    0  0.5619558E-005  0.2798628E+03  0.7546771E-02  0.1095764E+00
         21   -1    0    0  502  501  0.00000000000E+00  0.00000000000E+00  0.97377411603E+03  0.97377411603E+03  0.00000000000E+00 0.  1.
         21   -1    0    0  501  502 -0.00000000000E+00 -0.00000000000E+00 -0.80432583595E+02  0.80432583595E+02  0.00000000000E+00 0.  1.
         25    1    1    2    0    0  0.49136211506E+02 -0.21061887061E+01  0.23384342697E+03  0.26967860806E+03  0.12500000000E+03 0.  0.
         25    1    1    2    0    0 -0.18226474572E+03  0.58499831413E+02  0.41921730699E+03  0.47750478353E+03  0.12500000000E+03 0.  0.
         25    1    1    2    0    0  0.13312853422E+03 -0.56393642707E+02  0.24028079848E+03  0.30702330804E+03  0.12500000000E+03 0.  0.
</event>
<event>
 5    0  0.5619558E-005  0.2504314E+03  0.7546771E-02  0.1113032E+00
         21   -1    0    0  502  501  0.00000000000E+00  0.00000000000E+00  0.11975622492E+04  0.11975622492E+04  0.00000000000E+00 0. -1.
         21   -1    0    0  501  502 -0.00000000000E+00 -0.00000000000E+00 -0.52369634387E+02  0.52369634387E+02  0.00000000000E+00 0. -1.
         25    1    1    2    0    0  0.54660622764E+02  0.99709689404E+02  0.52879891965E+03  0.55514241710E+03  0.12500000000E+03 0.  0.
         25    1    1    2    0    0  0.36493315291E+02 -0.50764261544E+02  0.17155536233E+03  0.22128039826E+03  0.12500000000E+03 0.  0.
         25    1    1    2    0    0 -0.91153938054E+02 -0.48945427860E+02  0.44483833279E+03  0.47350906818E+03  0.12500000000E+03 0.  0.
</event>
<event>
 5    0  0.5619558E-005  0.2065446E+03  0.7546771E-02  0.1144332E+00
         21   -1    0    0  502  501  0.00000000000E+00  0.00000000000E+00  0.99397422521E+02  0.99397422521E+02  0.00000000000E+00 0.  1.
         21   -1    0    0  501  502 -0.00000000000E+00 -0.00000000000E+00 -0.42919309075E+03  0.42919309075E+03  0.00000000000E+00 0.  1.
         25    1    1    2    0    0 -0.33265448432E+02  0.34101394939E+02 -0.20176644434E+03  0.24208302968E+03  0.12500000000E+03 0.  0.
         25    1    1    2    0    0  0.18447427128E+02 -0.62915792549E+01 -0.51494348956E+02  0.13658901680E+03  0.12500000000E+03 0.  0.
         25    1    1    2    0    0  0.14818021303E+02 -0.27809815684E+02 -0.76534874934E+02  0.14991846679E+03  0.12500000000E+03 0.  0.
</event>
<event>
 5    0  0.5619558E-005  0.2376193E+03  0.7546771E-02  0.1121389E+00
         21   -1    0    0  502  501  0.00000000000E+00  0.00000000000E+00  0.19573319596E+03  0.19573319596E+03  0.00000000000E+00 0.  1.
         21   -1    0    0  501  502 -0.00000000000E+00 -0.00000000000E+00 -0.28846884864E+03  0.28846884864E+03  0.00000000000E+00 0.  1.
         25    1    1    2    0    0  0.80157422182E+02  0.18407933355E+02  0.53519315988E+02  0.15891312572E+03  0.12500000000E+03 0.  0.
         25    1    1    2    0    0 -0.63924853065E+02 -0.31558339987E+02 -0.18068635354E+02  0.14503031147E+03  0.12500000000E+03 0.  0.
         25    1    1    2    0    0 -0.16232569117E+02  0.13150406632E+02 -0.12818633332E+03  0.18025860740E+03  0.12500000000E+03 0.  0.
</event>
<event>
 5    0  0.5619558E-005  0.2992756E+03  0.7546771E-02  0.1085603E+00
         21   -1    0    0  502  501  0.00000000000E+00  0.00000000000E+00  0.22300294871E+04  0.22300294871E+04  0.00000000000E+00 0.  1.
         21   -1    0    0  501  502 -0.00000000000E+00 -0.00000000000E+00 -0.40163552133E+02  0.40163552133E+02  0.00000000000E+00 0.  1.
         25    1    1    2    0    0 -0.69589681510E+02 -0.56057059489E+02  0.72014330595E+03  0.73635351483E+03  0.12500000000E+03 0.  0.
         25    1    1    2    0    0  0.63647898691E+02  0.14359433722E+03  0.34781473328E+03  0.40158495661E+03  0.12500000000E+03 0.  0.
         25    1    1    2    0    0  0.59417828197E+01 -0.87537277735E+02  0.11219078957E+04  0.11322545678E+04  0.12500000000E+03 0.  0.
</event>
<event>
 5    0  0.5619558E-005  0.2912306E+03  0.7546771E-02  0.1089708E+00
         21   -1    0    0  502  501  0.00000000000E+00  0.00000000000E+00  0.82963526886E+02  0.82963526886E+02  0.00000000000E+00 0. -1.
         21   -1    0    0  501  502 -0.00000000000E+00 -0.00000000000E+00 -0.10223197738E+04  0.10223197738E+04  0.00000000000E+00 0. -1.
         25    1    1    2    0    0  0.68896091735E+02 -0.28685812406E+00 -0.54712305667E+03  0.56543380946E+03  0.12500000000E+03 0.  0.
         25    1    1    2    0    0 -0.12444832017E+03  0.67945437314E+02 -0.10920227053E+03  0.21829819682E+03  0.12500000000E+03 0.  0.
         25    1    1    2    0    0  0.55552228430E+02 -0.67658579190E+02 -0.28303091970E+03  0.32155129440E+03  0.12500000000E+03 0.  0.
</event>
<event>
 5    0  0.5619558E-005  0.2684428E+03  0.7546771E-02  0.1102174E+00
         21   -1    0    0  502  501  0.00000000000E+00  0.00000000000E+00  0.19516802261E+03  0.19516802261E+03  0.00000000000E+00 0.  1.
         21   -1    0    0  501  502 -0.00000000000E+00 -0.00000000000E+00 -0.36922817197E+03  0.36922817197E+03  0.00000000000E+00 0.  1.
         25    1    1    2    0    0 -0.11682666360E+03  0.41424707981E+01 -0.80119079473E+02  0.18897009364E+03  0.12500000000E+03 0.  0.
         25    1    1    2    0    0 -0.43676851914E+02  0.59531587304E+02 -0.69199247665E+02  0.16082665562E+03  0.12500000000E+03 0.  0.
         25    1    1    2    0    0  0.16050351552E+03 -0.63674058103E+02 -0.24741822222E+02  0.21459944533E+03  0.12500000000E+03 0.  0.
</event>
<event>
 5    0  0.5619558E-005  0.3598744E+03  0.7546771E-02  0.1058634E+00
         21   -1    0    0  502  501  0.00000000000E+00  0.00000000000E+00  0.94425006010E+03  0.94425006010E+03  0.00000000000E+00 0. -1.
         21   -1    0    0  501  502 -0.00000000000E+00 -0.00000000000E+00 -0.13715599007E+03  0.13715599007E+03  0.00000000000E+00 0. -1.
         25    1    1    2    0    0 -0.13659297571E+03 -0.26625658305E+02  0.66591887960E+02  0.19855993109E+03  0.12500000000E+03 0.  0.
         25    1    1    2    0    0  0.99002720665E+02  0.19456550507E+03  0.51324012689E+03  0.57157475654E+03  0.12500000000E+03 0.  0.
         25    1    1    2    0    0  0.37590255046E+02 -0.16793984677E+03  0.22726205518E+03  0.31127136253E+03  0.12500000000E+03 0.  0.
</event>
<event>
 5    0  0.5619558E-005  0.2598831E+03  0.7546771E-02  0.1107213E+00
         21   -1    0    0  502  501  0.00000000000E+00  0.00000000000E+00  0.67877837389E+02  0.67877837389E+02  0.00000000000E+00 0.  1.
         21   -1    0    0  501  502 -0.00000000000E+00 -0.00000000000E+00 -0.99501137345E+03  0.99501137345E+03  0.00000000000E+00 0.  1.
         25    1    1    2    0    0  0.10498807625E+03 -0.12146735470E+02 -0.55366800480E+03  0.57735889953E+03  0.12500000000E+03 0.  0.
         25    1    1    2    0    0 -0.46225068144E+02 -0.68736046673E+02 -0.17100215785E+03  0.22743820925E+03  0.12500000000E+03 0.  0.
         25    1    1    2    0    0 -0.58763008104E+02  0.80882782143E+02 -0.20246337341E+03  0.25809210205E+03  0.12500000000E+03 0.  0.
</event>
<event>
 5    0  0.5630999E-005  0.3023152E+03  0.7546771E-02  0.1084089E+00
         21   -1    0    0  502  501  0.00000000000E+00  0.00000000000E+00  0.42655120185E+03  0.42655120185E+03  0.00000000000E+00 0. -1.
         21   -1    0    0  501  502 -0.00000000000E+00 -0.00000000000E+00 -0.21426373252E+03  0.21426373252E+03  0.00000000000E+00 0. -1.
         25    1    1    2    0    0  0.52301605955E+02  0.67164484488E+02  0.40106884471E+02  0.15646113940E+03  0.12500000000E+03 0.  0.
         25    1    1    2    0    0  0.13928224342E+03 -0.95312444965E+01 -0.79210016876E+01  0.18755833818E+03  0.12500000000E+03 0.  0.
         25    1    1    2    0    0 -0.19158384937E+03 -0.57633239991E+02  0.18010158655E+03  0.29679545679E+03  0.12500000000E+03 0.  0.
</event>
<event>
 5    0  0.5619558E-005  0.2613478E+03  0.7546771E-02  0.1106336E+00
         21   -1    0    0  502  501  0.00000000000E+00  0.00000000000E+00  0.77785296692E+03  0.77785296692E+03  0.00000000000E+00 0.  1.
         21   -1    0    0  501  502 -0.00000000000E+00 -0.00000000000E+00 -0.87809247090E+02  0.87809247090E+02  0.00000000000E+00 0.  1.
         25    1    1    2    0    0 -0.65504203314E+02  0.12330291527E+03  0.27318545034E+03  0.33128492245E+03  0.12500000000E+03 0.  0.
         25    1    1    2    0    0  0.76804806476E+02 -0.96446555127E+01  0.10899437891E+03  0.18302123459E+03  0.12500000000E+03 0.  0.
         25    1    1    2    0    0 -0.11300603162E+02 -0.11365825976E+03  0.30786389058E+03  0.35135605696E+03  0.12500000000E+03 0.  0.
</event>
<event>
 5    0  0.5619558E-005  0.2556130E+03  0.7546771E-02  0.1109808E+00
         21   -1    0    0  502  501  0.00000000000E+00  0.00000000000E+00  0.13581604847E+03  0.13581604847E+03  0.00000000000E+00 0.  1.
         21   -1    0    0  501  502 -0.00000000000E+00 -0.00000000000E+00 -0.48107730413E+03  0.48107730413E+03  0.00000000000E+00 0.  1.
         25    1    1    2    0    0 -0.89167509208E+02 -0.28668786072E+02 -0.92826785157E+02  0.18169908100E+03  0.12500000000E+03 0.  0.
         25    1    1    2    0    0  0.11298836089E+03 -0.80180515386E+02 -0.12213462409E+03  0.22301827536E+03  0.12500000000E+03 0.  0.
         25    1    1    2    0    0 -0.23820851684E+02  0.10884930146E+03 -0.13029984642E+03  0.21217599624E+03  0.12500000000E+03 0.  0.
</event>
<event>
 5    0  0.5619558E-005  0.2660652E+03  0.7546771E-02  0.1103553E+00
         21   -1    0    0  502  501  0.00000000000E+00  0.00000000000E+00  0.16373231011E+03  0.16373231011E+03  0.00000000000E+00 0.  1.
         21   -1    0    0  501  502 -0.00000000000E+00 -0.00000000000E+00 -0.43235613042E+03  0.43235613042E+03  0.00000000000E+00 0.  1.
         25    1    1    2    0    0  0.11712603279E+03  0.11012394309E+03 -0.83707721564E+02  0.22017668598E+03  0.12500000000E+03 0.  0.
         25    1    1    2    0    0 -0.98338167655E+02 -0.18881087197E+02 -0.14242779538E+03  0.21433051012E+03  0.12500000000E+03 0.  0.
         25    1    1    2    0    0 -0.18787865135E+02 -0.91242855893E+02 -0.42488303373E+02  0.16158124443E+03  0.12500000000E+03 0.  0.
</event>
<event>
 5    0  0.5619558E-005  0.2251886E+03  0.7546771E-02  0.1130073E+00
         21   -1    0    0  502  501  0.00000000000E+00  0.00000000000E+00  0.49933352739E+02  0.49933352739E+02  0.00000000000E+00 0.  1.
         21   -1    0    0  501  502 -0.00000000000E+00 -0.00000000000E+00 -0.10155522090E+04  0.10155522090E+04  0.00000000000E+00 0.  1.
         25    1    1    2    0    0  0.39322017882E+02  0.29797665746E+02 -0.27036500340E+03  0.30192111062E+03  0.12500000000E+03 0.  0.
         25    1    1    2    0    0  0.43311057898E+02 -0.77992487945E+02 -0.27780561648E+03  0.31742658436E+03  0.12500000000E+03 0.  0.
         25    1    1    2    0    0 -0.82633075780E+02  0.48194822198E+02 -0.41744823642E+03  0.44613786679E+03  0.12500000000E+03 0.  0.
</event>
<event>
 5    0  0.5619558E-005  0.3695196E+03  0.7546771E-02  0.1054877E+00
         21   -1    0    0  502  501  0.00000000000E+00  0.00000000000E+00  0.62319399383E+03  0.62319399383E+03  0.00000000000E+00 0. -1.
         21   -1    0    0  501  502 -0.00000000000E+00 -0.00000000000E+00 -0.21910468216E+03  0.21910468216E+03  0.00000000000E+00 0. -1.
         25    1    1    2    0    0  0.13240457241E+03 -0.25394747399E+03  0.12240419361E+03  0.33560106817E+03  0.12500000000E+03 0.  0.
         25    1    1    2    0    0 -0.16259374764E+03  0.16498056421E+03  0.15507571137E+03  0.30549760980E+03  0.12500000000E+03 0.  0.
         25    1    1    2    0    0  0.30189175227E+02  0.88966909782E+02  0.12660940670E+03  0.20119999802E+03  0.12500000000E+03 0.  0.
</event>
<event>
 5    0  0.5619558E-005  0.3312922E+03  0.7546771E-02  0.1070567E+00
         21   -1    0    0  502  501  0.00000000000E+00  0.00000000000E+00  0.25945530199E+03  0.25945530199E+03  0.00000000000E+00 0.  1.
         21   -1    0    0  501  502 -0.00000000000E+00 -0.00000000000E+00 -0.42301894728E+03  0.42301894728E+03  0.00000000000E+00 0.  1.
         25    1    1    2    0    0  0.12220402087E+03 -0.16088827918E+03 -0.72180509460E+02  0.24830200772E+03  0.12500000000E+03 0.  0.
         25    1    1    2    0    0 -0.15858997888E+03  0.10796894894E+03 -0.15844749648E+03  0.27845768885E+03  0.12500000000E+03 0.  0.
         25    1    1    2    0    0  0.36385958013E+02  0.52919330234E+02  0.67064360650E+02  0.15571455270E+03  0.12500000000E+03 0.  0.
</event>
<event>
 5    0  0.5619558E-005  0.3273253E+03  0.7546771E-02  0.1072326E+00
         21   -1    0    0  502  501  0.00000000000E+00  0.00000000000E+00  0.27827900007E+03  0.27827900007E+03  0.00000000000E+00 0.  1.
         21   -1    0    0  501  502 -0.00000000000E+00 -0.00000000000E+00 -0.38501604941E+03  0.38501604941E+03  0.00000000000E+00 0.  1.
         25    1    1    2    0    0  0.97331244236E+02  0.93516622025E+02  0.10275505243E+03  0.21071860501E+03  0.12500000000E+03 0.  0.
         25    1    1    2    0    0  0.24758174277E+01 -0.18711633574E+02  0.52289675961E+02  0.13680447769E+03  0.12500000000E+03 0.  0.
         25    1    1    2    0    0 -0.99807061664E+02 -0.74804988451E+02 -0.26178177772E+03  0.31577196678E+03  0.12500000000E+03 0.  0.
</event>
<event>
 5    0  0.5619558E-005  0.4207659E+03  0.7546771E-02  0.1036817E+00
         21   -1    0    0  502  501  0.00000000000E+00  0.00000000000E+00  0.96116771413E+02  0.96116771413E+02  0.00000000000E+00 0. -1.
         21   -1    0    0  501  502 -0.00000000000E+00 -0.00000000000E+00 -0.18419672775E+04  0.18419672775E+04  0.00000000000E+00 0. -1.
         25    1    1    2    0    0 -0.14643722835E+03  0.13501708254E+02 -0.18371411241E+03  0.26646206685E+03  0.12500000000E+03 0.  0.
         25    1    1    2    0    0  0.31157586652E+02 -0.20977987263E+03 -0.12059354518E+04  0.12308061196E+04  0.12500000000E+03 0.  0.
         25    1    1    2    0    0  0.11527964170E+03  0.19627816437E+03 -0.35620094192E+03  0.44081586249E+03  0.12500000000E+03 0.  0.
</event>
<event>
 5    0  0.5619558E-005  0.3093147E+03  0.7546771E-02  0.1080675E+00
         21   -1    0    0  502  501  0.00000000000E+00  0.00000000000E+00  0.94383744869E+02  0.94383744869E+02  0.00000000000E+00 0.  1.
         21   -1    0    0  501  502 -0.00000000000E+00 -0.00000000000E+00 -0.10136871241E+04  0.10136871241E+04  0.00000000000E+00 0.  1.
         25    1    1    2    0    0 -0.13238553243E+03 -0.15217406808E+02 -0.44230713231E+03  0.47855835376E+03  0.12500000000E+03 0.  0.
         25    1    1    2    0    0 -0.14602740277E+02  0.99069170048E+02 -0.77333585496E+02  0.17785787563E+03  0.12500000000E+03 0.  0.
         25    1    1    2    0    0  0.14698827271E+03 -0.83851763240E+02 -0.39966266143E+03  0.45165463957E+03  0.12500000000E+03 0.  0.
</event>
<event>
 5    0  0.5619558E-005  0.3342547E+03  0.7546771E-02  0.1069270E+00
         21   -1    0    0  502  501  0.00000000000E+00  0.00000000000E+00  0.23321956101E+03  0.23321956101E+03  0.00000000000E+00 0. -1.
         21   -1    0    0  501  502 -0.00000000000E+00 -0.00000000000E+00 -0.47906008179E+03  0.47906008179E+03  0.00000000000E+00 0. -1.
         25    1    1    2    0    0  0.56155710713E+02  0.76687792751E+02  0.72017634149E+02  0.17276000993E+03  0.12500000000E+03 0.  0.
         25    1    1    2    0    0  0.25091695533E+02 -0.15011208717E+03 -0.19382789560E+02  0.19789877319E+03  0.12500000000E+03 0.  0.
         25    1    1    2    0    0 -0.81247406246E+02  0.73424294422E+02 -0.29847536537E+03  0.34162085968E+03  0.12500000000E+03 0.  0.
</event>
<event>
 5    0  0.5619558E-005  0.3305986E+03  0.7546771E-02  0.1070872E+00
         21   -1    0    0  502  501  0.00000000000E+00  0.00000000000E+00  0.23271578689E+04  0.23271578689E+04  0.00000000000E+00 0. -1.
         21   -1    0    0  501  502 -0.00000000000E+00 -0.00000000000E+00 -0.46965190447E+02  0.46965190447E+02  0.00000000000E+00 0. -1.
         25    1    1    2    0    0  0.88124382751E+02 -0.61177322522E+02  0.13570762521E+04  0.13670367683E+04  0.12500000000E+03 0.  0.
         25    1    1    2    0    0 -0.80245332647E+02 -0.16777978729E+02  0.80313842149E+03  0.81693153817E+03  0.12500000000E+03 0.  0.
         25    1    1    2    0    0 -0.78790501034E+01  0.77955301251E+02  0.11997800485E+03  0.19015475296E+03  0.12500000000E+03 0.  0.
</event>
<event>
 5    0  0.5619558E-005  0.2678876E+03  0.7546771E-02  0.1102495E+00
         21   -1    0    0  502  501  0.00000000000E+00  0.00000000000E+00  0.66272655286E+02  0.66272655286E+02  0.00000000000E+00 0.  1.
         21   -1    0    0  501  502 -0.00000000000E+00 -0.00000000000E+00 -0.10828562597E+04  0.10828562597E+04  0.00000000000E+00 0.  1.
         25    1    1    2    0    0  0.14405376388E+02  0.14442559596E+03 -0.59062455555E+03  0.62090952099E+03  0.12500000000E+03 0.  0.
         25    1    1    2    0    0 -0.50460850590E+02 -0.11696634846E+03 -0.26411212051E+03  0.31875952741E+03  0.12500000000E+03 0.  0.
         25    1    1    2    0    0  0.36055474202E+02 -0.27459247506E+02 -0.16184692836E+03  0.20945986659E+03  0.12500000000E+03 0.  0.
</event>
<event>
 5    0  0.5619558E-005  0.2604779E+03  0.7546771E-02  0.1106856E+00
         21   -1    0    0  502  501  0.00000000000E+00  0.00000000000E+00  0.26271634296E+03  0.26271634296E+03  0.00000000000E+00 0.  1.
         21   -1    0    0  501  502 -0.00000000000E+00 -0.00000000000E+00 -0.25825848399E+03  0.25825848399E+03  0.00000000000E+00 0.  1.
         25    1    1    2    0    0 -0.35085799421E+02 -0.49404564087E+02  0.50425397853E+02  0.14778208627E+03  0.12500000000E+03 0.  0.
         25    1    1    2    0    0  0.82472618343E+02 -0.91069176613E+02 -0.70739237478E+01  0.17541484573E+03  0.12500000000E+03 0.  0.
         25    1    1    2    0    0 -0.47386818922E+02  0.14047374070E+03 -0.38893615130E+02  0.19777789495E+03  0.12500000000E+03 0.  0.
</event>
<event>
 5    0  0.5619558E-005  0.3880031E+03  0.7546771E-02  0.1048015E+00
         21   -1    0    0  502  501  0.00000000000E+00  0.00000000000E+00  0.11889902804E+04  0.11889902804E+04  0.00000000000E+00 0. -1.
         21   -1    0    0  501  502 -0.00000000000E+00 -0.00000000000E+00 -0.12661704288E+03  0.12661704288E+03  0.00000000000E+00 0. -1.
         25    1    1    2    0    0 -0.91455228959E+02  0.24089833915E+03  0.52693723001E+03  0.59973653639E+03  0.12500000000E+03 0.  0.
         25    1    1    2    0    0  0.14751871543E+03 -0.50239754043E+02  0.10528805732E+03  0.22582377931E+03  0.12500000000E+03 0.  0.
         25    1    1    2    0    0 -0.56063486470E+02 -0.19065858511E+03  0.43014795024E+03  0.49004700763E+03  0.12500000000E+03 0.  0.
</event>
<event>
 5    0  0.5619558E-005  0.3058273E+03  0.7546771E-02  0.1082363E+00
         21   -1    0    0  502  501  0.00000000000E+00  0.00000000000E+00  0.85581433478E+03  0.85581433478E+03  0.00000000000E+00 0. -1.
         21   -1    0    0  501  502 -0.00000000000E+00 -0.00000000000E+00 -0.10928814773E+03  0.10928814773E+03  0.00000000000E+00 0. -1.
         25    1    1    2    0    0 -0.22340596174E+01  0.14193712635E+03  0.37521069897E+03  0.42018948997E+03  0.12500000000E+03 0.  0.
         25    1    1    2    0    0  0.53098923666E+02  0.32750676425E+02  0.37390619800E+02  0.14462074868E+03  0.12500000000E+03 0.  0.
         25    1    1    2    0    0 -0.50864864049E+02 -0.17468780277E+03  0.33392486829E+03  0.40029224386E+03  0.12500000000E+03 0.  0.
</event>
<event>
 5    0  0.5619558E-005  0.2650500E+03  0.7546771E-02  0.1104147E+00
         21   -1    0    0  502  501  0.00000000000E+00  0.00000000000E+00  0.47472956194E+03  0.47472956194E+03  0.00000000000E+00 0. -1.
         21   -1    0    0  501  502 -0.00000000000E+00 -0.00000000000E+00 -0.14798210661E+03  0.14798210661E+03  0.00000000000E+00 0. -1.
         25    1    1    2    0    0  0.61399550737E+02 -0.52889659805E+02  0.37869642369E+02  0.15370859039E+03  0.12500000000E+03 0.  0.
         25    1    1    2    0    0 -0.14278572917E+03  0.39123288391E+01  0.75919928780E+02  0.20443068839E+03  0.12500000000E+03 0.  0.
         25    1    1    2    0    0  0.81386178433E+02  0.48977330966E+02  0.21295788418E+03  0.26457238976E+03  0.12500000000E+03 0.  0.
</event>
<event>
 5    0  0.5619558E-005  0.3162463E+03  0.7546771E-02  0.1077390E+00
         21   -1    0    0  502  501  0.00000000000E+00  0.00000000000E+00  0.45518288991E+03  0.45518288991E+03  0.00000000000E+00 0.  1.
         21   -1    0    0  501  502 -0.00000000000E+00 -0.00000000000E+00 -0.21971763833E+03  0.21971763833E+03  0.00000000000E+00 0.  1.
         25    1    1    2    0    0 -0.14317281457E+03 -0.50387263876E+02  0.12540995272E+03  0.23321661055E+03  0.12500000000E+03 0.  0.
         25    1    1    2    0    0  0.17208493116E+03  0.27957061188E+02  0.19192388644E+03  0.28784474807E+03  0.12500000000E+03 0.  0.
         25    1    1    2    0    0 -0.28912116592E+02  0.22430202688E+02 -0.81868587586E+02  0.15383916963E+03  0.12500000000E+03 0.  0.
</event>
<event>
 5    0  0.5619558E-005  0.2758281E+03  0.7546771E-02  0.1097990E+00
         21   -1    0    0  502  501  0.00000000000E+00  0.00000000000E+00  0.56604148994E+03  0.56604148994E+03  0.00000000000E+00 0. -1.
         21   -1    0    0  501  502 -0.00000000000E+00 -0.00000000000E+00 -0.13440909728E+03  0.13440909728E+03  0.00000000000E+00 0. -1.
         25    1    1    2    0    0  0.36321371547E+02 -0.24597097223E+02  0.91005567679E+02  0.16072110182E+03  0.12500000000E+03 0.  0.
         25    1    1    2    0    0 -0.83282455198E+02 -0.12469942624E+03  0.79880042449E+02  0.21093064128E+03  0.12500000000E+03 0.  0.
         25    1    1    2    0    0  0.46961083652E+02  0.14929652346E+03  0.26074678253E+03  0.32879884412E+03  0.12500000000E+03 0.  0.
</event>
<event>
 5    0  0.5619558E-005  0.3529138E+03  0.7546771E-02  0.1061425E+00
         21   -1    0    0  502  501  0.00000000000E+00  0.00000000000E+00  0.12738627586E+03  0.12738627586E+03  0.00000000000E+00 0.  1.
         21   -1    0    0  501  502 -0.00000000000E+00 -0.00000000000E+00 -0.97772026378E+03  0.97772026378E+03  0.00000000000E+00 0.  1.
         25    1    1    2    0    0  0.12769633027E+03  0.61967509638E+02 -0.17437087068E+03  0.25724798455E+03  0.12500000000E+03 0.  0.
         25    1    1    2    0    0  0.52037776210E+02  0.64440492771E+02 -0.28290105508E+02  0.15259697681E+03  0.12500000000E+03 0.  0.
         25    1    1    2    0    0 -0.17973410648E+03 -0.12640800241E+03 -0.64767301173E+03  0.69526157828E+03  0.12500000000E+03 0.  0.
</event>
<event>
 5    0  0.5619558E-005  0.2612246E+03  0.7546771E-02  0.1106410E+00
         21   -1    0    0  502  501  0.00000000000E+00  0.00000000000E+00  0.12218964618E+04  0.12218964618E+04  0.00000000000E+00 0. -1.
         21   -1    0    0  501  502 -0.00000000000E+00 -0.00000000000E+00 -0.55846226471E+02  0.55846226471E+02  0.00000000000E+00 0. -1.
         25    1    1    2    0    0 -0.32238924529E+02  0.82926066051E+02  0.22951200087E+03  0.27607397420E+03  0.12500000000E+03 0.  0.
         25    1    1    2    0    0 -0.64429294232E+02 -0.20663557578E+02  0.67513335738E+03  0.68993345100E+03  0.12500000000E+03 0.  0.
         25    1    1    2    0    0  0.96668218761E+02 -0.62262508473E+02  0.26140487707E+03  0.31173526306E+03  0.12500000000E+03 0.  0.
</event>
<event>
 5    0  0.5619558E-005  0.3386901E+03  0.7546771E-02  0.1067355E+00
         21   -1    0    0  502  501  0.00000000000E+00  0.00000000000E+00  0.10749210512E+04  0.10749210512E+04  0.00000000000E+00 0.  1.
         21   -1    0    0  501  502 -0.00000000000E+00 -0.00000000000E+00 -0.10671573318E+03  0.10671573318E+03  0.00000000000E+00 0.  1.
         25    1    1    2    0    0  0.14184406895E+03 -0.76592222454E+02  0.99389343152E+02  0.22691264833E+03  0.12500000000E+03 0.  0.
         25    1    1    2    0    0 -0.12738563299E+03 -0.73177606635E+02  0.34025896702E+03  0.39113070225E+03  0.12500000000E+03 0.  0.
         25    1    1    2    0    0 -0.14458435966E+02  0.14976982909E+03  0.52855700783E+03  0.56359343378E+03  0.12500000000E+03 0.  0.
</event>
<event>
 5    0  0.5619558E-005  0.2319187E+03  0.7546771E-02  0.1125297E+00
         21   -1    0    0  502  501  0.00000000000E+00  0.00000000000E+00  0.46362086832E+03  0.46362086832E+03  0.00000000000E+00 0.  1.
         21   -1    0    0  501  502 -0.00000000000E+00 -0.00000000000E+00 -0.11601353301E+03  0.11601353301E+03  0.00000000000E+00 0.  1.
         25    1    1    2    0    0 -0.73062789023E+02  0.78458326460E+02  0.15740468010E+03  0.22780498995E+03  0.12500000000E+03 0.  0.
         25    1    1    2    0    0  0.73735935187E+02 -0.88626545410E+02  0.99104224999E+02  0.19682047684E+03  0.12500000000E+03 0.  0.
         25    1    1    2    0    0 -0.67314616489E+00  0.10168218950E+02  0.91098430212E+02  0.15500893455E+03  0.12500000000E+03 0.  0.
</event>
<event>
 5    0  0.5619558E-005  0.3230061E+03  0.7546771E-02  0.1074274E+00
         21   -1    0    0  502  501  0.00000000000E+00  0.00000000000E+00  0.15436109932E+03  0.15436109932E+03  0.00000000000E+00 0. -1.
         21   -1    0    0  501  502 -0.00000000000E+00 -0.00000000000E+00 -0.67590173281E+03  0.67590173281E+03  0.00000000000E+00 0. -1.
         25    1    1    2    0    0  0.11029464238E+03  0.39633703637E+02 -0.20008411193E+03  0.26342815045E+03  0.12500000000E+03 0.  0.
         25    1    1    2    0    0  0.13535239721E+03  0.18167653251E+02 -0.12133817489E+03  0.22135556858E+03  0.12500000000E+03 0.  0.
         25    1    1    2    0    0 -0.24564703959E+03 -0.57801356889E+02 -0.20011834666E+03  0.34547911310E+03  0.12500000000E+03 0.  0.
</event>
<event>
 5    0  0.6279513E-005  0.2994301E+03  0.7546771E-02  0.1085526E+00
         21   -1    0    0  502  501  0.00000000000E+00  0.00000000000E+00  0.31080157674E+03  0.31080157674E+03  0.00000000000E+00 0.  1.
         21   -1    0    0  501  502 -0.00000000000E+00 -0.00000000000E+00 -0.28847475661E+03  0.28847475661E+03  0.00000000000E+00 0.  1.
         25    1    1    2    0    0  0.17997826022E+02 -0.26215743064E+01  0.98789261104E+02  0.16035932309E+03  0.12500000000E+03 0.  0.
         25    1    1    2    0    0  0.15086521500E+03  0.13582333781E+02  0.37066275836E+02  0.19985920467E+03  0.12500000000E+03 0.  0.
         25    1    1    2    0    0 -0.16886304102E+03 -0.10960759475E+02 -0.11352871681E+03  0.23905780559E+03  0.12500000000E+03 0.  0.
</event>
<event>
 5    0  0.5619558E-005  0.4638194E+03  0.7546771E-02  0.1023679E+00
         21   -1    0    0  502  501  0.00000000000E+00  0.00000000000E+00  0.10689104016E+04  0.10689104016E+04  0.00000000000E+00 0. -1.
         21   -1    0    0  501  502 -0.00000000000E+00 -0.00000000000E+00 -0.20125957456E+03  0.20125957456E+03  0.00000000000E+00 0. -1.
         25    1    1    2    0    0  0.27875666331E+02  0.82639195086E+00  0.27633218570E+03  0.30456889623E+03  0.12500000000E+03 0.  0.
         25    1    1    2    0    0  0.50719316647E+02  0.19482549674E+03  0.66798716893E+03  0.70877449243E+03  0.12500000000E+03 0.  0.
         25    1    1    2    0    0 -0.78594982978E+02 -0.19565188869E+03 -0.76668527629E+02  0.25682658746E+03  0.12500000000E+03 0.  0.
</event>
<event>
 5    0  0.5619558E-005  0.2717760E+03  0.7546771E-02  0.1100267E+00
         21   -1    0    0  502  501  0.00000000000E+00  0.00000000000E+00  0.14219543818E+04  0.14219543818E+04  0.00000000000E+00 0. -1.
         21   -1    0    0  501  502 -0.00000000000E+00 -0.00000000000E+00 -0.51944155795E+02  0.51944155795E+02  0.00000000000E+00 0. -1.
         25    1    1    2    0    0 -0.34470198744E+02 -0.48961917345E+02  0.12712709601E+03  0.18807382192E+03  0.12500000000E+03 0.  0.
         25    1    1    2    0    0  0.80519121062E+02  0.48219696761E+02  0.35346113134E+03  0.38648187458E+03  0.12500000000E+03 0.  0.
         25    1    1    2    0    0 -0.46048922318E+02  0.74222058417E+00  0.88942199869E+03  0.89934284113E+03  0.12500000000E+03 0.  0.
</event>
<event>
 5    0  0.5619558E-005  0.2737315E+03  0.7546771E-02  0.1099163E+00
         21   -1    0    0  502  501  0.00000000000E+00  0.00000000000E+00  0.34794230743E+02  0.34794230743E+02  0.00000000000E+00 0. -1.
         21   -1    0    0  501  502 -0.00000000000E+00 -0.00000000000E+00 -0.21534866450E+04  0.21534866450E+04  0.00000000000E+00 0. -1.
         25    1    1    2    0    0  0.88266464557E+02 -0.10162057419E+03 -0.41800346499E+03  0.45658472008E+03  0.12500000000E+03 0.  0.
         25    1    1    2    0    0 -0.27008321843E+02  0.91936604865E+02 -0.53551180968E+03  0.55819323452E+03  0.12500000000E+03 0.  0.
         25    1    1    2    0    0 -0.61258142714E+02  0.96839693267E+01 -0.11651771396E+04  0.11735029212E+04  0.12500000000E+03 0.  0.
</event>
<event>
 5    0  0.5619755E-005  0.3287698E+03  0.7546771E-02  0.1071683E+00
         21   -1    0    0  502  501  0.00000000000E+00  0.00000000000E+00  0.11500933099E+04  0.11500933099E+04  0.00000000000E+00 0.  1.
         21   -1    0    0  501  502 -0.00000000000E+00 -0.00000000000E+00 -0.93983301735E+02  0.93983301735E+02  0.00000000000E+00 0.  1.
         25    1    1    2    0    0  0.85641850954E+01 -0.20355942850E+03  0.25894012076E+03  0.35239859866E+03  0.12500000000E+03 0.  0.
         25    1    1    2    0    0  0.10029755593E+03  0.76682214167E+02  0.48150324292E+03  0.51323497021E+03  0.12500000000E+03 0.  0.
         25    1    1    2    0    0 -0.10886174103E+03  0.12687721434E+03  0.31566664444E+03  0.37844304273E+03  0.12500000000E+03 0.  0.
</event>
<event>
 5    0  0.5619558E-005  0.2191425E+03  0.7546771E-02  0.1134524E+00
         21   -1    0    0  502  501  0.00000000000E+00  0.00000000000E+00  0.97923409125E+03  0.97923409125E+03  0.00000000000E+00 0. -1.
         21   -1    0    0  501  502 -0.00000000000E+00 -0.00000000000E+00 -0.49041849942E+02  0.49041849942E+02  0.00000000000E+00 0. -1.
         25    1    1    2    0    0 -0.12691454464E+02  0.74539386454E+02  0.29901089444E+03  0.33279078734E+03  0.12500000000E+03 0.  0.
         25    1    1    2    0    0 -0.52757347117E+02 -0.64976531982E+02  0.31173371644E+03  0.34613320752E+03  0.12500000000E+03 0.  0.
         25    1    1    2    0    0  0.65448801582E+02 -0.95628544721E+01  0.31944763043E+03  0.34935194633E+03  0.12500000000E+03 0.  0.
</event>
<event>
 5    0  0.5619558E-005  0.2878639E+03  0.7546771E-02  0.1091470E+00
         21   -1    0    0  502  501  0.00000000000E+00  0.00000000000E+00  0.44841632640E+03  0.44841632640E+03  0.00000000000E+00 0. -1.
         21   -1    0    0  501  502 -0.00000000000E+00 -0.00000000000E+00 -0.18479619608E+03  0.18479619608E+03  0.00000000000E+00 0. -1.
         25    1    1    2    0    0 -0.29963719842E+02 -0.22231072121E+02  0.71939125091E+00  0.13045138021E+03  0.12500000000E+03 0.  0.
         25    1    1    2    0    0  0.17612792779E+03 -0.52409769063E+02  0.13646484462E+03  0.26079778499E+03  0.12500000000E+03 0.  0.
         25    1    1    2    0    0 -0.14616420795E+03  0.74640841184E+02  0.12643589446E+03  0.24196335728E+03  0.12500000000E+03 0.  0.
</event>
<event>
 5    0  0.5619558E-005  0.2930190E+03  0.7546771E-02  0.1088783E+00
         21   -1    0    0  502  501  0.00000000000E+00  0.00000000000E+00  0.41604816655E+02  0.41604816655E+02  0.00000000000E+00 0. -1.
         21   -1    0    0  501  502 -0.00000000000E+00 -0.00000000000E+00 -0.20637067654E+04  0.20637067654E+04  0.00000000000E+00 0. -1.
         25    1    1    2    0    0 -0.86913559454E+02 -0.29833687533E+02 -0.42000703866E+03  0.44774426657E+03  0.12500000000E+03 0.  0.
         25    1    1    2    0    0  0.40223489787E+02  0.18082551727E+03 -0.87098260704E+03  0.89919491691E+03  0.12500000000E+03 0.  0.
         25    1    1    2    0    0  0.46690069667E+02 -0.15099182973E+03 -0.73111230308E+03  0.75837239860E+03  0.12500000000E+03 0.  0.
</event>
<event>
 5    0  0.5619558E-005  0.3388409E+03  0.7546771E-02  0.1067291E+00
         21   -1    0    0  502  501  0.00000000000E+00  0.00000000000E+00  0.68573142115E+03  0.68573142115E+03  0.00000000000E+00 0.  1.
         21   -1    0    0  501  502 -0.00000000000E+00 -0.00000000000E+00 -0.16743166856E+03  0.16743166856E+03  0.00000000000E+00 0.  1.
         25    1    1    2    0    0 -0.16473548412E+03 -0.49252195867E+02  0.42736525948E+03  0.47731501499E+03  0.12500000000E+03 0.  0.
         25    1    1    2    0    0  0.17480134163E+03  0.54542701580E+02  0.11229575191E+03  0.24852716397E+03  0.12500000000E+03 0.  0.
         25    1    1    2    0    0 -0.10065857507E+02 -0.52905057132E+01 -0.21361258805E+02  0.12732091076E+03  0.12500000000E+03 0.  0.
</event>
<event>
 5    0  0.5843969E-005  0.7005892E+03  0.7546771E-02  0.9716225E-01
         21   -1    0    0  502  501  0.00000000000E+00  0.00000000000E+00  0.99397864052E+03  0.99397864052E+03  0.00000000000E+00 0.  1.
         21   -1    0    0  501  502 -0.00000000000E+00 -0.00000000000E+00 -0.49379861372E+03  0.49379861372E+03  0.00000000000E+00 0.  1.
         25    1    1    2    0    0 -0.23279773999E+03 -0.49311154143E+02  0.43488896342E+03  0.51125315468E+03  0.12500000000E+03 0.  0.
         25    1    1    2    0    0  0.34447921525E+03 -0.33421615491E+03  0.20297602417E+03  0.53590170212E+03  0.12500000000E+03 0.  0.
         25    1    1    2    0    0 -0.11168147526E+03  0.38352730905E+03 -0.13768496079E+03  0.44062239745E+03  0.12500000000E+03 0.  0.
</event>
<event>
 5    0  0.5619558E-005  0.3237725E+03  0.7546771E-02  0.1073926E+00
         21   -1    0    0  502  501  0.00000000000E+00  0.00000000000E+00  0.25166074591E+03  0.25166074591E+03  0.00000000000E+00 0. -1.
         21   -1    0    0  501  502 -0.00000000000E+00 -0.00000000000E+00 -0.41654732499E+03  0.41654732499E+03  0.00000000000E+00 0. -1.
         25    1    1    2    0    0 -0.65290121921E+01  0.30220511556E+02 -0.31795083250E+02  0.13263421368E+03  0.12500000000E+03 0.  0.
         25    1    1    2    0    0  0.19835713694E+03 -0.12857838269E+03 -0.93379540981E+02  0.28323610812E+03  0.12500000000E+03 0.  0.
         25    1    1    2    0    0 -0.19182812475E+03  0.98357871133E+02 -0.39711954852E+02  0.25233774909E+03  0.12500000000E+03 0.  0.
</event>
<event>
 5    0  0.5619558E-005  0.4232862E+03  0.7546771E-02  0.1036002E+00
         21   -1    0    0  502  501  0.00000000000E+00  0.00000000000E+00  0.66888676758E+03  0.66888676758E+03  0.00000000000E+00 0.  1.
         21   -1    0    0  501  502 -0.00000000000E+00 -0.00000000000E+00 -0.26786482474E+03  0.26786482474E+03  0.00000000000E+00 0.  1.
         25    1    1    2    0    0  0.24436550725E+03  0.42038509263E+02  0.29318140903E+03  0.40380945506E+03  0.12500000000E+03 0.  0.
         25    1    1    2    0    0  0.46890441069E+02  0.10755568602E+03  0.35056746930E+02  0.17498832693E+03  0.12500000000E+03 0.  0.
         25    1    1    2    0    0 -0.29125594832E+03 -0.14959419528E+03  0.72783786877E+02  0.35795381032E+03  0.12500000000E+03 0.  0.
</event>
<event>
 5    0  0.5619558E-005  0.3163795E+03  0.7546771E-02  0.1077328E+00
         21   -1    0    0  502  501  0.00000000000E+00  0.00000000000E+00  0.85088660850E+03  0.85088660850E+03  0.00000000000E+00 0. -1.
         21   -1    0    0  501  502 -0.00000000000E+00 -0.00000000000E+00 -0.11763731199E+03  0.11763731199E+03  0.00000000000E+00 0. -1.
         25    1    1    2    0    0 -0.29303573571E+02 -0.91022500555E+01  0.24881123076E+03  0.28013136014E+03  0.12500000000E+03 0.  0.
         25    1    1    2    0    0  0.34905146969E+02 -0.18134128528E+03  0.10661824549E+03  0.24717500137E+03  0.12500000000E+03 0.  0.
         25    1    1    2    0    0 -0.56015733975E+01  0.19044353534E+03  0.37781982026E+03  0.44121755899E+03  0.12500000000E+03 0.  0.
</event>
<event>
 5    0  0.5619558E-005  0.3134052E+03  0.7546771E-02  0.1078725E+00
         21   -1    0    0  502  501  0.00000000000E+00  0.00000000000E+00  0.41080060953E+03  0.41080060953E+03  0.00000000000E+00 0. -1.
         21   -1    0    0  501  502 -0.00000000000E+00 -0.00000000000E+00 -0.23910090841E+03  0.23910090841E+03  0.00000000000E+00 0. -1.
         25    1    1    2    0    0  0.14347213183E+03 -0.14168248444E+03  0.17791276483E+03  0.29654026859E+03  0.12500000000E+03 0.  0.
         25    1    1    2    0    0 -0.18147029805E+01  0.96969415023E+02 -0.15683560591E+02  0.15898847339E+03  0.12500000000E+03 0.  0.
         25    1    1    2    0    0 -0.14165742885E+03  0.44713069421E+02  0.94704968874E+01  0.19437277596E+03  0.12500000000E+03 0.  0.
</event>
<event>
 5    0  0.5619558E-005  0.3923644E+03  0.7546771E-02  0.1046456E+00
         21   -1    0    0  502  501  0.00000000000E+00  0.00000000000E+00  0.10609137740E+04  0.10609137740E+04  0.00000000000E+00 0. -1.
         21   -1    0    0  501  502 -0.00000000000E+00 -0.00000000000E+00 -0.14511060985E+03  0.14511060985E+03  0.00000000000E+00 0. -1.
         25    1    1    2    0    0  0.66910119943E+02 -0.11559433996E+03  0.62289772328E+02  0.19324603830E+03  0.12500000000E+03 0.  0.
         25    1    1    2    0    0 -0.14507608260E+03  0.79414334036E+02  0.83441061302E+03  0.85977891188E+03  0.12500000000E+03 0.  0.
         25    1    1    2    0    0  0.78165962655E+02  0.36180005926E+02  0.19102778813E+02  0.15299943368E+03  0.12500000000E+03 0.  0.
</event>
<event>
 5    0  0.5619558E-005  0.6090374E+03  0.7546771E-02  0.9886832E-01
         21   -1    0    0  502  501  0.00000000000E+00  0.00000000000E+00  0.31672495605E+03  0.31672495605E+03  0.00000000000E+00 0.  1.
         21   -1    0    0  501  502 -0.00000000000E+00 -0.00000000000E+00 -0.11711314427E+04  0.11711314427E+04  0.00000000000E+00 0.  1.
         25    1    1    2    0    0 -0.20955127648E+02  0.19859605932E+03  0.43461750841E+02  0.23956927169E+03  0.12500000000E+03 0.  0.
         25    1    1    2    0    0  0.32980550261E+03  0.13946974468E+03 -0.29217530272E+03  0.47876391547E+03  0.12500000000E+03 0.  0.
         25    1    1    2    0    0 -0.30885037497E+03 -0.33806580400E+03 -0.60569293477E+03  0.76952321159E+03  0.12500000000E+03 0.  0.
</event>
<event>
 5    0  0.5619558E-005  0.3839277E+03  0.7546771E-02  0.1049492E+00
         21   -1    0    0  502  501  0.00000000000E+00  0.00000000000E+00  0.13037093776E+03  0.13037093776E+03  0.00000000000E+00 0.  1.
         21   -1    0    0  501  502 -0.00000000000E+00 -0.00000000000E+00 -0.11306235583E+04  0.11306235583E+04  0.00000000000E+00 0.  1.
         25    1    1    2    0    0 -0.42580241955E+02 -0.49094631186E+02 -0.69701034857E+03  0.71110602995E+03  0.12500000000E+03 0.  0.
         25    1    1    2    0    0  0.20214031310E+03  0.31492205181E+02 -0.23389399216E+03  0.33493859846E+03  0.12500000000E+03 0.  0.
         25    1    1    2    0    0 -0.15956007114E+03  0.17602426005E+02 -0.69348279832E+02  0.21494986769E+03  0.12500000000E+03 0.  0.
</event>
<event>
 5    0  0.6000339E-005  0.2955481E+03  0.7546771E-02  0.1087487E+00
         21   -1    0    0  502  501  0.00000000000E+00  0.00000000000E+00  0.21938517141E+03  0.21938517141E+03  0.00000000000E+00 0. -1.
         21   -1    0    0  501  502 -0.00000000000E+00 -0.00000000000E+00 -0.39815225750E+03  0.39815225750E+03  0.00000000000E+00 0. -1.
         25    1    1    2    0    0  0.60412707175E+02 -0.23697387587E+02  0.18255216346E+02  0.14201941519E+03  0.12500000000E+03 0.  0.
         25    1    1    2    0    0  0.92918527687E+02 -0.10966623599E+03 -0.56777975794E+02  0.19876940066E+03  0.12500000000E+03 0.  0.
         25    1    1    2    0    0 -0.15333123486E+03  0.13336362357E+03 -0.14024432664E+03  0.27674861306E+03  0.12500000000E+03 0.  0.
</event>
<event>
 5    0  0.5619558E-005  0.3118201E+03  0.7546771E-02  0.1079477E+00
         21   -1    0    0  502  501  0.00000000000E+00  0.00000000000E+00  0.58821887722E+02  0.58821887722E+02  0.00000000000E+00 0.  1.
         21   -1    0    0  501  502 -0.00000000000E+00 -0.00000000000E+00 -0.16529861005E+04  0.16529861005E+04  0.00000000000E+00 0.  1.
         25    1    1    2    0    0 -0.79866657830E+02 -0.66573020549E+02 -0.18588586491E+03  0.24695992564E+03  0.12500000000E+03 0.  0.
         25    1    1    2    0    0  0.75670797067E+02  0.65301423040E+02 -0.23148319995E+03  0.28142462089E+03  0.12500000000E+03 0.  0.
         25    1    1    2    0    0  0.41958607633E+01  0.12715975098E+01 -0.11767951479E+04  0.11834234417E+04  0.12500000000E+03 0.  0.
</event>
<event>
 5    0  0.7211000E-005  0.3671880E+03  0.7546771E-02  0.1055773E+00
         21   -1    0    0  502  501  0.00000000000E+00  0.00000000000E+00  0.72138132190E+03  0.72138132190E+03  0.00000000000E+00 0.  1.
         21   -1    0    0  501  502 -0.00000000000E+00 -0.00000000000E+00 -0.18690118046E+03  0.18690118046E+03  0.00000000000E+00 0.  1.
         25    1    1    2    0    0  0.10371187323E+03 -0.11518488718E+03  0.36933193923E+03  0.41958883710E+03  0.12500000000E+03 0.  0.
         25    1    1    2    0    0  0.79935958878E+02 -0.70230315693E+02  0.99573240899E+02  0.19199449228E+03  0.12500000000E+03 0.  0.
         25    1    1    2    0    0 -0.18364783211E+03  0.18541520287E+03  0.65574961311E+02  0.29669917298E+03  0.12500000000E+03 0.  0.
</event>
<event>
 5    0  0.5619558E-005  0.2789291E+03  0.7546771E-02  0.1096275E+00
         21   -1    0    0  502  501  0.00000000000E+00  0.00000000000E+00  0.19828224990E+03  0.19828224990E+03  0.00000000000E+00 0. -1.
         21   -1    0    0  501  502 -0.00000000000E+00 -0.00000000000E+00 -0.39237710602E+03  0.39237710602E+03  0.00000000000E+00 0. -1.
         25    1    1    2    0    0  0.13203651024E+03 -0.22673719091E+01 -0.28542573612E+02  0.18406102119E+03  0.12500000000E+03 0.  0.
         25    1    1    2    0    0 -0.56735556588E+02 -0.46959815444E+01 -0.21260403687E+03  0.25311351626E+03  0.12500000000E+03 0.  0.
         25    1    1    2    0    0 -0.75300953656E+02  0.69633534535E+01  0.47051754360E+02  0.15348481847E+03  0.12500000000E+03 0.  0.
</event>
<event>
 5    0  0.5619558E-005  0.5289818E+03  0.7546771E-02  0.1006479E+00
         21   -1    0    0  502  501  0.00000000000E+00  0.00000000000E+00  0.26243487303E+04  0.26243487303E+04  0.00000000000E+00 0. -1.
         21   -1    0    0  501  502 -0.00000000000E+00 -0.00000000000E+00 -0.10662520126E+03  0.10662520126E+03  0.00000000000E+00 0. -1.
         25    1    1    2    0    0  0.76565444979E+02  0.58279268173E+02  0.21597450300E+04  0.21654981724E+04  0.12500000000E+03 0.  0.
         25    1    1    2    0    0  0.73944584547E+02 -0.15854942807E+03  0.14465918403E+03  0.25914668095E+03  0.12500000000E+03 0.  0.
         25    1    1    2    0    0 -0.15051002953E+03  0.10027015989E+03  0.21331931507E+03  0.30632907817E+03  0.12500000000E+03 0.  0.
</event>
<event>
 5    0  0.5619558E-005  0.4195388E+03  0.7546771E-02  0.1037217E+00
         21   -1    0    0  502  501  0.00000000000E+00  0.00000000000E+00  0.11753368418E+04  0.11753368418E+04  0.00000000000E+00 0.  1.
         21   -1    0    0  501  502 -0.00000000000E+00 -0.00000000000E+00 -0.14975522138E+03  0.14975522138E+03  0.00000000000E+00 0.  1.
         25    1    1    2    0    0  0.81863815242E+02 -0.34555159819E+03  0.48418825590E+03  0.61332769252E+03  0.12500000000E+03 0.  0.
         25    1    1    2    0    0  0.49624337905E+01  0.14545175754E+03  0.33689770863E+03  0.38769305591E+03  0.12500000000E+03 0.  0.
         25    1    1    2    0    0 -0.86826249033E+02  0.20009984065E+03  0.20449565585E+03  0.32407131470E+03  0.12500000000E+03 0.  0.
</event>
<event>
 5    0  0.5619558E-005  0.2761811E+03  0.7546771E-02  0.1097793E+00
         21   -1    0    0  502  501  0.00000000000E+00  0.00000000000E+00  0.88447865387E+02  0.88447865387E+02  0.00000000000E+00 0.  1.
         21   -1    0    0  501  502 -0.00000000000E+00 -0.00000000000E+00 -0.86238370171E+03  0.86238370171E+03  0.00000000000E+00 0.  1.
         25    1    1    2    0    0  0.22536498224E+02  0.21935680049E+02 -0.51348074458E+03  0.52941150617E+03  0.12500000000E+03 0.  0.
         25    1    1    2    0    0 -0.47425788990E+02 -0.98793447031E+02 -0.20178068870E+03  0.26143794095E+03  0.12500000000E+03 0.  0.
         25    1    1    2    0    0  0.24889290766E+02  0.76857766981E+02 -0.58674403053E+02  0.15998211998E+03  0.12500000000E+03 0.  0.
</event>
<event>
 5    0  0.5619558E-005  0.3909532E+03  0.7546771E-02  0.1046958E+00
         21   -1    0    0  502  501  0.00000000000E+00  0.00000000000E+00  0.12024000849E+04  0.12024000849E+04  0.00000000000E+00 0. -1.
         21   -1    0    0  501  502 -0.00000000000E+00 -0.00000000000E+00 -0.12711611908E+03  0.12711611908E+03  0.00000000000E+00 0. -1.
         25    1    1    2    0    0  0.12798123357E+03  0.22330873877E+02  0.33101391435E+03  0.37692582237E+03  0.12500000000E+03 0.  0.
         25    1    1    2    0    0 -0.29299234600E+03  0.78571627945E+02  0.59098205335E+03  0.67594585797E+03  0.12500000000E+03 0.  0.
         25    1    1    2    0    0  0.16501111242E+03 -0.10090250182E+03  0.15328799813E+03  0.27664452365E+03  0.12500000000E+03 0.  0.
</event>
<event>
 5    0  0.5619558E-005  0.4701734E+03  0.7546771E-02  0.1021871E+00
         21   -1    0    0  502  501  0.00000000000E+00  0.00000000000E+00  0.11538695035E+03  0.11538695035E+03  0.00000000000E+00 0.  1.
         21   -1    0    0  501  502 -0.00000000000E+00 -0.00000000000E+00 -0.19158405310E+04  0.19158405310E+04  0.00000000000E+00 0.  1.
         25    1    1    2    0    0 -0.39271487610E+03 -0.35949297651E+02 -0.11205480179E+04  0.11944748580E+04  0.12500000000E+03 0.  0.
         25    1    1    2    0    0  0.19852609548E+03  0.30166762204E+02 -0.46274897470E+03  0.51969631297E+03  0.12500000000E+03 0.  0.
         25    1    1    2    0    0  0.19418878062E+03  0.57825354474E+01 -0.21715658805E+03  0.31705631041E+03  0.12500000000E+03 0.  0.
</event>
<event>
 5    0  0.5619558E-005  0.3278074E+03  0.7546771E-02  0.1072111E+00
         21   -1    0    0  502  501  0.00000000000E+00  0.00000000000E+00  0.97972749989E+02  0.97972749989E+02  0.00000000000E+00 0.  1.
         21   -1    0    0  501  502 -0.00000000000E+00 -0.00000000000E+00 -0.10968117385E+04  0.10968117385E+04  0.00000000000E+00 0.  1.
         25    1    1    2    0    0  0.16185509060E+03  0.70921067031E+02 -0.14099030015E+03  0.25832176222E+03  0.12500000000E+03 0.  0.
         25    1    1    2    0    0  0.37828336225E+02 -0.66366238537E+01 -0.27405580990E+03  0.30365542105E+03  0.12500000000E+03 0.  0.
         25    1    1    2    0    0 -0.19968342682E+03 -0.64284443177E+02 -0.58379287843E+03  0.63280730518E+03  0.12500000000E+03 0.  0.
</event>
<event>
 5    0  0.5619558E-005  0.3613243E+03  0.7546771E-02  0.1058061E+00
         21   -1    0    0  502  501  0.00000000000E+00  0.00000000000E+00  0.26295004334E+03  0.26295004334E+03  0.00000000000E+00 0. -1.
         21   -1    0    0  501  502 -0.00000000000E+00 -0.00000000000E+00 -0.49650197521E+03  0.49650197521E+03  0.00000000000E+00 0. -1.
         25    1    1    2    0    0 -0.42411469132E+02  0.10490586089E+03 -0.38109271526E+03  0.41672608508E+03  0.12500000000E+03 0.  0.
         25    1    1    2    0    0  0.92242938173E+02 -0.43088240712E+02  0.79681920122E+02  0.17983204532E+03  0.12500000000E+03 0.  0.
         25    1    1    2    0    0 -0.49831469041E+02 -0.61817620181E+02  0.67858863265E+02  0.16289388815E+03  0.12500000000E+03 0.  0.
</event>
<event>
 5    0  0.5619558E-005  0.5204643E+03  0.7546771E-02  0.1008571E+00
         21   -1    0    0  502  501  0.00000000000E+00  0.00000000000E+00  0.22057529240E+03  0.22057529240E+03  0.00000000000E+00 0. -1.
         21   -1    0    0  501  502 -0.00000000000E+00 -0.00000000000E+00 -0.12280754350E+04  0.12280754350E+04  0.00000000000E+00 0. -1.
         25    1    1    2    0    0 -0.45486698334E+02  0.14363328338E+03 -0.31275748811E+03  0.36897399121E+03  0.12500000000E+03 0.  0.
         25    1    1    2    0    0 -0.23445654129E+03  0.22358655278E+03 -0.31617162196E+03  0.46962784295E+03  0.12500000000E+03 0.  0.
         25    1    1    2    0    0  0.27994323963E+03 -0.36721983616E+03 -0.37857103254E+03  0.61004889326E+03  0.12500000000E+03 0.  0.
</event>
<event>
 5    0  0.5619558E-005  0.6975947E+03  0.7546771E-02  0.9721354E-01
         21   -1    0    0  502  501  0.00000000000E+00  0.00000000000E+00  0.84762850106E+03  0.84762850106E+03  0.00000000000E+00 0.  1.
         21   -1    0    0  501  502 -0.00000000000E+00 -0.00000000000E+00 -0.57411745812E+03  0.57411745812E+03  0.00000000000E+00 0.  1.
         25    1    1    2    0    0 -0.13084883428E+03 -0.30454578230E+03 -0.30308640476E+03  0.46621445677E+03  0.12500000000E+03 0.  0.
         25    1    1    2    0    0  0.26450712151E+03  0.25579746717E+03  0.64595883604E+03  0.75384625713E+03  0.12500000000E+03 0.  0.
         25    1    1    2    0    0 -0.13365828723E+03  0.48748315124E+02 -0.69361388325E+02  0.20168524528E+03  0.12500000000E+03 0.  0.
</event>
<event>
 5    0  0.5619558E-005  0.2748882E+03  0.7546771E-02  0.1098514E+00
         21   -1    0    0  502  501  0.00000000000E+00  0.00000000000E+00  0.10097690690E+04  0.10097690690E+04  0.00000000000E+00 0.  1.
         21   -1    0    0  501  502 -0.00000000000E+00 -0.00000000000E+00 -0.74832472412E+02  0.74832472412E+02  0.00000000000E+00 0.  1.
         25    1    1    2    0    0  0.13970824274E+03 -0.11157034929E+03  0.47441535431E+03  0.52216976582E+03  0.12500000000E+03 0.  0.
         25    1    1    2    0    0 -0.10020698603E+03  0.16738145603E+02  0.22974823944E+03  0.28059019779E+03  0.12500000000E+03 0.  0.
         25    1    1    2    0    0 -0.39501256710E+02  0.94832203685E+02  0.23077300280E+03  0.28184157777E+03  0.12500000000E+03 0.  0.
</event>
<event>
 5    0  0.5619558E-005  0.2432397E+03  0.7546771E-02  0.1117653E+00
         21   -1    0    0  502  501  0.00000000000E+00  0.00000000000E+00  0.78800196102E+03  0.78800196102E+03  0.00000000000E+00 0. -1.
         21   -1    0    0  501  502 -0.00000000000E+00 -0.00000000000E+00 -0.75083022184E+02  0.75083022184E+02  0.00000000000E+00 0. -1.
         25    1    1    2    0    0 -0.54656896581E+02 -0.37117500767E+02  0.20498794491E+03  0.24901835829E+03  0.12500000000E+03 0.  0.
         25    1    1    2    0    0  0.36754419557E+02 -0.57683797608E+02  0.93121690689E+02  0.17022031941E+03  0.12500000000E+03 0.  0.
         25    1    1    2    0    0  0.17902477025E+02  0.94801298375E+02  0.41480930324E+03  0.44384630551E+03  0.12500000000E+03 0.  0.
</event>
<event>
 5    0  0.5619558E-005  0.3510178E+03  0.7546771E-02  0.1062198E+00
         21   -1    0    0  502  501  0.00000000000E+00  0.00000000000E+00  0.19882086397E+03  0.19882086397E+03  0.00000000000E+00 0. -1.
         21   -1    0    0  501  502 -0.00000000000E+00 -0.00000000000E+00 -0.61972106752E+03  0.61972106752E+03  0.00000000000E+00 0.  1.
         25    1    1    2    0    0 -0.99608913847E+02  0.13037078572E+02 -0.14706970796E+03  0.21759227959E+03  0.12500000000E+03 0.  0.
         25    1    1    2    0    0  0.24274218107E+03  0.10056969474E+03 -0.68351272570E+02  0.29888948866E+03  0.12500000000E+03 0.  0.
         25    1    1    2    0    0 -0.14313326722E+03 -0.11360677331E+03 -0.20547922302E+03  0.30206016325E+03  0.12500000000E+03 0.  0.
</event>
<event>
 5    0  0.5619558E-005  0.2944247E+03  0.7546771E-02  0.1088061E+00
         21   -1    0    0  502  501  0.00000000000E+00  0.00000000000E+00  0.26178834590E+03  0.26178834590E+03  0.00000000000E+00 0. -1.
         21   -1    0    0  501  502 -0.00000000000E+00 -0.00000000000E+00 -0.33112961656E+03  0.33112961656E+03  0.00000000000E+00 0. -1.
         25    1    1    2    0    0  0.35080948123E+02 -0.20592392225E+02  0.15658608432E+03  0.20444784504E+03  0.12500000000E+03 0.  0.
         25    1    1    2    0    0  0.20335905645E+02 -0.51526649323E+02 -0.31911764889E+02  0.14039909326E+03  0.12500000000E+03 0.  0.
         25    1    1    2    0    0 -0.55416853767E+02  0.72119041548E+02 -0.19401559009E+03  0.24807102417E+03  0.12500000000E+03 0.  0.
</event>
<event>
 5    0  0.5619558E-005  0.2788903E+03  0.7546771E-02  0.1096297E+00
         21   -1    0    0  502  501  0.00000000000E+00  0.00000000000E+00  0.17401531129E+03  0.17401531129E+03  0.00000000000E+00 0. -1.
         21   -1    0    0  501  502 -0.00000000000E+00 -0.00000000000E+00 -0.44697107513E+03  0.44697107513E+03  0.00000000000E+00 0. -1.
         25    1    1    2    0    0 -0.85232775247E+01 -0.93791327969E+02 -0.22341451074E+03  0.27277922038E+03  0.12500000000E+03 0.  0.
         25    1    1    2    0    0  0.54361542629E+02 -0.53064429314E+02 -0.26398205798E+02  0.14863672576E+03  0.12500000000E+03 0.  0.
         25    1    1    2    0    0 -0.45838265104E+02  0.14685575728E+03 -0.23143047296E+02  0.19957044028E+03  0.12500000000E+03 0.  0.
</event>
<event>
 5    0  0.5619558E-005  0.2839725E+03  0.7546771E-02  0.1093539E+00
         21   -1    0    0  502  501  0.00000000000E+00  0.00000000000E+00  0.10521171176E+03  0.10521171176E+03  0.00000000000E+00 0. -1.
         21   -1    0    0  501  502 -0.00000000000E+00 -0.00000000000E+00 -0.76645838664E+03  0.76645838664E+03  0.00000000000E+00 0. -1.
         25    1    1    2    0    0  0.13989115542E+03  0.32647733672E+01 -0.24648448732E+03  0.30977378294E+03  0.12500000000E+03 0.  0.
         25    1    1    2    0    0 -0.11090134504E+03 -0.10640777423E+03 -0.30617589343E+03  0.36467848917E+03  0.12500000000E+03 0.  0.
         25    1    1    2    0    0 -0.28989810382E+02  0.10314300086E+03 -0.10858629413E+03  0.19721782629E+03  0.12500000000E+03 0.  0.
</event>
<event>
 5    0  0.5619558E-005  0.2721026E+03  0.7546771E-02  0.1100082E+00
         21   -1    0    0  502  501  0.00000000000E+00  0.00000000000E+00  0.11466659254E+04  0.11466659254E+04  0.00000000000E+00 0. -1.
         21   -1    0    0  501  502 -0.00000000000E+00 -0.00000000000E+00 -0.64569633388E+02  0.64569633388E+02  0.00000000000E+00 0. -1.
         25    1    1    2    0    0  0.13773558972E+03 -0.52987168257E+02  0.40196452549E+03  0.44607086032E+03  0.12500000000E+03 0.  0.
         25    1    1    2    0    0 -0.15292287317E+03 -0.35616542124E+01  0.50439885607E+03  0.54170222126E+03  0.12500000000E+03 0.  0.
         25    1    1    2    0    0  0.15187283453E+02  0.56548822470E+02  0.17573291046E+03  0.22346247721E+03  0.12500000000E+03 0.  0.
</event>
<event>
 5    0  0.5619558E-005  0.3371404E+03  0.7546771E-02  0.1068020E+00
         21   -1    0    0  502  501  0.00000000000E+00  0.00000000000E+00  0.89339718872E+03  0.89339718872E+03  0.00000000000E+00 0. -1.
         21   -1    0    0  501  502 -0.00000000000E+00 -0.00000000000E+00 -0.12722631867E+03  0.12722631867E+03  0.00000000000E+00 0. -1.
         25    1    1    2    0    0 -0.10499358435E+03 -0.44317670164E+02  0.95055379047E+02  0.19403152767E+03  0.12500000000E+03 0.  0.
         25    1    1    2    0    0  0.15317731451E+03  0.37866518505E+02  0.73798207291E+02  0.21440228148E+03  0.12500000000E+03 0.  0.
         25    1    1    2    0    0 -0.48183730152E+02  0.64511516596E+01  0.59731728372E+03  0.61218969824E+03  0.12500000000E+03 0.  0.
</event>
<event>
 5    0  0.5619558E-005  0.3587320E+03  0.7546771E-02  0.1059087E+00
         21   -1    0    0  502  501  0.00000000000E+00  0.00000000000E+00  0.31584235447E+03  0.31584235447E+03  0.00000000000E+00 0.  1.
         21   -1    0    0  501  502 -0.00000000000E+00 -0.00000000000E+00 -0.40744582618E+03  0.40744582618E+03  0.00000000000E+00 0.  1.
         25    1    1    2    0    0 -0.66454525104E+02 -0.25063257303E+03 -0.87837649852E+02  0.30095405514E+03  0.12500000000E+03 0.  0.
         25    1    1    2    0    0  0.49618614347E+02  0.24082024116E+03 -0.62553093154E+02  0.28283260934E+03  0.12500000000E+03 0.  0.
         25    1    1    2    0    0  0.16835910756E+02  0.98123318686E+01  0.58787271297E+02  0.13950151617E+03  0.12500000000E+03 0.  0.
</event>
<event>
 5    0  0.5619558E-005  0.2574415E+03  0.7546771E-02  0.1108690E+00
         21   -1    0    0  502  501  0.00000000000E+00  0.00000000000E+00  0.83768477930E+03  0.83768477930E+03  0.00000000000E+00 0. -1.
         21   -1    0    0  501  502 -0.00000000000E+00 -0.00000000000E+00 -0.79118231889E+02  0.79118231889E+02  0.00000000000E+00 0. -1.
         25    1    1    2    0    0  0.45182417345E+02 -0.30555656130E+02  0.29796898700E+03  0.32769744608E+03  0.12500000000E+03 0.  0.
         25    1    1    2    0    0  0.23850839407E+02 -0.68819828280E+02  0.68343643491E+02  0.16000276532E+03  0.12500000000E+03 0.  0.
         25    1    1    2    0    0 -0.69033256752E+02  0.99375484410E+02  0.39225391692E+03  0.42910279978E+03  0.12500000000E+03 0.  0.
</event>
<event>
 5    0  0.5619558E-005  0.3996512E+03  0.7546771E-02  0.1043901E+00
         21   -1    0    0  502  501  0.00000000000E+00  0.00000000000E+00  0.82238531026E+02  0.82238531026E+02  0.00000000000E+00 0.  1.
         21   -1    0    0  501  502 -0.00000000000E+00 -0.00000000000E+00 -0.19421684488E+04  0.19421684488E+04  0.00000000000E+00 0.  1.
         25    1    1    2    0    0 -0.15407782725E+02 -0.13675341040E+03 -0.76953855687E+03  0.79167763991E+03  0.12500000000E+03 0.  0.
         25    1    1    2    0    0 -0.63246913503E+02 -0.11081366345E+03 -0.81398654693E+03  0.83335402961E+03  0.12500000000E+03 0.  0.
         25    1    1    2    0    0  0.78654696228E+02  0.24756707384E+03 -0.27640481393E+03  0.39937531027E+03  0.12500000000E+03 0.  0.
</event>
<event>
 5    0  0.5619558E-005  0.3325486E+03  0.7546771E-02  0.1070015E+00
         21   -1    0    0  502  501  0.00000000000E+00  0.00000000000E+00  0.26480693637E+03  0.26480693637E+03  0.00000000000E+00 0.  1.
         21   -1    0    0  501  502 -0.00000000000E+00 -0.00000000000E+00 -0.41761967855E+03  0.41761967855E+03  0.00000000000E+00 0.  1.
         25    1    1    2    0    0 -0.36801118309E+02  0.16098763691E+03 -0.20222590368E+03  0.28946788711E+03  0.12500000000E+03 0.  0.
         25    1    1    2    0    0 -0.95148089496E+02 -0.90686364828E+02 -0.27478045267E+02  0.18345903813E+03  0.12500000000E+03 0.  0.
         25    1    1    2    0    0  0.13194920780E+03 -0.70301272085E+02  0.76891206775E+02  0.20949968968E+03  0.12500000000E+03 0.  0.
</event>
<event>
 5    0  0.5619558E-005  0.2226981E+03  0.7546771E-02  0.1131887E+00
         21   -1    0    0  502  501  0.00000000000E+00  0.00000000000E+00  0.10293961819E+03  0.10293961819E+03  0.00000000000E+00 0. -1.
         21   -1    0    0  501  502 -0.00000000000E+00 -0.00000000000E+00 -0.48178208271E+03  0.48178208271E+03  0.00000000000E+00 0. -1.
         25    1    1    2    0    0 -0.20032817858E+02 -0.32402737060E+02 -0.39534388519E+02  0.13652552522E+03  0.12500000000E+03 0.  0.
         25    1    1    2    0    0  0.44257001131E+00 -0.30728828566E+02 -0.76435006171E+02  0.14970560090E+03  0.12500000000E+03 0.  0.
         25    1    1    2    0    0  0.19590247847E+02  0.63131565626E+02 -0.26287306983E+03  0.29849057478E+03  0.12500000000E+03 0.  0.
</event>
<event>
 5    0  0.5619558E-005  0.2539805E+03  0.7546771E-02  0.1110815E+00
         21   -1    0    0  502  501  0.00000000000E+00  0.00000000000E+00  0.54672920404E+02  0.54672920404E+02  0.00000000000E+00 0. -1.
         21   -1    0    0  501  502 -0.00000000000E+00 -0.00000000000E+00 -0.11798549539E+04  0.11798549539E+04  0.00000000000E+00 0. -1.
         25    1    1    2    0    0  0.57882468488E+02  0.11886667193E+03 -0.30654175616E+03  0.35647231887E+03  0.12500000000E+03 0.  0.
         25    1    1    2    0    0 -0.13244952449E+02 -0.22196889507E+02 -0.53774565518E+03  0.55268754313E+03  0.12500000000E+03 0.  0.
         25    1    1    2    0    0 -0.44637516039E+02 -0.96669782418E+02 -0.28089462215E+03  0.32536801230E+03  0.12500000000E+03 0.  0.
</event>
<event>
 5    0  0.5619558E-005  0.2814513E+03  0.7546771E-02  0.1094899E+00
         21   -1    0    0  502  501  0.00000000000E+00  0.00000000000E+00  0.34400037672E+03  0.34400037672E+03  0.00000000000E+00 0. -1.
         21   -1    0    0  501  502 -0.00000000000E+00 -0.00000000000E+00 -0.23027543489E+03  0.23027543489E+03  0.00000000000E+00 0. -1.
         25    1    1    2    0    0  0.36820856584E+02  0.81439637223E+02 -0.27132024685E+02  0.15604274015E+03  0.12500000000E+03 0.  0.
         25    1    1    2    0    0 -0.99151720645E+02 -0.33861046404E+02 -0.55788959617E+02  0.17238051568E+03  0.12500000000E+03 0.  0.
         25    1    1    2    0    0  0.62330864060E+02 -0.47578590820E+02  0.19664592613E+03  0.24585255578E+03  0.12500000000E+03 0.  0.
</event>
<event>
 5    0  0.5619558E-005  0.4964059E+03  0.7546771E-02  0.1014721E+00
         21   -1    0    0  502  501  0.00000000000E+00  0.00000000000E+00  0.21811824436E+03  0.21811824436E+03  0.00000000000E+00 0. -1.
         21   -1    0    0  501  502 -0.00000000000E+00 -0.00000000000E+00 -0.11297487980E+04  0.11297487980E+04  0.00000000000E+00 0. -1.
         25    1    1    2    0    0  0.31273044885E+02 -0.19448646799E+02 -0.16774212337E+03  0.21241156548E+03  0.12500000000E+03 0.  0.
         25    1    1    2    0    0 -0.16100325131E+03 -0.37084575268E+03 -0.42904904819E+03  0.60262484596E+03  0.12500000000E+03 0.  0.
         25    1    1    2    0    0  0.12973020643E+03  0.39029439948E+03 -0.31483938203E+03  0.53283063088E+03  0.12500000000E+03 0.  0.
</event>
<event>
 5    0  0.5619558E-005  0.4023375E+03  0.7546771E-02  0.1042973E+00
         21   -1    0    0  502  501  0.00000000000E+00  0.00000000000E+00  0.32829398545E+03  0.32829398545E+03  0.00000000000E+00 0. -1.
         21   -1    0    0  501  502 -0.00000000000E+00 -0.00000000000E+00 -0.49308085954E+03  0.49308085954E+03  0.00000000000E+00 0. -1.
         25    1    1    2    0    0  0.87438355522E+02 -0.13901758439E+03  0.42266795457E+01  0.20643211864E+03  0.12500000000E+03 0.  0.
         25    1    1    2    0    0 -0.43385463308E+02  0.31696800105E+03 -0.13040185050E+02  0.34372381143E+03  0.12500000000E+03 0.  0.
         25    1    1    2    0    0 -0.44052892214E+02 -0.17795041666E+03 -0.15597336859E+03  0.27121891492E+03  0.12500000000E+03 0.  0.
</event>
<event>
 5    0  0.5619558E-005  0.3190192E+03  0.7546771E-02  0.1076102E+00
         21   -1    0    0  502  501  0.00000000000E+00  0.00000000000E+00  0.19538812592E+03  0.19538812592E+03  0.00000000000E+00 0.  1.
         21   -1    0    0  501  502 -0.00000000000E+00 -0.00000000000E+00 -0.52087744330E+03  0.52087744330E+03  0.00000000000E+00 0.  1.
         25    1    1    2    0    0  0.11718088463E+02 -0.77229246925E+02 -0.10105509925E+03  0.17871430626E+03  0.12500000000E+03 0.  0.
         25    1    1    2    0    0 -0.15047551591E+03  0.97045999002E+02  0.30942250526E+02  0.22055210196E+03  0.12500000000E+03 0.  0.
         25    1    1    2    0    0  0.13875742744E+03 -0.19816752077E+02 -0.25537646866E+03  0.31699916100E+03  0.12500000000E+03 0.  0.
</event>
<event>
 5    0  0.5619558E-005  0.3676474E+03  0.7546771E-02  0.1055596E+00
         21   -1    0    0  502  501  0.00000000000E+00  0.00000000000E+00  0.23536960411E+04  0.23536960411E+04  0.00000000000E+00 0.  1.
         21   -1    0    0  501  502 -0.00000000000E+00 -0.00000000000E+00 -0.57426533513E+02  0.57426533513E+02  0.00000000000E+00 0.  1.
         25    1    1    2    0    0 -0.93652611132E+02 -0.18627990151E+03  0.69236565958E+03  0.73380257552E+03  0.12500000000E+03 0.  0.
         25    1    1    2    0    0 -0.29755093053E+02  0.70327905784E+02  0.15520895726E+03  0.21341555779E+03  0.12500000000E+03 0.  0.
         25    1    1    2    0    0  0.12340770419E+03  0.11595199573E+03  0.14486948907E+04  0.14639044412E+04  0.12500000000E+03 0.  0.
</event>
<event>
 5    0  0.5619558E-005  0.2368915E+03  0.7546771E-02  0.1121881E+00
         21   -1    0    0  502  501  0.00000000000E+00  0.00000000000E+00  0.10182043965E+03  0.10182043965E+03  0.00000000000E+00 0. -1.
         21   -1    0    0  501  502 -0.00000000000E+00 -0.00000000000E+00 -0.55114272291E+03  0.55114272291E+03  0.00000000000E+00 0. -1.
         25    1    1    2    0    0 -0.16121241200E+02 -0.83074085120E+02 -0.21138368856E+03  0.25974845876E+03  0.12500000000E+03 0.  0.
         25    1    1    2    0    0 -0.25439757586E+02  0.85945204932E+02 -0.46263582568E+02  0.16062091579E+03  0.12500000000E+03 0.  0.
         25    1    1    2    0    0  0.41560998787E+02 -0.28711198119E+01 -0.19167501213E+03  0.23259378802E+03  0.12500000000E+03 0.  0.
</event>
<event>
 5    0  0.5619558E-005  0.4127343E+03  0.7546771E-02  0.1039457E+00
         21   -1    0    0  502  501  0.00000000000E+00  0.00000000000E+00  0.80735569649E+03  0.80735569649E+03  0.00000000000E+00 0.  1.
         21   -1    0    0  501  502 -0.00000000000E+00 -0.00000000000E+00 -0.21099701238E+03  0.21099701238E+03  0.00000000000E+00 0.  1.
         25    1    1    2    0    0 -0.91849566179E+02  0.15226544304E+02  0.26723999347E+03  0.30937098211E+03  0.12500000000E+03 0.  0.
         25    1    1    2    0    0  0.25791153678E+03 -0.16853246337E+03  0.30221752648E+03  0.44931279229E+03  0.12500000000E+03 0.  0.
         25    1    1    2    0    0 -0.16606197060E+03  0.15330591906E+03  0.26901164160E+02  0.25966893447E+03  0.12500000000E+03 0.  0.
</event>
<event>
 5    0  0.5619558E-005  0.2948625E+03  0.7546771E-02  0.1087837E+00
         21   -1    0    0  502  501  0.00000000000E+00  0.00000000000E+00  0.73725348618E+03  0.73725348618E+03  0.00000000000E+00 0. -1.
         21   -1    0    0  501  502 -0.00000000000E+00 -0.00000000000E+00 -0.11792948301E+03  0.11792948301E+03  0.00000000000E+00 0. -1.
         25    1    1    2    0    0  0.78636704785E+02  0.65790008952E+02  0.38941780226E+03  0.42164354772E+03  0.12500000000E+03 0.  0.
         25    1    1    2    0    0  0.62808533325E+02 -0.43988312094E+02  0.16146071915E+02  0.14753162067E+03  0.12500000000E+03 0.  0.
         25    1    1    2    0    0 -0.14144523811E+03 -0.21801696858E+02  0.21376012899E+03  0.28600780079E+03  0.12500000000E+03 0.  0.
</event>
<event>
 5    0  0.5619558E-005  0.4295740E+03  0.7546771E-02  0.1033995E+00
         21   -1    0    0  502  501  0.00000000000E+00  0.00000000000E+00  0.53992209510E+03  0.53992209510E+03  0.00000000000E+00 0. -1.
         21   -1    0    0  501  502 -0.00000000000E+00 -0.00000000000E+00 -0.34177866885E+03  0.34177866885E+03  0.00000000000E+00 0. -1.
         25    1    1    2    0    0 -0.37112896585E+02  0.61410228106E+02  0.37951639067E+03  0.40596338997E+03  0.12500000000E+03 0.  0.
         25    1    1    2    0    0  0.87643039293E+02  0.98434210587E+02  0.23292753849E+02  0.18313423637E+03  0.12500000000E+03 0.  0.
         25    1    1    2    0    0 -0.50530142708E+02 -0.15984443869E+03 -0.20466571827E+03  0.29260313761E+03  0.12500000000E+03 0.  0.
</event>
<event>
 5    0  0.5619558E-005  0.4320291E+03  0.7546771E-02  0.1033221E+00
         21   -1    0    0  502  501  0.00000000000E+00  0.00000000000E+00  0.81370287976E+02  0.81370287976E+02  0.00000000000E+00 0.  1.
         21   -1    0    0  501  502 -0.00000000000E+00 -0.00000000000E+00 -0.22938244128E+04  0.22938244128E+04  0.00000000000E+00 0.  1.
         25    1    1    2    0    0  0.15412254192E+03  0.12768047850E+03 -0.11684100321E+04  0.11919996081E+04  0.12500000000E+03 0.  0.
         25    1    1    2    0    0  0.83474817939E+02  0.65076443684E+02 -0.12354824921E+03  0.20516373616E+03  0.12500000000E+03 0.  0.
         25    1    1    2    0    0 -0.23759735986E+03 -0.19275692218E+03 -0.92049584348E+03  0.97803135652E+03  0.12500000000E+03 0.  0.
</event>
<event>
 5    0  0.5619558E-005  0.4446759E+03  0.7546771E-02  0.1029322E+00
         21   -1    0    0  502  501  0.00000000000E+00  0.00000000000E+00  0.24172202817E+03  0.24172202817E+03  0.00000000000E+00 0.  1.
         21   -1    0    0  501  502 -0.00000000000E+00 -0.00000000000E+00 -0.81803329649E+03  0.81803329649E+03  0.00000000000E+00 0.  1.
         25    1    1    2    0    0 -0.73287198367E+02 -0.79335857345E+02 -0.27102013064E+02  0.16740582671E+03  0.12500000000E+03 0.  0.
         25    1    1    2    0    0  0.19688114050E+03  0.73678276717E+02 -0.64660020335E+03  0.69130853815E+03  0.12500000000E+03 0.  0.
         25    1    1    2    0    0 -0.12359394213E+03  0.56575806281E+01  0.97390948088E+02  0.20104095981E+03  0.12500000000E+03 0.  0.
</event>
<event>
 5    0  0.5619558E-005  0.2398960E+03  0.7546771E-02  0.1119862E+00
         21   -1    0    0  502  501  0.00000000000E+00  0.00000000000E+00  0.77584938894E+02  0.77584938894E+02  0.00000000000E+00 0. -1.
         21   -1    0    0  501  502 -0.00000000000E+00 -0.00000000000E+00 -0.74176871523E+03  0.74176871523E+03  0.00000000000E+00 0. -1.
         25    1    1    2    0    0  0.42239532134E+02  0.72026858427E+02 -0.88317435910E+02  0.17434740003E+03  0.12500000000E+03 0.  0.
         25    1    1    2    0    0 -0.15070845996E+02 -0.66160316057E+02 -0.18284303455E+03  0.23164820980E+03  0.12500000000E+03 0.  0.
         25    1    1    2    0    0 -0.27168686139E+02 -0.58665423701E+01 -0.39302330588E+03  0.41335804430E+03  0.12500000000E+03 0.  0.
</event>
<event>
 5    0  0.5619558E-005  0.3493384E+03  0.7546771E-02  0.1062887E+00
         21   -1    0    0  502  501  0.00000000000E+00  0.00000000000E+00  0.46898417970E+03  0.46898417970E+03  0.00000000000E+00 0.  1.
         21   -1    0    0  501  502 -0.00000000000E+00 -0.00000000000E+00 -0.26021625029E+03  0.26021625029E+03  0.00000000000E+00 0.  1.
         25    1    1    2    0    0  0.18091084533E+02 -0.19064921888E+02  0.98754220077E+02  0.16145635500E+03  0.12500000000E+03 0.  0.
         25    1    1    2    0    0  0.11409066130E+03  0.99254128117E+02  0.25495375946E+03  0.32170558032E+03  0.12500000000E+03 0.  0.
         25    1    1    2    0    0 -0.13218174583E+03 -0.80189206229E+02 -0.14494005013E+03  0.24603849467E+03  0.12500000000E+03 0.  0.
</event>
<event>
 5    0  0.5619558E-005  0.4006002E+03  0.7546771E-02  0.1043572E+00
         21   -1    0    0  502  501  0.00000000000E+00  0.00000000000E+00  0.20018105942E+03  0.20018105942E+03  0.00000000000E+00 0.  1.
         21   -1    0    0  501  502 -0.00000000000E+00 -0.00000000000E+00 -0.80167687313E+03  0.80167687313E+03  0.00000000000E+00 0.  1.
         25    1    1    2    0    0 -0.64805060406E+02 -0.12082150489E+03 -0.53543820915E+02  0.19310482298E+03  0.12500000000E+03 0.  0.
         25    1    1    2    0    0  0.12238970451E+03  0.22775567803E+03 -0.63804186458E+02  0.29419018144E+03  0.12500000000E+03 0.  0.
         25    1    1    2    0    0 -0.57584644102E+02 -0.10693417314E+03 -0.48414780634E+03  0.51456292813E+03  0.12500000000E+03 0.  0.
</event>
<event>
 5    0  0.5619558E-005  0.3000950E+03  0.7546771E-02  0.1085193E+00
         21   -1    0    0  502  501  0.00000000000E+00  0.00000000000E+00  0.61494983473E+03  0.61494983473E+03  0.00000000000E+00 0.  1.
         21   -1    0    0  501  502 -0.00000000000E+00 -0.00000000000E+00 -0.14644611776E+03  0.14644611776E+03  0.00000000000E+00 0.  1.
         25    1    1    2    0    0 -0.14585107937E+03 -0.23438364467E+02  0.24416285633E+03  0.31154838259E+03  0.12500000000E+03 0.  0.
         25    1    1    2    0    0 -0.21092581785E+02  0.54819152660E+02 -0.50939522204E+01  0.13820631264E+03  0.12500000000E+03 0.  0.
         25    1    1    2    0    0  0.16694366116E+03 -0.31380788193E+02  0.22943481287E+03  0.31164125726E+03  0.12500000000E+03 0.  0.
</event>
<event>
 5    0  0.5619558E-005  0.2255446E+03  0.7546771E-02  0.1129816E+00
         21   -1    0    0  502  501  0.00000000000E+00  0.00000000000E+00  0.34553116641E+03  0.34553116641E+03  0.00000000000E+00 0.  1.
         21   -1    0    0  501  502 -0.00000000000E+00 -0.00000000000E+00 -0.14722366127E+03  0.14722366127E+03  0.00000000000E+00 0.  1.
         25    1    1    2    0    0  0.12011191246E+02 -0.26393245313E+02  0.11319520772E+03  0.17111115441E+03  0.12500000000E+03 0.  0.
         25    1    1    2    0    0 -0.28338687773E+02 -0.31462969624E+02 -0.36763207892E+02  0.13700194574E+03  0.12500000000E+03 0.  0.
         25    1    1    2    0    0  0.16327496527E+02  0.57856214937E+02  0.12187550531E+03  0.18464172753E+03  0.12500000000E+03 0.  0.
</event>
<event>
 5    0  0.5619558E-005  0.3495429E+03  0.7546771E-02  0.1062803E+00
         21   -1    0    0  502  501  0.00000000000E+00  0.00000000000E+00  0.12927693707E+04  0.12927693707E+04  0.00000000000E+00 0.  1.
         21   -1    0    0  501  502 -0.00000000000E+00 -0.00000000000E+00 -0.94510456580E+02  0.94510456580E+02  0.00000000000E+00 0.  1.
         25    1    1    2    0    0  0.19616629327E+03  0.98783332931E+02  0.28709946038E+03  0.38247936105E+03  0.12500000000E+03 0.  0.
         25    1    1    2    0    0  0.37897100847E+02 -0.59225381049E+02  0.43789936270E+03  0.46078703092E+03  0.12500000000E+03 0.  0.
         25    1    1    2    0    0 -0.23406339411E+03 -0.39557951882E+02  0.47326009102E+03  0.54401343529E+03  0.12500000000E+03 0.  0.
</event>
<event>
 5    0  0.5619558E-005  0.3057922E+03  0.7546771E-02  0.1082380E+00
         21   -1    0    0  502  501  0.00000000000E+00  0.00000000000E+00  0.55580537585E+03  0.55580537585E+03  0.00000000000E+00 0. -1.
         21   -1    0    0  501  502 -0.00000000000E+00 -0.00000000000E+00 -0.16824032658E+03  0.16824032658E+03  0.00000000000E+00 0. -1.
         25    1    1    2    0    0 -0.13764088481E+03  0.13904061280E+03  0.27808960527E+03  0.36226528089E+03  0.12500000000E+03 0.  0.
         25    1    1    2    0    0  0.12093483668E+03 -0.97053183005E+02  0.17078174245E+02  0.19990302421E+03  0.12500000000E+03 0.  0.
         25    1    1    2    0    0  0.16706048135E+02 -0.41987429793E+02  0.92397269759E+02  0.16187739732E+03  0.12500000000E+03 0.  0.
</event>
<event>
 5    0  0.5619558E-005  0.2932678E+03  0.7546771E-02  0.1088655E+00
         21   -1    0    0  502  501  0.00000000000E+00  0.00000000000E+00  0.98575002010E+03  0.98575002010E+03  0.00000000000E+00 0.  1.
         21   -1    0    0  501  502 -0.00000000000E+00 -0.00000000000E+00 -0.87249288932E+02  0.87249288932E+02  0.00000000000E+00 0.  1.
         25    1    1    2    0    0  0.51041078332E+02 -0.13623835764E+03  0.28283496291E+03  0.34174068826E+03  0.12500000000E+03 0.  0.
         25    1    1    2    0    0 -0.10525555829E+03 -0.39985479181E+02  0.31445649423E+03  0.35663070235E+03  0.12500000000E+03 0.  0.
         25    1    1    2    0    0  0.54214479954E+02  0.17622383682E+03  0.30120927404E+03  0.37462791843E+03  0.12500000000E+03 0.  0.
</event>
<event>
 5    0  0.5619558E-005  0.3275791E+03  0.7546771E-02  0.1072213E+00
         21   -1    0    0  502  501  0.00000000000E+00  0.00000000000E+00  0.44959569016E+02  0.44959569016E+02  0.00000000000E+00 0. -1.
         21   -1    0    0  501  502 -0.00000000000E+00 -0.00000000000E+00 -0.23867686230E+04  0.23867686230E+04  0.00000000000E+00 0. -1.
         25    1    1    2    0    0 -0.92662286330E+02 -0.43191909269E+02 -0.22543221946E+03  0.27730222845E+03  0.12500000000E+03 0.  0.
         25    1    1    2    0    0 -0.57154231008E+02 -0.91436827092E+02 -0.79600671733E+03  0.81294464356E+03  0.12500000000E+03 0.  0.
         25    1    1    2    0    0  0.14981651734E+03  0.13462873636E+03 -0.13203701172E+04  0.13414813200E+04  0.12500000000E+03 0.  0.
</event>
<event>
 5    0  0.5619558E-005  0.2953554E+03  0.7546771E-02  0.1087586E+00
         21   -1    0    0  502  501  0.00000000000E+00  0.00000000000E+00  0.10690945779E+04  0.10690945779E+04  0.00000000000E+00 0.  1.
         21   -1    0    0  501  502 -0.00000000000E+00 -0.00000000000E+00 -0.81596924543E+02  0.81596924543E+02  0.00000000000E+00 0.  1.
         25    1    1    2    0    0  0.81010940110E+02 -0.10201874454E+03  0.30989395843E+03  0.35865005525E+03  0.12500000000E+03 0.  0.
         25    1    1    2    0    0 -0.16273287078E+03  0.88912799690E+02  0.23350920079E+03  0.32332494496E+03  0.12500000000E+03 0.  0.
         25    1    1    2    0    0  0.81721930673E+02  0.13105944854E+02  0.44409449411E+03  0.46871650221E+03  0.12500000000E+03 0.  0.
</event>
<event>
 5    0  0.5619558E-005  0.4887089E+03  0.7546771E-02  0.1016769E+00
         21   -1    0    0  502  501  0.00000000000E+00  0.00000000000E+00  0.20644439331E+04  0.20644439331E+04  0.00000000000E+00 0.  1.
         21   -1    0    0  501  502 -0.00000000000E+00 -0.00000000000E+00 -0.11569044507E+03  0.11569044507E+03  0.00000000000E+00 0.  1.
         25    1    1    2    0    0  0.93705264559E+01 -0.93854542446E+02  0.58011205517E+03  0.60087559316E+03  0.12500000000E+03 0.  0.
         25    1    1    2    0    0  0.22740274694E+03  0.97223342877E+02  0.12603017800E+04  0.12904068988E+04  0.12500000000E+03 0.  0.
         25    1    1    2    0    0 -0.23677327340E+03 -0.33688004307E+01  0.10833965290E+03  0.28885188627E+03  0.12500000000E+03 0.  0.
</event>
<event>
 5    0  0.5619558E-005  0.2739746E+03  0.7546771E-02  0.1099026E+00
         21   -1    0    0  502  501  0.00000000000E+00  0.00000000000E+00  0.12221073718E+04  0.12221073718E+04  0.00000000000E+00 0.  1.
         21   -1    0    0  501  502 -0.00000000000E+00 -0.00000000000E+00 -0.61420185788E+02  0.61420185788E+02  0.00000000000E+00 0.  1.
         25    1    1    2    0    0 -0.86408144428E+02  0.97528624186E+02  0.24142082751E+03  0.30147506682E+03  0.12500000000E+03 0.  0.
         25    1    1    2    0    0  0.10165403379E+03 -0.94330907704E+02  0.73843870224E+03  0.76167485169E+03  0.12500000000E+03 0.  0.
         25    1    1    2    0    0 -0.15245889365E+02 -0.31977164822E+01  0.18082765623E+03  0.22037763905E+03  0.12500000000E+03 0.  0.
</event>
<event>
 5    0  0.5619558E-005  0.3210792E+03  0.7546771E-02  0.1075154E+00
         21   -1    0    0  502  501  0.00000000000E+00  0.00000000000E+00  0.10477533713E+03  0.10477533713E+03  0.00000000000E+00 0. -1.
         21   -1    0    0  501  502 -0.00000000000E+00 -0.00000000000E+00 -0.98393231388E+03  0.98393231388E+03  0.00000000000E+00 0. -1.
         25    1    1    2    0    0 -0.46826404206E+02  0.14270273678E+02 -0.32066693203E+02  0.13802038130E+03  0.12500000000E+03 0.  0.
         25    1    1    2    0    0 -0.11783305564E+03 -0.88858016324E+02 -0.53575890535E+03  0.56959896482E+03  0.12500000000E+03 0.  0.
         25    1    1    2    0    0  0.16465945985E+03  0.74587742647E+02 -0.31133137820E+03  0.38108830489E+03  0.12500000000E+03 0.  0.
</event>
<event>
 5    0  0.5619558E-005  0.5707926E+03  0.7546771E-02  0.9967926E-01
         21   -1    0    0  502  501  0.00000000000E+00  0.00000000000E+00  0.15009922879E+04  0.15009922879E+04  0.00000000000E+00 0.  1.
         21   -1    0    0  501  502 -0.00000000000E+00 -0.00000000000E+00 -0.21705923345E+03  0.21705923345E+03  0.00000000000E+00 0.  1.
         25    1    1    2    0    0  0.43054160322E+02  0.19455048131E+03  0.10767109159E+04  0.11021047804E+04  0.12500000000E+03 0.  0.
         25    1    1    2    0    0  0.14437163806E+03 -0.13651150656E+02  0.25934475122E+03  0.32235729211E+03  0.12500000000E+03 0.  0.
         25    1    1    2    0    0 -0.18742579838E+03 -0.18089933066E+03 -0.52122612681E+02  0.29358944886E+03  0.12500000000E+03 0.  0.
</event>
<event>
 5    0  0.5619558E-005  0.3183114E+03  0.7546771E-02  0.1076429E+00
         21   -1    0    0  502  501  0.00000000000E+00  0.00000000000E+00  0.92941893896E+03  0.92941893896E+03  0.00000000000E+00 0.  1.
         21   -1    0    0  501  502 -0.00000000000E+00 -0.00000000000E+00 -0.10901663745E+03  0.10901663745E+03  0.00000000000E+00 0.  1.
         25    1    1    2    0    0  0.15012359311E+03 -0.44705188122E+02  0.46393341323E+02  0.20570121335E+03  0.12500000000E+03 0.  0.
         25    1    1    2    0    0 -0.56389426829E+02  0.18852233364E+02  0.46987468439E+03  0.48983915033E+03  0.12500000000E+03 0.  0.
         25    1    1    2    0    0 -0.93734166283E+02  0.25852954757E+02  0.30413427580E+03  0.34289521273E+03  0.12500000000E+03 0.  0.
</event>
<event>
 5    0  0.5619558E-005  0.4493220E+03  0.7546771E-02  0.1027924E+00
         21   -1    0    0  502  501  0.00000000000E+00  0.00000000000E+00  0.58712845033E+03  0.58712845033E+03  0.00000000000E+00 0.  1.
         21   -1    0    0  501  502 -0.00000000000E+00 -0.00000000000E+00 -0.34386050204E+03  0.34386050204E+03  0.00000000000E+00 0.  1.
         25    1    1    2    0    0  0.10385982577E+03  0.82585910140E+02  0.88712347301E+01  0.18251299890E+03  0.12500000000E+03 0.  0.
         25    1    1    2    0    0 -0.34150540459E+03 -0.18445538480E+03  0.59138995817E+02  0.41203416263E+03  0.12500000000E+03 0.  0.
         25    1    1    2    0    0  0.23764557882E+03  0.10186947466E+03  0.17525771774E+03  0.33644179085E+03  0.12500000000E+03 0.  0.
</event>
<event>
 5    0  0.5619558E-005  0.3528517E+03  0.7546771E-02  0.1061451E+00
         21   -1    0    0  502  501  0.00000000000E+00  0.00000000000E+00  0.46467517467E+03  0.46467517467E+03  0.00000000000E+00 0. -1.
         21   -1    0    0  501  502 -0.00000000000E+00 -0.00000000000E+00 -0.26793834094E+03  0.26793834094E+03  0.00000000000E+00 0. -1.
         25    1    1    2    0    0  0.32072460025E+02  0.26266716206E+02  0.16156552412E+03  0.20843944362E+03  0.12500000000E+03 0.  0.
         25    1    1    2    0    0  0.10539278247E+03 -0.18221464635E+03  0.11270326519E+03  0.26951222964E+03  0.12500000000E+03 0.  0.
         25    1    1    2    0    0 -0.13746524249E+03  0.15594793015E+03 -0.77531955581E+02  0.25466184234E+03  0.12500000000E+03 0.  0.
</event>
<event>
 5    0  0.5619558E-005  0.2371375E+03  0.7546771E-02  0.1121715E+00
         21   -1    0    0  502  501  0.00000000000E+00  0.00000000000E+00  0.11845751107E+03  0.11845751107E+03  0.00000000000E+00 0. -1.
         21   -1    0    0  501  502 -0.00000000000E+00 -0.00000000000E+00 -0.47472057121E+03  0.47472057121E+03  0.00000000000E+00 0. -1.
         25    1    1    2    0    0 -0.32868154696E+02 -0.73982211993E+02 -0.43095591859E+02  0.15503520027E+03  0.12500000000E+03 0.  0.
         25    1    1    2    0    0  0.74965285351E+01 -0.10439239487E+02 -0.53074401470E+02  0.13640772615E+03  0.12500000000E+03 0.  0.
         25    1    1    2    0    0  0.25371626161E+02  0.84421451480E+02 -0.26009306681E+03  0.30173515587E+03  0.12500000000E+03 0.  0.
</event>
<event>
 5    0  0.5619558E-005  0.3789082E+03  0.7546771E-02  0.1051338E+00
         21   -1    0    0  502  501  0.00000000000E+00  0.00000000000E+00  0.30522726146E+03  0.30522726146E+03  0.00000000000E+00 0. -1.
         21   -1    0    0  501  502 -0.00000000000E+00 -0.00000000000E+00 -0.47037559691E+03  0.47037559691E+03  0.00000000000E+00 0. -1.
         25    1    1    2    0    0 -0.91273371664E+02 -0.10908400091E+03 -0.60007970470E+02  0.19863560645E+03  0.12500000000E+03 0.  0.
         25    1    1    2    0    0  0.76768187188E+02 -0.15769300498E+03  0.78813585778E+02  0.22934040134E+03  0.12500000000E+03 0.  0.
         25    1    1    2    0    0  0.14505184476E+02  0.26677700589E+03 -0.18395395075E+03  0.34762685058E+03  0.12500000000E+03 0.  0.
</event>
<event>
 5    0  0.5619558E-005  0.2375021E+03  0.7546771E-02  0.1121468E+00
         21   -1    0    0  502  501  0.00000000000E+00  0.00000000000E+00  0.17145914669E+03  0.17145914669E+03  0.00000000000E+00 0. -1.
         21   -1    0    0  501  502 -0.00000000000E+00 -0.00000000000E+00 -0.32898357357E+03  0.32898357357E+03  0.00000000000E+00 0. -1.
         25    1    1    2    0    0 -0.59024183998E+02  0.87639208129E+02 -0.10773574820E+03  0.19595018892E+03  0.12500000000E+03 0.  0.
         25    1    1    2    0    0  0.48956604504E+02  0.16854205158E+02 -0.57430536892E+01  0.13542081089E+03  0.12500000000E+03 0.  0.
         25    1    1    2    0    0  0.10067579494E+02 -0.10449341329E+03 -0.44045624990E+02  0.16907172046E+03  0.12500000000E+03 0.  0.
</event>
<event>
 5    0  0.5619558E-005  0.2834330E+03  0.7546771E-02  0.1093829E+00
         21   -1    0    0  502  501  0.00000000000E+00  0.00000000000E+00  0.83551442613E+02  0.83551442613E+02  0.00000000000E+00 0. -1.
         21   -1    0    0  501  502 -0.00000000000E+00 -0.00000000000E+00 -0.96149482405E+03  0.96149482405E+03  0.00000000000E+00 0. -1.
         25    1    1    2    0    0  0.16112349885E+03  0.68291174641E+02 -0.42189726358E+03  0.47354700657E+03  0.12500000000E+03 0.  0.
         25    1    1    2    0    0 -0.25415205185E+02 -0.34304478455E+02 -0.29884715668E+03  0.32673743733E+03  0.12500000000E+03 0.  0.
         25    1    1    2    0    0 -0.13570829367E+03 -0.33986696186E+02 -0.15719896118E+03  0.24476182276E+03  0.12500000000E+03 0.  0.
</event>
<event>
 5    0  0.5619558E-005  0.3896164E+03  0.7546771E-02  0.1047436E+00
         21   -1    0    0  502  501  0.00000000000E+00  0.00000000000E+00  0.20910212586E+03  0.20910212586E+03  0.00000000000E+00 0.  1.
         21   -1    0    0  501  502 -0.00000000000E+00 -0.00000000000E+00 -0.72596552601E+03  0.72596552601E+03  0.00000000000E+00 0.  1.
         25    1    1    2    0    0 -0.19313868762E+02  0.46101288812E+02 -0.10883471143E+03  0.17311368741E+03  0.12500000000E+03 0.  0.
         25    1    1    2    0    0 -0.15971679641E+03 -0.25320447835E+03 -0.30098582276E+03  0.44253748814E+03  0.12500000000E+03 0.  0.
         25    1    1    2    0    0  0.17903066517E+03  0.20710318954E+03 -0.10704286596E+03  0.31941647631E+03  0.12500000000E+03 0.  0.
</event>
<event>
 5    0  0.5619558E-005  0.6422206E+03  0.7546771E-02  0.9821487E-01
         21   -1    0    0  502  501  0.00000000000E+00  0.00000000000E+00  0.53551122597E+03  0.53551122597E+03  0.00000000000E+00 0.  1.
         21   -1    0    0  501  502 -0.00000000000E+00 -0.00000000000E+00 -0.77019357727E+03  0.77019357727E+03  0.00000000000E+00 0.  1.
         25    1    1    2    0    0 -0.96215425071E+02 -0.38323750404E+03  0.30003015456E+03  0.51163608764E+03  0.12500000000E+03 0.  0.
         25    1    1    2    0    0  0.27874712382E+02  0.15592731884E+03 -0.67874124107E+01  0.20189452028E+03  0.12500000000E+03 0.  0.
         25    1    1    2    0    0  0.68340712690E+02  0.22731018521E+03 -0.52792509345E+03  0.59217419532E+03  0.12500000000E+03 0.  0.
</event>
<event>
 5    0  0.5619558E-005  0.3959804E+03  0.7546771E-02  0.1045180E+00
         21   -1    0    0  502  501  0.00000000000E+00  0.00000000000E+00  0.58822624468E+03  0.58822624468E+03  0.00000000000E+00 0. -1.
         21   -1    0    0  501  502 -0.00000000000E+00 -0.00000000000E+00 -0.26656487701E+03  0.26656487701E+03  0.00000000000E+00 0. -1.
         25    1    1    2    0    0 -0.14918924603E+03 -0.55656128497E+02  0.11591158295E+03  0.23327136737E+03  0.12500000000E+03 0.  0.
         25    1    1    2    0    0 -0.16830808567E+03 -0.31102947601E+02 -0.34697959359E+01  0.21197180127E+03  0.12500000000E+03 0.  0.
         25    1    1    2    0    0  0.31749733170E+03  0.86759076098E+02  0.20921958065E+03  0.40954795305E+03  0.12500000000E+03 0.  0.
</event>
<event>
 5    0  0.5619558E-005  0.2888512E+03  0.7546771E-02  0.1090950E+00
         21   -1    0    0  502  501  0.00000000000E+00  0.00000000000E+00  0.12237586474E+03  0.12237586474E+03  0.00000000000E+00 0.  1.
         21   -1    0    0  501  502 -0.00000000000E+00 -0.00000000000E+00 -0.68179329807E+03  0.68179329807E+03  0.00000000000E+00 0.  1.
         25    1    1    2    0    0  0.57652418152E+02 -0.86254567111E+02 -0.84020400422E+02  0.18288816078E+03  0.12500000000E+03 0.  0.
         25    1    1    2    0    0  0.81509907819E+02  0.10400459235E+03 -0.11601880998E+03  0.21574564786E+03  0.12500000000E+03 0.  0.
         25    1    1    2    0    0 -0.13916232597E+03 -0.17750025240E+02 -0.35937822293E+03  0.40553535417E+03  0.12500000000E+03 0.  0.
</event>
<event>
 5    0  0.5619558E-005  0.3630132E+03  0.7546771E-02  0.1057397E+00
         21   -1    0    0  502  501  0.00000000000E+00  0.00000000000E+00  0.54939567466E+02  0.54939567466E+02  0.00000000000E+00 0.  1.
         21   -1    0    0  501  502 -0.00000000000E+00 -0.00000000000E+00 -0.23986099910E+04  0.23986099910E+04  0.00000000000E+00 0.  1.
         25    1    1    2    0    0 -0.49938836147E+02 -0.11758359353E+03 -0.62955246510E+03  0.65443188732E+03  0.12500000000E+03 0.  0.
         25    1    1    2    0    0  0.48042111685E+02 -0.14177580322E+03 -0.11431337744E+04  0.11596500546E+04  0.12500000000E+03 0.  0.
         25    1    1    2    0    0  0.18967244621E+01  0.25935939675E+03 -0.57098418402E+03  0.63946761657E+03  0.12500000000E+03 0.  0.
</event>
<event>
 5    0  0.5619558E-005  0.3177986E+03  0.7546771E-02  0.1076667E+00
         21   -1    0    0  502  501  0.00000000000E+00  0.00000000000E+00  0.20267639904E+03  0.20267639904E+03  0.00000000000E+00 0.  1.
         21   -1    0    0  501  502 -0.00000000000E+00 -0.00000000000E+00 -0.49831128625E+03  0.49831128625E+03  0.00000000000E+00 0.  1.
         25    1    1    2    0    0  0.55940876541E+02  0.63448559942E+02 -0.99944984114E+02  0.18102237783E+03  0.12500000000E+03 0.  0.
         25    1    1    2    0    0  0.12392810965E+03  0.10361081835E+03 -0.59977112387E+02  0.21287468626E+03  0.12500000000E+03 0.  0.
         25    1    1    2    0    0 -0.17986898619E+03 -0.16705937829E+03 -0.13571279071E+03  0.30709062120E+03  0.12500000000E+03 0.  0.
</event>
<event>
 5    0  0.5862379E-005  0.4182117E+03  0.7546771E-02  0.1037650E+00
         21   -1    0    0  502  501  0.00000000000E+00  0.00000000000E+00  0.13027925645E+03  0.13027925645E+03  0.00000000000E+00 0. -1.
         21   -1    0    0  501  502 -0.00000000000E+00 -0.00000000000E+00 -0.13425086057E+04  0.13425086057E+04  0.00000000000E+00 0. -1.
         25    1    1    2    0    0  0.28742490215E+02  0.30465059840E+02 -0.99722340669E+03  0.10058994848E+04  0.12500000000E+03 0.  0.
         25    1    1    2    0    0  0.86474028923E+02 -0.14041068014E+03 -0.14500120469E+03  0.25267225043E+03  0.12500000000E+03 0.  0.
         25    1    1    2    0    0 -0.11521651914E+03  0.10994562030E+03 -0.70004737827E+02  0.21421612690E+03  0.12500000000E+03 0.  0.
</event>
<event>
 5    0  0.5619558E-005  0.2646999E+03  0.7546771E-02  0.1104352E+00
         21   -1    0    0  502  501  0.00000000000E+00  0.00000000000E+00  0.19989972440E+03  0.19989972440E+03  0.00000000000E+00 0.  1.
         21   -1    0    0  501  502 -0.00000000000E+00 -0.00000000000E+00 -0.35050599909E+03  0.35050599909E+03  0.00000000000E+00 0.  1.
         25    1    1    2    0    0 -0.48303470172E+02  0.45140598860E+02  0.66407345864E+02  0.15622366812E+03  0.12500000000E+03 0.  0.
         25    1    1    2    0    0  0.10480999204E+03  0.22656223020E+02 -0.16352282058E+03  0.23208436337E+03  0.12500000000E+03 0.  0.
         25    1    1    2    0    0 -0.56506521868E+02 -0.67796821879E+02 -0.53490799971E+02  0.16209769200E+03  0.12500000000E+03 0.  0.
</event>
<event>
 5    0  0.5619558E-005  0.3079343E+03  0.7546771E-02  0.1081340E+00
         21   -1    0    0  502  501  0.00000000000E+00  0.00000000000E+00  0.15286861598E+04  0.15286861598E+04  0.00000000000E+00 0. -1.
         21   -1    0    0  501  502 -0.00000000000E+00 -0.00000000000E+00 -0.62029434664E+02  0.62029434664E+02  0.00000000000E+00 0. -1.
         25    1    1    2    0    0 -0.33363325668E+02 -0.40227063569E+02  0.43442589323E+03  0.45506283616E+03  0.12500000000E+03 0.  0.
         25    1    1    2    0    0  0.15966061041E+03  0.12946912226E+03  0.34763655498E+03  0.42276463723E+03  0.12500000000E+03 0.  0.
         25    1    1    2    0    0 -0.12629728474E+03 -0.89242058686E+02  0.68459427696E+03  0.71288812111E+03  0.12500000000E+03 0.  0.
</event>
<event>
 5    0  0.5619558E-005  0.2429677E+03  0.7546771E-02  0.1117831E+00
         21   -1    0    0  502  501  0.00000000000E+00  0.00000000000E+00  0.39224164258E+03  0.39224164258E+03  0.00000000000E+00 0.  1.
         21   -1    0    0  501  502 -0.00000000000E+00 -0.00000000000E+00 -0.15050243306E+03  0.15050243306E+03  0.00000000000E+00 0.  1.
         25    1    1    2    0    0  0.97726183695E+02  0.64009746767E+02  0.30887102202E+02  0.17385818285E+03  0.12500000000E+03 0.  0.
         25    1    1    2    0    0 -0.11032868983E+03 -0.15784991006E+02  0.10492109589E+03  0.19762343511E+03  0.12500000000E+03 0.  0.
         25    1    1    2    0    0  0.12602506135E+02 -0.48224755761E+02  0.10593101144E+03  0.17126245769E+03  0.12500000000E+03 0.  0.
</event>
<event>
 5    0  0.5619558E-005  0.2379037E+03  0.7546771E-02  0.1121197E+00
         21   -1    0    0  502  501  0.00000000000E+00  0.00000000000E+00  0.98284350309E+03  0.98284350309E+03  0.00000000000E+00 0. -1.
         21   -1    0    0  501  502 -0.00000000000E+00 -0.00000000000E+00 -0.57586130671E+02  0.57586130671E+02  0.00000000000E+00 0. -1.
         25    1    1    2    0    0 -0.28890461016E+02 -0.45457137916E+02  0.40820814667E+03  0.43030210450E+03  0.12500000000E+03 0.  0.
         25    1    1    2    0    0 -0.50414564984E+02  0.48197666772E+02  0.12142775204E+03  0.18770813091E+03  0.12500000000E+03 0.  0.
         25    1    1    2    0    0  0.79305026000E+02 -0.27405288556E+01  0.39562147371E+03  0.42241939835E+03  0.12500000000E+03 0.  0.
</event>
<event>
 5    0  0.5619558E-005  0.6036771E+03  0.7546771E-02  0.9897806E-01
         21   -1    0    0  502  501  0.00000000000E+00  0.00000000000E+00  0.86049994302E+03  0.86049994302E+03  0.00000000000E+00 0.  1.
         21   -1    0    0  501  502 -0.00000000000E+00 -0.00000000000E+00 -0.42350504089E+03  0.42350504089E+03  0.00000000000E+00 0.  1.
         25    1    1    2    0    0 -0.19779137010E+03 -0.40811276763E+03  0.15860309447E+03  0.49644475903E+03  0.12500000000E+03 0.  0.
         25    1    1    2    0    0 -0.46677216344E+02  0.54898154614E+02  0.30705166484E+03  0.33926139596E+03  0.12500000000E+03 0.  0.
         25    1    1    2    0    0  0.24446858644E+03  0.35321461302E+03 -0.28659857186E+02  0.44829882893E+03  0.12500000000E+03 0.  0.
</event>
<event>
 5    0  0.5619558E-005  0.4535250E+03  0.7546771E-02  0.1026676E+00
         21   -1    0    0  502  501  0.00000000000E+00  0.00000000000E+00  0.14715644474E+03  0.14715644474E+03  0.00000000000E+00 0. -1.
         21   -1    0    0  501  502 -0.00000000000E+00 -0.00000000000E+00 -0.13977298038E+04  0.13977298038E+04  0.00000000000E+00 0. -1.
         25    1    1    2    0    0  0.15393707266E+03  0.30952773554E+03 -0.47575945921E+03  0.60122882868E+03  0.12500000000E+03 0.  0.
         25    1    1    2    0    0 -0.57959156670E+02 -0.30928354413E+03 -0.68027809612E+03  0.75988082129E+03  0.12500000000E+03 0.  0.
         25    1    1    2    0    0 -0.95977915986E+02 -0.24419140604E+00 -0.94535803682E+02  0.18377659852E+03  0.12500000000E+03 0.  0.
</event>
<event>
 5    0  0.5619558E-005  0.2451920E+03  0.7546771E-02  0.1116382E+00
         21   -1    0    0  502  501  0.00000000000E+00  0.00000000000E+00  0.58833250142E+02  0.58833250142E+02  0.00000000000E+00 0. -1.
         21   -1    0    0  501  502 -0.00000000000E+00 -0.00000000000E+00 -0.10218559581E+04  0.10218559581E+04  0.00000000000E+00 0. -1.
         25    1    1    2    0    0 -0.91770950394E+01  0.33656957481E+02 -0.17914128298E+03  0.22120942369E+03  0.12500000000E+03 0.  0.
         25    1    1    2    0    0  0.14156885483E+02  0.28916017310E+02 -0.66040402825E+03  0.67290046366E+03  0.12500000000E+03 0.  0.
         25    1    1    2    0    0 -0.49797904440E+01 -0.62572974791E+02 -0.12347739675E+03  0.18657932092E+03  0.12500000000E+03 0.  0.
</event>
<event>
 5    0  0.5619558E-005  0.3073401E+03  0.7546771E-02  0.1081628E+00
         21   -1    0    0  502  501  0.00000000000E+00  0.00000000000E+00  0.67436178775E+03  0.67436178775E+03  0.00000000000E+00 0.  1.
         21   -1    0    0  501  502 -0.00000000000E+00 -0.00000000000E+00 -0.14007007987E+03  0.14007007987E+03  0.00000000000E+00 0.  1.
         25    1    1    2    0    0 -0.10598017948E+03 -0.65513469358E+01  0.47337113795E+03  0.50097899441E+03  0.12500000000E+03 0.  0.
         25    1    1    2    0    0  0.12528318876E+03  0.13191369021E+02  0.12677406158E+02  0.17792022434E+03  0.12500000000E+03 0.  0.
         25    1    1    2    0    0 -0.19303009280E+02 -0.66400220853E+01  0.48243163772E+02  0.13553264888E+03  0.12500000000E+03 0.  0.
</event>
<event>
 5    0  0.5619558E-005  0.5381198E+03  0.7546771E-02  0.1004282E+00
         21   -1    0    0  502  501  0.00000000000E+00  0.00000000000E+00  0.13358724888E+03  0.13358724888E+03  0.00000000000E+00 0. -1.
         21   -1    0    0  501  502 -0.00000000000E+00 -0.00000000000E+00 -0.21676688506E+04  0.21676688506E+04  0.00000000000E+00 0. -1.
         25    1    1    2    0    0 -0.51317183441E+02 -0.24977318576E+03 -0.15034211957E+03  0.32132203559E+03  0.12500000000E+03 0.  0.
         25    1    1    2    0    0 -0.83365000517E+02 -0.12291338432E+03 -0.60013052019E+03  0.63074484907E+03  0.12500000000E+03 0.  0.
         25    1    1    2    0    0  0.13468218396E+03  0.37268657008E+03 -0.12836089620E+04  0.13491892149E+04  0.12500000000E+03 0.  0.
</event>
<event>
 5    0  0.5619558E-005  0.2339221E+03  0.7546771E-02  0.1123909E+00
         21   -1    0    0  502  501  0.00000000000E+00  0.00000000000E+00  0.26905841162E+03  0.26905841162E+03  0.00000000000E+00 0.  1.
         21   -1    0    0  501  502 -0.00000000000E+00 -0.00000000000E+00 -0.20337425231E+03  0.20337425231E+03  0.00000000000E+00 0.  1.
         25    1    1    2    0    0  0.76391153014E+02 -0.12238768815E+02  0.44664845839E+02  0.15364030778E+03  0.12500000000E+03 0.  0.
         25    1    1    2    0    0 -0.73723605285E+01 -0.36045789410E+02  0.84431447979E+02  0.15526532144E+03  0.12500000000E+03 0.  0.
         25    1    1    2    0    0 -0.69018792486E+02  0.48284558225E+02 -0.63412134511E+02  0.16352703471E+03  0.12500000000E+03 0.  0.
</event>
<event>
 5    0  0.5619558E-005  0.2587315E+03  0.7546771E-02  0.1107908E+00
         21   -1    0    0  502  501  0.00000000000E+00  0.00000000000E+00  0.43839915068E+02  0.43839915068E+02  0.00000000000E+00 0. -1.
         21   -1    0    0  501  502 -0.00000000000E+00 -0.00000000000E+00 -0.15269647075E+04  0.15269647075E+04  0.00000000000E+00 0. -1.
         25    1    1    2    0    0  0.77573807962E+02 -0.24740347799E+02 -0.43849762107E+03  0.46317917070E+03  0.12500000000E+03 0.  0.
         25    1    1    2    0    0 -0.12965247276E+03 -0.78677878287E+02 -0.51286316706E+03  0.54923000678E+03  0.12500000000E+03 0.  0.
         25    1    1    2    0    0  0.52078664795E+02  0.10341822609E+03 -0.53176400428E+03  0.55839544505E+03  0.12500000000E+03 0.  0.
</event>
<event>
 5    0  0.5619558E-005  0.2396457E+03  0.7546771E-02  0.1120029E+00
         21   -1    0    0  502  501  0.00000000000E+00  0.00000000000E+00  0.11168080780E+04  0.11168080780E+04  0.00000000000E+00 0. -1.
         21   -1    0    0  501  502 -0.00000000000E+00 -0.00000000000E+00 -0.51423382171E+02  0.51423382171E+02  0.00000000000E+00 0. -1.
         25    1    1    2    0    0 -0.42407900156E+02  0.98475182252E+02  0.39269064936E+03  0.42582477336E+03  0.12500000000E+03 0.  0.
         25    1    1    2    0    0  0.18863656232E+02 -0.10778481045E+02  0.47415517458E+03  0.49083616692E+03  0.12500000000E+03 0.  0.
         25    1    1    2    0    0  0.23544243924E+02 -0.87696701207E+02  0.19853887190E+03  0.25157051989E+03  0.12500000000E+03 0.  0.
</event>
<event>
 5    0  0.5619558E-005  0.3498632E+03  0.7546771E-02  0.1062671E+00
         21   -1    0    0  502  501  0.00000000000E+00  0.00000000000E+00  0.15023637522E+03  0.15023637522E+03  0.00000000000E+00 0.  1.
         21   -1    0    0  501  502 -0.00000000000E+00 -0.00000000000E+00 -0.81474435453E+03  0.81474435453E+03  0.00000000000E+00 0.  1.
         25    1    1    2    0    0 -0.22098432834E+03 -0.12450672150E+03 -0.35511436638E+03  0.45394626365E+03  0.12500000000E+03 0.  0.
         25    1    1    2    0    0  0.66366822496E+02 -0.25377265621E+02 -0.18016187533E+03  0.23050349685E+03  0.12500000000E+03 0.  0.
         25    1    1    2    0    0  0.15461750584E+03  0.14988398712E+03 -0.12923173760E+03  0.28053096925E+03  0.12500000000E+03 0.  0.
</event>
<event>
 5    0  0.5619558E-005  0.3836804E+03  0.7546771E-02  0.1049582E+00
         21   -1    0    0  502  501  0.00000000000E+00  0.00000000000E+00  0.17059894817E+04  0.17059894817E+04  0.00000000000E+00 0. -1.
         21   -1    0    0  501  502 -0.00000000000E+00 -0.00000000000E+00 -0.86290500399E+02  0.86290500399E+02  0.00000000000E+00 0. -1.
         25    1    1    2    0    0 -0.15750794853E+03  0.18396015154E+03  0.36343270702E+03  0.45426690804E+03  0.12500000000E+03 0.  0.
         25    1    1    2    0    0 -0.43847262643E+02  0.10130617433E+02  0.21605791258E+03  0.25363602551E+03  0.12500000000E+03 0.  0.
         25    1    1    2    0    0  0.20135521118E+03 -0.19409076897E+03  0.10402083618E+04  0.10843770486E+04  0.12500000000E+03 0.  0.
</event>
<event>
 5    0  0.5619558E-005  0.2524373E+03  0.7546771E-02  0.1111774E+00
         21   -1    0    0  502  501  0.00000000000E+00  0.00000000000E+00  0.44116593284E+03  0.44116593284E+03  0.00000000000E+00 0.  1.
         21   -1    0    0  501  502 -0.00000000000E+00 -0.00000000000E+00 -0.14444587534E+03  0.14444587534E+03  0.00000000000E+00 0.  1.
         25    1    1    2    0    0 -0.99351668145E+02  0.92392982990E+02  0.20714411092E+03  0.27738222718E+03  0.12500000000E+03 0.  0.
         25    1    1    2    0    0  0.83265038738E+02 -0.58570627762E+02  0.72011986016E+02  0.17656248538E+03  0.12500000000E+03 0.  0.
         25    1    1    2    0    0  0.16086629407E+02 -0.33822355228E+02  0.17563960569E+02  0.13166709562E+03  0.12500000000E+03 0.  0.
</event>
<event>
 5    0  0.5619558E-005  0.4430920E+03  0.7546771E-02  0.1029802E+00
         21   -1    0    0  502  501  0.00000000000E+00  0.00000000000E+00  0.36288702793E+03  0.36288702793E+03  0.00000000000E+00 0.  1.
         21   -1    0    0  501  502 -0.00000000000E+00 -0.00000000000E+00 -0.54102375813E+03  0.54102375813E+03  0.00000000000E+00 0.  1.
         25    1    1    2    0    0 -0.48827837069E+02  0.41471810164E+02 -0.11312910082E+03  0.18035315956E+03  0.12500000000E+03 0.  0.
         25    1    1    2    0    0  0.16818301611E+03  0.27222942496E+03 -0.11422419292E+03  0.36203114917E+03  0.12500000000E+03 0.  0.
         25    1    1    2    0    0 -0.11935517904E+03 -0.31370123512E+03  0.49216563542E+02  0.36152647732E+03  0.12500000000E+03 0.  0.
</event>
<event>
 5    0  0.5619558E-005  0.4822690E+03  0.7546771E-02  0.1018513E+00
         21   -1    0    0  502  501  0.00000000000E+00  0.00000000000E+00  0.19072313924E+04  0.19072313924E+04  0.00000000000E+00 0. -1.
         21   -1    0    0  501  502 -0.00000000000E+00 -0.00000000000E+00 -0.12194820001E+03  0.12194820001E+03  0.00000000000E+00 0. -1.
         25    1    1    2    0    0  0.19442030166E+03 -0.76956662385E+02  0.12010899864E+03  0.27161140097E+03  0.12500000000E+03 0.  0.
         25    1    1    2    0    0  0.98833568994E+02  0.11023170357E+03  0.31459591095E+03  0.36947894394E+03  0.12500000000E+03 0.  0.
         25    1    1    2    0    0 -0.29325387065E+03 -0.33275041184E+02  0.13505782828E+04  0.13880892475E+04  0.12500000000E+03 0.  0.
</event>
<event>
 5    0  0.5619558E-005  0.2466979E+03  0.7546771E-02  0.1115410E+00
         21   -1    0    0  502  501  0.00000000000E+00  0.00000000000E+00  0.18568651223E+03  0.18568651223E+03  0.00000000000E+00 0.  1.
         21   -1    0    0  501  502 -0.00000000000E+00 -0.00000000000E+00 -0.32775585649E+03  0.32775585649E+03  0.00000000000E+00 0.  1.
         25    1    1    2    0    0 -0.40952856972E+02  0.81912323915E+01  0.23059646405E+02  0.13379454426E+03  0.12500000000E+03 0.  0.
         25    1    1    2    0    0  0.87994406296E+02 -0.85276205670E+02 -0.36436018409E+02  0.17879493905E+03  0.12500000000E+03 0.  0.
         25    1    1    2    0    0 -0.47041549323E+02  0.77084973279E+02 -0.12869297225E+03  0.20085288540E+03  0.12500000000E+03 0.  0.
</event>
<event>
 5    0  0.5619558E-005  0.3920587E+03  0.7546771E-02  0.1046565E+00
         21   -1    0    0  502  501  0.00000000000E+00  0.00000000000E+00  0.12051048508E+03  0.12051048508E+03  0.00000000000E+00 0.  1.
         21   -1    0    0  501  502 -0.00000000000E+00 -0.00000000000E+00 -0.12754909873E+04  0.12754909873E+04  0.00000000000E+00 0.  1.
         25    1    1    2    0    0 -0.11204526940E+03 -0.47089796052E+02 -0.92621099348E+02  0.19742152702E+03  0.12500000000E+03 0.  0.
         25    1    1    2    0    0 -0.61739502962E+02  0.21246864365E+03 -0.71167034720E+03  0.75568139705E+03  0.12500000000E+03 0.  0.
         25    1    1    2    0    0  0.17378477236E+03 -0.16537884760E+03 -0.35068905570E+03  0.44289854835E+03  0.12500000000E+03 0.  0.
</event>
<event>
 5    0  0.5619558E-005  0.3290326E+03  0.7546771E-02  0.1071566E+00
         21   -1    0    0  502  501  0.00000000000E+00  0.00000000000E+00  0.23770145617E+04  0.23770145617E+04  0.00000000000E+00 0. -1.
         21   -1    0    0  501  502 -0.00000000000E+00 -0.00000000000E+00 -0.45545561247E+02  0.45545561247E+02  0.00000000000E+00 0. -1.
         25    1    1    2    0    0  0.12477282424E+03 -0.59465662202E+02  0.31030493183E+03  0.36196487864E+03  0.12500000000E+03 0.  0.
         25    1    1    2    0    0  0.78964730164E+02  0.57271418479E+02  0.94438322838E+03  0.95760123540E+03  0.12500000000E+03 0.  0.
         25    1    1    2    0    0 -0.20373755440E+03  0.21942437229E+01  0.10767808402E+04  0.11029940089E+04  0.12500000000E+03 0.  0.
</event>
<event>
 5    0  0.5619558E-005  0.2168705E+03  0.7546771E-02  0.1136238E+00
         21   -1    0    0  502  501  0.00000000000E+00  0.00000000000E+00  0.14454269389E+03  0.14454269389E+03  0.00000000000E+00 0. -1.
         21   -1    0    0  501  502 -0.00000000000E+00 -0.00000000000E+00 -0.32539035021E+03  0.32539035021E+03  0.00000000000E+00 0. -1.
         25    1    1    2    0    0  0.25061241158E+02 -0.53373665447E+02  0.10041630443E+01  0.13821296001E+03  0.12500000000E+03 0.  0.
         25    1    1    2    0    0 -0.22992370571E+02 -0.17518591999E+02 -0.53413826435E+02  0.13897333206E+03  0.12500000000E+03 0.  0.
         25    1    1    2    0    0 -0.20688705876E+01  0.70892257446E+02 -0.12843799293E+03  0.19274675203E+03  0.12500000000E+03 0.  0.
</event>
<event>
 5    0  0.5619558E-005  0.2262159E+03  0.7546771E-02  0.1129332E+00
         21   -1    0    0  502  501  0.00000000000E+00  0.00000000000E+00  0.13672507467E+03  0.13672507467E+03  0.00000000000E+00 0.  1.
         21   -1    0    0  501  502 -0.00000000000E+00 -0.00000000000E+00 -0.37428110541E+03  0.37428110541E+03  0.00000000000E+00 0.  1.
         25    1    1    2    0    0 -0.33157646186E+02  0.12876503127E+02  0.53216284275E+01  0.13007134028E+03  0.12500000000E+03 0.  0.
         25    1    1    2    0    0  0.16299519001E+02  0.40758635907E+02 -0.19500784939E+03  0.23575411353E+03  0.12500000000E+03 0.  0.
         25    1    1    2    0    0  0.16858127185E+02 -0.53635139034E+02 -0.47869809777E+02  0.14518072627E+03  0.12500000000E+03 0.  0.
</event>
<event>
 5    0  0.5619558E-005  0.2313574E+03  0.7546771E-02  0.1125688E+00
         21   -1    0    0  502  501  0.00000000000E+00  0.00000000000E+00  0.57062916648E+02  0.57062916648E+02  0.00000000000E+00 0.  1.
         21   -1    0    0  501  502 -0.00000000000E+00 -0.00000000000E+00 -0.93802134364E+03  0.93802134364E+03  0.00000000000E+00 0.  1.
         25    1    1    2    0    0 -0.30119292468E+02  0.10626351656E+02 -0.30105205685E+03  0.32753233743E+03  0.12500000000E+03 0.  0.
         25    1    1    2    0    0 -0.10775618967E+02 -0.94917424628E+02 -0.18486345753E+03  0.24274457644E+03  0.12500000000E+03 0.  0.
         25    1    1    2    0    0  0.40894911435E+02  0.84291072972E+02 -0.39504291262E+03  0.42480734642E+03  0.12500000000E+03 0.  0.
</event>
<event>
 5    0  0.6562346E-005  0.3436917E+03  0.7546771E-02  0.1065234E+00
         21   -1    0    0  502  501  0.00000000000E+00  0.00000000000E+00  0.26448389166E+03  0.26448389166E+03  0.00000000000E+00 0.  1.
         21   -1    0    0  501  502 -0.00000000000E+00 -0.00000000000E+00 -0.44662076622E+03  0.44662076622E+03  0.00000000000E+00 0.  1.
         25    1    1    2    0    0  0.11499699011E+03 -0.13546057004E+03 -0.21484888143E+03  0.30554691231E+03  0.12500000000E+03 0.  0.
         25    1    1    2    0    0  0.26959449035E+02 -0.31833652211E+02  0.71747612325E+02  0.15004303776E+03  0.12500000000E+03 0.  0.
         25    1    1    2    0    0 -0.14195643914E+03  0.16729422225E+03 -0.39035605448E+02  0.25551470781E+03  0.12500000000E+03 0.  0.
</event>
<event>
 5    0  0.5619558E-005  0.2765177E+03  0.7546771E-02  0.1097606E+00
         21   -1    0    0  502  501  0.00000000000E+00  0.00000000000E+00  0.24109674217E+03  0.24109674217E+03  0.00000000000E+00 0. -1.
         21   -1    0    0  501  502 -0.00000000000E+00 -0.00000000000E+00 -0.31714254475E+03  0.31714254475E+03  0.00000000000E+00 0. -1.
         25    1    1    2    0    0 -0.70445012872E+02  0.23818824764E+02 -0.43078910326E+02  0.15169254684E+03  0.12500000000E+03 0.  0.
         25    1    1    2    0    0  0.13123658180E+03 -0.12444384088E+01  0.10495156733E+03  0.20943834538E+03  0.12500000000E+03 0.  0.
         25    1    1    2    0    0 -0.60791568928E+02 -0.22574386355E+02 -0.13791845958E+03  0.19710839471E+03  0.12500000000E+03 0.  0.
</event>
<event>
 5    0  0.5619558E-005  0.2736380E+03  0.7546771E-02  0.1099215E+00
         21   -1    0    0  502  501  0.00000000000E+00  0.00000000000E+00  0.58618726958E+03  0.58618726958E+03  0.00000000000E+00 0. -1.
         21   -1    0    0  501  502 -0.00000000000E+00 -0.00000000000E+00 -0.12773687905E+03  0.12773687905E+03  0.00000000000E+00 0. -1.
         25    1    1    2    0    0  0.99955771979E+02  0.47728908542E+02  0.31740642408E+03  0.35866564250E+03  0.12500000000E+03 0.  0.
         25    1    1    2    0    0 -0.37444326580E+02  0.55757667649E+02  0.10780552499E+03  0.17820781776E+03  0.12500000000E+03 0.  0.
         25    1    1    2    0    0 -0.62511445399E+02 -0.10348657619E+03  0.33238441464E+02  0.17705068836E+03  0.12500000000E+03 0.  0.
</event>
<event>
 5    0  0.5619558E-005  0.3280361E+03  0.7546771E-02  0.1072009E+00
         21   -1    0    0  502  501  0.00000000000E+00  0.00000000000E+00  0.16472285263E+04  0.16472285263E+04  0.00000000000E+00 0. -1.
         21   -1    0    0  501  502 -0.00000000000E+00 -0.00000000000E+00 -0.65326493320E+02  0.65326493320E+02  0.00000000000E+00 0. -1.
         25    1    1    2    0    0  0.19513465267E+03  0.16236762324E+03  0.58766726077E+03  0.65224120318E+03  0.12500000000E+03 0.  0.
         25    1    1    2    0    0 -0.14796568341E+03 -0.74317722230E+02  0.52254255605E+03  0.56222121108E+03  0.12500000000E+03 0.  0.
         25    1    1    2    0    0 -0.47168969256E+02 -0.88049901011E+02  0.47169221621E+03  0.49809260541E+03  0.12500000000E+03 0.  0.
</event>
<event>
 5    0  0.5619558E-005  0.2503569E+03  0.7546771E-02  0.1113079E+00
         21   -1    0    0  502  501  0.00000000000E+00  0.00000000000E+00  0.14716013565E+03  0.14716013565E+03  0.00000000000E+00 0. -1.
         21   -1    0    0  501  502 -0.00000000000E+00 -0.00000000000E+00 -0.42592105119E+03  0.42592105119E+03  0.00000000000E+00 0. -1.
         25    1    1    2    0    0 -0.24671375457E+02 -0.97298225411E+02 -0.13406325924E+03  0.20898224545E+03  0.12500000000E+03 0.  0.
         25    1    1    2    0    0 -0.15486928708E+02  0.17420595130E+02 -0.16583241099E+03  0.20897059753E+03  0.12500000000E+03 0.  0.
         25    1    1    2    0    0  0.40158304165E+02  0.79877630281E+02  0.21134754691E+02  0.15512834386E+03  0.12500000000E+03 0.  0.
</event>
<event>
 5    0  0.5619558E-005  0.2171046E+03  0.7546771E-02  0.1136060E+00
         21   -1    0    0  502  501  0.00000000000E+00  0.00000000000E+00  0.84929986924E+02  0.84929986924E+02  0.00000000000E+00 0. -1.
         21   -1    0    0  501  502 -0.00000000000E+00 -0.00000000000E+00 -0.55497939884E+03  0.55497939884E+03  0.00000000000E+00 0. -1.
         25    1    1    2    0    0 -0.31197150284E+02  0.17361675634E+02 -0.22077798025E+03  0.25620813127E+03  0.12500000000E+03 0.  0.
         25    1    1    2    0    0  0.43722420084E+02  0.33772213395E+02 -0.19384972260E+03  0.23718121209E+03  0.12500000000E+03 0.  0.
         25    1    1    2    0    0 -0.12525269800E+02 -0.51133889029E+02 -0.55421709072E+02  0.14652004241E+03  0.12500000000E+03 0.  0.
</event>
<event>
 5    0  0.5619558E-005  0.2536946E+03  0.7546771E-02  0.1110992E+00
         21   -1    0    0  502  501  0.00000000000E+00  0.00000000000E+00  0.83419656092E+03  0.83419656092E+03  0.00000000000E+00 0. -1.
         21   -1    0    0  501  502 -0.00000000000E+00 -0.00000000000E+00 -0.77153227780E+02  0.77153227780E+02  0.00000000000E+00 0. -1.
         25    1    1    2    0    0  0.94490167655E+02  0.87404851947E+02  0.24387029051E+03  0.30276346959E+03  0.12500000000E+03 0.  0.
         25    1    1    2    0    0 -0.12177582171E+03 -0.90540170176E+02  0.27273993975E+03  0.33621265280E+03  0.12500000000E+03 0.  0.
         25    1    1    2    0    0  0.27285654050E+02  0.31353182294E+01  0.24043310288E+03  0.27237366631E+03  0.12500000000E+03 0.  0.
</event>
<event>
 5    0  0.6348156E-005  0.2851423E+03  0.7546771E-02  0.1092913E+00
         21   -1    0    0  502  501  0.00000000000E+00  0.00000000000E+00  0.46541081056E+03  0.46541081056E+03  0.00000000000E+00 0. -1.
         21   -1    0    0  501  502 -0.00000000000E+00 -0.00000000000E+00 -0.17469759763E+03  0.17469759763E+03  0.00000000000E+00 0. -1.
         25    1    1    2    0    0 -0.76684237557E+02 -0.91067066757E+02  0.59165391153E+02  0.18248075638E+03  0.12500000000E+03 0.  0.
         25    1    1    2    0    0  0.31015145158E+02  0.10930196941E+03  0.26948313089E+03  0.31804876604E+03  0.12500000000E+03 0.  0.
         25    1    1    2    0    0  0.45669092398E+02 -0.18234902650E+02 -0.37935309119E+02  0.13957888577E+03  0.12500000000E+03 0.  0.
</event>
<event>
 5    0  0.5619558E-005  0.3909419E+03  0.7546771E-02  0.1046962E+00
         21   -1    0    0  502  501  0.00000000000E+00  0.00000000000E+00  0.86910227827E+03  0.86910227827E+03  0.00000000000E+00 0. -1.
         21   -1    0    0  501  502 -0.00000000000E+00 -0.00000000000E+00 -0.17585452531E+03  0.17585452531E+03  0.00000000000E+00 0. -1.
         25    1    1    2    0    0  0.13361928877E+03 -0.12303049917E+03  0.17183452976E+03  0.27954020046E+03  0.12500000000E+03 0.  0.
         25    1    1    2    0    0  0.24161696980E+02 -0.16452124394E+03  0.21965822097E+03  0.30253224844E+03  0.12500000000E+03 0.  0.
         25    1    1    2    0    0 -0.15778098575E+03  0.28755174311E+03  0.30175500224E+03  0.46288435468E+03  0.12500000000E+03 0.  0.
</event>
<event>
 5    0  0.5619558E-005  0.3691961E+03  0.7546771E-02  0.1055001E+00
         21   -1    0    0  502  501  0.00000000000E+00  0.00000000000E+00  0.29972484280E+03  0.29972484280E+03  0.00000000000E+00 0.  1.
         21   -1    0    0  501  502 -0.00000000000E+00 -0.00000000000E+00 -0.45476957377E+03  0.45476957377E+03  0.00000000000E+00 0.  1.
         25    1    1    2    0    0  0.14986941461E+02 -0.11807744579E+03 -0.12230579837E+03  0.21154337601E+03  0.12500000000E+03 0.  0.
         25    1    1    2    0    0 -0.14133089023E+03  0.69559190554E+02 -0.20754407074E+03  0.28898519482E+03  0.12500000000E+03 0.  0.
         25    1    1    2    0    0  0.12634394877E+03  0.48518255233E+02  0.17480513815E+03  0.25396584574E+03  0.12500000000E+03 0.  0.
</event>
<event>
 5    0  0.6288876E-005  0.3211984E+03  0.7546771E-02  0.1075099E+00
         21   -1    0    0  502  501  0.00000000000E+00  0.00000000000E+00  0.65259997935E+03  0.65259997935E+03  0.00000000000E+00 0.  1.
         21   -1    0    0  501  502 -0.00000000000E+00 -0.00000000000E+00 -0.15808825558E+03  0.15808825558E+03  0.00000000000E+00 0.  1.
         25    1    1    2    0    0  0.41222902264E+02 -0.12448790823E+03  0.10748152148E+03  0.21065100148E+03  0.12500000000E+03 0.  0.
         25    1    1    2    0    0 -0.11232654544E+02  0.14732227325E+03  0.20745901012E+01  0.19354412584E+03  0.12500000000E+03 0.  0.
         25    1    1    2    0    0 -0.29990247720E+02 -0.22834365019E+02  0.38495561219E+03  0.40649310762E+03  0.12500000000E+03 0.  0.
</event>
<event>
 5    0  0.5619558E-005  0.2355145E+03  0.7546771E-02  0.1122817E+00
         21   -1    0    0  502  501  0.00000000000E+00  0.00000000000E+00  0.20948334329E+04  0.20948334329E+04  0.00000000000E+00 0. -1.
         21   -1    0    0  501  502 -0.00000000000E+00 -0.00000000000E+00 -0.26478043723E+02  0.26478043723E+02  0.00000000000E+00 0. -1.
         25    1    1    2    0    0 -0.49462508349E+02  0.94253250147E+01  0.66692989576E+03  0.68040859955E+03  0.12500000000E+03 0.  0.
         25    1    1    2    0    0  0.10497862620E+03 -0.76638419918E+02  0.67572324620E+03  0.69937176439E+03  0.12500000000E+03 0.  0.
         25    1    1    2    0    0 -0.55516117848E+02  0.67213094903E+02  0.72570224723E+03  0.74153111270E+03  0.12500000000E+03 0.  0.
</event>
<event>
 5    0  0.5619558E-005  0.2749678E+03  0.7546771E-02  0.1098470E+00
         21   -1    0    0  502  501  0.00000000000E+00  0.00000000000E+00  0.52619485879E+03  0.52619485879E+03  0.00000000000E+00 0.  1.
         21   -1    0    0  501  502 -0.00000000000E+00 -0.00000000000E+00 -0.14368684768E+03  0.14368684768E+03  0.00000000000E+00 0.  1.
         25    1    1    2    0    0 -0.44430325549E+02 -0.13555252597E+03  0.15112159231E+03  0.24251036429E+03  0.12500000000E+03 0.  0.
         25    1    1    2    0    0  0.10193372116E+02  0.14529991961E+03  0.22707743973E+03  0.29733001044E+03  0.12500000000E+03 0.  0.
         25    1    1    2    0    0  0.34236953433E+02 -0.97473936425E+01  0.43089790739E+01  0.13004133175E+03  0.12500000000E+03 0.  0.
</event>
<event>
 5    0  0.5619558E-005  0.2701928E+03  0.7546771E-02  0.1101169E+00
         21   -1    0    0  502  501  0.00000000000E+00  0.00000000000E+00  0.26932670924E+03  0.26932670924E+03  0.00000000000E+00 0. -1.
         21   -1    0    0  501  502 -0.00000000000E+00 -0.00000000000E+00 -0.27106177277E+03  0.27106177277E+03  0.00000000000E+00 0. -1.
         25    1    1    2    0    0  0.19921767750E+02 -0.11167245322E+03 -0.79175557567E+02  0.18644404671E+03  0.12500000000E+03 0.  0.
         25    1    1    2    0    0 -0.11286743984E+03  0.68276195387E+02  0.59645004973E+02  0.19126741607E+03  0.12500000000E+03 0.  0.
         25    1    1    2    0    0  0.92945672087E+02  0.43396257833E+02  0.17795489056E+02  0.16267701923E+03  0.12500000000E+03 0.  0.
</event>
<event>
 5    0  0.5619558E-005  0.2522684E+03  0.7546771E-02  0.1111880E+00
         21   -1    0    0  502  501  0.00000000000E+00  0.00000000000E+00  0.79920501790E+03  0.79920501790E+03  0.00000000000E+00 0.  1.
         21   -1    0    0  501  502 -0.00000000000E+00 -0.00000000000E+00 -0.79628291572E+02  0.79628291572E+02  0.00000000000E+00 0.  1.
         25    1    1    2    0    0  0.56387480009E+02  0.32039577428E+02  0.45950907867E+03  0.48060344964E+03  0.12500000000E+03 0.  0.
         25    1    1    2    0    0 -0.41342348542E+02 -0.48551822624E+02  0.43030210637E+02  0.14677557116E+03  0.12500000000E+03 0.  0.
         25    1    1    2    0    0 -0.15045131467E+02  0.16512245196E+02  0.21703743703E+03  0.25145428868E+03  0.12500000000E+03 0.  0.
</event>
<event>
 5    0  0.5619558E-005  0.2413453E+03  0.7546771E-02  0.1118900E+00
         21   -1    0    0  502  501  0.00000000000E+00  0.00000000000E+00  0.19414428590E+03  0.19414428590E+03  0.00000000000E+00 0.  1.
         21   -1    0    0  501  502 -0.00000000000E+00 -0.00000000000E+00 -0.30002205654E+03  0.30002205654E+03  0.00000000000E+00 0.  1.
         25    1    1    2    0    0 -0.87178451978E+02  0.44372468373E+02  0.39071101433E+01  0.15877425468E+03  0.12500000000E+03 0.  0.
         25    1    1    2    0    0  0.32872970572E+02  0.40008070998E+02 -0.11113539649E+03  0.17509241643E+03  0.12500000000E+03 0.  0.
         25    1    1    2    0    0  0.54305481407E+02 -0.84380539371E+02  0.13505157115E+01  0.16029967133E+03  0.12500000000E+03 0.  0.
</event>
<event>
 5    0  0.5619558E-005  0.2840203E+03  0.7546771E-02  0.1093513E+00
         21   -1    0    0  502  501  0.00000000000E+00  0.00000000000E+00  0.78837191420E+02  0.78837191420E+02  0.00000000000E+00 0. -1.
         21   -1    0    0  501  502 -0.00000000000E+00 -0.00000000000E+00 -0.10232167514E+04  0.10232167514E+04  0.00000000000E+00 0. -1.
         25    1    1    2    0    0  0.28286973933E+01  0.30986644268E+02 -0.69497183647E+03  0.70680904574E+03  0.12500000000E+03 0.  0.
         25    1    1    2    0    0 -0.23265288805E+02  0.59205848491E+02 -0.66634880295E+02  0.15527979080E+03  0.12500000000E+03 0.  0.
         25    1    1    2    0    0  0.20436591412E+02 -0.90192492759E+02 -0.18277284324E+03  0.23996510630E+03  0.12500000000E+03 0.  0.
</event>
<event>
 5    0  0.5619558E-005  0.4070925E+03  0.7546771E-02  0.1041351E+00
         21   -1    0    0  502  501  0.00000000000E+00  0.00000000000E+00  0.19149526863E+03  0.19149526863E+03  0.00000000000E+00 0. -1.
         21   -1    0    0  501  502 -0.00000000000E+00 -0.00000000000E+00 -0.86542242260E+03  0.86542242260E+03  0.00000000000E+00 0. -1.
         25    1    1    2    0    0  0.16006387127E+03  0.23318825579E+03 -0.46903878399E+03  0.56180030830E+03  0.12500000000E+03 0.  0.
         25    1    1    2    0    0 -0.20156016827E+03 -0.16827251183E+03 -0.19034879648E+03  0.34756266197E+03  0.12500000000E+03 0.  0.
         25    1    1    2    0    0  0.41496297007E+02 -0.64915743957E+02 -0.14539573504E+02  0.14755472096E+03  0.12500000000E+03 0.  0.
</event>
<event>
 5    0  0.5619558E-005  0.3264952E+03  0.7546771E-02  0.1072698E+00
         21   -1    0    0  502  501  0.00000000000E+00  0.00000000000E+00  0.32394385206E+03  0.32394385206E+03  0.00000000000E+00 0. -1.
         21   -1    0    0  501  502 -0.00000000000E+00 -0.00000000000E+00 -0.32906669904E+03  0.32906669904E+03  0.00000000000E+00 0. -1.
         25    1    1    2    0    0  0.54781900738E+02  0.41725611844E+02  0.59409896146E+02  0.15458531331E+03  0.12500000000E+03 0.  0.
         25    1    1    2    0    0 -0.57965044728E+02 -0.91658350146E+02  0.16412357695E+03  0.23307240951E+03  0.12500000000E+03 0.  0.
         25    1    1    2    0    0  0.31831439895E+01  0.49932738302E+02 -0.22865632008E+03  0.26535282828E+03  0.12500000000E+03 0.  0.
</event>
<event>
 5    0  0.5619558E-005  0.3272740E+03  0.7546771E-02  0.1072349E+00
         21   -1    0    0  502  501  0.00000000000E+00  0.00000000000E+00  0.42910897715E+03  0.42910897715E+03  0.00000000000E+00 0.  1.
         21   -1    0    0  501  502 -0.00000000000E+00 -0.00000000000E+00 -0.24960629593E+03  0.24960629593E+03  0.00000000000E+00 0.  1.
         25    1    1    2    0    0  0.12621514188E+03 -0.59310164909E+02 -0.41868642736E+02  0.19190086228E+03  0.12500000000E+03 0.  0.
         25    1    1    2    0    0 -0.82689339413E+02 -0.10091656041E+03 -0.33610526713E+01  0.18071517837E+03  0.12500000000E+03 0.  0.
         25    1    1    2    0    0 -0.43525802463E+02  0.16022672532E+03  0.22473237663E+03  0.30609923243E+03  0.12500000000E+03 0.  0.
</event>
<event>
 5    0  0.5619558E-005  0.2673893E+03  0.7546771E-02  0.1102783E+00
         21   -1    0    0  502  501  0.00000000000E+00  0.00000000000E+00  0.26682301663E+03  0.26682301663E+03  0.00000000000E+00 0.  1.
         21   -1    0    0  501  502 -0.00000000000E+00 -0.00000000000E+00 -0.26795681434E+03  0.26795681434E+03  0.00000000000E+00 0.  1.
         25    1    1    2    0    0  0.64405856791E+02 -0.95678474328E+02 -0.82093978766E+02  0.18885684046E+03  0.12500000000E+03 0.  0.
         25    1    1    2    0    0 -0.18630673199E+01 -0.49377201970E+02  0.41327636073E+02  0.14062202032E+03  0.12500000000E+03 0.  0.
         25    1    1    2    0    0 -0.62542789471E+02  0.14505567630E+03  0.39632544989E+02  0.20530097020E+03  0.12500000000E+03 0.  0.
</event>
<event>
 5    0  0.5619558E-005  0.5059637E+03  0.7546771E-02  0.1012234E+00
         21   -1    0    0  502  501  0.00000000000E+00  0.00000000000E+00  0.44295078237E+03  0.44295078237E+03  0.00000000000E+00 0.  1.
         21   -1    0    0  501  502 -0.00000000000E+00 -0.00000000000E+00 -0.57794062226E+03  0.57794062226E+03  0.00000000000E+00 0.  1.
         25    1    1    2    0    0  0.68495997650E+00  0.11625194891E+02 -0.75780193322E+02  0.14663987188E+03  0.12500000000E+03 0.  0.
         25    1    1    2    0    0  0.12861026674E+03  0.36514217836E+03  0.11365889212E+03  0.42238934040E+03  0.12500000000E+03 0.  0.
         25    1    1    2    0    0 -0.12929522671E+03 -0.37676737325E+03 -0.17286853869E+03  0.45186219234E+03  0.12500000000E+03 0.  0.
</event>
<event>
 5    0  0.5619558E-005  0.2280026E+03  0.7546771E-02  0.1128054E+00
         21   -1    0    0  502  501  0.00000000000E+00  0.00000000000E+00  0.53986565135E+03  0.53986565135E+03  0.00000000000E+00 0. -1.
         21   -1    0    0  501  502 -0.00000000000E+00 -0.00000000000E+00 -0.96292847820E+02  0.96292847820E+02  0.00000000000E+00 0. -1.
         25    1    1    2    0    0 -0.73346214057E+02 -0.44622693048E+02  0.19798041893E+03  0.24938343596E+03  0.12500000000E+03 0.  0.
         25    1    1    2    0    0  0.96133726899E+02  0.87726570670E+01  0.86614737573E+02  0.18012708215E+03  0.12500000000E+03 0.  0.
         25    1    1    2    0    0 -0.22787512842E+02  0.35850035981E+02  0.15897764703E+03  0.20664798106E+03  0.12500000000E+03 0.  0.
</event>
<event>
 5    0  0.5619558E-005  0.2851201E+03  0.7546771E-02  0.1092925E+00
         21   -1    0    0  502  501  0.00000000000E+00  0.00000000000E+00  0.50195342732E+03  0.50195342732E+03  0.00000000000E+00 0. -1.
         21   -1    0    0  501  502 -0.00000000000E+00 -0.00000000000E+00 -0.16195422106E+03  0.16195422106E+03  0.00000000000E+00 0. -1.
         25    1    1    2    0    0  0.12125950783E+03 -0.52851858595E+02  0.12881545593E+03  0.22296997306E+03  0.12500000000E+03 0.  0.
         25    1    1    2    0    0  0.65216347236E+02 -0.23056228582E+02  0.39253348388E+02  0.14815730486E+03  0.12500000000E+03 0.  0.
         25    1    1    2    0    0 -0.18647585507E+03  0.75908087177E+02  0.17193040194E+03  0.29278037047E+03  0.12500000000E+03 0.  0.
</event>
<event>
 5    0  0.6658839E-005  0.2921381E+03  0.7546771E-02  0.1089238E+00
         21   -1    0    0  502  501  0.00000000000E+00  0.00000000000E+00  0.66736824852E+03  0.66736824852E+03  0.00000000000E+00 0. -1.
         21   -1    0    0  501  502 -0.00000000000E+00 -0.00000000000E+00 -0.12788238770E+03  0.12788238770E+03  0.00000000000E+00 0. -1.
         25    1    1    2    0    0 -0.61240776320E+02 -0.12986347173E+03  0.42549660455E+03  0.46614087405E+03  0.12500000000E+03 0.  0.
         25    1    1    2    0    0 -0.23490900436E+02  0.57314595538E+02  0.69016760753E+02  0.15564414069E+03  0.12500000000E+03 0.  0.
         25    1    1    2    0    0  0.84731676756E+02  0.72548876191E+02  0.44972495511E+02  0.17346562148E+03  0.12500000000E+03 0.  0.
</event>
<event>
 5    0  0.5619558E-005  0.2982452E+03  0.7546771E-02  0.1086121E+00
         21   -1    0    0  502  501  0.00000000000E+00  0.00000000000E+00  0.49945655357E+03  0.49945655357E+03  0.00000000000E+00 0.  1.
         21   -1    0    0  501  502 -0.00000000000E+00 -0.00000000000E+00 -0.17809397322E+03  0.17809397322E+03  0.00000000000E+00 0.  1.
         25    1    1    2    0    0  0.11719322088E+03  0.99449058620E+02  0.73307070308E+02  0.21124226101E+03  0.12500000000E+03 0.  0.
         25    1    1    2    0    0 -0.27532101908E+02  0.73683394318E+02  0.16204863515E+03  0.21925332241E+03  0.12500000000E+03 0.  0.
         25    1    1    2    0    0 -0.89661118968E+02 -0.17313245294E+03  0.86006874901E+02  0.24705494337E+03  0.12500000000E+03 0.  0.
</event>
<event>
 5    0  0.5619558E-005  0.5580731E+03  0.7546771E-02  0.9996424E-01
         21   -1    0    0  502  501  0.00000000000E+00  0.00000000000E+00  0.19259825252E+03  0.19259825252E+03  0.00000000000E+00 0.  1.
         21   -1    0    0  501  502 -0.00000000000E+00 -0.00000000000E+00 -0.16170739262E+04  0.16170739262E+04  0.00000000000E+00 0.  1.
         25    1    1    2    0    0 -0.14876076754E+03 -0.62695752084E+02  0.66901852459E+02  0.21485199825E+03  0.12500000000E+03 0.  0.
         25    1    1    2    0    0  0.32267873658E+03  0.41259619084E+02 -0.97314324500E+03  0.10336617912E+04  0.12500000000E+03 0.  0.
         25    1    1    2    0    0 -0.17391796904E+03  0.21436133000E+02 -0.51823428114E+03  0.56115838931E+03  0.12500000000E+03 0.  0.
</event>
<event>
 5    0  0.5619558E-005  0.3280486E+03  0.7546771E-02  0.1072004E+00
         21   -1    0    0  502  501  0.00000000000E+00  0.00000000000E+00  0.93453884703E+03  0.93453884703E+03  0.00000000000E+00 0.  1.
         21   -1    0    0  501  502 -0.00000000000E+00 -0.00000000000E+00 -0.11515400283E+03  0.11515400283E+03  0.00000000000E+00 0.  1.
         25    1    1    2    0    0 -0.55614788302E+02  0.24326714857E+03  0.46759174282E+03  0.54455389835E+03  0.12500000000E+03 0.  0.
         25    1    1    2    0    0  0.33373859648E+02 -0.17371085176E+03  0.23022539639E+03  0.31609809818E+03  0.12500000000E+03 0.  0.
         25    1    1    2    0    0  0.22240928653E+02 -0.69556296810E+02  0.12156770499E+03  0.18904085333E+03  0.12500000000E+03 0.  0.
</event>
<event>
 5    0  0.5619558E-005  0.2940449E+03  0.7546771E-02  0.1088256E+00
         21   -1    0    0  502  501  0.00000000000E+00  0.00000000000E+00  0.74215727154E+02  0.74215727154E+02  0.00000000000E+00 0.  1.
         21   -1    0    0  501  502 -0.00000000000E+00 -0.00000000000E+00 -0.11650143499E+04  0.11650143499E+04  0.00000000000E+00 0.  1.
         25    1    1    2    0    0  0.81377552823E+02  0.76292187056E+02 -0.48090871051E+03  0.50925533061E+03  0.12500000000E+03 0.  0.
         25    1    1    2    0    0 -0.88129127960E+02 -0.16727087855E+03 -0.46811508329E+03  0.52009904942E+03  0.12500000000E+03 0.  0.
         25    1    1    2    0    0  0.67515751369E+01  0.90978691496E+02 -0.14177482891E+03  0.20987569699E+03  0.12500000000E+03 0.  0.
</event>
<event>
 5    0  0.5619558E-005  0.2552932E+03  0.7546771E-02  0.1110005E+00
         21   -1    0    0  502  501  0.00000000000E+00  0.00000000000E+00  0.30275505496E+03  0.30275505496E+03  0.00000000000E+00 0. -1.
         21   -1    0    0  501  502 -0.00000000000E+00 -0.00000000000E+00 -0.21527180696E+03  0.21527180696E+03  0.00000000000E+00 0. -1.
         25    1    1    2    0    0  0.79608862341E+02  0.85333143793E+02 -0.43325626643E+02  0.17641265917E+03  0.12500000000E+03 0.  0.
         25    1    1    2    0    0 -0.78867110975E+02  0.50010016209E+01  0.14792871217E+02  0.14862321572E+03  0.12500000000E+03 0.  0.
         25    1    1    2    0    0 -0.74175136623E+00 -0.90334145414E+02  0.11601600342E+03  0.19299098703E+03  0.12500000000E+03 0.  0.
</event>
<event>
 5    0  0.5619558E-005  0.3599044E+03  0.7546771E-02  0.1058622E+00
         21   -1    0    0  502  501  0.00000000000E+00  0.00000000000E+00  0.27196565106E+03  0.27196565106E+03  0.00000000000E+00 0.  1.
         21   -1    0    0  501  502 -0.00000000000E+00 -0.00000000000E+00 -0.47627760676E+03  0.47627760676E+03  0.00000000000E+00 0.  1.
         25    1    1    2    0    0  0.18106200637E+03 -0.19493007899E+03 -0.50905430910E+02  0.29832456946E+03  0.12500000000E+03 0.  0.
         25    1    1    2    0    0 -0.89183567869E+02  0.95693082743E+02 -0.18977463999E+03  0.26220276285E+03  0.12500000000E+03 0.  0.
         25    1    1    2    0    0 -0.91878438502E+02  0.99236996247E+02  0.36368115202E+02  0.18771592551E+03  0.12500000000E+03 0.  0.
</event>
<event>
 5    0  0.6078254E-005  0.3127125E+03  0.7546771E-02  0.1079053E+00
         21   -1    0    0  502  501  0.00000000000E+00  0.00000000000E+00  0.76468211736E+03  0.76468211736E+03  0.00000000000E+00 0. -1.
         21   -1    0    0  501  502 -0.00000000000E+00 -0.00000000000E+00 -0.12788207413E+03  0.12788207413E+03  0.00000000000E+00 0. -1.
         25    1    1    2    0    0  0.18573550396E+02  0.81239243118E+02  0.51136764836E+03  0.53297904573E+03  0.12500000000E+03 0.  0.
         25    1    1    2    0    0  0.18026229748E+02 -0.12096730830E+03  0.13808848967E+03  0.22282608828E+03  0.12500000000E+03 0.  0.
         25    1    1    2    0    0 -0.36599780145E+02  0.39728065179E+02 -0.12656094807E+02  0.13675905749E+03  0.12500000000E+03 0.  0.
</event>
<event>
 5    0  0.5619558E-005  0.2882866E+03  0.7546771E-02  0.1091247E+00
         21   -1    0    0  502  501  0.00000000000E+00  0.00000000000E+00  0.86251082699E+03  0.86251082699E+03  0.00000000000E+00 0. -1.
         21   -1    0    0  501  502 -0.00000000000E+00 -0.00000000000E+00 -0.96357222445E+02  0.96357222445E+02  0.00000000000E+00 0. -1.
         25    1    1    2    0    0 -0.43868870804E+02  0.13296270858E+03  0.29303469294E+03  0.34799122254E+03  0.12500000000E+03 0.  0.
         25    1    1    2    0    0  0.46303375355E+02  0.64686604518E+02  0.22946722744E+03  0.27314568977E+03  0.12500000000E+03 0.  0.
         25    1    1    2    0    0 -0.24345045508E+01 -0.19764931310E+03  0.24365168417E+03  0.33773113712E+03  0.12500000000E+03 0.  0.
</event>
<event>
 5    0  0.5619558E-005  0.2485740E+03  0.7546771E-02  0.1114209E+00
         21   -1    0    0  502  501  0.00000000000E+00  0.00000000000E+00  0.81643471912E+03  0.81643471912E+03  0.00000000000E+00 0. -1.
         21   -1    0    0  501  502 -0.00000000000E+00 -0.00000000000E+00 -0.75681561520E+02  0.75681561520E+02  0.00000000000E+00 0. -1.
         25    1    1    2    0    0 -0.16252009781E+02  0.90424058309E+02  0.21245414871E+03  0.26306349699E+03  0.12500000000E+03 0.  0.
         25    1    1    2    0    0  0.43170701266E+02  0.44988532268E+02  0.13682512274E+03  0.19553463042E+03  0.12500000000E+03 0.  0.
         25    1    1    2    0    0 -0.26918691485E+02 -0.13541259058E+03  0.39147388616E+03  0.43351815323E+03  0.12500000000E+03 0.  0.
</event>
<event>
 5    0  0.5619558E-005  0.2505965E+03  0.7546771E-02  0.1112928E+00
         21   -1    0    0  502  501  0.00000000000E+00  0.00000000000E+00  0.47214266682E+03  0.47214266682E+03  0.00000000000E+00 0. -1.
         21   -1    0    0  501  502 -0.00000000000E+00 -0.00000000000E+00 -0.13300765612E+03  0.13300765612E+03  0.00000000000E+00 0. -1.
         25    1    1    2    0    0  0.11275494589E+03  0.33806019406E+02  0.13377046213E+03  0.21766042660E+03  0.12500000000E+03 0.  0.
         25    1    1    2    0    0 -0.11539565556E+02  0.41792771232E+02  0.25704227569E+02  0.13477946659E+03  0.12500000000E+03 0.  0.
         25    1    1    2    0    0 -0.10121538034E+03 -0.75598790638E+02  0.17966032100E+03  0.25271042975E+03  0.12500000000E+03 0.  0.
</event>
<event>
 5    0  0.5619558E-005  0.3414240E+03  0.7546771E-02  0.1066191E+00
         21   -1    0    0  502  501  0.00000000000E+00  0.00000000000E+00  0.87516821494E+03  0.87516821494E+03  0.00000000000E+00 0. -1.
         21   -1    0    0  501  502 -0.00000000000E+00 -0.00000000000E+00 -0.13319764725E+03  0.13319764725E+03  0.00000000000E+00 0. -1.
         25    1    1    2    0    0  0.79236512660E+02 -0.11220806025E+03  0.46696235086E+03  0.50254145187E+03  0.12500000000E+03 0.  0.
         25    1    1    2    0    0 -0.11310922669E+03  0.19610875880E+03  0.22731956719E+03  0.34431312503E+03  0.12500000000E+03 0.  0.
         25    1    1    2    0    0  0.33872714032E+02 -0.83900698544E+02  0.47688649631E+02  0.16151128529E+03  0.12500000000E+03 0.  0.
</event>
<event>
 5    0  0.5619558E-005  0.2606982E+03  0.7546771E-02  0.1106724E+00
         21   -1    0    0  502  501  0.00000000000E+00  0.00000000000E+00  0.11556438898E+03  0.11556438898E+03  0.00000000000E+00 0.  1.
         21   -1    0    0  501  502 -0.00000000000E+00 -0.00000000000E+00 -0.58810127831E+03  0.58810127831E+03  0.00000000000E+00 0.  1.
         25    1    1    2    0    0 -0.95432729362E+02 -0.24443271054E+02 -0.14284219573E+02  0.15979336113E+03  0.12500000000E+03 0.  0.
         25    1    1    2    0    0  0.16352379217E+01  0.38720971048E+02 -0.25951762240E+03  0.29064821338E+03  0.12500000000E+03 0.  0.
         25    1    1    2    0    0  0.93797491440E+02 -0.14277699994E+02 -0.19873504735E+03  0.25322409278E+03  0.12500000000E+03 0.  0.
</event>
<event>
 5    0  0.5619558E-005  0.3124298E+03  0.7546771E-02  0.1079187E+00
         21   -1    0    0  502  501  0.00000000000E+00  0.00000000000E+00  0.21549426850E+03  0.21549426850E+03  0.00000000000E+00 0. -1.
         21   -1    0    0  501  502 -0.00000000000E+00 -0.00000000000E+00 -0.45296978448E+03  0.45296978448E+03  0.00000000000E+00 0. -1.
         25    1    1    2    0    0  0.11418212906E+03  0.17685518430E+03  0.15858560339E+02  0.24534018983E+03  0.12500000000E+03 0.  0.
         25    1    1    2    0    0 -0.53827070587E+02 -0.35297742008E+02 -0.10169072232E+03  0.17352027871E+03  0.12500000000E+03 0.  0.
         25    1    1    2    0    0 -0.60355058475E+02 -0.14155744229E+03 -0.15164335400E+03  0.24960358444E+03  0.12500000000E+03 0.  0.
</event>
<event>
 5    0  0.5619558E-005  0.4755554E+03  0.7546771E-02  0.1020364E+00
         21   -1    0    0  502  501  0.00000000000E+00  0.00000000000E+00  0.11875127892E+04  0.11875127892E+04  0.00000000000E+00 0. -1.
         21   -1    0    0  501  502 -0.00000000000E+00 -0.00000000000E+00 -0.19044251182E+03  0.19044251182E+03  0.00000000000E+00 0. -1.
         25    1    1    2    0    0  0.11330346205E+02  0.94030065696E+02 -0.76437374209E+02  0.17446404264E+03  0.12500000000E+03 0.  0.
         25    1    1    2    0    0 -0.87100908573E+02 -0.26891569250E+03  0.52042920843E+03  0.60528817842E+03  0.12500000000E+03 0.  0.
         25    1    1    2    0    0  0.75770562369E+02  0.17488562681E+03  0.55307844318E+03  0.59820307998E+03  0.12500000000E+03 0.  0.
</event>
<event>
 5    0  0.5619558E-005  0.3441360E+03  0.7546771E-02  0.1065048E+00
         21   -1    0    0  502  501  0.00000000000E+00  0.00000000000E+00  0.10113354660E+03  0.10113354660E+03  0.00000000000E+00 0. -1.
         21   -1    0    0  501  502 -0.00000000000E+00 -0.00000000000E+00 -0.11710216838E+04  0.11710216838E+04  0.00000000000E+00 0. -1.
         25    1    1    2    0    0  0.89465896243E+02 -0.14932929655E+03 -0.84390555291E+03  0.87069223474E+03  0.12500000000E+03 0.  0.
         25    1    1    2    0    0 -0.94590193393E+02  0.12936869207E+03 -0.11810991333E+03  0.23507129727E+03  0.12500000000E+03 0.  0.
         25    1    1    2    0    0  0.51242971493E+01  0.19960604480E+02 -0.10787267097E+03  0.16639169839E+03  0.12500000000E+03 0.  0.
</event>
<event>
 5    0  0.5619558E-005  0.4680360E+03  0.7546771E-02  0.1022476E+00
         21   -1    0    0  502  501  0.00000000000E+00  0.00000000000E+00  0.15328556229E+04  0.15328556229E+04  0.00000000000E+00 0.  1.
         21   -1    0    0  501  502 -0.00000000000E+00 -0.00000000000E+00 -0.14290821248E+03  0.14290821248E+03  0.00000000000E+00 0.  1.
         25    1    1    2    0    0 -0.13835817043E+03  0.95803826318E+02  0.10642784316E+03  0.23510262070E+03  0.12500000000E+03 0.  0.
         25    1    1    2    0    0  0.19462341526E+03  0.18328711286E+03  0.89871833591E+03  0.94593450451E+03  0.12500000000E+03 0.  0.
         25    1    1    2    0    0 -0.56265244832E+02 -0.27909093918E+03  0.38480123131E+03  0.49472671014E+03  0.12500000000E+03 0.  0.
</event>
<event>
 5    0  0.5619558E-005  0.5180355E+03  0.7546771E-02  0.1009176E+00
         21   -1    0    0  502  501  0.00000000000E+00  0.00000000000E+00  0.16006958243E+03  0.16006958243E+03  0.00000000000E+00 0. -1.
         21   -1    0    0  501  502 -0.00000000000E+00 -0.00000000000E+00 -0.16765258439E+04  0.16765258439E+04  0.00000000000E+00 0. -1.
         25    1    1    2    0    0  0.28429492418E+02  0.17488412695E+03 -0.10039928265E-01  0.21683563821E+03  0.12500000000E+03 0.  0.
         25    1    1    2    0    0  0.14105740455E+03  0.87644332107E+02 -0.82461378689E+03  0.85040673672E+03  0.12500000000E+03 0.  0.
         25    1    1    2    0    0 -0.16948689697E+03 -0.26252845905E+03 -0.69183243468E+03  0.76935305142E+03  0.12500000000E+03 0.  0.
</event>
<event>
 5    0  0.5619558E-005  0.2610231E+03  0.7546771E-02  0.1106530E+00
         21   -1    0    0  502  501  0.00000000000E+00  0.00000000000E+00  0.20179010080E+03  0.20179010080E+03  0.00000000000E+00 0.  1.
         21   -1    0    0  501  502 -0.00000000000E+00 -0.00000000000E+00 -0.33764325229E+03  0.33764325229E+03  0.00000000000E+00 0.  1.
         25    1    1    2    0    0  0.14931156004E+03 -0.16131094006E+02 -0.93275987163E+01  0.19561737718E+03  0.12500000000E+03 0.  0.
         25    1    1    2    0    0 -0.59428415621E+02  0.45875547607E+02 -0.11658993285E+03  0.18669363913E+03  0.12500000000E+03 0.  0.
         25    1    1    2    0    0 -0.89883144420E+02 -0.29744453601E+02 -0.99356199234E+01  0.15712233678E+03  0.12500000000E+03 0.  0.
</event>
<event>
 5    0  0.5619558E-005  0.2852437E+03  0.7546771E-02  0.1092859E+00
         21   -1    0    0  502  501  0.00000000000E+00  0.00000000000E+00  0.79378171956E+03  0.79378171956E+03  0.00000000000E+00 0. -1.
         21   -1    0    0  501  502 -0.00000000000E+00 -0.00000000000E+00 -0.10250171168E+03  0.10250171168E+03  0.00000000000E+00 0. -1.
         25    1    1    2    0    0 -0.83131622541E+02 -0.10186458535E+03  0.99297038367E+02  0.20681431828E+03  0.12500000000E+03 0.  0.
         25    1    1    2    0    0 -0.81088899892E+01  0.47731104842E+02  0.45957997893E+03  0.47873037244E+03  0.12500000000E+03 0.  0.
         25    1    1    2    0    0  0.91240512530E+02  0.54133480512E+02  0.13240299059E+03  0.21073874052E+03  0.12500000000E+03 0.  0.
</event>
<event>
 5    0  0.5619558E-005  0.2521013E+03  0.7546771E-02  0.1111984E+00
         21   -1    0    0  502  501  0.00000000000E+00  0.00000000000E+00  0.13308171685E+04  0.13308171685E+04  0.00000000000E+00 0. -1.
         21   -1    0    0  501  502 -0.00000000000E+00 -0.00000000000E+00 -0.47756420208E+02  0.47756420208E+02  0.00000000000E+00 0. -1.
         25    1    1    2    0    0  0.83255091557E+02  0.92595625184E+02  0.45677840418E+03  0.48967016511E+03  0.12500000000E+03 0.  0.
         25    1    1    2    0    0 -0.12275317797E+03 -0.84457090839E+02  0.53912068966E+03  0.57312953240E+03  0.12500000000E+03 0.  0.
         25    1    1    2    0    0  0.39498086415E+02 -0.81385343450E+01  0.28716165444E+03  0.31577389119E+03  0.12500000000E+03 0.  0.
</event>
<event>
 5    0  0.6628454E-005  0.2612396E+03  0.7546771E-02  0.1106401E+00
         21   -1    0    0  502  501  0.00000000000E+00  0.00000000000E+00  0.56446575784E+03  0.56446575784E+03  0.00000000000E+00 0.  1.
         21   -1    0    0  501  502 -0.00000000000E+00 -0.00000000000E+00 -0.12090388688E+03  0.12090388688E+03  0.00000000000E+00 0.  1.
         25    1    1    2    0    0  0.15464122236E+02 -0.32750960316E+02  0.22982099675E+03  0.26411068707E+03  0.12500000000E+03 0.  0.
         25    1    1    2    0    0  0.61846162128E+02  0.34854111358E+02  0.23221774554E+03  0.27311140253E+03  0.12500000000E+03 0.  0.
         25    1    1    2    0    0 -0.77310284364E+02 -0.21031510419E+01 -0.18476871327E+02  0.14814755512E+03  0.12500000000E+03 0.  0.
</event>
<event>
 5    0  0.5619558E-005  0.2734679E+03  0.7546771E-02  0.1099311E+00
         21   -1    0    0  502  501  0.00000000000E+00  0.00000000000E+00  0.71239681158E+03  0.71239681158E+03  0.00000000000E+00 0.  1.
         21   -1    0    0  501  502 -0.00000000000E+00 -0.00000000000E+00 -0.10497615519E+03  0.10497615519E+03  0.00000000000E+00 0.  1.
         25    1    1    2    0    0 -0.10266501337E+03 -0.79172495511E+02  0.62698843916E+02  0.19069487157E+03  0.12500000000E+03 0.  0.
         25    1    1    2    0    0  0.78392214087E+02 -0.19223363814E+02  0.27069074246E+03  0.30889052268E+03  0.12500000000E+03 0.  0.
         25    1    1    2    0    0  0.24272799283E+02  0.98395859325E+02  0.27403107001E+03  0.31778757252E+03  0.12500000000E+03 0.  0.
</event>
<event>
 5    0  0.5619558E-005  0.3273455E+03  0.7546771E-02  0.1072317E+00
         21   -1    0    0  502  501  0.00000000000E+00  0.00000000000E+00  0.56328652272E+03  0.56328652272E+03  0.00000000000E+00 0.  1.
         21   -1    0    0  501  502 -0.00000000000E+00 -0.00000000000E+00 -0.19023188387E+03  0.19023188387E+03  0.00000000000E+00 0.  1.
         25    1    1    2    0    0  0.21508011478E+02 -0.16046536017E+03  0.12624500350E+03  0.24036332349E+03  0.12500000000E+03 0.  0.
         25    1    1    2    0    0 -0.45753384798E+01  0.26026240735E+03  0.16742110808E+03  0.33378478370E+03  0.12500000000E+03 0.  0.
         25    1    1    2    0    0 -0.16932672998E+02 -0.99797047184E+02  0.79388527277E+02  0.17937029939E+03  0.12500000000E+03 0.  0.
</event>
<event>
 5    0  0.5619558E-005  0.2945677E+03  0.7546771E-02  0.1087988E+00
         21   -1    0    0  502  501  0.00000000000E+00  0.00000000000E+00  0.11874371164E+04  0.11874371164E+04  0.00000000000E+00 0. -1.
         21   -1    0    0  501  502 -0.00000000000E+00 -0.00000000000E+00 -0.73073431856E+02  0.73073431856E+02  0.00000000000E+00 0. -1.
         25    1    1    2    0    0  0.90059443051E+02 -0.90580930747E+02  0.52992675154E+03  0.55925215269E+03  0.12500000000E+03 0.  0.
         25    1    1    2    0    0 -0.67664582073E+02 -0.65342901411E+02  0.39556234883E+03  0.42537367366E+03  0.12500000000E+03 0.  0.
         25    1    1    2    0    0 -0.22394860978E+02  0.15592383216E+03  0.18887458419E+03  0.27588472192E+03  0.12500000000E+03 0.  0.
</event>
<event>
 5    0  0.5619558E-005  0.3169272E+03  0.7546771E-02  0.1077072E+00
         21   -1    0    0  502  501  0.00000000000E+00  0.00000000000E+00  0.46959843084E+03  0.46959843084E+03  0.00000000000E+00 0. -1.
         21   -1    0    0  501  502 -0.00000000000E+00 -0.00000000000E+00 -0.21389099923E+03  0.21389099923E+03  0.00000000000E+00 0. -1.
         25    1    1    2    0    0 -0.22187978803E+03 -0.20989543462E+02  0.12613194176E+03  0.28496573128E+03  0.12500000000E+03 0.  0.
         25    1    1    2    0    0  0.12339796944E+03 -0.74967170038E+02  0.61902321024E+02  0.20075864313E+03  0.12500000000E+03 0.  0.
         25    1    1    2    0    0  0.98481818599E+02  0.95956713500E+02  0.67673168817E+02  0.19776505565E+03  0.12500000000E+03 0.  0.
</event>
<event>
 5    0  0.5963795E-005  0.4776014E+03  0.7546771E-02  0.1019796E+00
         21   -1    0    0  502  501  0.00000000000E+00  0.00000000000E+00  0.66121774784E+03  0.66121774784E+03  0.00000000000E+00 0.  1.
         21   -1    0    0  501  502 -0.00000000000E+00 -0.00000000000E+00 -0.34497431176E+03  0.34497431176E+03  0.00000000000E+00 0.  1.
         25    1    1    2    0    0  0.49957375541E+02  0.20960069840E+03 -0.56195995744E+02  0.25536480196E+03  0.12500000000E+03 0.  0.
         25    1    1    2    0    0  0.21994282453E+03 -0.62927765932E+02  0.32370737627E+03  0.41562749577E+03  0.12500000000E+03 0.  0.
         25    1    1    2    0    0 -0.26990020007E+03 -0.14667293247E+03  0.48732055546E+02  0.33519976187E+03  0.12500000000E+03 0.  0.
</event>
<event>
 5    0  0.5619558E-005  0.2386851E+03  0.7546771E-02  0.1120672E+00
         21   -1    0    0  502  501  0.00000000000E+00  0.00000000000E+00  0.54773266605E+03  0.54773266605E+03  0.00000000000E+00 0.  1.
         21   -1    0    0  501  502 -0.00000000000E+00 -0.00000000000E+00 -0.10401165172E+03  0.10401165172E+03  0.00000000000E+00 0.  1.
         25    1    1    2    0    0  0.88601504245E+02  0.32333633939E+02  0.10824545338E+03  0.19036220375E+03  0.12500000000E+03 0.  0.
         25    1    1    2    0    0 -0.87450130402E+02  0.32105750910E+02  0.25630362786E+03  0.29999142355E+03  0.12500000000E+03 0.  0.
         25    1    1    2    0    0 -0.11513738429E+01 -0.64439384849E+02  0.79171933098E+02  0.16139069047E+03  0.12500000000E+03 0.  0.
</event>
<event>
 5    0  0.5619558E-005  0.2983347E+03  0.7546771E-02  0.1086076E+00
         21   -1    0    0  502  501  0.00000000000E+00  0.00000000000E+00  0.19318455018E+03  0.19318455018E+03  0.00000000000E+00 0. -1.
         21   -1    0    0  501  502 -0.00000000000E+00 -0.00000000000E+00 -0.46071788271E+03  0.46071788271E+03  0.00000000000E+00 0. -1.
         25    1    1    2    0    0  0.27881729799E+02 -0.64868029721E+02  0.68188247720E+02  0.15893360017E+03  0.12500000000E+03 0.  0.
         25    1    1    2    0    0 -0.24221547734E+02  0.10263833135E+03 -0.35207843610E+02  0.16728987623E+03  0.12500000000E+03 0.  0.
         25    1    1    2    0    0 -0.36601820656E+01 -0.37770301624E+02 -0.30051373664E+03  0.32767895649E+03  0.12500000000E+03 0.  0.
</event>
<event>
 5    0  0.5619558E-005  0.3944511E+03  0.7546771E-02  0.1045718E+00
         21   -1    0    0  502  501  0.00000000000E+00  0.00000000000E+00  0.16975075388E+04  0.16975075388E+04  0.00000000000E+00 0. -1.
         21   -1    0    0  501  502 -0.00000000000E+00 -0.00000000000E+00 -0.91658893940E+02  0.91658893940E+02  0.00000000000E+00 0. -1.
         25    1    1    2    0    0 -0.44055446480E+02 -0.15485060924E+03  0.13038201594E+03  0.24195880564E+03  0.12500000000E+03 0.  0.
         25    1    1    2    0    0 -0.59036194927E+02  0.74308194943E+02  0.12417778967E+04  0.12516566322E+04  0.12500000000E+03 0.  0.
         25    1    1    2    0    0  0.10309164141E+03  0.80542414301E+02  0.23368873222E+03  0.29555099491E+03  0.12500000000E+03 0.  0.
</event>
<event>
 5    0  0.5619558E-005  0.3016536E+03  0.7546771E-02  0.1084417E+00
         21   -1    0    0  502  501  0.00000000000E+00  0.00000000000E+00  0.94792139790E+02  0.94792139790E+02  0.00000000000E+00 0. -1.
         21   -1    0    0  501  502 -0.00000000000E+00 -0.00000000000E+00 -0.95994125906E+03  0.95994125906E+03  0.00000000000E+00 0. -1.
         25    1    1    2    0    0  0.11372885940E+03 -0.12610850989E+03 -0.37277645029E+03  0.42828132298E+03  0.12500000000E+03 0.  0.
         25    1    1    2    0    0 -0.38209240969E+02  0.53038542034E+02 -0.42846973743E+03  0.45109239512E+03  0.12500000000E+03 0.  0.
         25    1    1    2    0    0 -0.75519618436E+02  0.73069967859E+02 -0.63902931552E+02  0.17535968075E+03  0.12500000000E+03 0.  0.
</event>
<event>
 5    0  0.5619558E-005  0.3511514E+03  0.7546771E-02  0.1062143E+00
         21   -1    0    0  502  501  0.00000000000E+00  0.00000000000E+00  0.34082731445E+03  0.34082731445E+03  0.00000000000E+00 0. -1.
         21   -1    0    0  501  502 -0.00000000000E+00 -0.00000000000E+00 -0.36178814702E+03  0.36178814702E+03  0.00000000000E+00 0. -1.
         25    1    1    2    0    0 -0.12764370995E+03 -0.45808934364E+01  0.10877704923E+03  0.20921603121E+03  0.12500000000E+03 0.  0.
         25    1    1    2    0    0  0.97614044237E+02 -0.91171059405E+02 -0.23784085007E+03  0.30005655079E+03  0.12500000000E+03 0.  0.
         25    1    1    2    0    0  0.30029665714E+02  0.95751952841E+02  0.10810296827E+03  0.19334287948E+03  0.12500000000E+03 0.  0.
</event>
<event>
 5    0  0.5619558E-005  0.4016776E+03  0.7546771E-02  0.1043200E+00
         21   -1    0    0  502  501  0.00000000000E+00  0.00000000000E+00  0.62448379543E+03  0.62448379543E+03  0.00000000000E+00 0.  1.
         21   -1    0    0  501  502 -0.00000000000E+00 -0.00000000000E+00 -0.25836517260E+03  0.25836517260E+03  0.00000000000E+00 0.  1.
         25    1    1    2    0    0 -0.70175908979E+01  0.19417803901E+02  0.51223260975E+01  0.12679722361E+03  0.12500000000E+03 0.  0.
         25    1    1    2    0    0 -0.13890179159E+03  0.23986954783E+03  0.50525180070E+02  0.30823513996E+03  0.12500000000E+03 0.  0.
         25    1    1    2    0    0  0.14591938248E+03 -0.25928735173E+03  0.31047111666E+03  0.44781660446E+03  0.12500000000E+03 0.  0.
</event>
<event>
 5    0  0.5619558E-005  0.2552446E+03  0.7546771E-02  0.1110034E+00
         21   -1    0    0  502  501  0.00000000000E+00  0.00000000000E+00  0.24951247195E+03  0.24951247195E+03  0.00000000000E+00 0. -1.
         21   -1    0    0  501  502 -0.00000000000E+00 -0.00000000000E+00 -0.26110842283E+03  0.26110842283E+03  0.00000000000E+00 0. -1.
         25    1    1    2    0    0  0.28502008856E+02  0.63077614964E+02  0.24514982328E+02  0.14497287462E+03  0.12500000000E+03 0.  0.
         25    1    1    2    0    0 -0.20383240787E+02  0.86533258339E+02 -0.68257045764E+02  0.16789135058E+03  0.12500000000E+03 0.  0.
         25    1    1    2    0    0 -0.81187680691E+01 -0.14961087330E+03  0.32146112555E+02  0.19775666957E+03  0.12500000000E+03 0.  0.
</event>
<event>
 5    0  0.5619558E-005  0.3506215E+03  0.7546771E-02  0.1062360E+00
         21   -1    0    0  502  501  0.00000000000E+00  0.00000000000E+00  0.95351199700E+03  0.95351199700E+03  0.00000000000E+00 0.  1.
         21   -1    0    0  501  502 -0.00000000000E+00 -0.00000000000E+00 -0.12892910045E+03  0.12892910045E+03  0.00000000000E+00 0.  1.
         25    1    1    2    0    0  0.83472490665E+02  0.20680573551E+03  0.61701531873E+03  0.66788410109E+03  0.12500000000E+03 0.  0.
         25    1    1    2    0    0 -0.43916974662E+02 -0.81417844067E+02  0.25590495660E+02  0.15759898307E+03  0.12500000000E+03 0.  0.
         25    1    1    2    0    0 -0.39555516003E+02 -0.12538789144E+03  0.18197708216E+03  0.25695801330E+03  0.12500000000E+03 0.  0.
</event>
<event>
 5    0  0.5619558E-005  0.4051515E+03  0.7546771E-02  0.1042010E+00
         21   -1    0    0  502  501  0.00000000000E+00  0.00000000000E+00  0.52740116402E+03  0.52740116402E+03  0.00000000000E+00 0. -1.
         21   -1    0    0  501  502 -0.00000000000E+00 -0.00000000000E+00 -0.31123883236E+03  0.31123883236E+03  0.00000000000E+00 0. -1.
         25    1    1    2    0    0  0.27803206101E+03  0.17018582515E+02  0.26158337569E+03  0.40204766077E+03  0.12500000000E+03 0.  0.
         25    1    1    2    0    0 -0.21711415085E+03  0.39295582351E+01 -0.11956135724E+03  0.27762189048E+03  0.12500000000E+03 0.  0.
         25    1    1    2    0    0 -0.60917910155E+02 -0.20948140750E+02  0.74140313220E+02  0.15897044512E+03  0.12500000000E+03 0.  0.
</event>
<event>
 5    0  0.5619558E-005  0.4168435E+03  0.7546771E-02  0.1038099E+00
         21   -1    0    0  502  501  0.00000000000E+00  0.00000000000E+00  0.26752532185E+03  0.26752532185E+03  0.00000000000E+00 0. -1.
         21   -1    0    0  501  502 -0.00000000000E+00 -0.00000000000E+00 -0.64950316110E+03  0.64950316110E+03  0.00000000000E+00 0. -1.
         25    1    1    2    0    0  0.90571456417E+02  0.24774285306E+03 -0.17486531661E+03  0.34026840716E+03  0.12500000000E+03 0.  0.
         25    1    1    2    0    0 -0.23924344258E+03 -0.20138482582E+03 -0.10692110676E+03  0.35334175519E+03  0.12500000000E+03 0.  0.
         25    1    1    2    0    0  0.14867198617E+03 -0.46358027234E+02 -0.10019141588E+03  0.22341832059E+03  0.12500000000E+03 0.  0.
</event>
<event>
 5    0  0.5619558E-005  0.2417178E+03  0.7546771E-02  0.1118654E+00
         21   -1    0    0  502  501  0.00000000000E+00  0.00000000000E+00  0.12502737778E+04  0.12502737778E+04  0.00000000000E+00 0. -1.
         21   -1    0    0  501  502 -0.00000000000E+00 -0.00000000000E+00 -0.46731748096E+02  0.46731748096E+02  0.00000000000E+00 0. -1.
         25    1    1    2    0    0 -0.12559964134E+03  0.14504148197E+02  0.64632803424E+03  0.67033616049E+03  0.12500000000E+03 0.  0.
         25    1    1    2    0    0  0.93879240794E+02 -0.12829666142E+02  0.28055768775E+03  0.32142732979E+03  0.12500000000E+03 0.  0.
         25    1    1    2    0    0  0.31720400542E+02 -0.16744820555E+01  0.27665630768E+03  0.30524203558E+03  0.12500000000E+03 0.  0.
</event>
<event>
 5    0  0.5619558E-005  0.2874339E+03  0.7546771E-02  0.1091697E+00
         21   -1    0    0  502  501  0.00000000000E+00  0.00000000000E+00  0.68692172240E+03  0.68692172240E+03  0.00000000000E+00 0. -1.
         21   -1    0    0  501  502 -0.00000000000E+00 -0.00000000000E+00 -0.12027315221E+03  0.12027315221E+03  0.00000000000E+00 0. -1.
         25    1    1    2    0    0  0.20765668971E+02 -0.14565361480E+03  0.10501141448E+03  0.21976939205E+03  0.12500000000E+03 0.  0.
         25    1    1    2    0    0  0.52090734843E+02  0.13528060041E+03  0.36790938647E+03  0.41472473059E+03  0.12500000000E+03 0.  0.
         25    1    1    2    0    0 -0.72856403814E+02  0.10373014389E+02  0.93727769243E+02  0.17270075197E+03  0.12500000000E+03 0.  0.
</event>
<event>
 5    0  0.5619558E-005  0.4460844E+03  0.7546771E-02  0.1028896E+00
         21   -1    0    0  502  501  0.00000000000E+00  0.00000000000E+00  0.27992693687E+03  0.27992693687E+03  0.00000000000E+00 0.  1.
         21   -1    0    0  501  502 -0.00000000000E+00 -0.00000000000E+00 -0.71086883079E+03  0.71086883079E+03  0.00000000000E+00 0.  1.
         25    1    1    2    0    0 -0.22400123255E+03 -0.84957245006E+02 -0.18836520771E+03  0.32939450077E+03  0.12500000000E+03 0.  0.
         25    1    1    2    0    0 -0.16029140867E+03  0.52056169969E+02 -0.86038048457E+02  0.22678343482E+03  0.12500000000E+03 0.  0.
         25    1    1    2    0    0  0.38429264123E+03  0.32901075037E+02 -0.15653863776E+03  0.43461783207E+03  0.12500000000E+03 0.  0.
</event>
<event>
 5    0  0.5619558E-005  0.2308442E+03  0.7546771E-02  0.1126047E+00
         21   -1    0    0  502  501  0.00000000000E+00  0.00000000000E+00  0.22021560391E+03  0.22021560391E+03  0.00000000000E+00 0. -1.
         21   -1    0    0  501  502 -0.00000000000E+00 -0.00000000000E+00 -0.24198582582E+03  0.24198582582E+03  0.00000000000E+00 0. -1.
         25    1    1    2    0    0  0.78567244633E+02 -0.19528746751E+02  0.91175590192E+01  0.14920560901E+03  0.12500000000E+03 0.  0.
         25    1    1    2    0    0 -0.58870752546E+02  0.87443549782E+02 -0.42391004933E+02  0.16892050557E+03  0.12500000000E+03 0.  0.
         25    1    1    2    0    0 -0.19696492087E+02 -0.67914803031E+02  0.11503223995E+02  0.14407531514E+03  0.12500000000E+03 0.  0.
</event>
<event>
 5    0  0.5619558E-005  0.2365917E+03  0.7546771E-02  0.1122084E+00
         21   -1    0    0  502  501  0.00000000000E+00  0.00000000000E+00  0.39348299865E+03  0.39348299865E+03  0.00000000000E+00 0. -1.
         21   -1    0    0  501  502 -0.00000000000E+00 -0.00000000000E+00 -0.14225682869E+03  0.14225682869E+03  0.00000000000E+00 0. -1.
         25    1    1    2    0    0 -0.92059299958E+02  0.31415180104E+02  0.20272977664E+03  0.25726676930E+03  0.12500000000E+03 0.  0.
         25    1    1    2    0    0  0.39652266094E+02  0.12302880633E+02  0.19821994814E+02  0.13319750207E+03  0.12500000000E+03 0.  0.
         25    1    1    2    0    0  0.52407033864E+02 -0.43718060738E+02  0.28674398510E+02  0.14527555597E+03  0.12500000000E+03 0.  0.
</event>
<event>
 5    0  0.5619558E-005  0.3071893E+03  0.7546771E-02  0.1081701E+00
         21   -1    0    0  502  501  0.00000000000E+00  0.00000000000E+00  0.52193919906E+03  0.52193919906E+03  0.00000000000E+00 0.  1.
         21   -1    0    0  501  502 -0.00000000000E+00 -0.00000000000E+00 -0.18079745246E+03  0.18079745246E+03  0.00000000000E+00 0.  1.
         25    1    1    2    0    0 -0.81890490004E+02  0.47674449197E+02  0.89271155817E+02  0.18048059375E+03  0.12500000000E+03 0.  0.
         25    1    1    2    0    0 -0.13984793860E+03  0.23032947893E+02  0.14084789214E+03  0.23569279017E+03  0.12500000000E+03 0.  0.
         25    1    1    2    0    0  0.22173842861E+03 -0.70707397089E+02  0.11102269865E+03  0.28656326760E+03  0.12500000000E+03 0.  0.
</event>
<event>
 5    0  0.5619558E-005  0.2782690E+03  0.7546771E-02  0.1096638E+00
         21   -1    0    0  502  501  0.00000000000E+00  0.00000000000E+00  0.21169865745E+03  0.21169865745E+03  0.00000000000E+00 0. -1.
         21   -1    0    0  501  502 -0.00000000000E+00 -0.00000000000E+00 -0.36577279703E+03  0.36577279703E+03  0.00000000000E+00 0. -1.
         25    1    1    2    0    0  0.66806003291E+01 -0.46403070949E+02  0.72333027176E+02  0.15183854002E+03  0.12500000000E+03 0.  0.
         25    1    1    2    0    0  0.11242108619E+03  0.77116185991E+02 -0.12106142470E+03  0.22105717657E+03  0.12500000000E+03 0.  0.
         25    1    1    2    0    0 -0.11910168652E+03 -0.30713115042E+02 -0.10534574206E+03  0.20457573790E+03  0.12500000000E+03 0.  0.
</event>
<event>
 5    0  0.5619558E-005  0.2334761E+03  0.7546771E-02  0.1124217E+00
         21   -1    0    0  502  501  0.00000000000E+00  0.00000000000E+00  0.13006670238E+03  0.13006670238E+03  0.00000000000E+00 0. -1.
         21   -1    0    0  501  502 -0.00000000000E+00 -0.00000000000E+00 -0.41910092520E+03  0.41910092520E+03  0.00000000000E+00 0. -1.
         25    1    1    2    0    0  0.26693114711E+02  0.13675094813E+02 -0.21404151125E+03  0.24967638881E+03  0.12500000000E+03 0.  0.
         25    1    1    2    0    0 -0.22970600730E+02  0.53688930015E+02  0.18765794111E+01  0.13798069160E+03  0.12500000000E+03 0.  0.
         25    1    1    2    0    0 -0.37225139806E+01 -0.67364024827E+02 -0.76869290980E+02  0.16151054717E+03  0.12500000000E+03 0.  0.
</event>
<event>
 5    0  0.5619558E-005  0.4858766E+03  0.7546771E-02  0.1017532E+00
         21   -1    0    0  502  501  0.00000000000E+00  0.00000000000E+00  0.18204764993E+03  0.18204764993E+03  0.00000000000E+00 0.  1.
         21   -1    0    0  501  502 -0.00000000000E+00 -0.00000000000E+00 -0.12967818528E+04  0.12967818528E+04  0.00000000000E+00 0.  1.
         25    1    1    2    0    0  0.30042799707E+02 -0.25553326286E+03 -0.98361458595E+03  0.10243644234E+04  0.12500000000E+03 0.  0.
         25    1    1    2    0    0  0.98098176716E+02  0.16827595046E+03 -0.10306776366E+03  0.25335353102E+03  0.12500000000E+03 0.  0.
         25    1    1    2    0    0 -0.12814097642E+03  0.87257312407E+02 -0.28051853305E+02  0.20111154835E+03  0.12500000000E+03 0.  0.
</event>
<event>
 5    0  0.5619558E-005  0.2579450E+03  0.7546771E-02  0.1108384E+00
         21   -1    0    0  502  501  0.00000000000E+00  0.00000000000E+00  0.64682435266E+03  0.64682435266E+03  0.00000000000E+00 0.  1.
         21   -1    0    0  501  502 -0.00000000000E+00 -0.00000000000E+00 -0.10286504949E+03  0.10286504949E+03  0.00000000000E+00 0.  1.
         25    1    1    2    0    0 -0.76810435678E+01 -0.14481935569E+03  0.16202966111E+03  0.25081916851E+03  0.12500000000E+03 0.  0.
         25    1    1    2    0    0 -0.68554308233E+00  0.10107594717E+02  0.92135344880E+02  0.15561669325E+03  0.12500000000E+03 0.  0.
         25    1    1    2    0    0  0.83665866502E+01  0.13471176097E+03  0.28979429718E+03  0.34325354039E+03  0.12500000000E+03 0.  0.
</event>
<event>
 5    0  0.5619558E-005  0.2510222E+03  0.7546771E-02  0.1112661E+00
         21   -1    0    0  502  501  0.00000000000E+00  0.00000000000E+00  0.26137308816E+03  0.26137308816E+03  0.00000000000E+00 0.  1.
         21   -1    0    0  501  502 -0.00000000000E+00 -0.00000000000E+00 -0.24108118898E+03  0.24108118898E+03  0.00000000000E+00 0.  1.
         25    1    1    2    0    0  0.13294762050E+03 -0.42828700140E+01 -0.36117758988E+02  0.18607231199E+03  0.12500000000E+03 0.  0.
         25    1    1    2    0    0 -0.46503847038E+02 -0.48269063148E+02  0.63534751491E+02  0.15541613460E+03  0.12500000000E+03 0.  0.
         25    1    1    2    0    0 -0.86443773467E+02  0.52551933162E+02 -0.71250933269E+01  0.16096583055E+03  0.12500000000E+03 0.  0.
</event>
<event>
 5    0  0.5619558E-005  0.4163836E+03  0.7546771E-02  0.1038250E+00
         21   -1    0    0  502  501  0.00000000000E+00  0.00000000000E+00  0.51209695732E+03  0.51209695732E+03  0.00000000000E+00 0. -1.
         21   -1    0    0  501  502 -0.00000000000E+00 -0.00000000000E+00 -0.33855950477E+03  0.33855950477E+03  0.00000000000E+00 0. -1.
         25    1    1    2    0    0 -0.97364191310E+02 -0.93977392831E+02 -0.98089745885E+02  0.20870585608E+03  0.12500000000E+03 0.  0.
         25    1    1    2    0    0  0.29402587379E+03 -0.24128792240E+02  0.15043332610E+03  0.35396129545E+03  0.12500000000E+03 0.  0.
         25    1    1    2    0    0 -0.19666168248E+03  0.11810618507E+03  0.12119387234E+03  0.28798931057E+03  0.12500000000E+03 0.  0.
</event>
<event>
 5    0  0.5619558E-005  0.4740742E+03  0.7546771E-02  0.1020777E+00
         21   -1    0    0  502  501  0.00000000000E+00  0.00000000000E+00  0.46690360408E+03  0.46690360408E+03  0.00000000000E+00 0. -1.
         21   -1    0    0  501  502 -0.00000000000E+00 -0.00000000000E+00 -0.48135491358E+03  0.48135491358E+03  0.00000000000E+00 0. -1.
         25    1    1    2    0    0 -0.27066446982E+03 -0.11377337901E+03  0.11416677112E+03  0.33891398411E+03  0.12500000000E+03 0.  0.
         25    1    1    2    0    0  0.37182746939E+03  0.10356106169E+03 -0.17473446389E+03  0.44174392283E+03  0.12500000000E+03 0.  0.
         25    1    1    2    0    0 -0.10116299956E+03  0.10212317316E+02  0.46116383272E+02  0.16760061071E+03  0.12500000000E+03 0.  0.
</event>
<event>
 5    0  0.5619558E-005  0.2603095E+03  0.7546771E-02  0.1106957E+00
         21   -1    0    0  502  501  0.00000000000E+00  0.00000000000E+00  0.27517304239E+03  0.27517304239E+03  0.00000000000E+00 0.  1.
         21   -1    0    0  501  502 -0.00000000000E+00 -0.00000000000E+00 -0.24624872684E+03  0.24624872684E+03  0.00000000000E+00 0.  1.
         25    1    1    2    0    0 -0.52496021842E+02  0.50854186075E+02 -0.11735339772E+03  0.18638347702E+03  0.12500000000E+03 0.  0.
         25    1    1    2    0    0 -0.27953710720E+02  0.70221826472E+01  0.11541776029E+03  0.17256007761E+03  0.12500000000E+03 0.  0.
         25    1    1    2    0    0  0.80449732562E+02 -0.57876368723E+02  0.30859952973E+02  0.16247821461E+03  0.12500000000E+03 0.  0.
</event>
<event>
 5    0  0.5619558E-005  0.3310483E+03  0.7546771E-02  0.1070674E+00
         21   -1    0    0  502  501  0.00000000000E+00  0.00000000000E+00  0.11889353261E+03  0.11889353261E+03  0.00000000000E+00 0. -1.
         21   -1    0    0  501  502 -0.00000000000E+00 -0.00000000000E+00 -0.92177401130E+03  0.92177401130E+03  0.00000000000E+00 0. -1.
         25    1    1    2    0    0 -0.96648247851E+02 -0.87177039229E+02 -0.56707382807E+03  0.59509532552E+03  0.12500000000E+03 0.  0.
         25    1    1    2    0    0  0.12564749010E+03  0.14045537019E+03 -0.20047646033E+03  0.30220988391E+03  0.12500000000E+03 0.  0.
         25    1    1    2    0    0 -0.28999242252E+02 -0.53278330961E+02 -0.35330190294E+02  0.14336233448E+03  0.12500000000E+03 0.  0.
</event>
<event>
 5    0  0.5619558E-005  0.3241318E+03  0.7546771E-02  0.1073763E+00
         21   -1    0    0  502  501  0.00000000000E+00  0.00000000000E+00  0.16046441945E+04  0.16046441945E+04  0.00000000000E+00 0. -1.
         21   -1    0    0  501  502 -0.00000000000E+00 -0.00000000000E+00 -0.65473345683E+02  0.65473345683E+02  0.00000000000E+00 0. -1.
         25    1    1    2    0    0 -0.14478308982E+02  0.95322379776E+02  0.12673586752E+04  0.12771526883E+04  0.12500000000E+03 0.  0.
         25    1    1    2    0    0 -0.18026251835E+02 -0.75700374989E+02  0.18352221118E+03  0.23528895963E+03  0.12500000000E+03 0.  0.
         25    1    1    2    0    0  0.32504560817E+02 -0.19622004787E+02  0.88289962452E+02  0.15767589231E+03  0.12500000000E+03 0.  0.
</event>
<event>
 5    0  0.5619558E-005  0.4058649E+03  0.7546771E-02  0.1041768E+00
         21   -1    0    0  502  501  0.00000000000E+00  0.00000000000E+00  0.11983312389E+03  0.11983312389E+03  0.00000000000E+00 0.  1.
         21   -1    0    0  501  502 -0.00000000000E+00 -0.00000000000E+00 -0.13746312467E+04  0.13746312467E+04  0.00000000000E+00 0.  1.
         25    1    1    2    0    0  0.22215429512E+02 -0.39736659417E+02 -0.28294569907E+03  0.31265923308E+03  0.12500000000E+03 0.  0.
         25    1    1    2    0    0  0.24905491924E+03 -0.15074482352E+03 -0.42149182317E+03  0.52728807270E+03  0.12500000000E+03 0.  0.
         25    1    1    2    0    0 -0.27127034875E+03  0.19048148294E+03 -0.55036060055E+03  0.65451706478E+03  0.12500000000E+03 0.  0.
</event>
<event>
 5    0  0.5619558E-005  0.3755592E+03  0.7546771E-02  0.1052587E+00
         21   -1    0    0  502  501  0.00000000000E+00  0.00000000000E+00  0.73188001137E+02  0.73188001137E+02  0.00000000000E+00 0. -1.
         21   -1    0    0  501  502 -0.00000000000E+00 -0.00000000000E+00 -0.19271566075E+04  0.19271566075E+04  0.00000000000E+00 0. -1.
         25    1    1    2    0    0 -0.13229334929E+03 -0.13626776972E+03 -0.95288339228E+03  0.97963370431E+03  0.12500000000E+03 0.  0.
         25    1    1    2    0    0  0.19620091024E+03  0.85560586999E+02 -0.24743759716E+03  0.35023674239E+03  0.12500000000E+03 0.  0.
         25    1    1    2    0    0 -0.63907560955E+02  0.50707182725E+02 -0.65364761687E+03  0.67047416189E+03  0.12500000000E+03 0.  0.
</event>
<event>
 5    0  0.5619558E-005  0.2513174E+03  0.7546771E-02  0.1112475E+00
         21   -1    0    0  502  501  0.00000000000E+00  0.00000000000E+00  0.10269609380E+04  0.10269609380E+04  0.00000000000E+00 0. -1.
         21   -1    0    0  501  502 -0.00000000000E+00 -0.00000000000E+00 -0.61502280296E+02  0.61502280296E+02  0.00000000000E+00 0. -1.
         25    1    1    2    0    0  0.74978145870E+02  0.64737566723E+01  0.49267231355E+03  0.51382354989E+03  0.12500000000E+03 0.  0.
         25    1    1    2    0    0 -0.87876224417E+02  0.15134853146E+02  0.10668891866E+03  0.18697277867E+03  0.12500000000E+03 0.  0.
         25    1    1    2    0    0  0.12898078547E+02 -0.21608609819E+02  0.36609742551E+03  0.38766688976E+03  0.12500000000E+03 0.  0.
</event>
<event>
 5    0  0.5619558E-005  0.2176298E+03  0.7546771E-02  0.1135663E+00
         21   -1    0    0  502  501  0.00000000000E+00  0.00000000000E+00  0.51727562604E+02  0.51727562604E+02  0.00000000000E+00 0. -1.
         21   -1    0    0  501  502 -0.00000000000E+00 -0.00000000000E+00 -0.91561847422E+03  0.91561847422E+03  0.00000000000E+00 0. -1.
         25    1    1    2    0    0 -0.70042026672E+02 -0.45259135344E+02 -0.36033325693E+03  0.39040918391E+03  0.12500000000E+03 0.  0.
         25    1    1    2    0    0  0.50277519808E+00  0.12610915268E+02 -0.30656134173E+03  0.33130672225E+03  0.12500000000E+03 0.  0.
         25    1    1    2    0    0  0.69539251473E+02  0.32648220076E+02 -0.19699631296E+03  0.24563013066E+03  0.12500000000E+03 0.  0.
</event>
<event>
 5    0  0.5619558E-005  0.2513194E+03  0.7546771E-02  0.1112474E+00
         21   -1    0    0  502  501  0.00000000000E+00  0.00000000000E+00  0.12313802232E+04  0.12313802232E+04  0.00000000000E+00 0. -1.
         21   -1    0    0  501  502 -0.00000000000E+00 -0.00000000000E+00 -0.51293198065E+02  0.51293198065E+02  0.00000000000E+00 0. -1.
         25    1    1    2    0    0  0.75188016198E+02  0.10924803084E+03  0.37971797377E+03  0.42118773679E+03  0.12500000000E+03 0.  0.
         25    1    1    2    0    0 -0.23820630130E+02 -0.12645463159E+03  0.51290969817E+03  0.54337791154E+03  0.12500000000E+03 0.  0.
         25    1    1    2    0    0 -0.51367386068E+02  0.17206600750E+02  0.28745935322E+03  0.31810777295E+03  0.12500000000E+03 0.  0.
</event>
<event>
 5    0  0.5619558E-005  0.3882133E+03  0.7546771E-02  0.1047939E+00
         21   -1    0    0  502  501  0.00000000000E+00  0.00000000000E+00  0.12448396797E+04  0.12448396797E+04  0.00000000000E+00 0. -1.
         21   -1    0    0  501  502 -0.00000000000E+00 -0.00000000000E+00 -0.12106744676E+03  0.12106744676E+03  0.00000000000E+00 0. -1.
         25    1    1    2    0    0 -0.65556002482E+02  0.37250178151E+02  0.45562253050E+02  0.15292509322E+03  0.12500000000E+03 0.  0.
         25    1    1    2    0    0  0.25842123684E+02 -0.25439764468E+03  0.71844669408E+03  0.77277204221E+03  0.12500000000E+03 0.  0.
         25    1    1    2    0    0  0.39713878798E+02  0.21714746653E+03  0.35976328578E+03  0.44020999102E+03  0.12500000000E+03 0.  0.
</event>
<event>
 5    0  0.5619558E-005  0.3546295E+03  0.7546771E-02  0.1060731E+00
         21   -1    0    0  502  501  0.00000000000E+00  0.00000000000E+00  0.28909739376E+03  0.28909739376E+03  0.00000000000E+00 0.  1.
         21   -1    0    0  501  502 -0.00000000000E+00 -0.00000000000E+00 -0.43501634659E+03  0.43501634659E+03  0.00000000000E+00 0.  1.
         25    1    1    2    0    0  0.12693157924E+03  0.44245835250E+02 -0.20122621229E+03  0.27237163629E+03  0.12500000000E+03 0.  0.
         25    1    1    2    0    0 -0.24076636912E+03  0.83244472820E+00  0.12297682662E+02  0.27156098848E+03  0.12500000000E+03 0.  0.
         25    1    1    2    0    0  0.11383478988E+03 -0.45078279978E+02  0.43009576796E+02  0.18018111557E+03  0.12500000000E+03 0.  0.
</event>
<event>
 5    0  0.5619558E-005  0.3846133E+03  0.7546771E-02  0.1049242E+00
         21   -1    0    0  502  501  0.00000000000E+00  0.00000000000E+00  0.58847610621E+03  0.58847610621E+03  0.00000000000E+00 0. -1.
         21   -1    0    0  501  502 -0.00000000000E+00 -0.00000000000E+00 -0.25137370170E+03  0.25137370170E+03  0.00000000000E+00 0. -1.
         25    1    1    2    0    0  0.19730975723E+03  0.16173189457E+03 -0.30595879746E+02  0.28574368563E+03  0.12500000000E+03 0.  0.
         25    1    1    2    0    0 -0.19074116462E+03 -0.46363399621E+02  0.14650280336E+03  0.27499059638E+03  0.12500000000E+03 0.  0.
         25    1    1    2    0    0 -0.65685926156E+01 -0.11536849494E+03  0.22119548089E+03  0.27911552591E+03  0.12500000000E+03 0.  0.
</event>
<event>
 5    0  0.5619558E-005  0.3028512E+03  0.7546771E-02  0.1083824E+00
         21   -1    0    0  502  501  0.00000000000E+00  0.00000000000E+00  0.75481482683E+03  0.75481482683E+03  0.00000000000E+00 0. -1.
         21   -1    0    0  501  502 -0.00000000000E+00 -0.00000000000E+00 -0.12151172696E+03  0.12151172696E+03  0.00000000000E+00 0. -1.
         25    1    1    2    0    0 -0.14413209346E+03  0.10047302704E+02  0.31560744543E+03  0.36892826982E+03  0.12500000000E+03 0.  0.
         25    1    1    2    0    0  0.18503942273E+03 -0.38553733491E+02  0.29327594921E+03  0.37062347567E+03  0.12500000000E+03 0.  0.
         25    1    1    2    0    0 -0.40907329272E+02  0.28506430787E+02  0.24419705222E+02  0.13677480831E+03  0.12500000000E+03 0.  0.
</event>
<event>
 5    0  0.5619558E-005  0.5235489E+03  0.7546771E-02  0.1007809E+00
         21   -1    0    0  502  501  0.00000000000E+00  0.00000000000E+00  0.75903108776E+03  0.75903108776E+03  0.00000000000E+00 0.  1.
         21   -1    0    0  501  502 -0.00000000000E+00 -0.00000000000E+00 -0.36112281673E+03  0.36112281673E+03  0.00000000000E+00 0.  1.
         25    1    1    2    0    0 -0.12599098490E+03  0.24795675354E+03 -0.53352160716E+02  0.30956054813E+03  0.12500000000E+03 0.  0.
         25    1    1    2    0    0  0.97206635219E+02  0.31979022471E+02 -0.92167512786E+02  0.18598827442E+03  0.12500000000E+03 0.  0.
         25    1    1    2    0    0  0.28784349684E+02 -0.27993577602E+03  0.54342794453E+03  0.62460508194E+03  0.12500000000E+03 0.  0.
</event>
<event>
 5    0  0.5619558E-005  0.2471303E+03  0.7546771E-02  0.1115132E+00
         21   -1    0    0  502  501  0.00000000000E+00  0.00000000000E+00  0.21749836721E+03  0.21749836721E+03  0.00000000000E+00 0. -1.
         21   -1    0    0  501  502 -0.00000000000E+00 -0.00000000000E+00 -0.28079936010E+03  0.28079936010E+03  0.00000000000E+00 0. -1.
         25    1    1    2    0    0  0.75020478998E+02 -0.18757899049E+01 -0.78574795543E+02  0.16562182631E+03  0.12500000000E+03 0.  0.
         25    1    1    2    0    0 -0.35531022158E+02 -0.96992750763E+02 -0.23807164906E+02  0.16389578499E+03  0.12500000000E+03 0.  0.
         25    1    1    2    0    0 -0.39489456840E+02  0.98868540668E+02  0.39080967555E+02  0.16878011601E+03  0.12500000000E+03 0.  0.
</event>
<event>
 5    0  0.5619558E-005  0.2445928E+03  0.7546771E-02  0.1116771E+00
         21   -1    0    0  502  501  0.00000000000E+00  0.00000000000E+00  0.31749678005E+02  0.31749678005E+02  0.00000000000E+00 0. -1.
         21   -1    0    0  501  502 -0.00000000000E+00 -0.00000000000E+00 -0.18842907324E+04  0.18842907324E+04  0.00000000000E+00 0. -1.
         25    1    1    2    0    0  0.72681252561E+02 -0.53347658943E+02 -0.34997078370E+03  0.38240434965E+03  0.12500000000E+03 0.  0.
         25    1    1    2    0    0  0.49220140111E+01  0.81409634487E+02 -0.92479311347E+03  0.93675987186E+03  0.12500000000E+03 0.  0.
         25    1    1    2    0    0 -0.77603266572E+02 -0.28061975545E+02 -0.57777715719E+03  0.59687618886E+03  0.12500000000E+03 0.  0.
</event>
<event>
 5    0  0.5619558E-005  0.4560910E+03  0.7546771E-02  0.1025921E+00
         21   -1    0    0  502  501  0.00000000000E+00  0.00000000000E+00  0.52662388199E+03  0.52662388199E+03  0.00000000000E+00 0. -1.
         21   -1    0    0  501  502 -0.00000000000E+00 -0.00000000000E+00 -0.39500484292E+03  0.39500484292E+03  0.00000000000E+00 0. -1.
         25    1    1    2    0    0  0.81888128141E+01  0.16718582144E+02  0.41664041049E+03  0.43538580512E+03  0.12500000000E+03 0.  0.
         25    1    1    2    0    0 -0.35086671007E+02 -0.13842781128E+03 -0.23637510359E+03  0.30313614601E+03  0.12500000000E+03 0.  0.
         25    1    1    2    0    0  0.26897858193E+02  0.12170922913E+03 -0.48646267819E+02  0.18310677378E+03  0.12500000000E+03 0.  0.
</event>
<event>
 5    0  0.5619558E-005  0.4086628E+03  0.7546771E-02  0.1040821E+00
         21   -1    0    0  502  501  0.00000000000E+00  0.00000000000E+00  0.72501110502E+02  0.72501110502E+02  0.00000000000E+00 0.  1.
         21   -1    0    0  501  502 -0.00000000000E+00 -0.00000000000E+00 -0.23034859603E+04  0.23034859603E+04  0.00000000000E+00 0.  1.
         25    1    1    2    0    0  0.19053289815E+03  0.88615647627E+02 -0.32094959669E+03  0.40347138919E+03  0.12500000000E+03 0.  0.
         25    1    1    2    0    0  0.95885037759E+02 -0.85120306444E+02 -0.63821706312E+03  0.66286154413E+03  0.12500000000E+03 0.  0.
         25    1    1    2    0    0 -0.28641793591E+03 -0.34953411836E+01 -0.12718181900E+04  0.13096541375E+04  0.12500000000E+03 0.  0.
</event>
<event>
 5    0  0.5619558E-005  0.2791186E+03  0.7546771E-02  0.1096171E+00
         21   -1    0    0  502  501  0.00000000000E+00  0.00000000000E+00  0.81958312895E+02  0.81958312895E+02  0.00000000000E+00 0. -1.
         21   -1    0    0  501  502 -0.00000000000E+00 -0.00000000000E+00 -0.95057077347E+03  0.95057077347E+03  0.00000000000E+00 0. -1.
         25    1    1    2    0    0  0.62961413962E+02 -0.58576977496E+02 -0.33309567822E+03  0.36602340470E+03  0.12500000000E+03 0.  0.
         25    1    1    2    0    0  0.11608572001E+02  0.10908943289E+02 -0.18600460133E+02  0.12737637577E+03  0.12500000000E+03 0.  0.
         25    1    1    2    0    0 -0.74569985963E+02  0.47668034207E+02 -0.51691632223E+03  0.53912930590E+03  0.12500000000E+03 0.  0.
</event>
<event>
 5    0  0.5619558E-005  0.2360629E+03  0.7546771E-02  0.1122444E+00
         21   -1    0    0  502  501  0.00000000000E+00  0.00000000000E+00  0.91420522538E+02  0.91420522538E+02  0.00000000000E+00 0. -1.
         21   -1    0    0  501  502 -0.00000000000E+00 -0.00000000000E+00 -0.60955339116E+03  0.60955339116E+03  0.00000000000E+00 0. -1.
         25    1    1    2    0    0  0.91366782510E+02 -0.16343576364E+02 -0.12830862433E+03  0.20175010412E+03  0.12500000000E+03 0.  0.
         25    1    1    2    0    0 -0.47736420355E+02 -0.56051049811E+02 -0.11278401653E+03  0.18375451123E+03  0.12500000000E+03 0.  0.
         25    1    1    2    0    0 -0.43630362155E+02  0.72394626175E+02 -0.27704022776E+03  0.31546929835E+03  0.12500000000E+03 0.  0.
</event>
<event>
 5    0  0.5619558E-005  0.2942781E+03  0.7546771E-02  0.1088136E+00
         21   -1    0    0  502  501  0.00000000000E+00  0.00000000000E+00  0.24621039287E+03  0.24621039287E+03  0.00000000000E+00 0. -1.
         21   -1    0    0  501  502 -0.00000000000E+00 -0.00000000000E+00 -0.35173003796E+03  0.35173003796E+03  0.00000000000E+00 0. -1.
         25    1    1    2    0    0 -0.34245633364E+02  0.40583763849E+02  0.25079154119E+02  0.13810781753E+03  0.12500000000E+03 0.  0.
         25    1    1    2    0    0 -0.28369147354E+02  0.90282373898E+02  0.79306441554E+02  0.17569925222E+03  0.12500000000E+03 0.  0.
         25    1    1    2    0    0  0.62614780718E+02 -0.13086613775E+03 -0.20990524077E+03  0.28413336107E+03  0.12500000000E+03 0.  0.
</event>
<event>
 5    0  0.5619558E-005  0.5043584E+03  0.7546771E-02  0.1012648E+00
         21   -1    0    0  502  501  0.00000000000E+00  0.00000000000E+00  0.19372115847E+03  0.19372115847E+03  0.00000000000E+00 0.  1.
         21   -1    0    0  501  502 -0.00000000000E+00 -0.00000000000E+00 -0.13131111464E+04  0.13131111464E+04  0.00000000000E+00 0.  1.
         25    1    1    2    0    0  0.44038226078E+02 -0.41404979387E+03 -0.33236076648E+03  0.54723420603E+03  0.12500000000E+03 0.  0.
         25    1    1    2    0    0  0.86151521100E+01  0.25242271905E+03 -0.64877933425E+03  0.70734084746E+03  0.12500000000E+03 0.  0.
         25    1    1    2    0    0 -0.52653378188E+02  0.16162707482E+03 -0.13824988716E+03  0.25225725133E+03  0.12500000000E+03 0.  0.
</event>
<event>
 5    0  0.5619558E-005  0.4009119E+03  0.7546771E-02  0.1043464E+00
         21   -1    0    0  502  501  0.00000000000E+00  0.00000000000E+00  0.41740570461E+03  0.41740570461E+03  0.00000000000E+00 0.  1.
         21   -1    0    0  501  502 -0.00000000000E+00 -0.00000000000E+00 -0.38506992953E+03  0.38506992953E+03  0.00000000000E+00 0.  1.
         25    1    1    2    0    0  0.16630911710E+03  0.10438036737E+03 -0.86360149272E+02  0.24826811899E+03  0.12500000000E+03 0.  0.
         25    1    1    2    0    0 -0.26876738936E+03 -0.18382515294E+03  0.21236528694E+02  0.34943323623E+03  0.12500000000E+03 0.  0.
         25    1    1    2    0    0  0.10245827226E+03  0.79444785564E+02  0.97459395659E+02  0.20477427892E+03  0.12500000000E+03 0.  0.
</event>
<event>
 5    0  0.5619558E-005  0.4782292E+03  0.7546771E-02  0.1019623E+00
         21   -1    0    0  502  501  0.00000000000E+00  0.00000000000E+00  0.67557823317E+03  0.67557823317E+03  0.00000000000E+00 0. -1.
         21   -1    0    0  501  502 -0.00000000000E+00 -0.00000000000E+00 -0.33852952334E+03  0.33852952334E+03  0.00000000000E+00 0. -1.
         25    1    1    2    0    0  0.52210635690E+02  0.22638935038E+02  0.49233892933E+02  0.14590218666E+03  0.12500000000E+03 0.  0.
         25    1    1    2    0    0 -0.18958412744E+03 -0.32923076849E+03 -0.13127919911E+02  0.40016544400E+03  0.12500000000E+03 0.  0.
         25    1    1    2    0    0  0.13737349175E+03  0.30659183345E+03  0.30094273681E+03  0.46804012585E+03  0.12500000000E+03 0.  0.
</event>
<event>
 5    0  0.5619558E-005  0.2423056E+03  0.7546771E-02  0.1118266E+00
         21   -1    0    0  502  501  0.00000000000E+00  0.00000000000E+00  0.82094109167E+03  0.82094109167E+03  0.00000000000E+00 0. -1.
         21   -1    0    0  501  502 -0.00000000000E+00 -0.00000000000E+00 -0.71517943034E+02  0.71517943034E+02  0.00000000000E+00 0. -1.
         25    1    1    2    0    0  0.10259413625E+03  0.46906309632E+02  0.18484125282E+03  0.25003409252E+03  0.12500000000E+03 0.  0.
         25    1    1    2    0    0 -0.35537261345E+01 -0.71126282535E+02  0.29638327971E+03  0.32945352559E+03  0.12500000000E+03 0.  0.
         25    1    1    2    0    0 -0.99040410114E+02  0.24219972903E+02  0.26819861611E+03  0.31297141660E+03  0.12500000000E+03 0.  0.
</event>
<event>
 5    0  0.5619558E-005  0.3284645E+03  0.7546771E-02  0.1071818E+00
         21   -1    0    0  502  501  0.00000000000E+00  0.00000000000E+00  0.23620640121E+03  0.23620640121E+03  0.00000000000E+00 0.  1.
         21   -1    0    0  501  502 -0.00000000000E+00 -0.00000000000E+00 -0.45675713897E+03  0.45675713897E+03  0.00000000000E+00 0.  1.
         25    1    1    2    0    0 -0.26559565091E+02 -0.44813893554E+02  0.11229857178E+02  0.13588526501E+03  0.12500000000E+03 0.  0.
         25    1    1    2    0    0 -0.97416809410E+02 -0.16413055106E+03 -0.14529877388E+03  0.27049141620E+03  0.12500000000E+03 0.  0.
         25    1    1    2    0    0  0.12397637450E+03  0.20894444461E+03 -0.86481821050E+02  0.28658685898E+03  0.12500000000E+03 0.  0.
</event>
<event>
 5    0  0.5619558E-005  0.2162371E+03  0.7546771E-02  0.1136720E+00
         21   -1    0    0  502  501  0.00000000000E+00  0.00000000000E+00  0.27354740418E+02  0.27354740418E+02  0.00000000000E+00 0.  1.
         21   -1    0    0  501  502 -0.00000000000E+00 -0.00000000000E+00 -0.17093379554E+04  0.17093379554E+04  0.00000000000E+00 0.  1.
         25    1    1    2    0    0  0.38290216694E+02 -0.53110770154E+02 -0.64791785874E+03  0.66310590880E+03  0.12500000000E+03 0.  0.
         25    1    1    2    0    0 -0.15269572257E+02  0.55311956679E+02 -0.74811249284E+03  0.76065095433E+03  0.12500000000E+03 0.  0.
         25    1    1    2    0    0 -0.23020644437E+02 -0.22011865253E+01 -0.28595286339E+03  0.31293583268E+03  0.12500000000E+03 0.  0.
</event>
<event>
 5    0  0.5619558E-005  0.3428927E+03  0.7546771E-02  0.1065571E+00
         21   -1    0    0  502  501  0.00000000000E+00  0.00000000000E+00  0.10466016529E+03  0.10466016529E+03  0.00000000000E+00 0.  1.
         21   -1    0    0  501  502 -0.00000000000E+00 -0.00000000000E+00 -0.11234013535E+04  0.11234013535E+04  0.00000000000E+00 0.  1.
         25    1    1    2    0    0  0.91087143478E+02 -0.62885494000E+02 -0.12305996488E+03  0.20741313367E+03  0.12500000000E+03 0.  0.
         25    1    1    2    0    0 -0.89483275415E+02  0.13982463203E+03 -0.13934730054E+03  0.25020162763E+03  0.12500000000E+03 0.  0.
         25    1    1    2    0    0 -0.16038680624E+01 -0.76939138026E+02 -0.75633392281E+03  0.77044675750E+03  0.12500000000E+03 0.  0.
</event>
<event>
 5    0  0.5619558E-005  0.3214422E+03  0.7546771E-02  0.1074987E+00
         21   -1    0    0  502  501  0.00000000000E+00  0.00000000000E+00  0.17745146963E+04  0.17745146963E+04  0.00000000000E+00 0. -1.
         21   -1    0    0  501  502 -0.00000000000E+00 -0.00000000000E+00 -0.58227223875E+02  0.58227223875E+02  0.00000000000E+00 0. -1.
         25    1    1    2    0    0 -0.57048078377E+02 -0.37393255227E+02  0.96082830070E+02  0.17178372745E+03  0.12500000000E+03 0.  0.
         25    1    1    2    0    0  0.15623872871E+03  0.11960778941E+02  0.77906744357E+03  0.80444060204E+03  0.12500000000E+03 0.  0.
         25    1    1    2    0    0 -0.99190650338E+02  0.25432476286E+02  0.84113719877E+03  0.85651759067E+03  0.12500000000E+03 0.  0.
</event>
<event>
 5    0  0.5619558E-005  0.2981103E+03  0.7546771E-02  0.1086189E+00
         21   -1    0    0  502  501  0.00000000000E+00  0.00000000000E+00  0.20134757062E+03  0.20134757062E+03  0.00000000000E+00 0.  1.
         21   -1    0    0  501  502 -0.00000000000E+00 -0.00000000000E+00 -0.44137484298E+03  0.44137484298E+03  0.00000000000E+00 0.  1.
         25    1    1    2    0    0  0.33170782403E+02 -0.89418782320E+02 -0.26911551306E+03  0.31167960923E+03  0.12500000000E+03 0.  0.
         25    1    1    2    0    0  0.40538120116E+02 -0.16447639753E+02  0.65525111398E+02  0.14775792452E+03  0.12500000000E+03 0.  0.
         25    1    1    2    0    0 -0.73708902520E+02  0.10586642207E+03 -0.36436870697E+02  0.18328487984E+03  0.12500000000E+03 0.  0.
</event>
<event>
 5    0  0.5619558E-005  0.2441759E+03  0.7546771E-02  0.1117042E+00
         21   -1    0    0  502  501  0.00000000000E+00  0.00000000000E+00  0.84621891505E+03  0.84621891505E+03  0.00000000000E+00 0. -1.
         21   -1    0    0  501  502 -0.00000000000E+00 -0.00000000000E+00 -0.70456766030E+02  0.70456766030E+02  0.00000000000E+00 0. -1.
         25    1    1    2    0    0  0.15441949287E+02 -0.22713226452E+02  0.19915966076E+03  0.23673596036E+03  0.12500000000E+03 0.  0.
         25    1    1    2    0    0 -0.34861771209E+02  0.10536556587E+03  0.45891017842E+03  0.48840638552E+03  0.12500000000E+03 0.  0.
         25    1    1    2    0    0  0.19419821923E+02 -0.82652339422E+02  0.11769230984E+03  0.19153333519E+03  0.12500000000E+03 0.  0.
</event>
<event>
 5    0  0.5619558E-005  0.2617804E+03  0.7546771E-02  0.1106078E+00
         21   -1    0    0  502  501  0.00000000000E+00  0.00000000000E+00  0.58070612652E+02  0.58070612652E+02  0.00000000000E+00 0. -1.
         21   -1    0    0  501  502 -0.00000000000E+00 -0.00000000000E+00 -0.11800977603E+04  0.11800977603E+04  0.00000000000E+00 0. -1.
         25    1    1    2    0    0  0.62079711382E+02 -0.65749324907E+02 -0.21943981383E+03  0.26824558931E+03  0.12500000000E+03 0.  0.
         25    1    1    2    0    0  0.57363716114E+01  0.14390798784E+03 -0.53983140986E+03  0.57252542825E+03  0.12500000000E+03 0.  0.
         25    1    1    2    0    0 -0.67816082993E+02 -0.78158662932E+02 -0.36275592395E+03  0.39739735538E+03  0.12500000000E+03 0.  0.
</event>
<event>
 5    0  0.5619558E-005  0.2855805E+03  0.7546771E-02  0.1092679E+00
         21   -1    0    0  502  501  0.00000000000E+00  0.00000000000E+00  0.59058239533E+02  0.59058239533E+02  0.00000000000E+00 0.  1.
         21   -1    0    0  501  502 -0.00000000000E+00 -0.00000000000E+00 -0.13809458896E+04  0.13809458896E+04  0.00000000000E+00 0.  1.
         25    1    1    2    0    0 -0.93104756378E+02  0.41463982139E+02 -0.58689225549E+03  0.60865037339E+03  0.12500000000E+03 0.  0.
         25    1    1    2    0    0  0.40353169140E+02 -0.10296446839E+03 -0.62304808536E+03  0.64501471044E+03  0.12500000000E+03 0.  0.
         25    1    1    2    0    0  0.52751587238E+02  0.61500486246E+02 -0.11194730922E+03  0.18633904531E+03  0.12500000000E+03 0.  0.
</event>
<event>
 5    0  0.5619558E-005  0.2413707E+03  0.7546771E-02  0.1118883E+00
         21   -1    0    0  502  501  0.00000000000E+00  0.00000000000E+00  0.22893058917E+03  0.22893058917E+03  0.00000000000E+00 0. -1.
         21   -1    0    0  501  502 -0.00000000000E+00 -0.00000000000E+00 -0.25448681436E+03  0.25448681436E+03  0.00000000000E+00 0. -1.
         25    1    1    2    0    0  0.14637426145E+02  0.99774090242E+02 -0.45608876835E+00  0.16060613732E+03  0.12500000000E+03 0.  0.
         25    1    1    2    0    0  0.46516005918E+02 -0.27067175793E+02 -0.78331893794E+02  0.15702629206E+03  0.12500000000E+03 0.  0.
         25    1    1    2    0    0 -0.61153432063E+02 -0.72706914449E+02  0.53231757377E+02  0.16578497415E+03  0.12500000000E+03 0.  0.
</event>
<event>
 5    0  0.5619558E-005  0.2192346E+03  0.7546771E-02  0.1134455E+00
         21   -1    0    0  502  501  0.00000000000E+00  0.00000000000E+00  0.15003057486E+03  0.15003057486E+03  0.00000000000E+00 0. -1.
         21   -1    0    0  501  502 -0.00000000000E+00 -0.00000000000E+00 -0.32036019113E+03  0.32036019113E+03  0.00000000000E+00 0. -1.
         25    1    1    2    0    0 -0.59715252271E+02 -0.59648572416E+02 -0.79890756975E+02  0.17067922133E+03  0.12500000000E+03 0.  0.
         25    1    1    2    0    0 -0.20447661514E+02  0.49586042628E+02 -0.31440534834E+02  0.13960798586E+03  0.12500000000E+03 0.  0.
         25    1    1    2    0    0  0.80162913785E+02  0.10062529788E+02 -0.58998324456E+02  0.16010355880E+03  0.12500000000E+03 0.  0.
</event>
<event>
 5    0  0.5619558E-005  0.3323095E+03  0.7546771E-02  0.1070120E+00
         21   -1    0    0  502  501  0.00000000000E+00  0.00000000000E+00  0.55929153974E+03  0.55929153974E+03  0.00000000000E+00 0.  1.
         21   -1    0    0  501  502 -0.00000000000E+00 -0.00000000000E+00 -0.19744554669E+03  0.19744554669E+03  0.00000000000E+00 0.  1.
         25    1    1    2    0    0  0.10782644513E+03  0.97781707711E+01  0.73841242836E+01  0.16553452868E+03  0.12500000000E+03 0.  0.
         25    1    1    2    0    0 -0.98191817239E+01 -0.18433726754E+03  0.24434616770E+03  0.33076682755E+03  0.12500000000E+03 0.  0.
         25    1    1    2    0    0 -0.98007263410E+02  0.17455909677E+03  0.11011570106E+03  0.26043573021E+03  0.12500000000E+03 0.  0.
</event>
<event>
 5    0  0.5619558E-005  0.3391709E+03  0.7546771E-02  0.1067150E+00
         21   -1    0    0  502  501  0.00000000000E+00  0.00000000000E+00  0.74433711785E+03  0.74433711785E+03  0.00000000000E+00 0.  1.
         21   -1    0    0  501  502 -0.00000000000E+00 -0.00000000000E+00 -0.15454943291E+03  0.15454943291E+03  0.00000000000E+00 0.  1.
         25    1    1    2    0    0 -0.38708803095E+02  0.22361390743E+03  0.25017843297E+03  0.36016079653E+03  0.12500000000E+03 0.  0.
         25    1    1    2    0    0  0.11459931647E+03 -0.14794388081E+03  0.95939913984E+02  0.24464231502E+03  0.12500000000E+03 0.  0.
         25    1    1    2    0    0 -0.75890513373E+02 -0.75670026623E+02  0.24366933798E+03  0.29408343922E+03  0.12500000000E+03 0.  0.
</event>
<event>
 5    0  0.6011528E-005  0.2869861E+03  0.7546771E-02  0.1091933E+00
         21   -1    0    0  502  501  0.00000000000E+00  0.00000000000E+00  0.16993156010E+03  0.16993156010E+03  0.00000000000E+00 0.  1.
         21   -1    0    0  501  502 -0.00000000000E+00 -0.00000000000E+00 -0.48467163850E+03  0.48467163850E+03  0.00000000000E+00 0.  1.
         25    1    1    2    0    0 -0.17732070808E+02  0.16658138088E+03 -0.26545248529E+03  0.33786654871E+03  0.12500000000E+03 0.  0.
         25    1    1    2    0    0  0.18427104295E+02 -0.41650114753E+02  0.81942134754E+00  0.13304120295E+03  0.12500000000E+03 0.  0.
         25    1    1    2    0    0 -0.69503348699E+00 -0.12493126613E+03 -0.50107014466E+02  0.18369544694E+03  0.12500000000E+03 0.  0.
</event>
<event>
 5    0  0.5619558E-005  0.4514519E+03  0.7546771E-02  0.1027290E+00
         21   -1    0    0  502  501  0.00000000000E+00  0.00000000000E+00  0.21326589345E+04  0.21326589345E+04  0.00000000000E+00 0. -1.
         21   -1    0    0  501  502 -0.00000000000E+00 -0.00000000000E+00 -0.95565589082E+02  0.95565589082E+02  0.00000000000E+00 0. -1.
         25    1    1    2    0    0 -0.13672804307E+03  0.18810928078E+03  0.17805594381E+03  0.31844713596E+03  0.12500000000E+03 0.  0.
         25    1    1    2    0    0 -0.10395368177E+02  0.39057247839E+02  0.41534933505E+03  0.43563012110E+03  0.12500000000E+03 0.  0.
         25    1    1    2    0    0  0.14712341124E+03 -0.22716652862E+03  0.14436880665E+04  0.14741472665E+04  0.12500000000E+03 0.  0.
</event>
<event>
 5    0  0.5619558E-005  0.2232499E+03  0.7546771E-02  0.1131483E+00
         21   -1    0    0  502  501  0.00000000000E+00  0.00000000000E+00  0.72029331482E+03  0.72029331482E+03  0.00000000000E+00 0.  1.
         21   -1    0    0  501  502 -0.00000000000E+00 -0.00000000000E+00 -0.69194767736E+02  0.69194767736E+02  0.00000000000E+00 0.  1.
         25    1    1    2    0    0  0.31552784883E+02 -0.75400561397E+01  0.37299227140E+03  0.39471592976E+03  0.12500000000E+03 0.  0.
         25    1    1    2    0    0 -0.18488819710E+02  0.64869217946E+02  0.13979827549E+03  0.19929478097E+03  0.12500000000E+03 0.  0.
         25    1    1    2    0    0 -0.13063965173E+02 -0.57329161806E+02  0.13830800020E+03  0.19547737183E+03  0.12500000000E+03 0.  0.
</event>
<event>
 5    0  0.5619558E-005  0.4016358E+03  0.7546771E-02  0.1043215E+00
         21   -1    0    0  502  501  0.00000000000E+00  0.00000000000E+00  0.22242624207E+03  0.22242624207E+03  0.00000000000E+00 0. -1.
         21   -1    0    0  501  502 -0.00000000000E+00 -0.00000000000E+00 -0.72523508955E+03  0.72523508955E+03  0.00000000000E+00 0. -1.
         25    1    1    2    0    0 -0.22305532836E+03 -0.30183907169E+02 -0.29457420559E+03  0.39123357519E+03  0.12500000000E+03 0.  0.
         25    1    1    2    0    0  0.28792339762E+03  0.12644069141E+03 -0.18075553776E+03  0.38364657664E+03  0.12500000000E+03 0.  0.
         25    1    1    2    0    0 -0.64868069264E+02 -0.96256784239E+02 -0.27479104124E+02  0.17278117978E+03  0.12500000000E+03 0.  0.
</event>
<event>
 5    0  0.5619558E-005  0.3104742E+03  0.7546771E-02  0.1080119E+00
         21   -1    0    0  502  501  0.00000000000E+00  0.00000000000E+00  0.12341239794E+03  0.12341239794E+03  0.00000000000E+00 0.  1.
         21   -1    0    0  501  502 -0.00000000000E+00 -0.00000000000E+00 -0.78107398887E+03  0.78107398887E+03  0.00000000000E+00 0.  1.
         25    1    1    2    0    0  0.29827518640E+01  0.15490153273E+03 -0.11616399474E+03  0.23048309119E+03  0.12500000000E+03 0.  0.
         25    1    1    2    0    0 -0.12408893304E+02 -0.62496183280E+02 -0.35698912575E+02  0.14477280793E+03  0.12500000000E+03 0.  0.
         25    1    1    2    0    0  0.94261414398E+01 -0.92405349445E+02 -0.50579868363E+03  0.52923048769E+03  0.12500000000E+03 0.  0.
</event>
<event>
 5    0  0.5619558E-005  0.2663145E+03  0.7546771E-02  0.1103408E+00
         21   -1    0    0  502  501  0.00000000000E+00  0.00000000000E+00  0.15833896207E+03  0.15833896207E+03  0.00000000000E+00 0.  1.
         21   -1    0    0  501  502 -0.00000000000E+00 -0.00000000000E+00 -0.44792148791E+03  0.44792148791E+03  0.00000000000E+00 0.  1.
         25    1    1    2    0    0  0.70820074648E+02  0.10154080367E+03 -0.12713534338E+03  0.21705854814E+03  0.12500000000E+03 0.  0.
         25    1    1    2    0    0 -0.83159278817E+02 -0.15549067423E+03 -0.86419061562E+02  0.23277901457E+03  0.12500000000E+03 0.  0.
         25    1    1    2    0    0  0.12339204170E+02  0.53949870559E+02 -0.76028120905E+02  0.15642288727E+03  0.12500000000E+03 0.  0.
</event>
<event>
 5    0  0.5619558E-005  0.2530923E+03  0.7546771E-02  0.1111366E+00
         21   -1    0    0  502  501  0.00000000000E+00  0.00000000000E+00  0.30822150183E+03  0.30822150183E+03  0.00000000000E+00 0.  1.
         21   -1    0    0  501  502 -0.00000000000E+00 -0.00000000000E+00 -0.20782370071E+03  0.20782370071E+03  0.00000000000E+00 0.  1.
         25    1    1    2    0    0  0.11023202066E+02  0.55465558700E+01  0.11109671547E+03  0.16768946137E+03  0.12500000000E+03 0.  0.
         25    1    1    2    0    0  0.73571550693E+02  0.20138433250E+02 -0.94046549513E+02  0.17403471792E+03  0.12500000000E+03 0.  0.
         25    1    1    2    0    0 -0.84594752760E+02 -0.25684989120E+02  0.83347635167E+02  0.17432102325E+03  0.12500000000E+03 0.  0.
</event>
<event>
 5    0  0.5619558E-005  0.2101781E+03  0.7546771E-02  0.1141425E+00
         21   -1    0    0  502  501  0.00000000000E+00  0.00000000000E+00  0.11999532396E+03  0.11999532396E+03  0.00000000000E+00 0. -1.
         21   -1    0    0  501  502 -0.00000000000E+00 -0.00000000000E+00 -0.36813809698E+03  0.36813809698E+03  0.00000000000E+00 0. -1.
         25    1    1    2    0    0  0.63599140240E+01  0.17644820988E+02 -0.10544097385E+03  0.16460433524E+03  0.12500000000E+03 0.  0.
         25    1    1    2    0    0  0.22677422392E+02 -0.33965433146E+02 -0.14285622798E+03  0.19416698485E+03  0.12500000000E+03 0.  0.
         25    1    1    2    0    0 -0.29037336415E+02  0.16320612158E+02  0.15442881001E+00  0.12936210085E+03  0.12500000000E+03 0.  0.
</event>
<event>
 5    0  0.5619558E-005  0.3335527E+03  0.7546771E-02  0.1069576E+00
         21   -1    0    0  502  501  0.00000000000E+00  0.00000000000E+00  0.10842241533E+03  0.10842241533E+03  0.00000000000E+00 0.  1.
         21   -1    0    0  501  502 -0.00000000000E+00 -0.00000000000E+00 -0.10261475302E+04  0.10261475302E+04  0.00000000000E+00 0.  1.
         25    1    1    2    0    0 -0.71584996929E+02 -0.16546779318E+03 -0.15036888926E+03  0.26596955695E+03  0.12500000000E+03 0.  0.
         25    1    1    2    0    0  0.13561101546E+03  0.89185314348E+01 -0.46474073379E+03  0.50007883115E+03  0.12500000000E+03 0.  0.
         25    1    1    2    0    0 -0.64026018535E+02  0.15654926174E+03 -0.30261549177E+03  0.36852155739E+03  0.12500000000E+03 0.  0.
</event>
<event>
 5    0  0.5619558E-005  0.2824507E+03  0.7546771E-02  0.1094358E+00
         21   -1    0    0  502  501  0.00000000000E+00  0.00000000000E+00  0.26939802618E+03  0.26939802618E+03  0.00000000000E+00 0. -1.
         21   -1    0    0  501  502 -0.00000000000E+00 -0.00000000000E+00 -0.29613586964E+03  0.29613586964E+03  0.00000000000E+00 0. -1.
         25    1    1    2    0    0  0.75710401761E+02 -0.12624607565E+03 -0.66929616923E+02  0.20438862535E+03  0.12500000000E+03 0.  0.
         25    1    1    2    0    0  0.98434027332E+01 -0.21761682908E+02 -0.41944118192E+02  0.13399541959E+03  0.12500000000E+03 0.  0.
         25    1    1    2    0    0 -0.85553804494E+02  0.14800775856E+03  0.82135891652E+02  0.22714985088E+03  0.12500000000E+03 0.  0.
</event>
<event>
 5    0  0.5619558E-005  0.8932972E+03  0.7546771E-02  0.9433999E-01
         21   -1    0    0  502  501  0.00000000000E+00  0.00000000000E+00  0.15982173259E+04  0.15982173259E+04  0.00000000000E+00 0. -1.
         21   -1    0    0  501  502 -0.00000000000E+00 -0.00000000000E+00 -0.49929371940E+03  0.49929371940E+03  0.00000000000E+00 0. -1.
         25    1    1    2    0    0  0.80641441459E+02 -0.26062735454E+03  0.10242535279E+04  0.10673096783E+04  0.12500000000E+03 0.  0.
         25    1    1    2    0    0 -0.61000012969E+02 -0.98483309030E+02  0.45874718048E+03  0.48938118000E+03  0.12500000000E+03 0.  0.
         25    1    1    2    0    0 -0.19641428490E+02  0.35911066357E+03 -0.38407710190E+03  0.54082018695E+03  0.12500000000E+03 0.  0.
</event>
<event>
 5    0  0.5619558E-005  0.2407965E+03  0.7546771E-02  0.1119263E+00
         21   -1    0    0  502  501  0.00000000000E+00  0.00000000000E+00  0.67952262962E+02  0.67952262962E+02  0.00000000000E+00 0.  1.
         21   -1    0    0  501  502 -0.00000000000E+00 -0.00000000000E+00 -0.85328940947E+03  0.85328940947E+03  0.00000000000E+00 0.  1.
         25    1    1    2    0    0  0.44593340178E+02 -0.15644221103E+01 -0.19528701288E+03  0.23612079706E+03  0.12500000000E+03 0.  0.
         25    1    1    2    0    0 -0.10850343811E+03  0.65840064130E+02 -0.41551354488E+03  0.45208894712E+03  0.12500000000E+03 0.  0.
         25    1    1    2    0    0  0.63910097928E+02 -0.64275642020E+02 -0.17453658875E+03  0.23303192825E+03  0.12500000000E+03 0.  0.
</event>
<event>
 5    0  0.5619558E-005  0.2495015E+03  0.7546771E-02  0.1113620E+00
         21   -1    0    0  502  501  0.00000000000E+00  0.00000000000E+00  0.55840440104E+03  0.55840440104E+03  0.00000000000E+00 0.  1.
         21   -1    0    0  501  502 -0.00000000000E+00 -0.00000000000E+00 -0.11148012360E+03  0.11148012360E+03  0.00000000000E+00 0.  1.
         25    1    1    2    0    0  0.53536892949E+02 -0.14007061429E+03  0.23968754391E+03  0.30912957575E+03  0.12500000000E+03 0.  0.
         25    1    1    2    0    0 -0.42297191154E+02  0.88662324267E+02  0.99553022213E+02  0.18757895499E+03  0.12500000000E+03 0.  0.
         25    1    1    2    0    0 -0.11239701795E+02  0.51408290023E+02  0.10768371132E+03  0.17317599390E+03  0.12500000000E+03 0.  0.
</event>
<event>
 5    0  0.5619558E-005  0.3026724E+03  0.7546771E-02  0.1083912E+00
         21   -1    0    0  502  501  0.00000000000E+00  0.00000000000E+00  0.55003284779E+03  0.55003284779E+03  0.00000000000E+00 0.  1.
         21   -1    0    0  501  502 -0.00000000000E+00 -0.00000000000E+00 -0.16655476936E+03  0.16655476936E+03  0.00000000000E+00 0. -1.
         25    1    1    2    0    0  0.70201318630E+02  0.51941654124E+02  0.14819779723E+03  0.21263524560E+03  0.12500000000E+03 0.  0.
         25    1    1    2    0    0  0.15919980039E+02 -0.18060526803E+03  0.20833126072E+03  0.30314785633E+03  0.12500000000E+03 0.  0.
         25    1    1    2    0    0 -0.86121298669E+02  0.12866361390E+03  0.26949020490E+02  0.20080451522E+03  0.12500000000E+03 0.  0.
</event>
<event>
 5    0  0.5779648E-005  0.2999111E+03  0.7546771E-02  0.1085285E+00
         21   -1    0    0  502  501  0.00000000000E+00  0.00000000000E+00  0.18913488543E+03  0.18913488543E+03  0.00000000000E+00 0. -1.
         21   -1    0    0  501  502 -0.00000000000E+00 -0.00000000000E+00 -0.47556898510E+03  0.47556898510E+03  0.00000000000E+00 0. -1.
         25    1    1    2    0    0  0.97866878153E+02 -0.17250253879E+03 -0.36041786343E+02  0.23718992831E+03  0.12500000000E+03 0.  0.
         25    1    1    2    0    0 -0.79819349670E+02  0.72688376121E+02 -0.54414753902E+02  0.17389851652E+03  0.12500000000E+03 0.  0.
         25    1    1    2    0    0 -0.18047528483E+02  0.99814162674E+02 -0.19597755942E+03  0.25361542570E+03  0.12500000000E+03 0.  0.
</event>
<event>
 5    0  0.5619558E-005  0.5807356E+03  0.7546771E-02  0.9946200E-01
         21   -1    0    0  502  501  0.00000000000E+00  0.00000000000E+00  0.18335683029E+04  0.18335683029E+04  0.00000000000E+00 0. -1.
         21   -1    0    0  501  502 -0.00000000000E+00 -0.00000000000E+00 -0.18393306342E+03  0.18393306342E+03  0.00000000000E+00 0. -1.
         25    1    1    2    0    0 -0.58505898659E+02 -0.18180376538E+03  0.36816314334E+02  0.23120551526E+03  0.12500000000E+03 0.  0.
         25    1    1    2    0    0 -0.14145718342E+03  0.13046061539E+03  0.15042600893E+04  0.15216614352E+04  0.12500000000E+03 0.  0.
         25    1    1    2    0    0  0.19996308208E+03  0.51343149995E+02  0.10855883584E+03  0.26463441591E+03  0.12500000000E+03 0.  0.
</event>
<event>
 5    0  0.5619558E-005  0.3371125E+03  0.7546771E-02  0.1068032E+00
         21   -1    0    0  502  501  0.00000000000E+00  0.00000000000E+00  0.32484596932E+03  0.32484596932E+03  0.00000000000E+00 0. -1.
         21   -1    0    0  501  502 -0.00000000000E+00 -0.00000000000E+00 -0.34984228457E+03  0.34984228457E+03  0.00000000000E+00 0. -1.
         25    1    1    2    0    0  0.16072934366E+03 -0.15782909290E+03 -0.13460695956E+03  0.29066815795E+03  0.12500000000E+03 0.  0.
         25    1    1    2    0    0 -0.67203549702E+02  0.75544978832E+02 -0.24155919776E+02  0.16257880975E+03  0.12500000000E+03 0.  0.
         25    1    1    2    0    0 -0.93525793959E+02  0.82284114072E+02  0.13376656409E+03  0.22144128620E+03  0.12500000000E+03 0.  0.
</event>
<event>
 5    0  0.5619558E-005  0.3411718E+03  0.7546771E-02  0.1066298E+00
         21   -1    0    0  502  501  0.00000000000E+00  0.00000000000E+00  0.43460520906E+03  0.43460520906E+03  0.00000000000E+00 0. -1.
         21   -1    0    0  501  502 -0.00000000000E+00 -0.00000000000E+00 -0.26782511476E+03  0.26782511476E+03  0.00000000000E+00 0. -1.
         25    1    1    2    0    0 -0.60802544622E+02 -0.43839173159E+02  0.13564723021E+03  0.19910799482E+03  0.12500000000E+03 0.  0.
         25    1    1    2    0    0 -0.66445357064E+02  0.19080827060E+03 -0.74795693272E+02  0.24908267169E+03  0.12500000000E+03 0.  0.
         25    1    1    2    0    0  0.12724790169E+03 -0.14696909744E+03  0.10592855736E+03  0.25423965731E+03  0.12500000000E+03 0.  0.
</event>
<event>
 5    0  0.5619558E-005  0.2241018E+03  0.7546771E-02  0.1130861E+00
         21   -1    0    0  502  501  0.00000000000E+00  0.00000000000E+00  0.39494568819E+03  0.39494568819E+03  0.00000000000E+00 0. -1.
         21   -1    0    0  501  502 -0.00000000000E+00 -0.00000000000E+00 -0.12716076668E+03  0.12716076668E+03  0.00000000000E+00 0. -1.
         25    1    1    2    0    0 -0.38342872261E+02 -0.11650431371E+02 -0.75499200787E+01  0.13148349591E+03  0.12500000000E+03 0.  0.
         25    1    1    2    0    0  0.30773136476E+02  0.49292929915E+02  0.18900039837E+03  0.23392932577E+03  0.12500000000E+03 0.  0.
         25    1    1    2    0    0  0.75697357842E+01 -0.37642498544E+02  0.86334443218E+02  0.15669363319E+03  0.12500000000E+03 0.  0.
</event>
<event>
 5    0  0.5619558E-005  0.3250113E+03  0.7546771E-02  0.1073366E+00
         21   -1    0    0  502  501  0.00000000000E+00  0.00000000000E+00  0.77343186329E+03  0.77343186329E+03  0.00000000000E+00 0. -1.
         21   -1    0    0  501  502 -0.00000000000E+00 -0.00000000000E+00 -0.13657614578E+03  0.13657614578E+03  0.00000000000E+00 0. -1.
         25    1    1    2    0    0 -0.10134793829E+03 -0.67637208235E+02  0.29345777351E+03  0.34145081837E+03  0.12500000000E+03 0.  0.
         25    1    1    2    0    0  0.14042012741E+03  0.63810961762E+02 -0.26367009285E+01  0.19854874267E+03  0.12500000000E+03 0.  0.
         25    1    1    2    0    0 -0.39072189123E+02  0.38262464728E+01  0.34603464492E+03  0.37000844803E+03  0.12500000000E+03 0.  0.
</event>
<event>
 5    0  0.5619558E-005  0.2524253E+03  0.7546771E-02  0.1111782E+00
         21   -1    0    0  502  501  0.00000000000E+00  0.00000000000E+00  0.79845505493E+02  0.79845505493E+02  0.00000000000E+00 0.  1.
         21   -1    0    0  501  502 -0.00000000000E+00 -0.00000000000E+00 -0.79802255063E+03  0.79802255063E+03  0.00000000000E+00 0.  1.
         25    1    1    2    0    0 -0.20531598073E+01  0.28655469822E+02 -0.17040197154E+03  0.21327724520E+03  0.12500000000E+03 0.  0.
         25    1    1    2    0    0 -0.61697859957E+02 -0.12227146505E+03 -0.39774485884E+03  0.43884269371E+03  0.12500000000E+03 0.  0.
         25    1    1    2    0    0  0.63751019764E+02  0.93615995231E+02 -0.15003021476E+03  0.22574811721E+03  0.12500000000E+03 0.  0.
</event>
<event>
 5    0  0.5619558E-005  0.3548366E+03  0.7546771E-02  0.1060647E+00
         21   -1    0    0  502  501  0.00000000000E+00  0.00000000000E+00  0.59191865055E+03  0.59191865055E+03  0.00000000000E+00 0.  1.
         21   -1    0    0  501  502 -0.00000000000E+00 -0.00000000000E+00 -0.21271338819E+03  0.21271338819E+03  0.00000000000E+00 0.  1.
         25    1    1    2    0    0  0.37416454787E+02  0.15365592630E+03 -0.97007397555E+02  0.22370867206E+03  0.12500000000E+03 0.  0.
         25    1    1    2    0    0  0.15531259725E+01 -0.21443944247E+02  0.29535478716E+03  0.32143693821E+03  0.12500000000E+03 0.  0.
         25    1    1    2    0    0 -0.38969580759E+02 -0.13221198205E+03  0.18085787276E+03  0.25948642847E+03  0.12500000000E+03 0.  0.
</event>
<event>
 5    0  0.5619558E-005  0.3706016E+03  0.7546771E-02  0.1054463E+00
         21   -1    0    0  502  501  0.00000000000E+00  0.00000000000E+00  0.45138524701E+03  0.45138524701E+03  0.00000000000E+00 0.  1.
         21   -1    0    0  501  502 -0.00000000000E+00 -0.00000000000E+00 -0.30427570568E+03  0.30427570568E+03  0.00000000000E+00 0.  1.
         25    1    1    2    0    0 -0.23344777726E+03  0.10517015721E+03  0.14078684784E+03  0.31781215081E+03  0.12500000000E+03 0.  0.
         25    1    1    2    0    0  0.60642592530E+02 -0.15186001373E+03 -0.51147002875E+02  0.21208489739E+03  0.12500000000E+03 0.  0.
         25    1    1    2    0    0  0.17280518473E+03  0.46689856520E+02  0.57469696359E+02  0.22576390449E+03  0.12500000000E+03 0.  0.
</event>
<event>
 5    0  0.5619558E-005  0.2863401E+03  0.7546771E-02  0.1092276E+00
         21   -1    0    0  502  501  0.00000000000E+00  0.00000000000E+00  0.35710722814E+03  0.35710722814E+03  0.00000000000E+00 0.  1.
         21   -1    0    0  501  502 -0.00000000000E+00 -0.00000000000E+00 -0.22959668327E+03  0.22959668327E+03  0.00000000000E+00 0.  1.
         25    1    1    2    0    0 -0.20585259465E+01  0.13262194963E+03  0.54624035681E+02  0.19026719193E+03  0.12500000000E+03 0.  0.
         25    1    1    2    0    0  0.10905622705E+03 -0.51477400588E+02  0.11486309172E+03  0.20823475519E+03  0.12500000000E+03 0.  0.
         25    1    1    2    0    0 -0.10699770110E+03 -0.81144549038E+02 -0.41976582531E+02  0.18820196429E+03  0.12500000000E+03 0.  0.
</event>
<event>
 5    0  0.5619558E-005  0.2689435E+03  0.7546771E-02  0.1101886E+00
         21   -1    0    0  502  501  0.00000000000E+00  0.00000000000E+00  0.86284029008E+03  0.86284029008E+03  0.00000000000E+00 0.  1.
         21   -1    0    0  501  502 -0.00000000000E+00 -0.00000000000E+00 -0.83828484141E+02  0.83828484141E+02  0.00000000000E+00 0.  1.
         25    1    1    2    0    0 -0.61696880818E+02  0.61488284441E+02  0.22297021562E+03  0.27005190479E+03  0.12500000000E+03 0.  0.
         25    1    1    2    0    0 -0.38780093797E+02  0.44479483103E+02  0.41717716979E+03  0.43948163908E+03  0.12500000000E+03 0.  0.
         25    1    1    2    0    0  0.10047697461E+03 -0.10596776754E+03  0.13886442053E+03  0.23713523035E+03  0.12500000000E+03 0.  0.
</event>
<event>
 5    0  0.5619558E-005  0.3448180E+03  0.7546771E-02  0.1064762E+00
         21   -1    0    0  502  501  0.00000000000E+00  0.00000000000E+00  0.24766600431E+03  0.24766600431E+03  0.00000000000E+00 0. -1.
         21   -1    0    0  501  502 -0.00000000000E+00 -0.00000000000E+00 -0.48007979212E+03  0.48007979212E+03  0.00000000000E+00 0. -1.
         25    1    1    2    0    0  0.71674038315E+02 -0.53758431704E+02 -0.17480936493E+03  0.23283137850E+03  0.12500000000E+03 0.  0.
         25    1    1    2    0    0 -0.40765618726E+02  0.42789769700E+02 -0.23666207917E+03  0.27409257520E+03  0.12500000000E+03 0.  0.
         25    1    1    2    0    0 -0.30908419589E+02  0.10968662004E+02  0.17905765630E+03  0.22082184273E+03  0.12500000000E+03 0.  0.
</event>
<event>
 5    0  0.5619558E-005  0.3171933E+03  0.7546771E-02  0.1076948E+00
         21   -1    0    0  502  501  0.00000000000E+00  0.00000000000E+00  0.10642145234E+03  0.10642145234E+03  0.00000000000E+00 0.  1.
         21   -1    0    0  501  502 -0.00000000000E+00 -0.00000000000E+00 -0.94540729575E+03  0.94540729575E+03  0.00000000000E+00 0.  1.
         25    1    1    2    0    0 -0.69175524730E+01 -0.41752873886E+02 -0.20359486042E+03  0.24262527115E+03  0.12500000000E+03 0.  0.
         25    1    1    2    0    0  0.21820721111E+03  0.30564063383E+02 -0.28626574959E+03  0.38225858831E+03  0.12500000000E+03 0.  0.
         25    1    1    2    0    0 -0.21128965864E+03  0.11188810503E+02 -0.34912523340E+03  0.42694488863E+03  0.12500000000E+03 0.  0.
</event>
<event>
 5    0  0.5619558E-005  0.2991025E+03  0.7546771E-02  0.1085690E+00
         21   -1    0    0  502  501  0.00000000000E+00  0.00000000000E+00  0.21231479150E+04  0.21231479150E+04  0.00000000000E+00 0.  1.
         21   -1    0    0  501  502 -0.00000000000E+00 -0.00000000000E+00 -0.42136635282E+02  0.42136635282E+02  0.00000000000E+00 0.  1.
         25    1    1    2    0    0  0.55552838385E+02 -0.10551592386E+03  0.12499416275E+04  0.12618236011E+04  0.12500000000E+03 0.  0.
         25    1    1    2    0    0 -0.36850214716E+02  0.16437768873E+03  0.42156417246E+03  0.47087080434E+03  0.12500000000E+03 0.  0.
         25    1    1    2    0    0 -0.18702623669E+02 -0.58861764871E+02  0.40950547973E+03  0.43259014485E+03  0.12500000000E+03 0.  0.
</event>
<event>
 5    0  0.5619558E-005  0.4584122E+03  0.7546771E-02  0.1025243E+00
         21   -1    0    0  502  501  0.00000000000E+00  0.00000000000E+00  0.61462291409E+03  0.61462291409E+03  0.00000000000E+00 0.  1.
         21   -1    0    0  501  502 -0.00000000000E+00 -0.00000000000E+00 -0.34190360301E+03  0.34190360301E+03  0.00000000000E+00 0.  1.
         25    1    1    2    0    0 -0.17369482801E+03  0.24390818539E+03 -0.12287454279E+03  0.34696433454E+03  0.12500000000E+03 0.  0.
         25    1    1    2    0    0  0.22534724254E+03 -0.14093467811E+03  0.25498272965E+03  0.38895392483E+03  0.12500000000E+03 0.  0.
         25    1    1    2    0    0 -0.51652414535E+02 -0.10297350727E+03  0.14061112422E+03  0.22060825774E+03  0.12500000000E+03 0.  0.
</event>
<event>
 5    0  0.5619558E-005  0.2678964E+03  0.7546771E-02  0.1102490E+00
         21   -1    0    0  502  501  0.00000000000E+00  0.00000000000E+00  0.23166880736E+03  0.23166880736E+03  0.00000000000E+00 0. -1.
         21   -1    0    0  501  502 -0.00000000000E+00 -0.00000000000E+00 -0.30978916196E+03  0.30978916196E+03  0.00000000000E+00 0. -1.
         25    1    1    2    0    0 -0.35883747296E+02 -0.92085328140E+02 -0.13953244932E+02  0.15995950745E+03  0.12500000000E+03 0.  0.
         25    1    1    2    0    0 -0.68510246649E+02  0.12491554052E+03  0.27873534539E+02  0.19157108364E+03  0.12500000000E+03 0.  0.
         25    1    1    2    0    0  0.10439399394E+03 -0.32830212376E+02 -0.92040644208E+02  0.18992737823E+03  0.12500000000E+03 0.  0.
</event>
<event>
 5    0  0.5619558E-005  0.2493977E+03  0.7546771E-02  0.1113686E+00
         21   -1    0    0  502  501  0.00000000000E+00  0.00000000000E+00  0.49171719584E+03  0.49171719584E+03  0.00000000000E+00 0. -1.
         21   -1    0    0  501  502 -0.00000000000E+00 -0.00000000000E+00 -0.12649383127E+03  0.12649383127E+03  0.00000000000E+00 0. -1.
         25    1    1    2    0    0 -0.82384248496E+01  0.13473125648E+03  0.61611363596E+02  0.19401377075E+03  0.12500000000E+03 0.  0.
         25    1    1    2    0    0  0.67368981025E+01 -0.11322400543E+03  0.15975850189E+03  0.23240662669E+03  0.12500000000E+03 0.  0.
         25    1    1    2    0    0  0.15015267471E+01 -0.21507251045E+02  0.14385349909E+03  0.19179062967E+03  0.12500000000E+03 0.  0.
</event>
<event>
 5    0  0.5619558E-005  0.3787751E+03  0.7546771E-02  0.1051387E+00
         21   -1    0    0  502  501  0.00000000000E+00  0.00000000000E+00  0.37709399461E+03  0.37709399461E+03  0.00000000000E+00 0. -1.
         21   -1    0    0  501  502 -0.00000000000E+00 -0.00000000000E+00 -0.38046373028E+03  0.38046373028E+03  0.00000000000E+00 0. -1.
         25    1    1    2    0    0  0.16119204537E+03 -0.29621953755E+02  0.10662632712E+03  0.23206574343E+03  0.12500000000E+03 0.  0.
         25    1    1    2    0    0 -0.12240052109E+03  0.17307648159E+03 -0.19453735900E+03  0.31369912351E+03  0.12500000000E+03 0.  0.
         25    1    1    2    0    0 -0.38791524286E+02 -0.14345452784E+03  0.84541296214E+02  0.21179285795E+03  0.12500000000E+03 0.  0.
</event>
<event>
 5    0  0.5703396E-005  0.2877687E+03  0.7546771E-02  0.1091520E+00
         21   -1    0    0  502  501  0.00000000000E+00  0.00000000000E+00  0.12329140424E+03  0.12329140424E+03  0.00000000000E+00 0.  1.
         21   -1    0    0  501  502 -0.00000000000E+00 -0.00000000000E+00 -0.67166752096E+03  0.67166752096E+03  0.00000000000E+00 0.  1.
         25    1    1    2    0    0 -0.60706704805E+02  0.61047717696E+02 -0.87494679915E+02  0.17519259932E+03  0.12500000000E+03 0.  0.
         25    1    1    2    0    0 -0.85782498028E+01  0.11720646699E+03 -0.27989416347E+03  0.32829359576E+03  0.12500000000E+03 0.  0.
         25    1    1    2    0    0  0.69284954608E+02 -0.17825418469E+03 -0.18098727333E+03  0.29147273012E+03  0.12500000000E+03 0.  0.
</event>
<event>
 5    0  0.5619558E-005  0.2887409E+03  0.7546771E-02  0.1091008E+00
         21   -1    0    0  502  501  0.00000000000E+00  0.00000000000E+00  0.11260958255E+03  0.11260958255E+03  0.00000000000E+00 0. -1.
         21   -1    0    0  501  502 -0.00000000000E+00 -0.00000000000E+00 -0.74035706365E+03  0.74035706365E+03  0.00000000000E+00 0. -1.
         25    1    1    2    0    0  0.19035167638E+03 -0.53317875879E+02 -0.32341433599E+03  0.39912202309E+03  0.12500000000E+03 0.  0.
         25    1    1    2    0    0 -0.11714554359E+03  0.28772933954E+02 -0.94692307854E+02  0.19784487175E+03  0.12500000000E+03 0.  0.
         25    1    1    2    0    0 -0.73206132796E+02  0.24544941925E+02 -0.20964083726E+03  0.25599975137E+03  0.12500000000E+03 0.  0.
</event>
<event>
 5    0  0.5619558E-005  0.3134860E+03  0.7546771E-02  0.1078687E+00
         21   -1    0    0  502  501  0.00000000000E+00  0.00000000000E+00  0.23345085115E+03  0.23345085115E+03  0.00000000000E+00 0.  1.
         21   -1    0    0  501  502 -0.00000000000E+00 -0.00000000000E+00 -0.42095991330E+03  0.42095991330E+03  0.00000000000E+00 0.  1.
         25    1    1    2    0    0  0.52594631201E+02 -0.26868488176E+02  0.10504796449E+02  0.13864869865E+03  0.12500000000E+03 0.  0.
         25    1    1    2    0    0  0.15396402035E+03  0.69156528489E+02 -0.16773131104E+03  0.26878678855E+03  0.12500000000E+03 0.  0.
         25    1    1    2    0    0 -0.20655865155E+03 -0.42288040312E+02 -0.30282547559E+02  0.24697527725E+03  0.12500000000E+03 0.  0.
</event>
<event>
 5    0  0.5619558E-005  0.3114343E+03  0.7546771E-02  0.1079660E+00
         21   -1    0    0  502  501  0.00000000000E+00  0.00000000000E+00  0.94301678352E+03  0.94301678352E+03  0.00000000000E+00 0. -1.
         21   -1    0    0  501  502 -0.00000000000E+00 -0.00000000000E+00 -0.10285217670E+03  0.10285217670E+03  0.00000000000E+00 0. -1.
         25    1    1    2    0    0 -0.18016240526E+03  0.96526643164E+02  0.34983750185E+03  0.42401316348E+03  0.12500000000E+03 0.  0.
         25    1    1    2    0    0  0.12024321299E+03 -0.79382217137E+02  0.11825596296E+03  0.22443136911E+03  0.12500000000E+03 0.  0.
         25    1    1    2    0    0  0.59919192267E+02 -0.17144426026E+02  0.37207114202E+03  0.39742442762E+03  0.12500000000E+03 0.  0.
</event>
<event>
 5    0  0.5619558E-005  0.4033238E+03  0.7546771E-02  0.1042635E+00
         21   -1    0    0  502  501  0.00000000000E+00  0.00000000000E+00  0.13618023642E+03  0.13618023642E+03  0.00000000000E+00 0. -1.
         21   -1    0    0  501  502 -0.00000000000E+00 -0.00000000000E+00 -0.11945202328E+04  0.11945202328E+04  0.00000000000E+00 0.  1.
         25    1    1    2    0    0 -0.15752750752E+03  0.11837547452E+03 -0.47406642799E+03  0.52838588810E+03  0.12500000000E+03 0.  0.
         25    1    1    2    0    0 -0.12569573023E+03 -0.15828617576E+03 -0.25804306651E+03  0.35080643410E+03  0.12500000000E+03 0.  0.
         25    1    1    2    0    0  0.28322323774E+03  0.39910701237E+02 -0.32623050185E+03  0.45150814700E+03  0.12500000000E+03 0.  0.
</event>
<event>
 5    0  0.5619558E-005  0.3520066E+03  0.7546771E-02  0.1061794E+00
         21   -1    0    0  502  501  0.00000000000E+00  0.00000000000E+00  0.68591280696E+02  0.68591280696E+02  0.00000000000E+00 0. -1.
         21   -1    0    0  501  502 -0.00000000000E+00 -0.00000000000E+00 -0.18064777255E+04  0.18064777255E+04  0.00000000000E+00 0. -1.
         25    1    1    2    0    0 -0.10989890888E+03 -0.11860261312E+03 -0.33752220482E+03  0.39457646757E+03  0.12500000000E+03 0.  0.
         25    1    1    2    0    0  0.19510606268E+03  0.18238079585E+03 -0.67194009932E+03  0.73379672080E+03  0.12500000000E+03 0.  0.
         25    1    1    2    0    0 -0.85207153800E+02 -0.63778182729E+02 -0.72842414065E+03  0.74669581781E+03  0.12500000000E+03 0.  0.
</event>
<event>
 5    0  0.5619558E-005  0.3271011E+03  0.7546771E-02  0.1072427E+00
         21   -1    0    0  502  501  0.00000000000E+00  0.00000000000E+00  0.10328504504E+03  0.10328504504E+03  0.00000000000E+00 0. -1.
         21   -1    0    0  501  502 -0.00000000000E+00 -0.00000000000E+00 -0.10359210898E+04  0.10359210898E+04  0.00000000000E+00 0. -1.
         25    1    1    2    0    0  0.64311225615E+02 -0.19104001363E+02 -0.29900277307E+03  0.33095098566E+03  0.12500000000E+03 0.  0.
         25    1    1    2    0    0 -0.20862753202E+03  0.77758906063E+02 -0.17943117121E+03  0.31207761822E+03  0.12500000000E+03 0.  0.
         25    1    1    2    0    0  0.14431630641E+03 -0.58654904699E+02 -0.45420210051E+03  0.49617753098E+03  0.12500000000E+03 0.  0.
</event>
<event>
 5    0  0.5619558E-005  0.3092955E+03  0.7546771E-02  0.1080684E+00
         21   -1    0    0  502  501  0.00000000000E+00  0.00000000000E+00  0.16883078489E+03  0.16883078489E+03  0.00000000000E+00 0. -1.
         21   -1    0    0  501  502 -0.00000000000E+00 -0.00000000000E+00 -0.56662467163E+03  0.56662467163E+03  0.00000000000E+00 0. -1.
         25    1    1    2    0    0 -0.10746319717E+03  0.74246297627E+02 -0.28170841551E+03  0.33473195669E+03  0.12500000000E+03 0.  0.
         25    1    1    2    0    0  0.12624158801E+03  0.25126279408E+02  0.31855552689E+02  0.18223074575E+03  0.12500000000E+03 0.  0.
         25    1    1    2    0    0 -0.18778390839E+02 -0.99372577035E+02 -0.14794102392E+03  0.21849275409E+03  0.12500000000E+03 0.  0.
</event>
<event>
 5    0  0.5876175E-005  0.2864661E+03  0.7546771E-02  0.1092209E+00
         21   -1    0    0  502  501  0.00000000000E+00  0.00000000000E+00  0.65544638253E+02  0.65544638253E+02  0.00000000000E+00 0. -1.
         21   -1    0    0  501  502 -0.00000000000E+00 -0.00000000000E+00 -0.12520142072E+04  0.12520142072E+04  0.00000000000E+00 0. -1.
         25    1    1    2    0    0  0.62003537621E+02  0.55048385718E+02 -0.58036066160E+03  0.59943161493E+03  0.12500000000E+03 0.  0.
         25    1    1    2    0    0 -0.11303971152E+03  0.23085713220E+02 -0.50337865503E+03  0.53134357706E+03  0.12500000000E+03 0.  0.
         25    1    1    2    0    0  0.51036173902E+02 -0.78134098938E+02 -0.10273025233E+03  0.18678365348E+03  0.12500000000E+03 0.  0.
</event>
<event>
 5    0  0.5619558E-005  0.2418647E+03  0.7546771E-02  0.1118557E+00
         21   -1    0    0  502  501  0.00000000000E+00  0.00000000000E+00  0.29116166307E+03  0.29116166307E+03  0.00000000000E+00 0. -1.
         21   -1    0    0  501  502 -0.00000000000E+00 -0.00000000000E+00 -0.20091432845E+03  0.20091432845E+03  0.00000000000E+00 0. -1.
         25    1    1    2    0    0  0.71226424051E+02 -0.10459636269E+02  0.99050734809E+02  0.17498187203E+03  0.12500000000E+03 0.  0.
         25    1    1    2    0    0 -0.84851763966E+02  0.53648911898E+02 -0.64681633999E+02  0.17287782210E+03  0.12500000000E+03 0.  0.
         25    1    1    2    0    0  0.13625339915E+02 -0.43189275629E+02  0.55878233811E+02  0.14421629738E+03  0.12500000000E+03 0.  0.
</event>
<event>
 5    0  0.5619558E-005  0.2310871E+03  0.7546771E-02  0.1125877E+00
         21   -1    0    0  502  501  0.00000000000E+00  0.00000000000E+00  0.91121323886E+03  0.91121323886E+03  0.00000000000E+00 0. -1.
         21   -1    0    0  501  502 -0.00000000000E+00 -0.00000000000E+00 -0.58604579688E+02  0.58604579688E+02  0.00000000000E+00 0. -1.
         25    1    1    2    0    0 -0.13877103582E+02  0.48811826216E+02  0.30408335156E+03  0.33266627884E+03  0.12500000000E+03 0.  0.
         25    1    1    2    0    0 -0.66813131920E+02  0.35595614332E+02  0.31914270770E+03  0.35101012840E+03  0.12500000000E+03 0.  0.
         25    1    1    2    0    0  0.80690235502E+02 -0.84407440548E+02  0.22938259991E+03  0.28614141131E+03  0.12500000000E+03 0.  0.
</event>
<event>
 5    0  0.5619558E-005  0.2324755E+03  0.7546771E-02  0.1124909E+00
         21   -1    0    0  502  501  0.00000000000E+00  0.00000000000E+00  0.30388061718E+03  0.30388061718E+03  0.00000000000E+00 0.  1.
         21   -1    0    0  501  502 -0.00000000000E+00 -0.00000000000E+00 -0.17784892459E+03  0.17784892459E+03  0.00000000000E+00 0.  1.
         25    1    1    2    0    0  0.10486561230E+03  0.33902821447E+02  0.84550937677E+02  0.18686909591E+03  0.12500000000E+03 0.  0.
         25    1    1    2    0    0 -0.74231301786E+02  0.17287496303E+02 -0.10832910823E+02  0.14680427668E+03  0.12500000000E+03 0.  0.
         25    1    1    2    0    0 -0.30634310515E+02 -0.51190317750E+02  0.52313665738E+02  0.14805616919E+03  0.12500000000E+03 0.  0.
</event>
<event>
 5    0  0.5619558E-005  0.2553521E+03  0.7546771E-02  0.1109968E+00
         21   -1    0    0  502  501  0.00000000000E+00  0.00000000000E+00  0.10909972301E+03  0.10909972301E+03  0.00000000000E+00 0.  1.
         21   -1    0    0  501  502 -0.00000000000E+00 -0.00000000000E+00 -0.59766142244E+03  0.59766142244E+03  0.00000000000E+00 0.  1.
         25    1    1    2    0    0 -0.11052995629E+03  0.19672748996E+02 -0.31749505831E+03  0.35921024532E+03  0.12500000000E+03 0.  0.
         25    1    1    2    0    0  0.34618609384E+02  0.21485865734E+02 -0.19432320015E+02  0.13290111212E+03  0.12500000000E+03 0.  0.
         25    1    1    2    0    0  0.75911346911E+02 -0.41158614730E+02 -0.15163432110E+03  0.21464978801E+03  0.12500000000E+03 0.  0.
</event>
<event>
 5    0  0.5619558E-005  0.3021783E+03  0.7546771E-02  0.1084157E+00
         21   -1    0    0  502  501  0.00000000000E+00  0.00000000000E+00  0.67301793532E+02  0.67301793532E+02  0.00000000000E+00 0.  1.
         21   -1    0    0  501  502 -0.00000000000E+00 -0.00000000000E+00 -0.13567505970E+04  0.13567505970E+04  0.00000000000E+00 0.  1.
         25    1    1    2    0    0 -0.10189637801E+03 -0.62076633869E+02 -0.21054073864E+03  0.27237617912E+03  0.12500000000E+03 0.  0.
         25    1    1    2    0    0 -0.69728073313E+02  0.42854249646E+02 -0.21476888888E+03  0.26162791623E+03  0.12500000000E+03 0.  0.
         25    1    1    2    0    0  0.17162445133E+03  0.19222384223E+02 -0.86413917597E+03  0.89004829520E+03  0.12500000000E+03 0.  0.
</event>
<event>
 5    0  0.5619558E-005  0.2307652E+03  0.7546771E-02  0.1126102E+00
         21   -1    0    0  502  501  0.00000000000E+00  0.00000000000E+00  0.11599161737E+04  0.11599161737E+04  0.00000000000E+00 0.  1.
         21   -1    0    0  501  502 -0.00000000000E+00 -0.00000000000E+00 -0.45910712487E+02  0.45910712487E+02  0.00000000000E+00 0.  1.
         25    1    1    2    0    0 -0.76730440998E+01 -0.68034317577E+02  0.46690729051E+03  0.48817513446E+03  0.12500000000E+03 0.  0.
         25    1    1    2    0    0 -0.60892846134E+02 -0.34636283714E+01  0.20558687124E+03  0.24821542470E+03  0.12500000000E+03 0.  0.
         25    1    1    2    0    0  0.68565890234E+02  0.71497945948E+02  0.44151129942E+03  0.46943632699E+03  0.12500000000E+03 0.  0.
</event>
<event>
 5    0  0.5619558E-005  0.3445075E+03  0.7546771E-02  0.1064892E+00
         21   -1    0    0  502  501  0.00000000000E+00  0.00000000000E+00  0.71242173420E+03  0.71242173420E+03  0.00000000000E+00 0. -1.
         21   -1    0    0  501  502 -0.00000000000E+00 -0.00000000000E+00 -0.16659430856E+03  0.16659430856E+03  0.00000000000E+00 0. -1.
         25    1    1    2    0    0  0.19052794275E+02  0.10505511601E+02  0.20957059954E+03  0.24498614437E+03  0.12500000000E+03 0.  0.
         25    1    1    2    0    0 -0.24330886229E+03 -0.37993542043E+02  0.20792884322E+03  0.34569078025E+03  0.12500000000E+03 0.  0.
         25    1    1    2    0    0  0.22425606801E+03  0.27488030442E+02  0.12832798288E+03  0.28833911814E+03  0.12500000000E+03 0.  0.
</event>
<event>
 5    0  0.5619558E-005  0.3786657E+03  0.7546771E-02  0.1051428E+00
         21   -1    0    0  502  501  0.00000000000E+00  0.00000000000E+00  0.33139786474E+03  0.33139786474E+03  0.00000000000E+00 0.  1.
         21   -1    0    0  501  502 -0.00000000000E+00 -0.00000000000E+00 -0.43267538868E+03  0.43267538868E+03  0.00000000000E+00 0.  1.
         25    1    1    2    0    0 -0.13365634926E+02 -0.18476458977E+03  0.13361770009E+03  0.26037527457E+03  0.12500000000E+03 0.  0.
         25    1    1    2    0    0 -0.14634725501E+03  0.81232512636E+02 -0.62387768708E+02  0.21802172792E+03  0.12500000000E+03 0.  0.
         25    1    1    2    0    0  0.15971288994E+03  0.10353207713E+03 -0.17250745532E+03  0.28567625093E+03  0.12500000000E+03 0.  0.
</event>
<event>
 5    0  0.5619558E-005  0.2500028E+03  0.7546771E-02  0.1113303E+00
         21   -1    0    0  502  501  0.00000000000E+00  0.00000000000E+00  0.12374228684E+03  0.12374228684E+03  0.00000000000E+00 0.  1.
         21   -1    0    0  501  502 -0.00000000000E+00 -0.00000000000E+00 -0.50509317577E+03  0.50509317577E+03  0.00000000000E+00 0.  1.
         25    1    1    2    0    0 -0.91875419638E+02  0.60541697487E+02 -0.14076103886E+02  0.16712129298E+03  0.12500000000E+03 0.  0.
         25    1    1    2    0    0  0.17717365015E+02 -0.39600555785E+02 -0.15848647662E+03  0.20645840335E+03  0.12500000000E+03 0.  0.
         25    1    1    2    0    0  0.74158054623E+02 -0.20941141703E+02 -0.20878830843E+03  0.25525576628E+03  0.12500000000E+03 0.  0.
</event>
<event>
 5    0  0.5619558E-005  0.2183260E+03  0.7546771E-02  0.1135137E+00
         21   -1    0    0  502  501  0.00000000000E+00  0.00000000000E+00  0.23805158366E+03  0.23805158366E+03  0.00000000000E+00 0. -1.
         21   -1    0    0  501  502 -0.00000000000E+00 -0.00000000000E+00 -0.20023492680E+03  0.20023492680E+03  0.00000000000E+00 0. -1.
         25    1    1    2    0    0  0.57230158847E+02 -0.11700611158E+02 -0.84690015645E+01  0.13823501500E+03  0.12500000000E+03 0.  0.
         25    1    1    2    0    0 -0.68263802284E+02  0.16399022162E+02  0.87413927150E+02  0.16791387462E+03  0.12500000000E+03 0.  0.
         25    1    1    2    0    0  0.11033643436E+02 -0.46984110039E+01 -0.41128268734E+02  0.13213762084E+03  0.12500000000E+03 0.  0.
</event>
<event>
 5    0  0.5619558E-005  0.4543635E+03  0.7546771E-02  0.1026429E+00
         21   -1    0    0  502  501  0.00000000000E+00  0.00000000000E+00  0.60934984312E+03  0.60934984312E+03  0.00000000000E+00 0. -1.
         21   -1    0    0  501  502 -0.00000000000E+00 -0.00000000000E+00 -0.33879754808E+03  0.33879754808E+03  0.00000000000E+00 0. -1.
         25    1    1    2    0    0 -0.12308262317E+03  0.62882840308E+02 -0.20982536829E+02  0.18753359854E+03  0.12500000000E+03 0.  0.
         25    1    1    2    0    0 -0.49393625390E+02  0.16908087804E+03 -0.11631902384E+03  0.24532262198E+03  0.12500000000E+03 0.  0.
         25    1    1    2    0    0  0.17247624856E+03 -0.23196371835E+03  0.40785385571E+03  0.51529117067E+03  0.12500000000E+03 0.  0.
</event>
<event>
 5    0  0.5619558E-005  0.2438457E+03  0.7546771E-02  0.1117257E+00
         21   -1    0    0  502  501  0.00000000000E+00  0.00000000000E+00  0.13072020460E+03  0.13072020460E+03  0.00000000000E+00 0.  1.
         21   -1    0    0  501  502 -0.00000000000E+00 -0.00000000000E+00 -0.45487006520E+03  0.45487006520E+03  0.00000000000E+00 0.  1.
         25    1    1    2    0    0  0.30305555930E+02  0.11987563422E+03 -0.16526660899E+03  0.24130198186E+03  0.12500000000E+03 0.  0.
         25    1    1    2    0    0 -0.35532503958E+02 -0.10470924923E+03 -0.41287701199E+02  0.17191934150E+03  0.12500000000E+03 0.  0.
         25    1    1    2    0    0  0.52269480282E+01 -0.15166384997E+02 -0.11759555041E+03  0.17236894644E+03  0.12500000000E+03 0.  0.
</event>
<event>
 5    0  0.5619558E-005  0.3899421E+03  0.7546771E-02  0.1047319E+00
         21   -1    0    0  502  501  0.00000000000E+00  0.00000000000E+00  0.14253947873E+04  0.14253947873E+04  0.00000000000E+00 0.  1.
         21   -1    0    0  501  502 -0.00000000000E+00 -0.00000000000E+00 -0.10667559681E+03  0.10667559681E+03  0.00000000000E+00 0.  1.
         25    1    1    2    0    0 -0.17923912274E+03 -0.42569916966E+02  0.11434110431E+04  0.11648831162E+04  0.12500000000E+03 0.  0.
         25    1    1    2    0    0  0.69498125137E+02  0.53493192262E+02  0.10982755809E+03  0.18809200816E+03  0.12500000000E+03 0.  0.
         25    1    1    2    0    0  0.10974099761E+03 -0.10923275296E+02  0.65480589355E+02  0.17909525979E+03  0.12500000000E+03 0.  0.
</event>
<event>
 5    0  0.5675327E-005  0.2939758E+03  0.7546771E-02  0.1088291E+00
         21   -1    0    0  502  501  0.00000000000E+00  0.00000000000E+00  0.41685012567E+03  0.41685012567E+03  0.00000000000E+00 0.  1.
         21   -1    0    0  501  502 -0.00000000000E+00 -0.00000000000E+00 -0.20732093221E+03  0.20732093221E+03  0.00000000000E+00 0.  1.
         25    1    1    2    0    0  0.22304352917E+02  0.11440389425E+03  0.78057881640E+02  0.18789296971E+03  0.12500000000E+03 0.  0.
         25    1    1    2    0    0 -0.21699072423E+02  0.31724563343E+02 -0.77722552642E+02  0.15212854056E+03  0.12500000000E+03 0.  0.
         25    1    1    2    0    0 -0.60528049401E+00 -0.14612845760E+03  0.20919386446E+03  0.28414954762E+03  0.12500000000E+03 0.  0.
</event>
<event>
 5    0  0.5619558E-005  0.2695442E+03  0.7546771E-02  0.1101541E+00
         21   -1    0    0  502  501  0.00000000000E+00  0.00000000000E+00  0.65993108585E+03  0.65993108585E+03  0.00000000000E+00 0.  1.
         21   -1    0    0  501  502 -0.00000000000E+00 -0.00000000000E+00 -0.11009341793E+03  0.11009341793E+03  0.00000000000E+00 0.  1.
         25    1    1    2    0    0  0.58542949336E+01 -0.88080162739E+01  0.33580459929E+03  0.35847117433E+03  0.12500000000E+03 0.  0.
         25    1    1    2    0    0  0.97423981779E+02  0.72200409821E+02  0.13503026709E+03  0.22036901877E+03  0.12500000000E+03 0.  0.
         25    1    1    2    0    0 -0.10327827671E+03 -0.63392393547E+02  0.79002801538E+02  0.19118431068E+03  0.12500000000E+03 0.  0.
</event>
<event>
 5    0  0.5619558E-005  0.4480574E+03  0.7546771E-02  0.1028303E+00
         21   -1    0    0  502  501  0.00000000000E+00  0.00000000000E+00  0.10336782350E+04  0.10336782350E+04  0.00000000000E+00 0. -1.
         21   -1    0    0  501  502 -0.00000000000E+00 -0.00000000000E+00 -0.19421460980E+03  0.19421460980E+03  0.00000000000E+00 0. -1.
         25    1    1    2    0    0  0.44887267498E+01  0.28603708665E+03  0.44343202834E+02  0.31532314099E+03  0.12500000000E+03 0.  0.
         25    1    1    2    0    0  0.10331919962E+03 -0.82364319524E+02  0.26860043061E+03  0.32439162977E+03  0.12500000000E+03 0.  0.
         25    1    1    2    0    0 -0.10780792637E+03 -0.20367276712E+03  0.52651999175E+03  0.58817807403E+03  0.12500000000E+03 0.  0.
</event>
<event>
 5    0  0.5619558E-005  0.2033393E+03  0.7546771E-02  0.1146952E+00
         21   -1    0    0  502  501  0.00000000000E+00  0.00000000000E+00  0.59382106776E+03  0.59382106776E+03  0.00000000000E+00 0. -1.
         21   -1    0    0  501  502 -0.00000000000E+00 -0.00000000000E+00 -0.69628496704E+02  0.69628496704E+02  0.00000000000E+00 0. -1.
         25    1    1    2    0    0  0.28213014034E+02 -0.20062601268E+02  0.16146382052E+03  0.20710878173E+03  0.12500000000E+03 0.  0.
         25    1    1    2    0    0  0.35810483685E+02  0.25599414576E+02  0.21396440870E+03  0.25168132422E+03  0.12500000000E+03 0.  0.
         25    1    1    2    0    0 -0.64023497719E+02 -0.55368133076E+01  0.14876434183E+03  0.20465945852E+03  0.12500000000E+03 0.  0.
</event>
<event>
 5    0  0.5619558E-005  0.2646231E+03  0.7546771E-02  0.1104397E+00
         21   -1    0    0  502  501  0.00000000000E+00  0.00000000000E+00  0.12700200108E+03  0.12700200108E+03  0.00000000000E+00 0. -1.
         21   -1    0    0  501  502 -0.00000000000E+00 -0.00000000000E+00 -0.55137222654E+03  0.55137222654E+03  0.00000000000E+00 0. -1.
         25    1    1    2    0    0  0.19928353935E+02  0.21949799663E+02 -0.27531120188E+03  0.30380946476E+03  0.12500000000E+03 0.  0.
         25    1    1    2    0    0 -0.52886348427E+02 -0.11935574443E+03 -0.64185244615E+02  0.19180069136E+03  0.12500000000E+03 0.  0.
         25    1    1    2    0    0  0.32957994492E+02  0.97405944769E+02 -0.84873778963E+02  0.18276407150E+03  0.12500000000E+03 0.  0.
</event>
<event>
 5    0  0.7485426E-005  0.3352426E+03  0.7546771E-02  0.1068840E+00
         21   -1    0    0  502  501  0.00000000000E+00  0.00000000000E+00  0.26729526356E+03  0.26729526356E+03  0.00000000000E+00 0.  1.
         21   -1    0    0  501  502 -0.00000000000E+00 -0.00000000000E+00 -0.42046227612E+03  0.42046227612E+03  0.00000000000E+00 0.  1.
         25    1    1    2    0    0 -0.12240984577E+03 -0.58204210717E+02  0.67691987337E+02  0.19641564509E+03  0.12500000000E+03 0.  0.
         25    1    1    2    0    0  0.20261526918E+03  0.12708546484E+03 -0.99801198995E+02  0.28773067615E+03  0.12500000000E+03 0.  0.
         25    1    1    2    0    0 -0.80205423409E+02 -0.68881254120E+02 -0.12105780091E+03  0.20361121844E+03  0.12500000000E+03 0.  0.
</event>
<event>
 5    0  0.5619558E-005  0.2697357E+03  0.7546771E-02  0.1101431E+00
         21   -1    0    0  502  501  0.00000000000E+00  0.00000000000E+00  0.22951267513E+03  0.22951267513E+03  0.00000000000E+00 0. -1.
         21   -1    0    0  501  502 -0.00000000000E+00 -0.00000000000E+00 -0.31700786640E+03  0.31700786640E+03  0.00000000000E+00 0. -1.
         25    1    1    2    0    0  0.34972756531E+00 -0.81496198779E+02  0.11012256119E+03  0.18545546961E+03  0.12500000000E+03 0.  0.
         25    1    1    2    0    0  0.72740548104E+02  0.31126522114E+02 -0.11126044356E+03  0.18510519717E+03  0.12500000000E+03 0.  0.
         25    1    1    2    0    0 -0.73090275670E+02  0.50369676666E+02 -0.86357308895E+02  0.17595987476E+03  0.12500000000E+03 0.  0.
</event>
<event>
 5    0  0.5619558E-005  0.2554474E+03  0.7546771E-02  0.1109910E+00
         21   -1    0    0  502  501  0.00000000000E+00  0.00000000000E+00  0.34787851998E+03  0.34787851998E+03  0.00000000000E+00 0. -1.
         21   -1    0    0  501  502 -0.00000000000E+00 -0.00000000000E+00 -0.18757517284E+03  0.18757517284E+03  0.00000000000E+00 0. -1.
         25    1    1    2    0    0 -0.99003983027E+02  0.54521027659E-01  0.19962508174E+03  0.25549357113E+03  0.12500000000E+03 0.  0.
         25    1    1    2    0    0  0.31739638800E+02  0.27160747484E+02 -0.29733912238E+02  0.13510816560E+03  0.12500000000E+03 0.  0.
         25    1    1    2    0    0  0.67264344227E+02 -0.27215268512E+02 -0.95878223736E+01  0.14485195609E+03  0.12500000000E+03 0.  0.
</event>
<event>
 5    0  0.5619558E-005  0.3211546E+03  0.7546771E-02  0.1075119E+00
         21   -1    0    0  502  501  0.00000000000E+00  0.00000000000E+00  0.61532332448E+02  0.61532332448E+02  0.00000000000E+00 0. -1.
         21   -1    0    0  501  502 -0.00000000000E+00 -0.00000000000E+00 -0.16761960556E+04  0.16761960556E+04  0.00000000000E+00 0. -1.
         25    1    1    2    0    0  0.87174641719E+02  0.15678841091E+03 -0.39619536199E+03  0.45252379917E+03  0.12500000000E+03 0.  0.
         25    1    1    2    0    0 -0.16828557670E+03 -0.13873827249E+03 -0.87446881545E+03  0.90988408755E+03  0.12500000000E+03 0.  0.
         25    1    1    2    0    0  0.81110934982E+02 -0.18050138419E+02 -0.34399954575E+03  0.37532050136E+03  0.12500000000E+03 0.  0.
</event>
<event>
 5    0  0.5619558E-005  0.3876042E+03  0.7546771E-02  0.1048158E+00
         21   -1    0    0  502  501  0.00000000000E+00  0.00000000000E+00  0.26365110716E+03  0.26365110716E+03  0.00000000000E+00 0.  1.
         21   -1    0    0  501  502 -0.00000000000E+00 -0.00000000000E+00 -0.56983266985E+03  0.56983266985E+03  0.00000000000E+00 0.  1.
         25    1    1    2    0    0  0.20259237912E+03 -0.44422171584E+02  0.12080026915E+02  0.24246222068E+03  0.12500000000E+03 0.  0.
         25    1    1    2    0    0 -0.28788147527E+03  0.43136331777E+02 -0.30392698408E+03  0.43901377948E+03  0.12500000000E+03 0.  0.
         25    1    1    2    0    0  0.85289096147E+02  0.12858398070E+01 -0.14334605515E+02  0.15200777684E+03  0.12500000000E+03 0.  0.
</event>
<event>
 5    0  0.5619558E-005  0.2045232E+03  0.7546771E-02  0.1145978E+00
         21   -1    0    0  502  501  0.00000000000E+00  0.00000000000E+00  0.10669485759E+03  0.10669485759E+03  0.00000000000E+00 0.  1.
         21   -1    0    0  501  502 -0.00000000000E+00 -0.00000000000E+00 -0.39205015070E+03  0.39205015070E+03  0.00000000000E+00 0.  1.
         25    1    1    2    0    0  0.51096482961E+02  0.20841713793E+02 -0.94258278724E+02  0.16599653826E+03  0.12500000000E+03 0.  0.
         25    1    1    2    0    0 -0.17163093423E+01 -0.40374679369E+02 -0.61606720390E+02  0.14509806494E+03  0.12500000000E+03 0.  0.
         25    1    1    2    0    0 -0.49380173619E+02  0.19532965576E+02 -0.12949029400E+03  0.18765040509E+03  0.12500000000E+03 0.  0.
</event>
<event>
 5    0  0.5619558E-005  0.3117745E+03  0.7546771E-02  0.1079498E+00
         21   -1    0    0  502  501  0.00000000000E+00  0.00000000000E+00  0.88316364216E+02  0.88316364216E+02  0.00000000000E+00 0. -1.
         21   -1    0    0  501  502 -0.00000000000E+00 -0.00000000000E+00 -0.11006263543E+04  0.11006263543E+04  0.00000000000E+00 0. -1.
         25    1    1    2    0    0  0.73599926399E+02 -0.29208481218E+02 -0.30367104134E+03  0.33780347229E+03  0.12500000000E+03 0.  0.
         25    1    1    2    0    0 -0.19822935739E+03 -0.89318436787E+02 -0.46053613367E+03  0.52439602563E+03  0.12500000000E+03 0.  0.
         25    1    1    2    0    0  0.12462943099E+03  0.11852691800E+03 -0.24810281508E+03  0.32674322061E+03  0.12500000000E+03 0.  0.
</event>
<event>
 5    0  0.5619558E-005  0.2992824E+03  0.7546771E-02  0.1085600E+00
         21   -1    0    0  502  501  0.00000000000E+00  0.00000000000E+00  0.10244072516E+03  0.10244072516E+03  0.00000000000E+00 0.  1.
         21   -1    0    0  501  502 -0.00000000000E+00 -0.00000000000E+00 -0.87435892755E+03  0.87435892755E+03  0.00000000000E+00 0.  1.
         25    1    1    2    0    0  0.30650392686E+02  0.13406949688E+03 -0.37686187389E+03  0.42019513152E+03  0.12500000000E+03 0.  0.
         25    1    1    2    0    0  0.83298594930E+02 -0.34217032140E+02 -0.30250152960E+03  0.33947258595E+03  0.12500000000E+03 0.  0.
         25    1    1    2    0    0 -0.11394898762E+03 -0.99852464745E+02 -0.92554798905E+02  0.21713193523E+03  0.12500000000E+03 0.  0.
</event>
<event>
 5    0  0.5619558E-005  0.3645537E+03  0.7546771E-02  0.1056795E+00
         21   -1    0    0  502  501  0.00000000000E+00  0.00000000000E+00  0.79240635212E+02  0.79240635212E+02  0.00000000000E+00 0.  1.
         21   -1    0    0  501  502 -0.00000000000E+00 -0.00000000000E+00 -0.16771621841E+04  0.16771621841E+04  0.00000000000E+00 0.  1.
         25    1    1    2    0    0  0.30101535180E+02 -0.97370281230E+02 -0.87715475550E+03  0.89185903549E+03  0.12500000000E+03 0.  0.
         25    1    1    2    0    0  0.99160572196E+02 -0.33883930652E+02 -0.57681300841E+03  0.59943238693E+03  0.12500000000E+03 0.  0.
         25    1    1    2    0    0 -0.12926210738E+03  0.13125421188E+03 -0.14395378493E+03  0.26511139684E+03  0.12500000000E+03 0.  0.
</event>
<event>
 5    0  0.5619558E-005  0.2565923E+03  0.7546771E-02  0.1109208E+00
         21   -1    0    0  502  501  0.00000000000E+00  0.00000000000E+00  0.20939849871E+03  0.20939849871E+03  0.00000000000E+00 0. -1.
         21   -1    0    0  501  502 -0.00000000000E+00 -0.00000000000E+00 -0.31442265421E+03  0.31442265421E+03  0.00000000000E+00 0. -1.
         25    1    1    2    0    0 -0.36200611437E+02  0.42017500100E+02 -0.11720725430E+03  0.18010689893E+03  0.12500000000E+03 0.  0.
         25    1    1    2    0    0  0.96431389103E+02 -0.78523039560E+02 -0.55806667865E+02  0.18494395022E+03  0.12500000000E+03 0.  0.
         25    1    1    2    0    0 -0.60230777666E+02  0.36505539461E+02  0.67989766660E+02  0.15877030377E+03  0.12500000000E+03 0.  0.
</event>
<event>
 5    0  0.5619558E-005  0.3824541E+03  0.7546771E-02  0.1050030E+00
         21   -1    0    0  502  501  0.00000000000E+00  0.00000000000E+00  0.26164398428E+03  0.26164398428E+03  0.00000000000E+00 0. -1.
         21   -1    0    0  501  502 -0.00000000000E+00 -0.00000000000E+00 -0.55904633263E+03  0.55904633263E+03  0.00000000000E+00 0. -1.
         25    1    1    2    0    0  0.17988591936E+03  0.15323528095E+02  0.98275216361E+01  0.21980749460E+03  0.12500000000E+03 0.  0.
         25    1    1    2    0    0  0.89895566727E+02  0.97857329355E+02 -0.18568448600E+03  0.26030942774E+03  0.12500000000E+03 0.  0.
         25    1    1    2    0    0 -0.26978148609E+03 -0.11318085745E+03 -0.12154538398E+03  0.34057339458E+03  0.12500000000E+03 0.  0.
</event>
<event>
 5    0  0.5619558E-005  0.2406124E+03  0.7546771E-02  0.1119386E+00
         21   -1    0    0  502  501  0.00000000000E+00  0.00000000000E+00  0.12888342141E+04  0.12888342141E+04  0.00000000000E+00 0. -1.
         21   -1    0    0  501  502 -0.00000000000E+00 -0.00000000000E+00 -0.44919911107E+02  0.44919911107E+02  0.00000000000E+00 0. -1.
         25    1    1    2    0    0  0.86242238605E+02  0.36804099580E+02  0.62167030852E+03  0.64100798588E+03  0.12500000000E+03 0.  0.
         25    1    1    2    0    0 -0.10218443860E+03 -0.37480901530E+01  0.24317646127E+03  0.29191693851E+03  0.12500000000E+03 0.  0.
         25    1    1    2    0    0  0.15942200000E+02 -0.33056009427E+02  0.37906753322E+03  0.40082920084E+03  0.12500000000E+03 0.  0.
</event>
<event>
 5    0  0.5619558E-005  0.3336482E+03  0.7546771E-02  0.1069534E+00
         21   -1    0    0  502  501  0.00000000000E+00  0.00000000000E+00  0.87490284427E+02  0.87490284427E+02  0.00000000000E+00 0. -1.
         21   -1    0    0  501  502 -0.00000000000E+00 -0.00000000000E+00 -0.12723827269E+04  0.12723827269E+04  0.00000000000E+00 0. -1.
         25    1    1    2    0    0 -0.11228249758E+03 -0.88421447987E+02 -0.60417165542E+03  0.63330411410E+03  0.12500000000E+03 0.  0.
         25    1    1    2    0    0  0.96316558549E+02 -0.13937930264E+02 -0.41962786090E+02  0.16388111779E+03  0.12500000000E+03 0.  0.
         25    1    1    2    0    0  0.15965939033E+02  0.10235937825E+03 -0.53875800096E+03  0.56268777943E+03  0.12500000000E+03 0.  0.
</event>
<event>
 5    0  0.5619558E-005  0.2392188E+03  0.7546771E-02  0.1120314E+00
         21   -1    0    0  502  501  0.00000000000E+00  0.00000000000E+00  0.10969348515E+04  0.10969348515E+04  0.00000000000E+00 0. -1.
         21   -1    0    0  501  502 -0.00000000000E+00 -0.00000000000E+00 -0.52168656778E+02  0.52168656778E+02  0.00000000000E+00 0. -1.
         25    1    1    2    0    0  0.41151126411E+02  0.40904781285E+02  0.11689499901E+03  0.18070987004E+03  0.12500000000E+03 0.  0.
         25    1    1    2    0    0  0.19387727796E+02 -0.27343787522E+02  0.33039743839E+03  0.35483944820E+03  0.12500000000E+03 0.  0.
         25    1    1    2    0    0 -0.60538854207E+02 -0.13560993763E+02  0.59747375730E+03  0.61355419001E+03  0.12500000000E+03 0.  0.
</event>
<event>
 5    0  0.5619558E-005  0.3437631E+03  0.7546771E-02  0.1065204E+00
         21   -1    0    0  502  501  0.00000000000E+00  0.00000000000E+00  0.50395723254E+03  0.50395723254E+03  0.00000000000E+00 0.  1.
         21   -1    0    0  501  502 -0.00000000000E+00 -0.00000000000E+00 -0.23449029082E+03  0.23449029082E+03  0.00000000000E+00 0.  1.
         25    1    1    2    0    0 -0.25194064755E+03 -0.17962447777E+02  0.17094624152E+03  0.32961243439E+03  0.12500000000E+03 0.  0.
         25    1    1    2    0    0  0.18790871597E+03  0.83614030616E+02  0.45176832137E+02  0.24488147708E+03  0.12500000000E+03 0.  0.
         25    1    1    2    0    0  0.64031931573E+02 -0.65651582838E+02  0.53343868061E+02  0.16395361188E+03  0.12500000000E+03 0.  0.
</event>
<event>
 5    0  0.5619558E-005  0.2777136E+03  0.7546771E-02  0.1096944E+00
         21   -1    0    0  502  501  0.00000000000E+00  0.00000000000E+00  0.35450489987E+03  0.35450489987E+03  0.00000000000E+00 0.  1.
         21   -1    0    0  501  502 -0.00000000000E+00 -0.00000000000E+00 -0.21755646842E+03  0.21755646842E+03  0.00000000000E+00 0.  1.
         25    1    1    2    0    0  0.10459761541E+03  0.28297450258E+02  0.10091732339E+03  0.19378006348E+03  0.12500000000E+03 0.  0.
         25    1    1    2    0    0 -0.14407894559E+03 -0.76680588661E+02  0.95181803936E+02  0.22654631103E+03  0.12500000000E+03 0.  0.
         25    1    1    2    0    0  0.39481330185E+02  0.48383138403E+02 -0.59150695883E+02  0.15173499378E+03  0.12500000000E+03 0.  0.
</event>
<event>
 5    0  0.5619558E-005  0.2761168E+03  0.7546771E-02  0.1097829E+00
         21   -1    0    0  502  501  0.00000000000E+00  0.00000000000E+00  0.13013319778E+04  0.13013319778E+04  0.00000000000E+00 0.  1.
         21   -1    0    0  501  502 -0.00000000000E+00 -0.00000000000E+00 -0.58586511647E+02  0.58586511647E+02  0.00000000000E+00 0.  1.
         25    1    1    2    0    0 -0.14002947338E+03  0.82283536537E+02  0.35043862773E+03  0.40596929146E+03  0.12500000000E+03 0.  0.
         25    1    1    2    0    0  0.37913235885E+02 -0.43719056195E+01  0.57361780668E+03  0.58831871903E+03  0.12500000000E+03 0.  0.
         25    1    1    2    0    0  0.10211623750E+03 -0.77911630917E+02  0.31868903172E+03  0.36563047894E+03  0.12500000000E+03 0.  0.
</event>
<event>
 5    0  0.5619558E-005  0.4250956E+03  0.7546771E-02  0.1035421E+00
         21   -1    0    0  502  501  0.00000000000E+00  0.00000000000E+00  0.79674150748E+03  0.79674150748E+03  0.00000000000E+00 0. -1.
         21   -1    0    0  501  502 -0.00000000000E+00 -0.00000000000E+00 -0.22680662621E+03  0.22680662621E+03  0.00000000000E+00 0. -1.
         25    1    1    2    0    0 -0.51977510924E+02 -0.27699751738E+03  0.28447630237E+03  0.41950095696E+03  0.12500000000E+03 0.  0.
         25    1    1    2    0    0 -0.12641814384E+03  0.32317586402E+01  0.59211405697E+02  0.18741126413E+03  0.12500000000E+03 0.  0.
         25    1    1    2    0    0  0.17839565477E+03  0.27376575874E+03  0.22624717319E+03  0.41663591261E+03  0.12500000000E+03 0.  0.
</event>
