<event>
 5    0  0.6998223E-005  0.5662978E+03  0.7546771E-02  0.9977905E-01
         21   -1    0    0  502  501  0.00000000000E+00  0.00000000000E+00  0.60797542257E+03  0.60797542257E+03  0.00000000000E+00 0. -1.
         21   -1    0    0  501  502 -0.00000000000E+00 -0.00000000000E+00 -0.52747718169E+03  0.52747718169E+03  0.00000000000E+00 0. -1.
         25    1    1    2    0    0 -0.28119215773E+03 -0.69332403779E+02 -0.21364729519E+03  0.38098054875E+03  0.12500000000E+03 0.  0.
         25    1    1    2    0    0 -0.11383055031E+03  0.18547991477E+03  0.18135055383E+03  0.30963400385E+03  0.12500000000E+03 0.  0.
         25    1    1    2    0    0  0.39502270805E+03 -0.11614751099E+03  0.11279498224E+03  0.44483805166E+03  0.12500000000E+03 0.  0.
</event>
<event>
 5    0  0.5648525E-005  0.5718835E+03  0.7546771E-02  0.9965519E-01
         21   -1    0    0  502  501  0.00000000000E+00  0.00000000000E+00  0.25662354765E+03  0.25662354765E+03  0.00000000000E+00 0. -1.
         21   -1    0    0  501  502 -0.00000000000E+00 -0.00000000000E+00 -0.12744377492E+04  0.12744377492E+04  0.00000000000E+00 0. -1.
         25    1    1    2    0    0  0.49022941882E+03  0.92280605718E+02 -0.55882203737E+03  0.75943904477E+03  0.12500000000E+03 0.  0.
         25    1    1    2    0    0 -0.28998155982E+03 -0.18571952279E+03 -0.26667107360E+03  0.45312195674E+03  0.12500000000E+03 0.  0.
         25    1    1    2    0    0 -0.20024785900E+03  0.93438917068E+02 -0.19232109058E+03  0.31850029535E+03  0.12500000000E+03 0.  0.
</event>
<event>
 5    0  0.5648525E-005  0.3183132E+03  0.7546771E-02  0.1076428E+00
         21   -1    0    0  502  501  0.00000000000E+00  0.00000000000E+00  0.29979335514E+03  0.29979335514E+03  0.00000000000E+00 0.  1.
         21   -1    0    0  501  502 -0.00000000000E+00 -0.00000000000E+00 -0.33797720962E+03  0.33797720962E+03  0.00000000000E+00 0.  1.
         25    1    1    2    0    0 -0.15348413911E+03  0.54159582155E+01  0.65769481839E+01  0.19812866983E+03  0.12500000000E+03 0.  0.
         25    1    1    2    0    0  0.22628595099E+02 -0.12158296207E+03  0.77626715412E+02  0.19221180226E+03  0.12500000000E+03 0.  0.
         25    1    1    2    0    0  0.13085554401E+03  0.11616700385E+03 -0.12238751808E+03  0.24743009268E+03  0.12500000000E+03 0.  0.
</event>
<event>
 5    0  0.5648525E-005  0.5556099E+03  0.7546771E-02  0.1000204E+00
         21   -1    0    0  502  501  0.00000000000E+00  0.00000000000E+00  0.30532392275E+03  0.30532392275E+03  0.00000000000E+00 0. -1.
         21   -1    0    0  501  502 -0.00000000000E+00 -0.00000000000E+00 -0.10110651539E+04  0.10110651539E+04  0.00000000000E+00 0. -1.
         25    1    1    2    0    0 -0.21878780044E+03  0.63373531906E+02  0.28175533074E+02  0.26134874561E+03  0.12500000000E+03 0.  0.
         25    1    1    2    0    0  0.45168724415E+03 -0.19795030522E+02 -0.34286909142E+03  0.58103134478E+03  0.12500000000E+03 0.  0.
         25    1    1    2    0    0 -0.23289944371E+03 -0.43578501384E+02 -0.39104767281E+03  0.47400898628E+03  0.12500000000E+03 0.  0.
</event>
<event>
 5    0  0.5792466E-005  0.4529117E+03  0.7546771E-02  0.1026857E+00
         21   -1    0    0  502  501  0.00000000000E+00  0.00000000000E+00  0.82381158768E+03  0.82381158768E+03  0.00000000000E+00 0.  1.
         21   -1    0    0  501  502 -0.00000000000E+00 -0.00000000000E+00 -0.24899993972E+03  0.24899993972E+03  0.00000000000E+00 0.  1.
         25    1    1    2    0    0 -0.18729257578E+03  0.19136069124E+02  0.24462873798E+03  0.33303591027E+03  0.12500000000E+03 0.  0.
         25    1    1    2    0    0 -0.89968456657E+01  0.90583694304E+00 -0.15617216072E+03  0.20024112354E+03  0.12500000000E+03 0.  0.
         25    1    1    2    0    0  0.19628942145E+03 -0.20041906067E+02  0.48635507070E+03  0.53953449359E+03  0.12500000000E+03 0.  0.
</event>
<event>
 5    0  0.5648525E-005  0.4245974E+03  0.7546771E-02  0.1035580E+00
         21   -1    0    0  502  501  0.00000000000E+00  0.00000000000E+00  0.28382372275E+03  0.28382372275E+03  0.00000000000E+00 0. -1.
         21   -1    0    0  501  502 -0.00000000000E+00 -0.00000000000E+00 -0.63519328584E+03  0.63519328584E+03  0.00000000000E+00 0. -1.
         25    1    1    2    0    0 -0.88711700847E+02 -0.14965607232E+03  0.15231638887E+03  0.26285354890E+03  0.12500000000E+03 0.  0.
         25    1    1    2    0    0  0.12440123255E+03  0.12607095813E+02 -0.40747226221E+03  0.44417704803E+03  0.12500000000E+03 0.  0.
         25    1    1    2    0    0 -0.35689531708E+02  0.13704897650E+03 -0.96213689742E+02  0.21198641166E+03  0.12500000000E+03 0.  0.
</event>
<event>
 5    0  0.5648525E-005  0.2312066E+03  0.7546771E-02  0.1125793E+00
         21   -1    0    0  502  501  0.00000000000E+00  0.00000000000E+00  0.14347423550E+04  0.14347423550E+04  0.00000000000E+00 0. -1.
         21   -1    0    0  501  502 -0.00000000000E+00 -0.00000000000E+00 -0.37258612649E+02  0.37258612649E+02  0.00000000000E+00 0. -1.
         25    1    1    2    0    0  0.58337113565E+02 -0.75877930838E+02  0.41598338922E+03  0.44477843845E+03  0.12500000000E+03 0.  0.
         25    1    1    2    0    0 -0.75346695521E+02 -0.11602197747E+02  0.55294667609E+03  0.57200241443E+03  0.12500000000E+03 0.  0.
         25    1    1    2    0    0  0.17009581956E+02  0.87480128584E+02  0.42855367701E+03  0.45522011473E+03  0.12500000000E+03 0.  0.
</event>
<event>
 5    0  0.5648525E-005  0.3232563E+03  0.7546771E-02  0.1074160E+00
         21   -1    0    0  502  501  0.00000000000E+00  0.00000000000E+00  0.71607064562E+03  0.71607064562E+03  0.00000000000E+00 0. -1.
         21   -1    0    0  501  502 -0.00000000000E+00 -0.00000000000E+00 -0.14592786855E+03  0.14592786855E+03  0.00000000000E+00 0. -1.
         25    1    1    2    0    0  0.17716608184E+03  0.44904955242E+02  0.18694986423E+03  0.28979221400E+03  0.12500000000E+03 0.  0.
         25    1    1    2    0    0 -0.84184221352E+02 -0.24932379357E+02 -0.56311564493E+01  0.15285717709E+03  0.12500000000E+03 0.  0.
         25    1    1    2    0    0 -0.92981860485E+02 -0.19972575885E+02  0.38882406929E+03  0.41934912308E+03  0.12500000000E+03 0.  0.
</event>
<event>
 5    0  0.6214948E-005  0.3534561E+03  0.7546771E-02  0.1061205E+00
         21   -1    0    0  502  501  0.00000000000E+00  0.00000000000E+00  0.43421251565E+03  0.43421251565E+03  0.00000000000E+00 0.  1.
         21   -1    0    0  501  502 -0.00000000000E+00 -0.00000000000E+00 -0.28771910149E+03  0.28771910149E+03  0.00000000000E+00 0.  1.
         25    1    1    2    0    0  0.17788362629E+03 -0.82021600554E+02 -0.12694384849E+03  0.26478268094E+03  0.12500000000E+03 0.  0.
         25    1    1    2    0    0 -0.34729004378E+02 -0.17119409353E+01  0.19692754295E+03  0.23582724961E+03  0.12500000000E+03 0.  0.
         25    1    1    2    0    0 -0.14315462191E+03  0.83733541490E+02  0.76509719698E+02  0.22132168658E+03  0.12500000000E+03 0.  0.
</event>
<event>
 5    0  0.5648525E-005  0.2634808E+03  0.7546771E-02  0.1105070E+00
         21   -1    0    0  502  501  0.00000000000E+00  0.00000000000E+00  0.83241227482E+03  0.83241227482E+03  0.00000000000E+00 0. -1.
         21   -1    0    0  501  502 -0.00000000000E+00 -0.00000000000E+00 -0.83398765340E+02  0.83398765340E+02  0.00000000000E+00 0. -1.
         25    1    1    2    0    0 -0.95822529844E+02 -0.10517024438E+03  0.23744769901E+03  0.30372544723E+03  0.12500000000E+03 0.  0.
         25    1    1    2    0    0  0.31709939444E+02  0.12079648592E+03  0.18289337742E+03  0.25430748863E+03  0.12500000000E+03 0.  0.
         25    1    1    2    0    0  0.64112590400E+02 -0.15626241538E+02  0.32867243304E+03  0.35777810430E+03  0.12500000000E+03 0.  0.
</event>
<event>
 5    0  0.5648525E-005  0.5745274E+03  0.7546771E-02  0.9959710E-01
         21   -1    0    0  502  501  0.00000000000E+00  0.00000000000E+00  0.15552050448E+04  0.15552050448E+04  0.00000000000E+00 0. -1.
         21   -1    0    0  501  502 -0.00000000000E+00 -0.00000000000E+00 -0.21224319845E+03  0.21224319845E+03  0.00000000000E+00 0. -1.
         25    1    1    2    0    0  0.15544728597E+03 -0.10598558365E+03  0.12023388613E+04  0.12233726088E+04  0.12500000000E+03 0.  0.
         25    1    1    2    0    0 -0.18642497925E+03  0.50305009745E+02  0.26897688528E+03  0.35391867951E+03  0.12500000000E+03 0.  0.
         25    1    1    2    0    0  0.30977693282E+02  0.55680573901E+02 -0.12835390023E+03  0.19015695490E+03  0.12500000000E+03 0.  0.
</event>
<event>
 5    0  0.5648525E-005  0.4282515E+03  0.7546771E-02  0.1034414E+00
         21   -1    0    0  502  501  0.00000000000E+00  0.00000000000E+00  0.25203319624E+04  0.25203319624E+04  0.00000000000E+00 0. -1.
         21   -1    0    0  501  502 -0.00000000000E+00 -0.00000000000E+00 -0.72767917970E+02  0.72767917970E+02  0.00000000000E+00 0. -1.
         25    1    1    2    0    0 -0.63179219120E+02  0.36312267946E+02  0.70456627401E+03  0.71926964972E+03  0.12500000000E+03 0.  0.
         25    1    1    2    0    0 -0.37282246876E+02 -0.26514474069E+03  0.14027998192E+04  0.14335843303E+04  0.12500000000E+03 0.  0.
         25    1    1    2    0    0  0.10046146600E+03  0.22883247274E+03  0.34019795124E+03  0.44024590033E+03  0.12500000000E+03 0.  0.
</event>
<event>
 5    0  0.5936385E-005  0.2836427E+03  0.7546771E-02  0.1093716E+00
         21   -1    0    0  502  501  0.00000000000E+00  0.00000000000E+00  0.29496383221E+03  0.29496383221E+03  0.00000000000E+00 0.  1.
         21   -1    0    0  501  502 -0.00000000000E+00 -0.00000000000E+00 -0.27275600740E+03  0.27275600740E+03  0.00000000000E+00 0.  1.
         25    1    1    2    0    0 -0.80642957917E+02  0.95180805844E+02  0.47825029577E+02  0.18296148752E+03  0.12500000000E+03 0.  0.
         25    1    1    2    0    0 -0.36923326040E+02  0.26232888364E+02  0.73977783136E+02  0.15214864060E+03  0.12500000000E+03 0.  0.
         25    1    1    2    0    0  0.11756628396E+03 -0.12141369421E+03 -0.99594987904E+02  0.23260971149E+03  0.12500000000E+03 0.  0.
</event>
<event>
 5    0  0.5648525E-005  0.2998530E+03  0.7546771E-02  0.1085314E+00
         21   -1    0    0  502  501  0.00000000000E+00  0.00000000000E+00  0.59594286757E+03  0.59594286757E+03  0.00000000000E+00 0. -1.
         21   -1    0    0  501  502 -0.00000000000E+00 -0.00000000000E+00 -0.15087326903E+03  0.15087326903E+03  0.00000000000E+00 0. -1.
         25    1    1    2    0    0 -0.53563602476E+02 -0.31871717416E+02 -0.44549312322E+02  0.14661005119E+03  0.12500000000E+03 0.  0.
         25    1    1    2    0    0  0.91549663862E+02 -0.79834959099E+02  0.26894296805E+03  0.32048444847E+03  0.12500000000E+03 0.  0.
         25    1    1    2    0    0 -0.37986061386E+02  0.11170667652E+03  0.22067594281E+03  0.27972163694E+03  0.12500000000E+03 0.  0.
</event>
<event>
 5    0  0.5648525E-005  0.3149813E+03  0.7546771E-02  0.1077982E+00
         21   -1    0    0  502  501  0.00000000000E+00  0.00000000000E+00  0.23432792733E+03  0.23432792733E+03  0.00000000000E+00 0. -1.
         21   -1    0    0  501  502 -0.00000000000E+00 -0.00000000000E+00 -0.42339486775E+03  0.42339486775E+03  0.00000000000E+00 0. -1.
         25    1    1    2    0    0  0.15874141170E+03 -0.16659264040E+03 -0.11667175871E+03  0.28668666328E+03  0.12500000000E+03 0.  0.
         25    1    1    2    0    0 -0.60834677085E+02  0.77570209538E+01 -0.31579004830E+02  0.14276996483E+03  0.12500000000E+03 0.  0.
         25    1    1    2    0    0 -0.97906734616E+02  0.15883561944E+03 -0.40816176882E+02  0.22826616697E+03  0.12500000000E+03 0.  0.
</event>
<event>
 5    0  0.5648525E-005  0.2867926E+03  0.7546771E-02  0.1092036E+00
         21   -1    0    0  502  501  0.00000000000E+00  0.00000000000E+00  0.31110432775E+03  0.31110432775E+03  0.00000000000E+00 0.  1.
         21   -1    0    0  501  502 -0.00000000000E+00 -0.00000000000E+00 -0.26438074931E+03  0.26438074931E+03  0.00000000000E+00 0.  1.
         25    1    1    2    0    0 -0.37000919626E+02  0.16458824351E+02  0.97583101620E+02  0.16366863681E+03  0.12500000000E+03 0.  0.
         25    1    1    2    0    0 -0.11532413847E+03 -0.96763267943E+02 -0.30926120380E+02  0.19810151907E+03  0.12500000000E+03 0.  0.
         25    1    1    2    0    0  0.15232505810E+03  0.80304443593E+02 -0.19933402800E+02  0.21371492117E+03  0.12500000000E+03 0.  0.
</event>
<event>
 5    0  0.5648525E-005  0.2714676E+03  0.7546771E-02  0.1100443E+00
         21   -1    0    0  502  501  0.00000000000E+00  0.00000000000E+00  0.11888326101E+04  0.11888326101E+04  0.00000000000E+00 0.  1.
         21   -1    0    0  501  502 -0.00000000000E+00 -0.00000000000E+00 -0.61989110532E+02  0.61989110532E+02  0.00000000000E+00 0.  1.
         25    1    1    2    0    0 -0.23422828668E+02  0.97618662098E+02  0.44701163646E+03  0.47489202481E+03  0.12500000000E+03 0.  0.
         25    1    1    2    0    0 -0.24761477296E+02 -0.12845760957E+03  0.57572372854E+03  0.60348761364E+03  0.12500000000E+03 0.  0.
         25    1    1    2    0    0  0.48184305964E+02  0.30838947470E+02  0.10410813454E+03  0.17244208216E+03  0.12500000000E+03 0.  0.
</event>
<event>
 5    0  0.5648525E-005  0.5771960E+03  0.7546771E-02  0.9953880E-01
         21   -1    0    0  502  501  0.00000000000E+00  0.00000000000E+00  0.11365518811E+03  0.11365518811E+03  0.00000000000E+00 0.  1.
         21   -1    0    0  501  502 -0.00000000000E+00 -0.00000000000E+00 -0.29312802833E+04  0.29312802833E+04  0.00000000000E+00 0.  1.
         25    1    1    2    0    0 -0.37305268413E+03  0.25780319437E+02 -0.56334731793E+03  0.68761772128E+03  0.12500000000E+03 0.  0.
         25    1    1    2    0    0  0.37197008204E+03 -0.12767980267E+03 -0.20772494132E+04  0.21178418257E+04  0.12500000000E+03 0.  0.
         25    1    1    2    0    0  0.10826020889E+01  0.10189948323E+03 -0.17702836406E+03  0.23947592445E+03  0.12500000000E+03 0.  0.
</event>
<event>
 5    0  0.5648525E-005  0.2395017E+03  0.7546771E-02  0.1120125E+00
         21   -1    0    0  502  501  0.00000000000E+00  0.00000000000E+00  0.11443553875E+04  0.11443553875E+04  0.00000000000E+00 0.  1.
         21   -1    0    0  501  502 -0.00000000000E+00 -0.00000000000E+00 -0.50125209375E+02  0.50125209375E+02  0.00000000000E+00 0.  1.
         25    1    1    2    0    0 -0.11003688867E+03  0.15947968291E+02  0.22680729636E+03  0.28183151747E+03  0.12500000000E+03 0.  0.
         25    1    1    2    0    0  0.51790384308E+02 -0.24654048613E+02  0.32499310432E+03  0.35289599584E+03  0.12500000000E+03 0.  0.
         25    1    1    2    0    0  0.58246504358E+02  0.87060803219E+01  0.54242977748E+03  0.55975308360E+03  0.12500000000E+03 0.  0.
</event>
<event>
 5    0  0.6838234E-005  0.3009072E+03  0.7546771E-02  0.1084788E+00
         21   -1    0    0  502  501  0.00000000000E+00  0.00000000000E+00  0.56372895696E+03  0.56372895696E+03  0.00000000000E+00 0. -1.
         21   -1    0    0  501  502 -0.00000000000E+00 -0.00000000000E+00 -0.16061820907E+03  0.16061820907E+03  0.00000000000E+00 0. -1.
         25    1    1    2    0    0 -0.18178068754E+03  0.54839543259E+02  0.45387413838E+02  0.23181158557E+03  0.12500000000E+03 0.  0.
         25    1    1    2    0    0  0.22420311122E+02 -0.28209916231E+02  0.17785935122E+03  0.22035747898E+03  0.12500000000E+03 0.  0.
         25    1    1    2    0    0  0.15936037642E+03 -0.26629627028E+02  0.17986398283E+03  0.27217810149E+03  0.12500000000E+03 0.  0.
</event>
<event>
 5    0  0.6375128E-005  0.2680486E+03  0.7546771E-02  0.1102402E+00
         21   -1    0    0  502  501  0.00000000000E+00  0.00000000000E+00  0.55674913449E+03  0.55674913449E+03  0.00000000000E+00 0. -1.
         21   -1    0    0  501  502 -0.00000000000E+00 -0.00000000000E+00 -0.12905285990E+03  0.12905285990E+03  0.00000000000E+00 0. -1.
         25    1    1    2    0    0  0.68028827476E+01 -0.97504541030E+02  0.21624439834E+03  0.26821643229E+03  0.12500000000E+03 0.  0.
         25    1    1    2    0    0  0.75227562141E+02  0.76258133281E+02  0.88002077991E+01  0.16485427703E+03  0.12500000000E+03 0.  0.
         25    1    1    2    0    0 -0.82030444888E+02  0.21246407748E+02  0.20265166845E+03  0.25273128508E+03  0.12500000000E+03 0.  0.
</event>
<event>
 5    0  0.5648525E-005  0.3180265E+03  0.7546771E-02  0.1076561E+00
         21   -1    0    0  502  501  0.00000000000E+00  0.00000000000E+00  0.59149407009E+02  0.59149407009E+02  0.00000000000E+00 0. -1.
         21   -1    0    0  501  502 -0.00000000000E+00 -0.00000000000E+00 -0.17099215401E+04  0.17099215401E+04  0.00000000000E+00 0. -1.
         25    1    1    2    0    0 -0.16718134815E+03 -0.25791911104E+02 -0.56345871974E+03  0.60143624325E+03  0.12500000000E+03 0.  0.
         25    1    1    2    0    0 -0.65275316016E+02 -0.21111383496E+02 -0.24254390620E+03  0.28135227710E+03  0.12500000000E+03 0.  0.
         25    1    1    2    0    0  0.23245666417E+03  0.46903294601E+02 -0.84476950715E+03  0.88628242676E+03  0.12500000000E+03 0.  0.
</event>
<event>
 5    0  0.5648525E-005  0.5072668E+03  0.7546771E-02  0.1011899E+00
         21   -1    0    0  502  501  0.00000000000E+00  0.00000000000E+00  0.19538615303E+03  0.19538615303E+03  0.00000000000E+00 0.  1.
         21   -1    0    0  501  502 -0.00000000000E+00 -0.00000000000E+00 -0.13169800041E+04  0.13169800041E+04  0.00000000000E+00 0.  1.
         25    1    1    2    0    0  0.34686147293E+02 -0.53107953519E+02 -0.73592754815E+02  0.15831764621E+03  0.12500000000E+03 0.  0.
         25    1    1    2    0    0  0.34852560224E+03 -0.14823864561E+03 -0.58474447115E+03  0.70781063005E+03  0.12500000000E+03 0.  0.
         25    1    1    2    0    0 -0.38321174953E+03  0.20134659913E+03 -0.46325662509E+03  0.64623788085E+03  0.12500000000E+03 0.  0.
</event>
<event>
 5    0  0.5648525E-005  0.3463329E+03  0.7546771E-02  0.1064130E+00
         21   -1    0    0  502  501  0.00000000000E+00  0.00000000000E+00  0.12162812179E+03  0.12162812179E+03  0.00000000000E+00 0. -1.
         21   -1    0    0  501  502 -0.00000000000E+00 -0.00000000000E+00 -0.98617401881E+03  0.98617401881E+03  0.00000000000E+00 0. -1.
         25    1    1    2    0    0  0.90516629298E+02 -0.66136272284E+02 -0.32366992762E+03  0.36462924833E+03  0.12500000000E+03 0.  0.
         25    1    1    2    0    0 -0.51280603641E+02 -0.18232283165E+03 -0.27338835715E+03  0.35529918248E+03  0.12500000000E+03 0.  0.
         25    1    1    2    0    0 -0.39236025657E+02  0.24845910393E+03 -0.26748761225E+03  0.38787370979E+03  0.12500000000E+03 0.  0.
</event>
<event>
 5    0  0.5648525E-005  0.2428336E+03  0.7546771E-02  0.1117919E+00
         21   -1    0    0  502  501  0.00000000000E+00  0.00000000000E+00  0.47302528226E+03  0.47302528226E+03  0.00000000000E+00 0. -1.
         21   -1    0    0  501  502 -0.00000000000E+00 -0.00000000000E+00 -0.12466178343E+03  0.12466178343E+03  0.00000000000E+00 0. -1.
         25    1    1    2    0    0  0.80685156442E+02  0.14844692335E+02  0.12503850596E+03  0.19491045979E+03  0.12500000000E+03 0.  0.
         25    1    1    2    0    0  0.60146829219E+02  0.66521127252E+01  0.55267681522E+02  0.14947042614E+03  0.12500000000E+03 0.  0.
         25    1    1    2    0    0 -0.14083198566E+03 -0.21496805061E+02  0.16805731134E+03  0.25330617977E+03  0.12500000000E+03 0.  0.
</event>
<event>
 5    0  0.5648525E-005  0.3425333E+03  0.7546771E-02  0.1065722E+00
         21   -1    0    0  502  501  0.00000000000E+00  0.00000000000E+00  0.96411718623E+02  0.96411718623E+02  0.00000000000E+00 0. -1.
         21   -1    0    0  501  502 -0.00000000000E+00 -0.00000000000E+00 -0.12169584280E+04  0.12169584280E+04  0.00000000000E+00 0. -1.
         25    1    1    2    0    0  0.22815921882E+03 -0.87095070023E+02 -0.35634419362E+03  0.44972031828E+03  0.12500000000E+03 0.  0.
         25    1    1    2    0    0 -0.15040201387E+03 -0.34554554871E+02 -0.28113916131E+03  0.34420780215E+03  0.12500000000E+03 0.  0.
         25    1    1    2    0    0 -0.77757204943E+02  0.12164962489E+03 -0.48306335447E+03  0.51944202621E+03  0.12500000000E+03 0.  0.
</event>
<event>
 5    0  0.5648525E-005  0.2594561E+03  0.7546771E-02  0.1107470E+00
         21   -1    0    0  502  501  0.00000000000E+00  0.00000000000E+00  0.11904046981E+04  0.11904046981E+04  0.00000000000E+00 0.  1.
         21   -1    0    0  501  502 -0.00000000000E+00 -0.00000000000E+00 -0.56550068552E+02  0.56550068552E+02  0.00000000000E+00 0.  1.
         25    1    1    2    0    0 -0.53460069284E+01 -0.14930938026E+03  0.43162648567E+03  0.47354861837E+03  0.12500000000E+03 0.  0.
         25    1    1    2    0    0  0.73704317675E+02  0.73928680472E+02  0.34642126275E+03  0.38279298260E+03  0.12500000000E+03 0.  0.
         25    1    1    2    0    0 -0.68358310746E+02  0.75380699790E+02  0.35580688108E+03  0.39061316564E+03  0.12500000000E+03 0.  0.
</event>
<event>
 5    0  0.5648525E-005  0.3541699E+03  0.7546771E-02  0.1060916E+00
         21   -1    0    0  502  501  0.00000000000E+00  0.00000000000E+00  0.61879554244E+03  0.61879554244E+03  0.00000000000E+00 0. -1.
         21   -1    0    0  501  502 -0.00000000000E+00 -0.00000000000E+00 -0.20271043452E+03  0.20271043452E+03  0.00000000000E+00 0. -1.
         25    1    1    2    0    0 -0.20493662402E+02 -0.24694853793E+03  0.12277707729E+03  0.30348440041E+03  0.12500000000E+03 0.  0.
         25    1    1    2    0    0 -0.46923159785E+00  0.86484341056E+00  0.17948821198E+03  0.21872811061E+03  0.12500000000E+03 0.  0.
         25    1    1    2    0    0  0.20962894000E+02  0.24608369452E+03  0.11381981864E+03  0.29929346593E+03  0.12500000000E+03 0.  0.
</event>
<event>
 5    0  0.5648525E-005  0.2822689E+03  0.7546771E-02  0.1094456E+00
         21   -1    0    0  502  501  0.00000000000E+00  0.00000000000E+00  0.13923574066E+04  0.13923574066E+04  0.00000000000E+00 0. -1.
         21   -1    0    0  501  502 -0.00000000000E+00 -0.00000000000E+00 -0.57223634437E+02  0.57223634437E+02  0.00000000000E+00 0. -1.
         25    1    1    2    0    0 -0.65831724604E+02  0.85840460969E+02  0.18701055152E+03  0.24960037476E+03  0.12500000000E+03 0.  0.
         25    1    1    2    0    0  0.89556918312E+02 -0.11280195848E+03  0.43314496712E+03  0.47326978141E+03  0.12500000000E+03 0.  0.
         25    1    1    2    0    0 -0.23725193708E+02  0.26961497513E+02  0.71497825354E+03  0.72671088488E+03  0.12500000000E+03 0.  0.
</event>
<event>
 5    0  0.5648525E-005  0.2649771E+03  0.7546771E-02  0.1104189E+00
         21   -1    0    0  502  501  0.00000000000E+00  0.00000000000E+00  0.28990785198E+03  0.28990785198E+03  0.00000000000E+00 0. -1.
         21   -1    0    0  501  502 -0.00000000000E+00 -0.00000000000E+00 -0.24219033627E+03  0.24219033627E+03  0.00000000000E+00 0. -1.
         25    1    1    2    0    0 -0.27579367254E+02 -0.21611574731E+02 -0.58998083642E+02  0.14259542606E+03  0.12500000000E+03 0.  0.
         25    1    1    2    0    0  0.32590719086E+02 -0.12558966712E+03  0.67415374842E+02  0.19236619304E+03  0.12500000000E+03 0.  0.
         25    1    1    2    0    0 -0.50113518326E+01  0.14720124185E+03  0.39300224506E+02  0.19713656915E+03  0.12500000000E+03 0.  0.
</event>
<event>
 5    0  0.5648525E-005  0.2258940E+03  0.7546771E-02  0.1129564E+00
         21   -1    0    0  502  501  0.00000000000E+00  0.00000000000E+00  0.44221201746E+02  0.44221201746E+02  0.00000000000E+00 0. -1.
         21   -1    0    0  501  502 -0.00000000000E+00 -0.00000000000E+00 -0.11539282544E+04  0.11539282544E+04  0.00000000000E+00 0. -1.
         25    1    1    2    0    0 -0.37673561417E+02 -0.47468414318E+02 -0.60587949168E+03  0.62160076096E+03  0.12500000000E+03 0.  0.
         25    1    1    2    0    0  0.62174849207E+02  0.57815974282E+02 -0.30134443229E+03  0.33710809190E+03  0.12500000000E+03 0.  0.
         25    1    1    2    0    0 -0.24501287790E+02 -0.10347559964E+02 -0.20248312873E+03  0.23944060332E+03  0.12500000000E+03 0.  0.
</event>
<event>
 5    0  0.5648525E-005  0.3705936E+03  0.7546771E-02  0.1054466E+00
         21   -1    0    0  502  501  0.00000000000E+00  0.00000000000E+00  0.60790620111E+02  0.60790620111E+02  0.00000000000E+00 0.  1.
         21   -1    0    0  501  502 -0.00000000000E+00 -0.00000000000E+00 -0.22592238703E+04  0.22592238703E+04  0.00000000000E+00 0. -1.
         25    1    1    2    0    0 -0.16540544014E+03 -0.15458658770E+03 -0.81846751205E+03  0.85835309809E+03  0.12500000000E+03 0.  0.
         25    1    1    2    0    0  0.24100810417E+03  0.13708317933E+03 -0.11426794011E+04  0.11824626497E+04  0.12500000000E+03 0.  0.
         25    1    1    2    0    0 -0.75602664031E+02  0.17503408372E+02 -0.23728633707E+03  0.27919874261E+03  0.12500000000E+03 0.  0.
</event>
<event>
 5    0  0.5648525E-005  0.3163612E+03  0.7546771E-02  0.1077336E+00
         21   -1    0    0  502  501  0.00000000000E+00  0.00000000000E+00  0.93487974781E+03  0.93487974781E+03  0.00000000000E+00 0. -1.
         21   -1    0    0  501  502 -0.00000000000E+00 -0.00000000000E+00 -0.10705593013E+03  0.10705593013E+03  0.00000000000E+00 0. -1.
         25    1    1    2    0    0  0.63680915941E+02 -0.13107801840E+03  0.21641608947E+03  0.28930542640E+03  0.12500000000E+03 0.  0.
         25    1    1    2    0    0  0.24997448463E+02  0.11366244149E+03  0.61541098508E+02  0.18153878330E+03  0.12500000000E+03 0.  0.
         25    1    1    2    0    0 -0.88678364404E+02  0.17415576911E+02  0.54986662971E+03  0.57109146824E+03  0.12500000000E+03 0.  0.
</event>
<event>
 5    0  0.5648525E-005  0.2606518E+03  0.7546771E-02  0.1106752E+00
         21   -1    0    0  502  501  0.00000000000E+00  0.00000000000E+00  0.32408108965E+04  0.32408108965E+04  0.00000000000E+00 0.  1.
         21   -1    0    0  501  502 -0.00000000000E+00 -0.00000000000E+00 -0.20963691551E+02  0.20963691551E+02  0.00000000000E+00 0.  1.
         25    1    1    2    0    0  0.80023609900E+02 -0.65534648260E+00  0.10898817976E+04  0.10999416077E+04  0.12500000000E+03 0.  0.
         25    1    1    2    0    0  0.48356318945E+02 -0.15034870130E+02  0.39133432227E+03  0.41392261678E+03  0.12500000000E+03 0.  0.
         25    1    1    2    0    0 -0.12837992884E+03  0.15690216613E+02  0.17386310851E+04  0.17479103635E+04  0.12500000000E+03 0.  0.
</event>
<event>
 5    0  0.5648525E-005  0.2448935E+03  0.7546771E-02  0.1116575E+00
         21   -1    0    0  502  501  0.00000000000E+00  0.00000000000E+00  0.19826421784E+03  0.19826421784E+03  0.00000000000E+00 0.  1.
         21   -1    0    0  501  502 -0.00000000000E+00 -0.00000000000E+00 -0.30248933165E+03  0.30248933165E+03  0.00000000000E+00 0.  1.
         25    1    1    2    0    0 -0.66752941961E+02 -0.14460330691E+02 -0.10092668419E+03  0.17457448842E+03  0.12500000000E+03 0.  0.
         25    1    1    2    0    0  0.10033193176E+03  0.62543437655E+02 -0.52040850807E+02  0.17975379906E+03  0.12500000000E+03 0.  0.
         25    1    1    2    0    0 -0.33578989800E+02 -0.48083106964E+02  0.48742421190E+02  0.14642526201E+03  0.12500000000E+03 0.  0.
</event>
<event>
 5    0  0.5648525E-005  0.2484411E+03  0.7546771E-02  0.1114294E+00
         21   -1    0    0  502  501  0.00000000000E+00  0.00000000000E+00  0.12342265582E+03  0.12342265582E+03  0.00000000000E+00 0. -1.
         21   -1    0    0  501  502 -0.00000000000E+00 -0.00000000000E+00 -0.50009458739E+03  0.50009458739E+03  0.00000000000E+00 0. -1.
         25    1    1    2    0    0  0.77704241572E+02  0.47236007351E+02 -0.40486319393E+02  0.15979152545E+03  0.12500000000E+03 0.  0.
         25    1    1    2    0    0 -0.94676923521E+02 -0.33418426658E+02 -0.83050908549E+02  0.18056291009E+03  0.12500000000E+03 0.  0.
         25    1    1    2    0    0  0.16972681949E+02 -0.13817580693E+02 -0.25313470363E+03  0.28316280767E+03  0.12500000000E+03 0.  0.
</event>
<event>
 5    0  0.5648525E-005  0.2410313E+03  0.7546771E-02  0.1119108E+00
         21   -1    0    0  502  501  0.00000000000E+00  0.00000000000E+00  0.13703747069E+03  0.13703747069E+03  0.00000000000E+00 0. -1.
         21   -1    0    0  501  502 -0.00000000000E+00 -0.00000000000E+00 -0.42394310044E+03  0.42394310044E+03  0.00000000000E+00 0. -1.
         25    1    1    2    0    0  0.55443901184E+02 -0.66371846629E+02 -0.13743489673E+03  0.20492095804E+03  0.12500000000E+03 0.  0.
         25    1    1    2    0    0 -0.82733651161E+02  0.79963286565E+02 -0.15959557250E+02  0.17064199864E+03  0.12500000000E+03 0.  0.
         25    1    1    2    0    0  0.27289749977E+02 -0.13591439936E+02 -0.13351117577E+03  0.18541761445E+03  0.12500000000E+03 0.  0.
</event>
<event>
 5    0  0.5648525E-005  0.3754679E+03  0.7546771E-02  0.1052622E+00
         21   -1    0    0  502  501  0.00000000000E+00  0.00000000000E+00  0.50314651255E+03  0.50314651255E+03  0.00000000000E+00 0. -1.
         21   -1    0    0  501  502 -0.00000000000E+00 -0.00000000000E+00 -0.28018908164E+03  0.28018908164E+03  0.00000000000E+00 0. -1.
         25    1    1    2    0    0  0.16440301313E+03  0.12469855352E+01  0.11798938777E+03  0.23785794359E+03  0.12500000000E+03 0.  0.
         25    1    1    2    0    0  0.11326490309E+03  0.11927687415E+03  0.22891235581E+02  0.20785793140E+03  0.12500000000E+03 0.  0.
         25    1    1    2    0    0 -0.27766791622E+03 -0.12052385969E+03  0.82076807564E+02  0.33761971920E+03  0.12500000000E+03 0.  0.
</event>
<event>
 5    0  0.5648525E-005  0.4111152E+03  0.7546771E-02  0.1039997E+00
         21   -1    0    0  502  501  0.00000000000E+00  0.00000000000E+00  0.46795927740E+03  0.46795927740E+03  0.00000000000E+00 0. -1.
         21   -1    0    0  501  502 -0.00000000000E+00 -0.00000000000E+00 -0.36117606891E+03  0.36117606891E+03  0.00000000000E+00 0. -1.
         25    1    1    2    0    0  0.12971717741E+03 -0.13705667119E+03 -0.58822255896E+02  0.23387204840E+03  0.12500000000E+03 0.  0.
         25    1    1    2    0    0  0.97755770152E+02  0.11227579095E+03 -0.10378331602E+03  0.22035884488E+03  0.12500000000E+03 0.  0.
         25    1    1    2    0    0 -0.22747294756E+03  0.24780880239E+02  0.26938878040E+03  0.37490445303E+03  0.12500000000E+03 0.  0.
</event>
<event>
 5    0  0.5648525E-005  0.2353788E+03  0.7546771E-02  0.1122910E+00
         21   -1    0    0  502  501  0.00000000000E+00  0.00000000000E+00  0.24208544432E+03  0.24208544432E+03  0.00000000000E+00 0.  1.
         21   -1    0    0  501  502 -0.00000000000E+00 -0.00000000000E+00 -0.22885788184E+03  0.22885788184E+03  0.00000000000E+00 0.  1.
         25    1    1    2    0    0 -0.43957587551E+02 -0.43090783894E+02 -0.61613749431E+02  0.15234939868E+03  0.12500000000E+03 0.  0.
         25    1    1    2    0    0 -0.43220431745E+01  0.20425125894E+02 -0.47886728285E+02  0.13547695218E+03  0.12500000000E+03 0.  0.
         25    1    1    2    0    0  0.48279630725E+02  0.22665658000E+02  0.12272804019E+03  0.18311697530E+03  0.12500000000E+03 0.  0.
</event>
<event>
 5    0  0.5648525E-005  0.5567550E+03  0.7546771E-02  0.9999424E-01
         21   -1    0    0  502  501  0.00000000000E+00  0.00000000000E+00  0.62751772811E+03  0.62751772811E+03  0.00000000000E+00 0. -1.
         21   -1    0    0  501  502 -0.00000000000E+00 -0.00000000000E+00 -0.49397184394E+03  0.49397184394E+03  0.00000000000E+00 0. -1.
         25    1    1    2    0    0 -0.12104637922E+03  0.12360806786E+03  0.33178853113E+02  0.21600235336E+03  0.12500000000E+03 0.  0.
         25    1    1    2    0    0 -0.21225382183E+03 -0.13957218953E+03  0.36478934014E+03  0.46176654670E+03  0.12500000000E+03 0.  0.
         25    1    1    2    0    0  0.33330020105E+03  0.15964121662E+02 -0.26442230909E+03  0.44372067198E+03  0.12500000000E+03 0.  0.
</event>
<event>
 5    0  0.5648525E-005  0.4622963E+03  0.7546771E-02  0.1024117E+00
         21   -1    0    0  502  501  0.00000000000E+00  0.00000000000E+00  0.43611102193E+03  0.43611102193E+03  0.00000000000E+00 0.  1.
         21   -1    0    0  501  502 -0.00000000000E+00 -0.00000000000E+00 -0.49005389408E+03  0.49005389408E+03  0.00000000000E+00 0.  1.
         25    1    1    2    0    0  0.42183290804E+01  0.86021629133E+02  0.75414595637E+01  0.15198483014E+03  0.12500000000E+03 0.  0.
         25    1    1    2    0    0  0.33098021024E+03  0.93884599284E+02  0.15672744042E+02  0.36637801853E+03  0.12500000000E+03 0.  0.
         25    1    1    2    0    0 -0.33519853933E+03 -0.17990622842E+03 -0.77157075758E+02  0.40780206734E+03  0.12500000000E+03 0.  0.
</event>
<event>
 5    0  0.5648525E-005  0.2312571E+03  0.7546771E-02  0.1125758E+00
         21   -1    0    0  502  501  0.00000000000E+00  0.00000000000E+00  0.31793012872E+02  0.31793012872E+02  0.00000000000E+00 0.  1.
         21   -1    0    0  501  502 -0.00000000000E+00 -0.00000000000E+00 -0.16821250992E+04  0.16821250992E+04  0.00000000000E+00 0.  1.
         25    1    1    2    0    0 -0.34927199076E+02 -0.11901603580E+02 -0.39374362112E+03  0.41475365770E+03  0.12500000000E+03 0.  0.
         25    1    1    2    0    0  0.17900269093E+02 -0.39470207192E+02 -0.24493345318E+03  0.27838051903E+03  0.12500000000E+03 0.  0.
         25    1    1    2    0    0  0.17026929983E+02  0.51371810772E+02 -0.10116550120E+04  0.10207839353E+04  0.12500000000E+03 0.  0.
</event>
<event>
 5    0  0.5648525E-005  0.3055551E+03  0.7546771E-02  0.1082496E+00
         21   -1    0    0  502  501  0.00000000000E+00  0.00000000000E+00  0.87498692237E+03  0.87498692237E+03  0.00000000000E+00 0. -1.
         21   -1    0    0  501  502 -0.00000000000E+00 -0.00000000000E+00 -0.10670319088E+03  0.10670319088E+03  0.00000000000E+00 0. -1.
         25    1    1    2    0    0  0.40072161733E+02 -0.32520840039E+02  0.21361453710E+03  0.25282316675E+03  0.12500000000E+03 0.  0.
         25    1    1    2    0    0 -0.15454557414E+03  0.13980158879E+03  0.17500122865E+03  0.29946493742E+03  0.12500000000E+03 0.  0.
         25    1    1    2    0    0  0.11447341241E+03 -0.10728074875E+03  0.37966796573E+03  0.42940200908E+03  0.12500000000E+03 0.  0.
</event>
<event>
 5    0  0.6089963E-005  0.5455138E+03  0.7546771E-02  0.1002538E+00
         21   -1    0    0  502  501  0.00000000000E+00  0.00000000000E+00  0.83990989422E+03  0.83990989422E+03  0.00000000000E+00 0. -1.
         21   -1    0    0  501  502 -0.00000000000E+00 -0.00000000000E+00 -0.35430624892E+03  0.35430624892E+03  0.00000000000E+00 0. -1.
         25    1    1    2    0    0 -0.39352250218E+03  0.46638877915E+02  0.30823790027E+02  0.41666563416E+03  0.12500000000E+03 0.  0.
         25    1    1    2    0    0  0.14935249059E+03 -0.46916883829E-01  0.45971826842E+03  0.49927152429E+03  0.12500000000E+03 0.  0.
         25    1    1    2    0    0  0.24417001159E+03 -0.46591961031E+02 -0.49384131427E+01  0.27827898469E+03  0.12500000000E+03 0.  0.
</event>
<event>
 5    0  0.5648525E-005  0.3698249E+03  0.7546771E-02  0.1054760E+00
         21   -1    0    0  502  501  0.00000000000E+00  0.00000000000E+00  0.10451965916E+04  0.10451965916E+04  0.00000000000E+00 0. -1.
         21   -1    0    0  501  502 -0.00000000000E+00 -0.00000000000E+00 -0.13085620842E+03  0.13085620842E+03  0.00000000000E+00 0. -1.
         25    1    1    2    0    0  0.76139791202E+02  0.28433067081E+02  0.78019470958E+01  0.14930364191E+03  0.12500000000E+03 0.  0.
         25    1    1    2    0    0 -0.22183072650E+03 -0.10120985756E+03  0.57198944121E+03  0.63423120969E+03  0.12500000000E+03 0.  0.
         25    1    1    2    0    0  0.14569093530E+03  0.72776790480E+02  0.33454899483E+03  0.39251794839E+03  0.12500000000E+03 0.  0.
</event>
<event>
 5    0  0.5648525E-005  0.5315095E+03  0.7546771E-02  0.1005867E+00
         21   -1    0    0  502  501  0.00000000000E+00  0.00000000000E+00  0.18444039950E+03  0.18444039950E+03  0.00000000000E+00 0. -1.
         21   -1    0    0  501  502 -0.00000000000E+00 -0.00000000000E+00 -0.15316725476E+04  0.15316725476E+04  0.00000000000E+00 0. -1.
         25    1    1    2    0    0  0.26582754873E+03 -0.35558580353E+03 -0.45306223741E+03  0.64652605539E+03  0.12500000000E+03 0.  0.
         25    1    1    2    0    0  0.24457527026E+02  0.85009321173E+02 -0.36949736210E+03  0.39997256895E+03  0.12500000000E+03 0.  0.
         25    1    1    2    0    0 -0.29028507575E+03  0.27057648236E+03 -0.52467254863E+03  0.66961432280E+03  0.12500000000E+03 0.  0.
</event>
<event>
 5    0  0.5648525E-005  0.2752640E+03  0.7546771E-02  0.1098304E+00
         21   -1    0    0  502  501  0.00000000000E+00  0.00000000000E+00  0.62488114691E+02  0.62488114691E+02  0.00000000000E+00 0.  1.
         21   -1    0    0  501  502 -0.00000000000E+00 -0.00000000000E+00 -0.12125551777E+04  0.12125551777E+04  0.00000000000E+00 0.  1.
         25    1    1    2    0    0  0.37748196537E+02  0.66655478174E+02 -0.60724251957E+03  0.62468900798E+03  0.12500000000E+03 0.  0.
         25    1    1    2    0    0  0.86769207527E+01 -0.88908970056E+00 -0.46687884266E+03  0.48340142031E+03  0.12500000000E+03 0.  0.
         25    1    1    2    0    0 -0.46425117290E+02 -0.65766388474E+02 -0.75945700792E+02  0.16695286412E+03  0.12500000000E+03 0.  0.
</event>
<event>
 5    0  0.5648525E-005  0.2816738E+03  0.7546771E-02  0.1094778E+00
         21   -1    0    0  502  501  0.00000000000E+00  0.00000000000E+00  0.13457198942E+03  0.13457198942E+03  0.00000000000E+00 0. -1.
         21   -1    0    0  501  502 -0.00000000000E+00 -0.00000000000E+00 -0.58957383803E+03  0.58957383803E+03  0.00000000000E+00 0. -1.
         25    1    1    2    0    0  0.30117484263E+02  0.68540721775E+02 -0.12434815216E+03  0.19155248979E+03  0.12500000000E+03 0.  0.
         25    1    1    2    0    0 -0.11171524292E+03  0.25892348646E+02 -0.31179332527E+03  0.35495180926E+03  0.12500000000E+03 0.  0.
         25    1    1    2    0    0  0.81597758659E+02 -0.94433070421E+02 -0.18860371181E+02  0.17764152839E+03  0.12500000000E+03 0.  0.
</event>
<event>
 5    0  0.5648525E-005  0.3529981E+03  0.7546771E-02  0.1061391E+00
         21   -1    0    0  502  501  0.00000000000E+00  0.00000000000E+00  0.20009322948E+03  0.20009322948E+03  0.00000000000E+00 0. -1.
         21   -1    0    0  501  502 -0.00000000000E+00 -0.00000000000E+00 -0.62274786327E+03  0.62274786327E+03  0.00000000000E+00 0. -1.
         25    1    1    2    0    0  0.58768512302E+02 -0.95799394044E+02 -0.23238046046E+03  0.28680470767E+03  0.12500000000E+03 0.  0.
         25    1    1    2    0    0  0.16841264876E+02  0.18599870354E+03 -0.26613965319E+03  0.34833096463E+03  0.12500000000E+03 0.  0.
         25    1    1    2    0    0 -0.75609777178E+02 -0.90199309491E+02  0.75865479856E+02  0.18770542046E+03  0.12500000000E+03 0.  0.
</event>
<event>
 5    0  0.5648525E-005  0.3362953E+03  0.7546771E-02  0.1068385E+00
         21   -1    0    0  502  501  0.00000000000E+00  0.00000000000E+00  0.14638237704E+04  0.14638237704E+04  0.00000000000E+00 0. -1.
         21   -1    0    0  501  502 -0.00000000000E+00 -0.00000000000E+00 -0.77259673498E+02  0.77259673498E+02  0.00000000000E+00 0. -1.
         25    1    1    2    0    0  0.71960889301E+02  0.57740397443E+01  0.13426487853E+03  0.19713895285E+03  0.12500000000E+03 0.  0.
         25    1    1    2    0    0  0.91685782484E+02 -0.14493570101E+03  0.36215978453E+03  0.41975868028E+03  0.12500000000E+03 0.  0.
         25    1    1    2    0    0 -0.16364667178E+03  0.13916166126E+03  0.89013943379E+03  0.92418581072E+03  0.12500000000E+03 0.  0.
</event>
<event>
 5    0  0.5648525E-005  0.3485525E+03  0.7546771E-02  0.1063211E+00
         21   -1    0    0  502  501  0.00000000000E+00  0.00000000000E+00  0.30037116742E+03  0.30037116742E+03  0.00000000000E+00 0.  1.
         21   -1    0    0  501  502 -0.00000000000E+00 -0.00000000000E+00 -0.40446250374E+03  0.40446250374E+03  0.00000000000E+00 0.  1.
         25    1    1    2    0    0  0.44658562318E+02  0.72894354898E+02 -0.13311317696E+03  0.20162363960E+03  0.12500000000E+03 0.  0.
         25    1    1    2    0    0  0.50297028690E+02 -0.21079076513E+03  0.11739185381E+03  0.27634830396E+03  0.12500000000E+03 0.  0.
         25    1    1    2    0    0 -0.94955591008E+02  0.13789641024E+03 -0.88370013175E+02  0.22686172760E+03  0.12500000000E+03 0.  0.
</event>
<event>
 5    0  0.5648525E-005  0.2591715E+03  0.7546771E-02  0.1107642E+00
         21   -1    0    0  502  501  0.00000000000E+00  0.00000000000E+00  0.31103922196E+02  0.31103922196E+02  0.00000000000E+00 0. -1.
         21   -1    0    0  501  502 -0.00000000000E+00 -0.00000000000E+00 -0.21595297107E+04  0.21595297107E+04  0.00000000000E+00 0. -1.
         25    1    1    2    0    0 -0.13756210906E+03  0.49222236672E+02 -0.66152720919E+03  0.68890450059E+03  0.12500000000E+03 0.  0.
         25    1    1    2    0    0  0.10921183752E+03  0.33005018309E+02 -0.78334962570E+03  0.80142260561E+03  0.12500000000E+03 0.  0.
         25    1    1    2    0    0  0.28350271540E+02 -0.82227254981E+02 -0.68354895361E+03  0.70030652670E+03  0.12500000000E+03 0.  0.
</event>
<event>
 5    0  0.5648525E-005  0.2749903E+03  0.7546771E-02  0.1098457E+00
         21   -1    0    0  502  501  0.00000000000E+00  0.00000000000E+00  0.26613839893E+03  0.26613839893E+03  0.00000000000E+00 0. -1.
         21   -1    0    0  501  502 -0.00000000000E+00 -0.00000000000E+00 -0.28413656851E+03  0.28413656851E+03  0.00000000000E+00 0. -1.
         25    1    1    2    0    0 -0.83026123374E+01 -0.33717467885E+02 -0.86559727439E+02  0.15595956985E+03  0.12500000000E+03 0.  0.
         25    1    1    2    0    0  0.10041135902E+03 -0.37932866410E+02  0.13282505627E+03  0.21163373774E+03  0.12500000000E+03 0.  0.
         25    1    1    2    0    0 -0.92108746681E+02  0.71650334295E+02 -0.64263498421E+02  0.18268165986E+03  0.12500000000E+03 0.  0.
</event>
<event>
 5    0  0.5648525E-005  0.4211422E+03  0.7546771E-02  0.1036695E+00
         21   -1    0    0  502  501  0.00000000000E+00  0.00000000000E+00  0.17369824378E+03  0.17369824378E+03  0.00000000000E+00 0.  1.
         21   -1    0    0  501  502 -0.00000000000E+00 -0.00000000000E+00 -0.10210855240E+04  0.10210855240E+04  0.00000000000E+00 0.  1.
         25    1    1    2    0    0  0.65670482252E+02  0.67884091476E+02  0.41535591730E+01  0.15672623957E+03  0.12500000000E+03 0.  0.
         25    1    1    2    0    0 -0.13323874465E+03 -0.12855126983E+03 -0.85481315507E+03  0.88352052728E+03  0.12500000000E+03 0.  0.
         25    1    1    2    0    0  0.67568262395E+02  0.60667178356E+02  0.32723156484E+01  0.15453700095E+03  0.12500000000E+03 0.  0.
</event>
<event>
 5    0  0.5648525E-005  0.2738052E+03  0.7546771E-02  0.1099121E+00
         21   -1    0    0  502  501  0.00000000000E+00  0.00000000000E+00  0.11214003045E+03  0.11214003045E+03  0.00000000000E+00 0. -1.
         21   -1    0    0  501  502 -0.00000000000E+00 -0.00000000000E+00 -0.66853296691E+03  0.66853296691E+03  0.00000000000E+00 0. -1.
         25    1    1    2    0    0 -0.47722669080E+02 -0.23086660669E+02 -0.25532431542E+03  0.28918152273E+03  0.12500000000E+03 0.  0.
         25    1    1    2    0    0  0.78028573210E+02 -0.10158928961E+03 -0.24574292264E+03  0.30401221362E+03  0.12500000000E+03 0.  0.
         25    1    1    2    0    0 -0.30305904130E+02  0.12467595028E+03 -0.55325698400E+02  0.18747926100E+03  0.12500000000E+03 0.  0.
</event>
<event>
 5    0  0.5648525E-005  0.2645135E+03  0.7546771E-02  0.1104461E+00
         21   -1    0    0  502  501  0.00000000000E+00  0.00000000000E+00  0.22389931490E+03  0.22389931490E+03  0.00000000000E+00 0. -1.
         21   -1    0    0  501  502 -0.00000000000E+00 -0.00000000000E+00 -0.31249489198E+03  0.31249489198E+03  0.00000000000E+00 0. -1.
         25    1    1    2    0    0  0.55151404330E+02 -0.68157915191E+02 -0.44947644036E+02  0.15916177150E+03  0.12500000000E+03 0.  0.
         25    1    1    2    0    0 -0.15948962108E+03  0.50435737515E+02 -0.44200566637E+02  0.21344646388E+03  0.12500000000E+03 0.  0.
         25    1    1    2    0    0  0.10433821675E+03  0.17722177676E+02  0.55263358823E+00  0.16378597150E+03  0.12500000000E+03 0.  0.
</event>
<event>
 5    0  0.5648525E-005  0.5636140E+03  0.7546771E-02  0.9983910E-01
         21   -1    0    0  502  501  0.00000000000E+00  0.00000000000E+00  0.68444926223E+03  0.68444926223E+03  0.00000000000E+00 0. -1.
         21   -1    0    0  501  502 -0.00000000000E+00 -0.00000000000E+00 -0.46411147720E+03  0.46411147720E+03  0.00000000000E+00 0. -1.
         25    1    1    2    0    0  0.51511869582E+02 -0.40944354384E+03  0.59830616740E+02  0.43531849375E+03  0.12500000000E+03 0.  0.
         25    1    1    2    0    0 -0.25429956142E+03  0.11311030884E+03  0.12873380754E+02  0.30537343178E+03  0.12500000000E+03 0.  0.
         25    1    1    2    0    0  0.20278769184E+03  0.29633323500E+03  0.14763378754E+03  0.40786881389E+03  0.12500000000E+03 0.  0.
</event>
<event>
 5    0  0.5648525E-005  0.3224739E+03  0.7546771E-02  0.1074516E+00
         21   -1    0    0  502  501  0.00000000000E+00  0.00000000000E+00  0.33245361249E+03  0.33245361249E+03  0.00000000000E+00 0.  1.
         21   -1    0    0  501  502 -0.00000000000E+00 -0.00000000000E+00 -0.31279377570E+03  0.31279377570E+03  0.00000000000E+00 0.  1.
         25    1    1    2    0    0 -0.12535924154E+03  0.18964748912E+03  0.37446589081E+02  0.26212278917E+03  0.12500000000E+03 0.  0.
         25    1    1    2    0    0  0.16891531058E+02 -0.75515020604E+02  0.71110754429E+02  0.16330824092E+03  0.12500000000E+03 0.  0.
         25    1    1    2    0    0  0.10846771049E+03 -0.11413246851E+03 -0.88897506718E+02  0.21981635810E+03  0.12500000000E+03 0.  0.
</event>
<event>
 5    0  0.6225448E-005  0.3506978E+03  0.7546771E-02  0.1062329E+00
         21   -1    0    0  502  501  0.00000000000E+00  0.00000000000E+00  0.40078284521E+03  0.40078284521E+03  0.00000000000E+00 0.  1.
         21   -1    0    0  501  502 -0.00000000000E+00 -0.00000000000E+00 -0.30687179770E+03  0.30687179770E+03  0.00000000000E+00 0.  1.
         25    1    1    2    0    0  0.49452449738E+02 -0.20301659916E+03 -0.87830131556E+02  0.25884438632E+03  0.12500000000E+03 0.  0.
         25    1    1    2    0    0 -0.46488540515E+02  0.55251193755E+02  0.20829706093E+03  0.25342956497E+03  0.12500000000E+03 0.  0.
         25    1    1    2    0    0 -0.29639092231E+01  0.14776540541E+03 -0.26555881863E+02  0.19538069161E+03  0.12500000000E+03 0.  0.
</event>
<event>
 5    0  0.5648525E-005  0.6392773E+03  0.7546771E-02  0.9827110E-01
         21   -1    0    0  502  501  0.00000000000E+00  0.00000000000E+00  0.49527984037E+03  0.49527984037E+03  0.00000000000E+00 0.  1.
         21   -1    0    0  501  502 -0.00000000000E+00 -0.00000000000E+00 -0.82514047875E+03  0.82514047875E+03  0.00000000000E+00 0.  1.
         25    1    1    2    0    0 -0.17943919238E+02  0.21672498919E+03 -0.11117589410E+03  0.27436615062E+03  0.12500000000E+03 0.  0.
         25    1    1    2    0    0  0.10369058451E+03 -0.12036503755E+03  0.37487855699E+03  0.42590892462E+03  0.12500000000E+03 0.  0.
         25    1    1    2    0    0 -0.85746665273E+02 -0.96359951640E+02 -0.59356330128E+03  0.62014524388E+03  0.12500000000E+03 0.  0.
</event>
<event>
 5    0  0.6550080E-005  0.2925404E+03  0.7546771E-02  0.1089030E+00
         21   -1    0    0  502  501  0.00000000000E+00  0.00000000000E+00  0.35332251341E+03  0.35332251341E+03  0.00000000000E+00 0. -1.
         21   -1    0    0  501  502 -0.00000000000E+00 -0.00000000000E+00 -0.24221469916E+03  0.24221469916E+03  0.00000000000E+00 0. -1.
         25    1    1    2    0    0  0.61932146253E+01 -0.11865344521E+03  0.49676078790E+02  0.17947063484E+03  0.12500000000E+03 0.  0.
         25    1    1    2    0    0  0.13394097655E+03  0.14841088611E+02  0.80478419850E+02  0.20065447708E+03  0.12500000000E+03 0.  0.
         25    1    1    2    0    0 -0.14013419117E+03  0.10381235660E+03 -0.19046684387E+02  0.21541210064E+03  0.12500000000E+03 0.  0.
</event>
<event>
 5    0  0.5648525E-005  0.3074155E+03  0.7546771E-02  0.1081591E+00
         21   -1    0    0  502  501  0.00000000000E+00  0.00000000000E+00  0.29354006109E+04  0.29354006109E+04  0.00000000000E+00 0.  1.
         21   -1    0    0  501  502 -0.00000000000E+00 -0.00000000000E+00 -0.32194671846E+02  0.32194671846E+02  0.00000000000E+00 0.  1.
         25    1    1    2    0    0  0.13119584842E+03 -0.13502801906E+03  0.15684862409E+04  0.15846826195E+04  0.12500000000E+03 0.  0.
         25    1    1    2    0    0 -0.18285700674E+02  0.67243872805E+02  0.30005221630E+03  0.33243411044E+03  0.12500000000E+03 0.  0.
         25    1    1    2    0    0 -0.11291014774E+03  0.67784146255E+02  0.10346674818E+04  0.10504785528E+04  0.12500000000E+03 0.  0.
</event>
<event>
 5    0  0.5648525E-005  0.2719900E+03  0.7546771E-02  0.1100146E+00
         21   -1    0    0  502  501  0.00000000000E+00  0.00000000000E+00  0.35075416745E+03  0.35075416745E+03  0.00000000000E+00 0.  1.
         21   -1    0    0  501  502 -0.00000000000E+00 -0.00000000000E+00 -0.21091276965E+03  0.21091276965E+03  0.00000000000E+00 0.  1.
         25    1    1    2    0    0  0.29957032982E+02  0.13143457195E+02 -0.10203963387E+03  0.16464282910E+03  0.12500000000E+03 0.  0.
         25    1    1    2    0    0  0.10502016571E+02  0.68637442597E+02  0.18112945904E+03  0.23076887098E+03  0.12500000000E+03 0.  0.
         25    1    1    2    0    0 -0.40459049553E+02 -0.81780899792E+02  0.60751572631E+02  0.16625523703E+03  0.12500000000E+03 0.  0.
</event>
<event>
 5    0  0.5648525E-005  0.3758438E+03  0.7546771E-02  0.1052481E+00
         21   -1    0    0  502  501  0.00000000000E+00  0.00000000000E+00  0.39634881627E+03  0.39634881627E+03  0.00000000000E+00 0. -1.
         21   -1    0    0  501  502 -0.00000000000E+00 -0.00000000000E+00 -0.35639966393E+03  0.35639966393E+03  0.00000000000E+00 0. -1.
         25    1    1    2    0    0 -0.79220128413E+02  0.38468327431E+02 -0.27901401461E+03  0.31816577646E+03  0.12500000000E+03 0.  0.
         25    1    1    2    0    0  0.64833379556E+02 -0.23627672466E+02  0.78884931054E+02  0.16312408270E+03  0.12500000000E+03 0.  0.
         25    1    1    2    0    0  0.14386748858E+02 -0.14840654965E+02  0.24007823589E+03  0.27145862103E+03  0.12500000000E+03 0.  0.
</event>
<event>
 5    0  0.5648525E-005  0.3805782E+03  0.7546771E-02  0.1050720E+00
         21   -1    0    0  502  501  0.00000000000E+00  0.00000000000E+00  0.88209356264E+03  0.88209356264E+03  0.00000000000E+00 0. -1.
         21   -1    0    0  501  502 -0.00000000000E+00 -0.00000000000E+00 -0.16419997682E+03  0.16419997682E+03  0.00000000000E+00 0. -1.
         25    1    1    2    0    0  0.12782504296E+03 -0.81128307970E+01 -0.77980980972E+02  0.19522062654E+03  0.12500000000E+03 0.  0.
         25    1    1    2    0    0 -0.85303009761E+02 -0.39990883788E+02  0.49155621515E+03  0.51587632909E+03  0.12500000000E+03 0.  0.
         25    1    1    2    0    0 -0.42522033199E+02  0.48103714585E+02  0.30431835165E+03  0.33519658383E+03  0.12500000000E+03 0.  0.
</event>
<event>
 5    0  0.5648525E-005  0.4268529E+03  0.7546771E-02  0.1034859E+00
         21   -1    0    0  502  501  0.00000000000E+00  0.00000000000E+00  0.20751648137E+03  0.20751648137E+03  0.00000000000E+00 0.  1.
         21   -1    0    0  501  502 -0.00000000000E+00 -0.00000000000E+00 -0.87801875900E+03  0.87801875900E+03  0.00000000000E+00 0.  1.
         25    1    1    2    0    0 -0.16447134704E+03 -0.38747524099E+00  0.10449020106E+03  0.23150416033E+03  0.12500000000E+03 0.  0.
         25    1    1    2    0    0  0.18462107106E+02  0.79728311354E+02 -0.36276495663E+03  0.39232749940E+03  0.12500000000E+03 0.  0.
         25    1    1    2    0    0  0.14600923993E+03 -0.79340836113E+02 -0.41222752206E+03  0.46170358063E+03  0.12500000000E+03 0.  0.
</event>
<event>
 5    0  0.5648525E-005  0.2208034E+03  0.7546771E-02  0.1133286E+00
         21   -1    0    0  502  501  0.00000000000E+00  0.00000000000E+00  0.26213619492E+03  0.26213619492E+03  0.00000000000E+00 0.  1.
         21   -1    0    0  501  502 -0.00000000000E+00 -0.00000000000E+00 -0.18598783519E+03  0.18598783519E+03  0.00000000000E+00 0.  1.
         25    1    1    2    0    0  0.28203114250E+02 -0.74684181808E+02 -0.36999971443E+01  0.14836385222E+03  0.12500000000E+03 0.  0.
         25    1    1    2    0    0 -0.22317747237E+02  0.88341145432E+02  0.79412181456E+02  0.17387792954E+03  0.12500000000E+03 0.  0.
         25    1    1    2    0    0 -0.58853670123E+01 -0.13656963624E+02  0.43617541659E+00  0.12588224835E+03  0.12500000000E+03 0.  0.
</event>
<event>
 5    0  0.5648525E-005  0.4299759E+03  0.7546771E-02  0.1033868E+00
         21   -1    0    0  502  501  0.00000000000E+00  0.00000000000E+00  0.69699185262E+02  0.69699185262E+02  0.00000000000E+00 0.  1.
         21   -1    0    0  501  502 -0.00000000000E+00 -0.00000000000E+00 -0.26525312484E+04  0.26525312484E+04  0.00000000000E+00 0.  1.
         25    1    1    2    0    0  0.26352663843E+03 -0.26747666208E+03 -0.12692434145E+04  0.13295088940E+04  0.12500000000E+03 0.  0.
         25    1    1    2    0    0 -0.88607077086E+02  0.10469343332E+03 -0.41633041223E+03  0.45581568779E+03  0.12500000000E+03 0.  0.
         25    1    1    2    0    0 -0.17491956134E+03  0.16278322876E+03 -0.89725823639E+03  0.93690585187E+03  0.12500000000E+03 0.  0.
</event>
<event>
 5    0  0.5648525E-005  0.2689500E+03  0.7546771E-02  0.1101882E+00
         21   -1    0    0  502  501  0.00000000000E+00  0.00000000000E+00  0.14084148304E+03  0.14084148304E+03  0.00000000000E+00 0.  1.
         21   -1    0    0  501  502 -0.00000000000E+00 -0.00000000000E+00 -0.51358519119E+03  0.51358519119E+03  0.00000000000E+00 0.  1.
         25    1    1    2    0    0 -0.65673667002E+02 -0.10088801865E+03 -0.34856511902E+02  0.17700677746E+03  0.12500000000E+03 0.  0.
         25    1    1    2    0    0  0.53095509111E+02 -0.42620624851E+01 -0.47375986240E+02  0.14389851402E+03  0.12500000000E+03 0.  0.
         25    1    1    2    0    0  0.12578157892E+02  0.10515008113E+03 -0.29051121000E+03  0.33352138276E+03  0.12500000000E+03 0.  0.
</event>
<event>
 5    0  0.5648525E-005  0.2324723E+03  0.7546771E-02  0.1124912E+00
         21   -1    0    0  502  501  0.00000000000E+00  0.00000000000E+00  0.10943270487E+03  0.10943270487E+03  0.00000000000E+00 0.  1.
         21   -1    0    0  501  502 -0.00000000000E+00 -0.00000000000E+00 -0.49385018317E+03  0.49385018317E+03  0.00000000000E+00 0.  1.
         25    1    1    2    0    0  0.68345782835E+02 -0.27867787468E+02 -0.25390632054E+03  0.29247423684E+03  0.12500000000E+03 0.  0.
         25    1    1    2    0    0 -0.50144865563E+02 -0.72869385357E+01 -0.14359729224E+02  0.13564220891E+03  0.12500000000E+03 0.  0.
         25    1    1    2    0    0 -0.18200917271E+02  0.35154726003E+02 -0.11615142854E+03  0.17516644228E+03  0.12500000000E+03 0.  0.
</event>
<event>
 5    0  0.5648525E-005  0.4594776E+03  0.7546771E-02  0.1024933E+00
         21   -1    0    0  502  501  0.00000000000E+00  0.00000000000E+00  0.74597701829E+03  0.74597701829E+03  0.00000000000E+00 0. -1.
         21   -1    0    0  501  502 -0.00000000000E+00 -0.00000000000E+00 -0.28301091935E+03  0.28301091935E+03  0.00000000000E+00 0. -1.
         25    1    1    2    0    0 -0.10414593465E+01  0.26904802279E+02 -0.78006631570E+02  0.14978313521E+03  0.12500000000E+03 0.  0.
         25    1    1    2    0    0  0.14894289487E+03  0.29985269303E+02 -0.90281749645E+02  0.21646915860E+03  0.12500000000E+03 0.  0.
         25    1    1    2    0    0 -0.14790143552E+03 -0.56890071583E+02  0.63125448016E+03  0.66273564383E+03  0.12500000000E+03 0.  0.
</event>
<event>
 5    0  0.5648525E-005  0.3256898E+03  0.7546771E-02  0.1073060E+00
         21   -1    0    0  502  501  0.00000000000E+00  0.00000000000E+00  0.18688072762E+04  0.18688072762E+04  0.00000000000E+00 0.  1.
         21   -1    0    0  501  502 -0.00000000000E+00 -0.00000000000E+00 -0.56760191674E+02  0.56760191674E+02  0.00000000000E+00 0.  1.
         25    1    1    2    0    0 -0.15629497436E+03  0.17332729577E+02  0.41589052362E+03  0.46186412521E+03  0.12500000000E+03 0.  0.
         25    1    1    2    0    0  0.14369476824E+03  0.13629416705E+03  0.88233646569E+03  0.91288932794E+03  0.12500000000E+03 0.  0.
         25    1    1    2    0    0  0.12600206120E+02 -0.15362689662E+03  0.51382009526E+03  0.55081401476E+03  0.12500000000E+03 0.  0.
</event>
<event>
 5    0  0.5648525E-005  0.2831774E+03  0.7546771E-02  0.1093966E+00
         21   -1    0    0  502  501  0.00000000000E+00  0.00000000000E+00  0.94815221390E+03  0.94815221390E+03  0.00000000000E+00 0.  1.
         21   -1    0    0  501  502 -0.00000000000E+00 -0.00000000000E+00 -0.84574434481E+02  0.84574434481E+02  0.00000000000E+00 0.  1.
         25    1    1    2    0    0 -0.11061032328E+03 -0.63000127208E+02  0.77364818002E+02  0.19445815670E+03  0.12500000000E+03 0.  0.
         25    1    1    2    0    0  0.90098122800E+02  0.55819321936E+02  0.43651144724E+03  0.46626249260E+03  0.12500000000E+03 0.  0.
         25    1    1    2    0    0  0.20512200478E+02  0.71808052712E+01  0.34970151418E+03  0.37200599908E+03  0.12500000000E+03 0.  0.
</event>
<event>
 5    0  0.5648525E-005  0.3930014E+03  0.7546771E-02  0.1046230E+00
         21   -1    0    0  502  501  0.00000000000E+00  0.00000000000E+00  0.88973217830E+03  0.88973217830E+03  0.00000000000E+00 0.  1.
         21   -1    0    0  501  502 -0.00000000000E+00 -0.00000000000E+00 -0.17359166658E+03  0.17359166658E+03  0.00000000000E+00 0.  1.
         25    1    1    2    0    0  0.67751695110E+02  0.42614755487E+02  0.59274132358E+03  0.61104303143E+03  0.12500000000E+03 0.  0.
         25    1    1    2    0    0 -0.92988683349E+02  0.13830908383E+03  0.24236737877E+02  0.20973487398E+03  0.12500000000E+03 0.  0.
         25    1    1    2    0    0  0.25236988239E+02 -0.18092383932E+03  0.99162450256E+02  0.24254593946E+03  0.12500000000E+03 0.  0.
</event>
<event>
 5    0  0.5648525E-005  0.2842724E+03  0.7546771E-02  0.1093378E+00
         21   -1    0    0  502  501  0.00000000000E+00  0.00000000000E+00  0.47821713109E+02  0.47821713109E+02  0.00000000000E+00 0. -1.
         21   -1    0    0  501  502 -0.00000000000E+00 -0.00000000000E+00 -0.16898347704E+04  0.16898347704E+04  0.00000000000E+00 0. -1.
         25    1    1    2    0    0 -0.64164964815E+01  0.10096358427E+03 -0.53797782836E+03  0.56149796133E+03  0.12500000000E+03 0.  0.
         25    1    1    2    0    0 -0.35038198042E+02  0.55527806402E+02 -0.17491090499E+03  0.22478842784E+03  0.12500000000E+03 0.  0.
         25    1    1    2    0    0  0.41454694523E+02 -0.15649139068E+03 -0.92912432390E+03  0.95137009430E+03  0.12500000000E+03 0.  0.
</event>
<event>
 5    0  0.5648525E-005  0.2588149E+03  0.7546771E-02  0.1107857E+00
         21   -1    0    0  502  501  0.00000000000E+00  0.00000000000E+00  0.23117817903E+03  0.23117817903E+03  0.00000000000E+00 0.  1.
         21   -1    0    0  501  502 -0.00000000000E+00 -0.00000000000E+00 -0.28975542669E+03  0.28975542669E+03  0.00000000000E+00 0.  1.
         25    1    1    2    0    0  0.19615525785E+02 -0.11085991553E+02  0.31544238764E+02  0.13087286602E+03  0.12500000000E+03 0.  0.
         25    1    1    2    0    0  0.97627334841E+02 -0.10909178208E+01  0.52178080056E+02  0.16697256855E+03  0.12500000000E+03 0.  0.
         25    1    1    2    0    0 -0.11724286063E+03  0.12176909374E+02 -0.14229956647E+03  0.22308817115E+03  0.12500000000E+03 0.  0.
</event>
<event>
 5    0  0.5648525E-005  0.2109176E+03  0.7546771E-02  0.1140841E+00
         21   -1    0    0  502  501  0.00000000000E+00  0.00000000000E+00  0.30242321652E+03  0.30242321652E+03  0.00000000000E+00 0. -1.
         21   -1    0    0  501  502 -0.00000000000E+00 -0.00000000000E+00 -0.14709933729E+03  0.14709933729E+03  0.00000000000E+00 0. -1.
         25    1    1    2    0    0 -0.55248773341E+01 -0.77762318008E+01 -0.20347241629E+02  0.12700395385E+03  0.12500000000E+03 0.  0.
         25    1    1    2    0    0 -0.26619796272E+01  0.54745895423E+02  0.94979429109E+02  0.16628376696E+03  0.12500000000E+03 0.  0.
         25    1    1    2    0    0  0.81868569612E+01 -0.46969663622E+02  0.80691691743E+02  0.15623483300E+03  0.12500000000E+03 0.  0.
</event>
<event>
 5    0  0.5648525E-005  0.4517604E+03  0.7546771E-02  0.1027198E+00
         21   -1    0    0  502  501  0.00000000000E+00  0.00000000000E+00  0.36367851061E+03  0.36367851061E+03  0.00000000000E+00 0. -1.
         21   -1    0    0  501  502 -0.00000000000E+00 -0.00000000000E+00 -0.56117553237E+03  0.56117553237E+03  0.00000000000E+00 0. -1.
         25    1    1    2    0    0 -0.48894071541E+02  0.14470211511E+03  0.21216214792E+03  0.28977078762E+03  0.12500000000E+03 0.  0.
         25    1    1    2    0    0  0.15804489299E+02 -0.27083188176E+03 -0.20595091428E+03  0.36282291707E+03  0.12500000000E+03 0.  0.
         25    1    1    2    0    0  0.33089582242E+02  0.12612976665E+03 -0.20370825540E+03  0.27226033829E+03  0.12500000000E+03 0.  0.
</event>
<event>
 5    0  0.5874138E-005  0.3108153E+03  0.7546771E-02  0.1079956E+00
         21   -1    0    0  502  501  0.00000000000E+00  0.00000000000E+00  0.12916772106E+03  0.12916772106E+03  0.00000000000E+00 0.  1.
         21   -1    0    0  501  502 -0.00000000000E+00 -0.00000000000E+00 -0.74791247684E+03  0.74791247684E+03  0.00000000000E+00 0.  1.
         25    1    1    2    0    0 -0.75727766760E+02 -0.17981989972E+02  0.40323505925E+02  0.15267295685E+03  0.12500000000E+03 0.  0.
         25    1    1    2    0    0 -0.31373247400E+02  0.13019189909E+01 -0.36364385232E+03  0.38580801829E+03  0.12500000000E+03 0.  0.
         25    1    1    2    0    0  0.10710101416E+03  0.16680070981E+02 -0.29542440937E+03  0.33859922276E+03  0.12500000000E+03 0.  0.
</event>
<event>
 5    0  0.5648525E-005  0.4139515E+03  0.7546771E-02  0.1039053E+00
         21   -1    0    0  502  501  0.00000000000E+00  0.00000000000E+00  0.12993334840E+03  0.12993334840E+03  0.00000000000E+00 0.  1.
         21   -1    0    0  501  502 -0.00000000000E+00 -0.00000000000E+00 -0.13187979776E+04  0.13187979776E+04  0.00000000000E+00 0.  1.
         25    1    1    2    0    0  0.15201742224E+03  0.17643008611E+03 -0.10066998063E+04  0.10408200478E+04  0.12500000000E+03 0.  0.
         25    1    1    2    0    0 -0.65428015777E+02 -0.30290679657E+02 -0.28815579683E+02  0.14715192202E+03  0.12500000000E+03 0.  0.
         25    1    1    2    0    0 -0.86589406467E+02 -0.14613940645E+03 -0.15334924326E+03  0.26075935619E+03  0.12500000000E+03 0.  0.
</event>
<event>
 5    0  0.5648525E-005  0.3007600E+03  0.7546771E-02  0.1084861E+00
         21   -1    0    0  502  501  0.00000000000E+00  0.00000000000E+00  0.32476881610E+03  0.32476881610E+03  0.00000000000E+00 0.  1.
         21   -1    0    0  501  502 -0.00000000000E+00 -0.00000000000E+00 -0.27852609073E+03  0.27852609073E+03  0.00000000000E+00 0.  1.
         25    1    1    2    0    0  0.72281146514E+02 -0.10361621573E+03 -0.45091351202E+02  0.18335515880E+03  0.12500000000E+03 0.  0.
         25    1    1    2    0    0 -0.11254022238E+03 -0.53646567656E+02  0.11941732403E+03  0.21314021946E+03  0.12500000000E+03 0.  0.
         25    1    1    2    0    0  0.40259075869E+02  0.15726278339E+03 -0.28083247448E+02  0.20679952857E+03  0.12500000000E+03 0.  0.
</event>
<event>
 5    0  0.5648525E-005  0.3464107E+03  0.7546771E-02  0.1064098E+00
         21   -1    0    0  502  501  0.00000000000E+00  0.00000000000E+00  0.10357450494E+04  0.10357450494E+04  0.00000000000E+00 0.  1.
         21   -1    0    0  501  502 -0.00000000000E+00 -0.00000000000E+00 -0.11585900150E+03  0.11585900150E+03  0.00000000000E+00 0.  1.
         25    1    1    2    0    0 -0.18237409595E+03 -0.67373113012E+02  0.16296752669E+03  0.28281241483E+03  0.12500000000E+03 0.  0.
         25    1    1    2    0    0  0.15487441729E+03  0.49962981644E+02  0.16605081945E+03  0.26397018640E+03  0.12500000000E+03 0.  0.
         25    1    1    2    0    0  0.27499678653E+02  0.17410131368E+02  0.59086770174E+03  0.60482144966E+03  0.12500000000E+03 0.  0.
</event>
<event>
 5    0  0.5648525E-005  0.2747608E+03  0.7546771E-02  0.1098585E+00
         21   -1    0    0  502  501  0.00000000000E+00  0.00000000000E+00  0.97435892509E+03  0.97435892509E+03  0.00000000000E+00 0. -1.
         21   -1    0    0  501  502 -0.00000000000E+00 -0.00000000000E+00 -0.77480194378E+02  0.77480194378E+02  0.00000000000E+00 0. -1.
         25    1    1    2    0    0 -0.70471453256E+02 -0.45979135207E+02  0.39842834003E+03  0.42597000920E+03  0.12500000000E+03 0.  0.
         25    1    1    2    0    0  0.16978352800E+03  0.48719209498E+02  0.25131027832E+03  0.33163513647E+03  0.12500000000E+03 0.  0.
         25    1    1    2    0    0 -0.99312074743E+02 -0.27400742908E+01  0.24714011236E+03  0.29423397380E+03  0.12500000000E+03 0.  0.
</event>
<event>
 5    0  0.5648525E-005  0.2802381E+03  0.7546771E-02  0.1095559E+00
         21   -1    0    0  502  501  0.00000000000E+00  0.00000000000E+00  0.68197734271E+02  0.68197734271E+02  0.00000000000E+00 0. -1.
         21   -1    0    0  501  502 -0.00000000000E+00 -0.00000000000E+00 -0.11515546879E+04  0.11515546879E+04  0.00000000000E+00 0. -1.
         25    1    1    2    0    0 -0.29216105005E+02 -0.71644252205E+02 -0.24962325050E+03  0.28969509291E+03  0.12500000000E+03 0.  0.
         25    1    1    2    0    0 -0.85881615487E+02 -0.54470426571E+02 -0.56770549726E+03  0.59013321451E+03  0.12500000000E+03 0.  0.
         25    1    1    2    0    0  0.11509772049E+03  0.12611467878E+03 -0.26602820583E+03  0.33992411471E+03  0.12500000000E+03 0.  0.
</event>
<event>
 5    0  0.5648525E-005  0.3501214E+03  0.7546771E-02  0.1062565E+00
         21   -1    0    0  502  501  0.00000000000E+00  0.00000000000E+00  0.45528467548E+03  0.45528467548E+03  0.00000000000E+00 0.  1.
         21   -1    0    0  501  502 -0.00000000000E+00 -0.00000000000E+00 -0.26924908358E+03  0.26924908358E+03  0.00000000000E+00 0.  1.
         25    1    1    2    0    0 -0.20657389105E+03 -0.51844108674E+02  0.10433172132E+03  0.26808709805E+03  0.12500000000E+03 0.  0.
         25    1    1    2    0    0  0.16024734393E+02 -0.91672386650E+02 -0.40027900544E+02  0.16089702113E+03  0.12500000000E+03 0.  0.
         25    1    1    2    0    0  0.19054915665E+03  0.14351649532E+03  0.12173177113E+03  0.29554963988E+03  0.12500000000E+03 0.  0.
</event>
<event>
 5    0  0.5648525E-005  0.4045653E+03  0.7546771E-02  0.1042210E+00
         21   -1    0    0  502  501  0.00000000000E+00  0.00000000000E+00  0.89280900378E+02  0.89280900378E+02  0.00000000000E+00 0. -1.
         21   -1    0    0  501  502 -0.00000000000E+00 -0.00000000000E+00 -0.18332370202E+04  0.18332370202E+04  0.00000000000E+00 0. -1.
         25    1    1    2    0    0  0.80663593197E+02  0.31151846893E+03 -0.88749722331E+03  0.95227448413E+03  0.12500000000E+03 0.  0.
         25    1    1    2    0    0 -0.45783950552E+02 -0.53505227682E+02 -0.15269478355E+03  0.20952249626E+03  0.12500000000E+03 0.  0.
         25    1    1    2    0    0 -0.34879642645E+02 -0.25801324125E+03 -0.70376411294E+03  0.76072094016E+03  0.12500000000E+03 0.  0.
</event>
<event>
 5    0  0.5648525E-005  0.3255620E+03  0.7546771E-02  0.1073118E+00
         21   -1    0    0  502  501  0.00000000000E+00  0.00000000000E+00  0.65085233803E+02  0.65085233803E+02  0.00000000000E+00 0. -1.
         21   -1    0    0  501  502 -0.00000000000E+00 -0.00000000000E+00 -0.16284891717E+04  0.16284891717E+04  0.00000000000E+00 0. -1.
         25    1    1    2    0    0 -0.16126583974E+02 -0.43314250589E+02 -0.14319765267E+03  0.19561891203E+03  0.12500000000E+03 0.  0.
         25    1    1    2    0    0 -0.13923577947E+03 -0.11591941508E+03 -0.70705491893E+03  0.74052384935E+03  0.12500000000E+03 0.  0.
         25    1    1    2    0    0  0.15536236344E+03  0.15923366567E+03 -0.71315136629E+03  0.75743164411E+03  0.12500000000E+03 0.  0.
</event>
<event>
 5    0  0.5648525E-005  0.3059456E+03  0.7546771E-02  0.1082306E+00
         21   -1    0    0  502  501  0.00000000000E+00  0.00000000000E+00  0.44273398502E+03  0.44273398502E+03  0.00000000000E+00 0.  1.
         21   -1    0    0  501  502 -0.00000000000E+00 -0.00000000000E+00 -0.21141972104E+03  0.21141972104E+03  0.00000000000E+00 0.  1.
         25    1    1    2    0    0  0.10880527041E+03  0.25655874860E+02  0.24026476143E+03  0.29299994261E+03  0.12500000000E+03 0.  0.
         25    1    1    2    0    0 -0.60235647631E+02 -0.86694295595E+02 -0.96315596452E+02  0.18985765261E+03  0.12500000000E+03 0.  0.
         25    1    1    2    0    0 -0.48569622782E+02  0.61038420735E+02  0.87365099002E+02  0.17129611083E+03  0.12500000000E+03 0.  0.
</event>
<event>
 5    0  0.5648525E-005  0.3757044E+03  0.7546771E-02  0.1052533E+00
         21   -1    0    0  502  501  0.00000000000E+00  0.00000000000E+00  0.96763559253E+02  0.96763559253E+02  0.00000000000E+00 0.  1.
         21   -1    0    0  501  502 -0.00000000000E+00 -0.00000000000E+00 -0.14587497957E+04  0.14587497957E+04  0.00000000000E+00 0.  1.
         25    1    1    2    0    0 -0.21115100703E+03  0.12919293316E+03 -0.41095999360E+03  0.49577079189E+03  0.12500000000E+03 0.  0.
         25    1    1    2    0    0  0.30829179840E+02 -0.18569619930E+03 -0.60814070178E+03  0.64876315395E+03  0.12500000000E+03 0.  0.
         25    1    1    2    0    0  0.18032182719E+03  0.56503266140E+02 -0.34288554109E+03  0.41097940913E+03  0.12500000000E+03 0.  0.
</event>
<event>
 5    0  0.5648525E-005  0.2596594E+03  0.7546771E-02  0.1107348E+00
         21   -1    0    0  502  501  0.00000000000E+00  0.00000000000E+00  0.66740218534E+03  0.66740218534E+03  0.00000000000E+00 0. -1.
         21   -1    0    0  501  502 -0.00000000000E+00 -0.00000000000E+00 -0.10102307986E+03  0.10102307986E+03  0.00000000000E+00 0. -1.
         25    1    1    2    0    0 -0.45938642866E+02  0.51186138685E+02  0.32897240730E+03  0.35857805910E+03  0.12500000000E+03 0.  0.
         25    1    1    2    0    0 -0.51714029376E+02 -0.89690801323E+02  0.16444460545E+03  0.23105369276E+03  0.12500000000E+03 0.  0.
         25    1    1    2    0    0  0.97652672242E+02  0.38504662638E+02  0.72962092737E+02  0.17879351335E+03  0.12500000000E+03 0.  0.
</event>
<event>
 5    0  0.5648525E-005  0.2736901E+03  0.7546771E-02  0.1099186E+00
         21   -1    0    0  502  501  0.00000000000E+00  0.00000000000E+00  0.16067126869E+03  0.16067126869E+03  0.00000000000E+00 0.  1.
         21   -1    0    0  501  502 -0.00000000000E+00 -0.00000000000E+00 -0.46620817563E+03  0.46620817563E+03  0.00000000000E+00 0.  1.
         25    1    1    2    0    0  0.22987632099E+02 -0.10287127136E+02 -0.14734437135E+03  0.19485794822E+03  0.12500000000E+03 0.  0.
         25    1    1    2    0    0 -0.16859324027E+02  0.16163884299E+03 -0.69026319849E+02  0.21633535357E+03  0.12500000000E+03 0.  0.
         25    1    1    2    0    0 -0.61283080729E+01 -0.15135171586E+03 -0.89166215743E+02  0.21568614254E+03  0.12500000000E+03 0.  0.
</event>
<event>
 5    0  0.5648525E-005  0.2495658E+03  0.7546771E-02  0.1113580E+00
         21   -1    0    0  502  501  0.00000000000E+00  0.00000000000E+00  0.11525695221E+03  0.11525695221E+03  0.00000000000E+00 0.  1.
         21   -1    0    0  501  502 -0.00000000000E+00 -0.00000000000E+00 -0.54038461552E+03  0.54038461552E+03  0.00000000000E+00 0.  1.
         25    1    1    2    0    0 -0.17920835969E+01  0.45172954992E+02 -0.33414800659E+03  0.35961604210E+03  0.12500000000E+03 0.  0.
         25    1    1    2    0    0 -0.58125710983E+02 -0.27786715162E+02 -0.60202909937E+02  0.15297088018E+03  0.12500000000E+03 0.  0.
         25    1    1    2    0    0  0.59917794580E+02 -0.17386239830E+02 -0.30776746786E+02  0.14305464545E+03  0.12500000000E+03 0.  0.
</event>
<event>
 5    0  0.5648525E-005  0.2564482E+03  0.7546771E-02  0.1109296E+00
         21   -1    0    0  502  501  0.00000000000E+00  0.00000000000E+00  0.34684777043E+02  0.34684777043E+02  0.00000000000E+00 0.  1.
         21   -1    0    0  501  502 -0.00000000000E+00 -0.00000000000E+00 -0.18960960258E+04  0.18960960258E+04  0.00000000000E+00 0.  1.
         25    1    1    2    0    0 -0.26248823381E+02 -0.37624556183E+02 -0.45712578246E+03  0.47612350178E+03  0.12500000000E+03 0.  0.
         25    1    1    2    0    0  0.14470089151E+03  0.59711362386E+02 -0.62724602643E+03  0.65845757074E+03  0.12500000000E+03 0.  0.
         25    1    1    2    0    0 -0.11845206812E+03 -0.22086806203E+02 -0.77703943989E+03  0.79619973034E+03  0.12500000000E+03 0.  0.
</event>
<event>
 5    0  0.5648525E-005  0.4547235E+03  0.7546771E-02  0.1026323E+00
         21   -1    0    0  502  501  0.00000000000E+00  0.00000000000E+00  0.23324869476E+03  0.23324869476E+03  0.00000000000E+00 0.  1.
         21   -1    0    0  501  502 -0.00000000000E+00 -0.00000000000E+00 -0.88649368369E+03  0.88649368369E+03  0.00000000000E+00 0.  1.
         25    1    1    2    0    0  0.14860347491E+03 -0.15235256903E+03 -0.33240012111E+02  0.24904657486E+03  0.12500000000E+03 0.  0.
         25    1    1    2    0    0 -0.84115622955E+02 -0.18109341868E+03 -0.15726267374E+03  0.28324338098E+03  0.12500000000E+03 0.  0.
         25    1    1    2    0    0 -0.64487851960E+02  0.33344598771E+03 -0.46274230308E+03  0.58745242261E+03  0.12500000000E+03 0.  0.
</event>
<event>
 5    0  0.5648525E-005  0.2859756E+03  0.7546771E-02  0.1092469E+00
         21   -1    0    0  502  501  0.00000000000E+00  0.00000000000E+00  0.10547454658E+04  0.10547454658E+04  0.00000000000E+00 0.  1.
         21   -1    0    0  501  502 -0.00000000000E+00 -0.00000000000E+00 -0.77537212871E+02  0.77537212871E+02  0.00000000000E+00 0.  1.
         25    1    1    2    0    0 -0.58105339140E+02 -0.18270467192E+02  0.59920643696E+03  0.61512876254E+03  0.12500000000E+03 0.  0.
         25    1    1    2    0    0 -0.66992385556E+02 -0.27863342785E+02  0.26619959297E+03  0.30290521437E+03  0.12500000000E+03 0.  0.
         25    1    1    2    0    0  0.12509772470E+03  0.46133809977E+02  0.11180222303E+03  0.21424870180E+03  0.12500000000E+03 0.  0.
</event>
<event>
 5    0  0.6343084E-005  0.5453552E+03  0.7546771E-02  0.1002575E+00
         21   -1    0    0  502  501  0.00000000000E+00  0.00000000000E+00  0.30251279040E+03  0.30251279040E+03  0.00000000000E+00 0. -1.
         21   -1    0    0  501  502 -0.00000000000E+00 -0.00000000000E+00 -0.98313943975E+03  0.98313943975E+03  0.00000000000E+00 0. -1.
         25    1    1    2    0    0 -0.12162704543E+03  0.22834616143E+03  0.60352540833E+01  0.28739612369E+03  0.12500000000E+03 0.  0.
         25    1    1    2    0    0 -0.24073985743E+03 -0.18636817420E+03 -0.23513839358E+03  0.40447971451E+03  0.12500000000E+03 0.  0.
         25    1    1    2    0    0  0.36236690286E+03 -0.41977987223E+02 -0.45152350985E+03  0.59377639196E+03  0.12500000000E+03 0.  0.
</event>
<event>
 5    0  0.5648525E-005  0.4838005E+03  0.7546771E-02  0.1018096E+00
         21   -1    0    0  502  501  0.00000000000E+00  0.00000000000E+00  0.49242960568E+03  0.49242960568E+03  0.00000000000E+00 0. -1.
         21   -1    0    0  501  502 -0.00000000000E+00 -0.00000000000E+00 -0.47532255148E+03  0.47532255148E+03  0.00000000000E+00 0. -1.
         25    1    1    2    0    0  0.19543797335E+03 -0.42664463276E+01  0.19470638109E+03  0.30290225953E+03  0.12500000000E+03 0.  0.
         25    1    1    2    0    0  0.21576968854E+02  0.23953175019E+03  0.14038639728E+02  0.27140948462E+03  0.12500000000E+03 0.  0.
         25    1    1    2    0    0 -0.21701494220E+03 -0.23526530386E+03 -0.19163796662E+03  0.39344041301E+03  0.12500000000E+03 0.  0.
</event>
<event>
 5    0  0.5648525E-005  0.2405360E+03  0.7546771E-02  0.1119436E+00
         21   -1    0    0  502  501  0.00000000000E+00  0.00000000000E+00  0.62351591475E+02  0.62351591475E+02  0.00000000000E+00 0. -1.
         21   -1    0    0  501  502 -0.00000000000E+00 -0.00000000000E+00 -0.92792433682E+03  0.92792433682E+03  0.00000000000E+00 0. -1.
         25    1    1    2    0    0  0.10263577260E+01 -0.74374974933E+02 -0.44108331618E+03  0.46444825559E+03  0.12500000000E+03 0.  0.
         25    1    1    2    0    0  0.65862587255E+02 -0.13218192500E+01 -0.13897672084E+03  0.19818969837E+03  0.12500000000E+03 0.  0.
         25    1    1    2    0    0 -0.66888944981E+02  0.75696794183E+02 -0.28551270833E+03  0.32763797433E+03  0.12500000000E+03 0.  0.
</event>
<event>
 5    0  0.5648525E-005  0.3397031E+03  0.7546771E-02  0.1066922E+00
         21   -1    0    0  502  501  0.00000000000E+00  0.00000000000E+00  0.74564027703E+02  0.74564027703E+02  0.00000000000E+00 0. -1.
         21   -1    0    0  501  502 -0.00000000000E+00 -0.00000000000E+00 -0.15476385759E+04  0.15476385759E+04  0.00000000000E+00 0. -1.
         25    1    1    2    0    0 -0.66275201365E+02  0.12890210124E+03 -0.26756235859E+03  0.32897229329E+03  0.12500000000E+03 0.  0.
         25    1    1    2    0    0  0.19149999930E+03 -0.11508453926E+03 -0.45558581700E+03  0.52258983683E+03  0.12500000000E+03 0.  0.
         25    1    1    2    0    0 -0.12522479793E+03 -0.13817561973E+02 -0.74992637263E+03  0.77064047350E+03  0.12500000000E+03 0.  0.
</event>
<event>
 5    0  0.5648525E-005  0.2526519E+03  0.7546771E-02  0.1111640E+00
         21   -1    0    0  502  501  0.00000000000E+00  0.00000000000E+00  0.12988695454E+04  0.12988695454E+04  0.00000000000E+00 0.  1.
         21   -1    0    0  501  502 -0.00000000000E+00 -0.00000000000E+00 -0.49145040192E+02  0.49145040192E+02  0.00000000000E+00 0.  1.
         25    1    1    2    0    0 -0.10965380278E+03 -0.35731785086E+02  0.77990171441E+03  0.79823079436E+03  0.12500000000E+03 0.  0.
         25    1    1    2    0    0  0.57828771815E+02 -0.18910107957E+02  0.21175482977E+03  0.25331179792E+03  0.12500000000E+03 0.  0.
         25    1    1    2    0    0  0.51825030969E+02  0.54641893043E+02  0.25806796104E+03  0.29647199332E+03  0.12500000000E+03 0.  0.
</event>
<event>
 5    0  0.5648525E-005  0.3818822E+03  0.7546771E-02  0.1050240E+00
         21   -1    0    0  502  501  0.00000000000E+00  0.00000000000E+00  0.13767860852E+03  0.13767860852E+03  0.00000000000E+00 0. -1.
         21   -1    0    0  501  502 -0.00000000000E+00 -0.00000000000E+00 -0.10592351354E+04  0.10592351354E+04  0.00000000000E+00 0. -1.
         25    1    1    2    0    0 -0.22803315349E+03  0.10893300824E+03 -0.11450970647E+03  0.30430739763E+03  0.12500000000E+03 0.  0.
         25    1    1    2    0    0  0.12667495023E+03  0.14374120640E+02 -0.38570032237E+03  0.42502105481E+03  0.12500000000E+03 0.  0.
         25    1    1    2    0    0  0.10135820326E+03 -0.12330712888E+03 -0.42134649807E+03  0.46758529151E+03  0.12500000000E+03 0.  0.
</event>
<event>
 5    0  0.5648525E-005  0.3685152E+03  0.7546771E-02  0.1055262E+00
         21   -1    0    0  502  501  0.00000000000E+00  0.00000000000E+00  0.27884268015E+03  0.27884268015E+03  0.00000000000E+00 0.  1.
         21   -1    0    0  501  502 -0.00000000000E+00 -0.00000000000E+00 -0.48702532895E+03  0.48702532895E+03  0.00000000000E+00 0.  1.
         25    1    1    2    0    0  0.50597802034E+02 -0.44726207134E+02  0.17443798114E+03  0.22497595525E+03  0.12500000000E+03 0.  0.
         25    1    1    2    0    0  0.73745754428E+02  0.12110697381E+03 -0.16883987073E+03  0.25345066058E+03  0.12500000000E+03 0.  0.
         25    1    1    2    0    0 -0.12434355646E+03 -0.76380766674E+02 -0.21378075922E+03  0.28744139327E+03  0.12500000000E+03 0.  0.
</event>
<event>
 5    0  0.5648525E-005  0.2434009E+03  0.7546771E-02  0.1117548E+00
         21   -1    0    0  502  501  0.00000000000E+00  0.00000000000E+00  0.92062882381E+03  0.92062882381E+03  0.00000000000E+00 0.  1.
         21   -1    0    0  501  502 -0.00000000000E+00 -0.00000000000E+00 -0.64351665785E+02  0.64351665785E+02  0.00000000000E+00 0.  1.
         25    1    1    2    0    0 -0.94879160683E+02 -0.21589262670E+02  0.16772869726E+03  0.23070775297E+03  0.12500000000E+03 0.  0.
         25    1    1    2    0    0 -0.26023492664E+02 -0.84060587834E+01  0.23455101626E+03  0.26718357589E+03  0.12500000000E+03 0.  0.
         25    1    1    2    0    0  0.12090265335E+03  0.29995321453E+02  0.45399744450E+03  0.48708916074E+03  0.12500000000E+03 0.  0.
</event>
<event>
 5    0  0.5648525E-005  0.4833532E+03  0.7546771E-02  0.1018218E+00
         21   -1    0    0  502  501  0.00000000000E+00  0.00000000000E+00  0.55771575719E+03  0.55771575719E+03  0.00000000000E+00 0.  1.
         21   -1    0    0  501  502 -0.00000000000E+00 -0.00000000000E+00 -0.41890570831E+03  0.41890570831E+03  0.00000000000E+00 0.  1.
         25    1    1    2    0    0 -0.24064392833E+03 -0.74035110877E+02  0.72119092533E+01  0.28118981049E+03  0.12500000000E+03 0.  0.
         25    1    1    2    0    0 -0.65104325605E+02 -0.23210040384E+02 -0.18086244196E+03  0.23046366764E+03  0.12500000000E+03 0.  0.
         25    1    1    2    0    0  0.30574825394E+03  0.97245151261E+02  0.31246058160E+03  0.46496798738E+03  0.12500000000E+03 0.  0.
</event>
<event>
 5    0  0.5648525E-005  0.3013631E+03  0.7546771E-02  0.1084561E+00
         21   -1    0    0  502  501  0.00000000000E+00  0.00000000000E+00  0.10445015232E+04  0.10445015232E+04  0.00000000000E+00 0.  1.
         21   -1    0    0  501  502 -0.00000000000E+00 -0.00000000000E+00 -0.86950325568E+02  0.86950325568E+02  0.00000000000E+00 0.  1.
         25    1    1    2    0    0 -0.16362066387E+02 -0.14330416515E+01  0.51046389854E+03  0.52580239875E+03  0.12500000000E+03 0.  0.
         25    1    1    2    0    0  0.35663394721E+02  0.15937056048E+03  0.20946225725E+03  0.29354776525E+03  0.12500000000E+03 0.  0.
         25    1    1    2    0    0 -0.19301328334E+02 -0.15793751882E+03  0.23762504188E+03  0.31210168480E+03  0.12500000000E+03 0.  0.
</event>
<event>
 5    0  0.5648525E-005  0.3944744E+03  0.7546771E-02  0.1045710E+00
         21   -1    0    0  502  501  0.00000000000E+00  0.00000000000E+00  0.19060913252E+04  0.19060913252E+04  0.00000000000E+00 0.  1.
         21   -1    0    0  501  502 -0.00000000000E+00 -0.00000000000E+00 -0.81638295800E+02  0.81638295800E+02  0.00000000000E+00 0.  1.
         25    1    1    2    0    0 -0.20676132003E+03  0.29469030300E+02  0.10893378232E+04  0.11161991580E+04  0.12500000000E+03 0.  0.
         25    1    1    2    0    0  0.29009471025E+03 -0.30203834810E+02  0.51923405420E+03  0.60851969204E+03  0.12500000000E+03 0.  0.
         25    1    1    2    0    0 -0.83333390221E+02  0.73480450971E+00  0.21588115194E+03  0.26301077094E+03  0.12500000000E+03 0.  0.
</event>
<event>
 5    0  0.5648525E-005  0.2200251E+03  0.7546771E-02  0.1133864E+00
         21   -1    0    0  502  501  0.00000000000E+00  0.00000000000E+00  0.26679215502E+02  0.26679215502E+02  0.00000000000E+00 0.  1.
         21   -1    0    0  501  502 -0.00000000000E+00 -0.00000000000E+00 -0.18145605140E+04  0.18145605140E+04  0.00000000000E+00 0.  1.
         25    1    1    2    0    0 -0.76347722746E+01  0.46678487407E+02 -0.87508229871E+03  0.88522946204E+03  0.12500000000E+03 0.  0.
         25    1    1    2    0    0 -0.38915765178E+02  0.11425538008E+02 -0.54162488745E+03  0.55733966161E+03  0.12500000000E+03 0.  0.
         25    1    1    2    0    0  0.46550537453E+02 -0.58104025415E+02 -0.37117411234E+03  0.39867060587E+03  0.12500000000E+03 0.  0.
</event>
<event>
 5    0  0.5648525E-005  0.3167186E+03  0.7546771E-02  0.1077169E+00
         21   -1    0    0  502  501  0.00000000000E+00  0.00000000000E+00  0.21277948747E+03  0.21277948747E+03  0.00000000000E+00 0. -1.
         21   -1    0    0  501  502 -0.00000000000E+00 -0.00000000000E+00 -0.47143017050E+03  0.47143017050E+03  0.00000000000E+00 0. -1.
         25    1    1    2    0    0 -0.10758258888E+03 -0.10773843540E+03  0.73908834563E+02  0.21040223316E+03  0.12500000000E+03 0.  0.
         25    1    1    2    0    0  0.18798963286E+02  0.82736099688E+02 -0.65095986128E+02  0.16450273743E+03  0.12500000000E+03 0.  0.
         25    1    1    2    0    0  0.88783625596E+02  0.25002335710E+02 -0.26746353147E+03  0.30930468737E+03  0.12500000000E+03 0.  0.
</event>
<event>
 5    0  0.5648525E-005  0.5904530E+03  0.7546771E-02  0.9925413E-01
         21   -1    0    0  502  501  0.00000000000E+00  0.00000000000E+00  0.10546086420E+04  0.10546086420E+04  0.00000000000E+00 0.  1.
         21   -1    0    0  501  502 -0.00000000000E+00 -0.00000000000E+00 -0.33058213906E+03  0.33058213906E+03  0.00000000000E+00 0.  1.
         25    1    1    2    0    0 -0.45556214117E+03  0.13558501569E+03  0.38599356096E+03  0.62492894800E+03  0.12500000000E+03 0.  0.
         25    1    1    2    0    0  0.27154075054E+03 -0.13764631588E+03 -0.29736383853E+02  0.33043931364E+03  0.12500000000E+03 0.  0.
         25    1    1    2    0    0  0.18402139063E+03  0.20613001870E+01  0.36776932587E+03  0.42982251944E+03  0.12500000000E+03 0.  0.
</event>
<event>
 5    0  0.5648525E-005  0.3450828E+03  0.7546771E-02  0.1064652E+00
         21   -1    0    0  502  501  0.00000000000E+00  0.00000000000E+00  0.12188782011E+04  0.12188782011E+04  0.00000000000E+00 0. -1.
         21   -1    0    0  501  502 -0.00000000000E+00 -0.00000000000E+00 -0.97698130379E+02  0.97698130379E+02  0.00000000000E+00 0. -1.
         25    1    1    2    0    0 -0.71345145726E+02 -0.23354958265E+03  0.48034123098E+03  0.55316203372E+03  0.12500000000E+03 0.  0.
         25    1    1    2    0    0  0.38612478640E+02  0.21150895193E+03  0.55092652523E+03  0.60446008674E+03  0.12500000000E+03 0.  0.
         25    1    1    2    0    0  0.32732667086E+02  0.22040630711E+02  0.89912314481E+02  0.15895421099E+03  0.12500000000E+03 0.  0.
</event>
<event>
 5    0  0.5648525E-005  0.2409885E+03  0.7546771E-02  0.1119136E+00
         21   -1    0    0  502  501  0.00000000000E+00  0.00000000000E+00  0.16335333323E+04  0.16335333323E+04  0.00000000000E+00 0.  1.
         21   -1    0    0  501  502 -0.00000000000E+00 -0.00000000000E+00 -0.35552049272E+02  0.35552049272E+02  0.00000000000E+00 0.  1.
         25    1    1    2    0    0 -0.10454085785E+03 -0.47211117394E+02  0.61255569512E+03  0.63561557579E+03  0.12500000000E+03 0.  0.
         25    1    1    2    0    0  0.14493208369E+02 -0.53655322780E+01  0.63103428121E+03  0.64348123989E+03  0.12500000000E+03 0.  0.
         25    1    1    2    0    0  0.90047649480E+02  0.52576649672E+02  0.35439130675E+03  0.38998856594E+03  0.12500000000E+03 0.  0.
</event>
<event>
 5    0  0.5648525E-005  0.2955094E+03  0.7546771E-02  0.1087507E+00
         21   -1    0    0  502  501  0.00000000000E+00  0.00000000000E+00  0.13889616186E+03  0.13889616186E+03  0.00000000000E+00 0. -1.
         21   -1    0    0  501  502 -0.00000000000E+00 -0.00000000000E+00 -0.62871272139E+03  0.62871272139E+03  0.00000000000E+00 0. -1.
         25    1    1    2    0    0  0.28908244754E+02  0.41152054504E+02 -0.54245791251E+02  0.14524732036E+03  0.12500000000E+03 0.  0.
         25    1    1    2    0    0  0.27942222090E+02 -0.16051223179E+03 -0.38030985757E+03  0.43221005552E+03  0.12500000000E+03 0.  0.
         25    1    1    2    0    0 -0.56850466844E+02  0.11936017728E+03 -0.55260910710E+02  0.19015150737E+03  0.12500000000E+03 0.  0.
</event>
<event>
 5    0  0.5648525E-005  0.3406934E+03  0.7546771E-02  0.1066501E+00
         21   -1    0    0  502  501  0.00000000000E+00  0.00000000000E+00  0.13784553144E+03  0.13784553144E+03  0.00000000000E+00 0.  1.
         21   -1    0    0  501  502 -0.00000000000E+00 -0.00000000000E+00 -0.84204383908E+03  0.84204383908E+03  0.00000000000E+00 0.  1.
         25    1    1    2    0    0  0.40331948643E+02  0.37412063525E+02 -0.66193099752E+03  0.67587274990E+03  0.12500000000E+03 0.  0.
         25    1    1    2    0    0 -0.84573457533E+01 -0.92342559848E+01 -0.99351438305E+02  0.16016399868E+03  0.12500000000E+03 0.  0.
         25    1    1    2    0    0 -0.31874602889E+02 -0.28177807540E+02  0.57084128181E+02  0.14385262193E+03  0.12500000000E+03 0.  0.
</event>
<event>
 5    0  0.5648525E-005  0.2388208E+03  0.7546771E-02  0.1120581E+00
         21   -1    0    0  502  501  0.00000000000E+00  0.00000000000E+00  0.18037554971E+03  0.18037554971E+03  0.00000000000E+00 0.  1.
         21   -1    0    0  501  502 -0.00000000000E+00 -0.00000000000E+00 -0.31620351483E+03  0.31620351483E+03  0.00000000000E+00 0.  1.
         25    1    1    2    0    0 -0.43788701652E+02  0.17210230969E+02 -0.13147599867E+03  0.18741552942E+03  0.12500000000E+03 0.  0.
         25    1    1    2    0    0  0.76523320648E+02 -0.22667417218E+02 -0.70147440840E+02  0.16405881221E+03  0.12500000000E+03 0.  0.
         25    1    1    2    0    0 -0.32734618996E+02  0.54571862485E+01  0.65795474382E+02  0.14510472291E+03  0.12500000000E+03 0.  0.
</event>
<event>
 5    0  0.5648525E-005  0.3401034E+03  0.7546771E-02  0.1066752E+00
         21   -1    0    0  502  501  0.00000000000E+00  0.00000000000E+00  0.37642662509E+03  0.37642662509E+03  0.00000000000E+00 0. -1.
         21   -1    0    0  501  502 -0.00000000000E+00 -0.00000000000E+00 -0.30728523799E+03  0.30728523799E+03  0.00000000000E+00 0. -1.
         25    1    1    2    0    0  0.40834835255E+02 -0.10072341842E+03 -0.13704518503E+03  0.21498621706E+03  0.12500000000E+03 0.  0.
         25    1    1    2    0    0 -0.26933182860E+01 -0.30567431288E+02 -0.61931104698E+02  0.14283586226E+03  0.12500000000E+03 0.  0.
         25    1    1    2    0    0 -0.38141516969E+02  0.13129084971E+03  0.26811767682E+03  0.32588978376E+03  0.12500000000E+03 0.  0.
</event>
<event>
 5    0  0.5648525E-005  0.2685614E+03  0.7546771E-02  0.1102106E+00
         21   -1    0    0  502  501  0.00000000000E+00  0.00000000000E+00  0.18838133545E+03  0.18838133545E+03  0.00000000000E+00 0.  1.
         21   -1    0    0  501  502 -0.00000000000E+00 -0.00000000000E+00 -0.38286828009E+03  0.38286828009E+03  0.00000000000E+00 0.  1.
         25    1    1    2    0    0 -0.54269210966E+02  0.11761184090E+03 -0.94372271836E+02  0.20324570862E+03  0.12500000000E+03 0.  0.
         25    1    1    2    0    0 -0.22394519652E+02  0.29735017983E+02 -0.92664862956E+02  0.15999207053E+03  0.12500000000E+03 0.  0.
         25    1    1    2    0    0  0.76663730618E+02 -0.14734685889E+03 -0.74498098512E+01  0.20801183640E+03  0.12500000000E+03 0.  0.
</event>
<event>
 5    0  0.5648525E-005  0.3067630E+03  0.7546771E-02  0.1081908E+00
         21   -1    0    0  502  501  0.00000000000E+00  0.00000000000E+00  0.54301797744E+02  0.54301797744E+02  0.00000000000E+00 0.  1.
         21   -1    0    0  501  502 -0.00000000000E+00 -0.00000000000E+00 -0.17329726650E+04  0.17329726650E+04  0.00000000000E+00 0.  1.
         25    1    1    2    0    0  0.11967430089E+03  0.51105944324E+01 -0.38169326185E+03  0.41912146522E+03  0.12500000000E+03 0.  0.
         25    1    1    2    0    0 -0.17907122335E+03 -0.62047135265E+02 -0.10860875263E+04  0.11095618346E+04  0.12500000000E+03 0.  0.
         25    1    1    2    0    0  0.59396922462E+02  0.56936540832E+02 -0.21089007917E+03  0.25859116298E+03  0.12500000000E+03 0.  0.
</event>
<event>
 5    0  0.5648525E-005  0.3029739E+03  0.7546771E-02  0.1083763E+00
         21   -1    0    0  502  501  0.00000000000E+00  0.00000000000E+00  0.39564660853E+03  0.39564660853E+03  0.00000000000E+00 0. -1.
         21   -1    0    0  501  502 -0.00000000000E+00 -0.00000000000E+00 -0.23200795131E+03  0.23200795131E+03  0.00000000000E+00 0. -1.
         25    1    1    2    0    0  0.15015192000E+03  0.94572474788E+02  0.12887539862E+03  0.25243498259E+03  0.12500000000E+03 0.  0.
         25    1    1    2    0    0 -0.18074966365E+03 -0.58743946369E+02 -0.25053826121E+02  0.22885363521E+03  0.12500000000E+03 0.  0.
         25    1    1    2    0    0  0.30597743655E+02 -0.35828528419E+02  0.59817084720E+02  0.14636594204E+03  0.12500000000E+03 0.  0.
</event>
<event>
 5    0  0.5648525E-005  0.2205010E+03  0.7546771E-02  0.1133510E+00
         21   -1    0    0  502  501  0.00000000000E+00  0.00000000000E+00  0.20021604803E+04  0.20021604803E+04  0.00000000000E+00 0. -1.
         21   -1    0    0  501  502 -0.00000000000E+00 -0.00000000000E+00 -0.24284120261E+02  0.24284120261E+02  0.00000000000E+00 0. -1.
         25    1    1    2    0    0  0.90057536790E+02  0.36029031528E+02  0.82772345836E+03  0.84270966208E+03  0.12500000000E+03 0.  0.
         25    1    1    2    0    0 -0.57431389907E+02 -0.17477409838E+02  0.75375522016E+03  0.76640443391E+03  0.12500000000E+03 0.  0.
         25    1    1    2    0    0 -0.32626146882E+02 -0.18551621690E+02  0.39639768149E+03  0.41733050454E+03  0.12500000000E+03 0.  0.
</event>
<event>
 5    0  0.5648525E-005  0.2335214E+03  0.7546771E-02  0.1124186E+00
         21   -1    0    0  502  501  0.00000000000E+00  0.00000000000E+00  0.20522910264E+03  0.20522910264E+03  0.00000000000E+00 0. -1.
         21   -1    0    0  501  502 -0.00000000000E+00 -0.00000000000E+00 -0.26571392622E+03  0.26571392622E+03  0.00000000000E+00 0. -1.
         25    1    1    2    0    0 -0.14655552346E+02 -0.17894116178E+02  0.33300834293E+02  0.13141130154E+03  0.12500000000E+03 0.  0.
         25    1    1    2    0    0  0.48104083141E+02  0.31222163945E+02 -0.14489336209E+03  0.19976964913E+03  0.12500000000E+03 0.  0.
         25    1    1    2    0    0 -0.33448530795E+02 -0.13328047767E+02  0.51107704211E+02  0.13976207819E+03  0.12500000000E+03 0.  0.
</event>
<event>
 5    0  0.5714935E-005  0.2482568E+03  0.7546771E-02  0.1114411E+00
         21   -1    0    0  502  501  0.00000000000E+00  0.00000000000E+00  0.58061975421E+03  0.58061975421E+03  0.00000000000E+00 0. -1.
         21   -1    0    0  501  502 -0.00000000000E+00 -0.00000000000E+00 -0.10614769718E+03  0.10614769718E+03  0.00000000000E+00 0. -1.
         25    1    1    2    0    0 -0.90560083881E+02 -0.34553503272E+02  0.80765146813E+02  0.17760372271E+03  0.12500000000E+03 0.  0.
         25    1    1    2    0    0 -0.84059448882E+01 -0.41592197393E+02  0.96918937801E+02  0.16376462163E+03  0.12500000000E+03 0.  0.
         25    1    1    2    0    0  0.98966028769E+02  0.76145700665E+02  0.29678797242E+03  0.34539910705E+03  0.12500000000E+03 0.  0.
</event>
<event>
 5    0  0.5648525E-005  0.1967261E+03  0.7546771E-02  0.1152531E+00
         21   -1    0    0  502  501  0.00000000000E+00  0.00000000000E+00  0.30790704293E+03  0.30790704293E+03  0.00000000000E+00 0.  1.
         21   -1    0    0  501  502 -0.00000000000E+00 -0.00000000000E+00 -0.12569109234E+03  0.12569109234E+03  0.00000000000E+00 0.  1.
         25    1    1    2    0    0 -0.17703913623E+02 -0.42368208656E+02  0.37256595705E+02  0.13828068407E+03  0.12500000000E+03 0.  0.
         25    1    1    2    0    0 -0.79117357811E-01  0.32005092548E+01  0.73563063226E+02  0.14507506261E+03  0.12500000000E+03 0.  0.
         25    1    1    2    0    0  0.17783030981E+02  0.39167699401E+02  0.71396291662E+02  0.15024238859E+03  0.12500000000E+03 0.  0.
</event>
<event>
 5    0  0.5648525E-005  0.3469502E+03  0.7546771E-02  0.1063874E+00
         21   -1    0    0  502  501  0.00000000000E+00  0.00000000000E+00  0.18412577071E+03  0.18412577071E+03  0.00000000000E+00 0.  1.
         21   -1    0    0  501  502 -0.00000000000E+00 -0.00000000000E+00 -0.65376197286E+03  0.65376197286E+03  0.00000000000E+00 0.  1.
         25    1    1    2    0    0 -0.11741236898E+03  0.97187379278E+02 -0.43376621534E+03  0.47645480441E+03  0.12500000000E+03 0.  0.
         25    1    1    2    0    0  0.54028765461E+02 -0.12846605642E+03  0.50446485172E+02  0.19388781039E+03  0.12500000000E+03 0.  0.
         25    1    1    2    0    0  0.63383603519E+02  0.31278677144E+02 -0.86316471985E+02  0.16754512877E+03  0.12500000000E+03 0.  0.
</event>
<event>
 5    0  0.5648525E-005  0.3104593E+03  0.7546771E-02  0.1080126E+00
         21   -1    0    0  502  501  0.00000000000E+00  0.00000000000E+00  0.27310511241E+04  0.27310511241E+04  0.00000000000E+00 0. -1.
         21   -1    0    0  501  502 -0.00000000000E+00 -0.00000000000E+00 -0.35292265908E+02  0.35292265908E+02  0.00000000000E+00 0. -1.
         25    1    1    2    0    0 -0.20514793392E+03 -0.11564917967E+03  0.11200434677E+04  0.11513395577E+04  0.12500000000E+03 0.  0.
         25    1    1    2    0    0  0.87227727362E+02  0.70715461968E+02  0.59215436838E+03  0.61553322329E+03  0.12500000000E+03 0.  0.
         25    1    1    2    0    0  0.11792020656E+03  0.44933717706E+02  0.98356102218E+03  0.99947060910E+03  0.12500000000E+03 0.  0.
</event>
<event>
 5    0  0.5648525E-005  0.2504444E+03  0.7546771E-02  0.1113024E+00
         21   -1    0    0  502  501  0.00000000000E+00  0.00000000000E+00  0.36880249681E+02  0.36880249681E+02  0.00000000000E+00 0.  1.
         21   -1    0    0  501  502 -0.00000000000E+00 -0.00000000000E+00 -0.17007043898E+04  0.17007043898E+04  0.00000000000E+00 0.  1.
         25    1    1    2    0    0  0.24484514123E+02 -0.44027693832E+02 -0.40568243434E+03  0.42748235845E+03  0.12500000000E+03 0.  0.
         25    1    1    2    0    0 -0.42872012753E+02  0.14100596868E+03 -0.51452078001E+03  0.54961561636E+03  0.12500000000E+03 0.  0.
         25    1    1    2    0    0  0.18387498630E+02 -0.96978274853E+02 -0.74362092578E+03  0.76048666468E+03  0.12500000000E+03 0.  0.
</event>
<event>
 5    0  0.5648525E-005  0.3194326E+03  0.7546771E-02  0.1075911E+00
         21   -1    0    0  502  501  0.00000000000E+00  0.00000000000E+00  0.50775860466E+02  0.50775860466E+02  0.00000000000E+00 0.  1.
         21   -1    0    0  501  502 -0.00000000000E+00 -0.00000000000E+00 -0.20095608299E+04  0.20095608299E+04  0.00000000000E+00 0.  1.
         25    1    1    2    0    0  0.87065059615E+02  0.51259789896E+02 -0.18712369070E+03  0.24667421083E+03  0.12500000000E+03 0.  0.
         25    1    1    2    0    0 -0.13575654803E+02  0.10708285699E+03 -0.95899898838E+03  0.97311617825E+03  0.12500000000E+03 0.  0.
         25    1    1    2    0    0 -0.73489404812E+02 -0.15834264689E+03 -0.81266229040E+03  0.84054630133E+03  0.12500000000E+03 0.  0.
</event>
<event>
 5    0  0.5648525E-005  0.2316136E+03  0.7546771E-02  0.1125509E+00
         21   -1    0    0  502  501  0.00000000000E+00  0.00000000000E+00  0.77589075343E+02  0.77589075343E+02  0.00000000000E+00 0.  1.
         21   -1    0    0  501  502 -0.00000000000E+00 -0.00000000000E+00 -0.69139731237E+03  0.69139731237E+03  0.00000000000E+00 0.  1.
         25    1    1    2    0    0 -0.20196255243E+02 -0.23559720801E+02 -0.16600420798E+03  0.21010793949E+03  0.12500000000E+03 0.  0.
         25    1    1    2    0    0 -0.55195956161E+02 -0.75557107891E+02 -0.23929586906E+03  0.28573236267E+03  0.12500000000E+03 0.  0.
         25    1    1    2    0    0  0.75392211404E+02  0.99116828693E+02 -0.20850815999E+03  0.27314608556E+03  0.12500000000E+03 0.  0.
</event>
<event>
 5    0  0.5648525E-005  0.7489989E+03  0.7546771E-02  0.9636922E-01
         21   -1    0    0  502  501  0.00000000000E+00  0.00000000000E+00  0.17836715566E+04  0.17836715566E+04  0.00000000000E+00 0.  1.
         21   -1    0    0  501  502 -0.00000000000E+00 -0.00000000000E+00 -0.31451946196E+03  0.31451946196E+03  0.00000000000E+00 0.  1.
         25    1    1    2    0    0 -0.48958211012E+03 -0.14187423982E+03  0.94413547428E+02  0.53325215463E+03  0.12500000000E+03 0.  0.
         25    1    1    2    0    0  0.44858007661E+03  0.20990908198E+03  0.13046665140E+04  0.14010944367E+04  0.12500000000E+03 0.  0.
         25    1    1    2    0    0  0.41002033510E+02 -0.68034842161E+02  0.70072033255E+02  0.16384442726E+03  0.12500000000E+03 0.  0.
</event>
<event>
 5    0  0.6260921E-005  0.3332091E+03  0.7546771E-02  0.1069726E+00
         21   -1    0    0  502  501  0.00000000000E+00  0.00000000000E+00  0.57876086179E+03  0.57876086179E+03  0.00000000000E+00 0.  1.
         21   -1    0    0  501  502 -0.00000000000E+00 -0.00000000000E+00 -0.19183796336E+03  0.19183796336E+03  0.00000000000E+00 0.  1.
         25    1    1    2    0    0  0.24339546535E+02  0.89786359726E+02  0.22999487732E+03  0.27780685289E+03  0.12500000000E+03 0.  0.
         25    1    1    2    0    0 -0.91340368943E+02  0.12700460450E+03  0.11332137565E+03  0.23008686782E+03  0.12500000000E+03 0.  0.
         25    1    1    2    0    0  0.67000822408E+02 -0.21679096423E+03  0.43606645449E+02  0.26270510444E+03  0.12500000000E+03 0.  0.
</event>
<event>
 5    0  0.5648525E-005  0.3255854E+03  0.7546771E-02  0.1073107E+00
         21   -1    0    0  502  501  0.00000000000E+00  0.00000000000E+00  0.17873785220E+03  0.17873785220E+03  0.00000000000E+00 0. -1.
         21   -1    0    0  501  502 -0.00000000000E+00 -0.00000000000E+00 -0.59307992566E+03  0.59307992566E+03  0.00000000000E+00 0. -1.
         25    1    1    2    0    0 -0.11044266094E+03 -0.62242206844E+02 -0.23316702253E+03  0.29336587066E+03  0.12500000000E+03 0.  0.
         25    1    1    2    0    0  0.40610860255E+01  0.15264690935E+03 -0.21077735316E+03  0.28873805423E+03  0.12500000000E+03 0.  0.
         25    1    1    2    0    0  0.10638157491E+03 -0.90404702506E+02  0.29602302235E+02  0.18971385298E+03  0.12500000000E+03 0.  0.
</event>
<event>
 5    0  0.5648525E-005  0.2241493E+03  0.7546771E-02  0.1130827E+00
         21   -1    0    0  502  501  0.00000000000E+00  0.00000000000E+00  0.62015843492E+02  0.62015843492E+02  0.00000000000E+00 0.  1.
         21   -1    0    0  501  502 -0.00000000000E+00 -0.00000000000E+00 -0.81016275541E+03  0.81016275541E+03  0.00000000000E+00 0.  1.
         25    1    1    2    0    0 -0.47375883259E+02 -0.78879709956E+02 -0.32470205145E+03  0.35989290793E+03  0.12500000000E+03 0.  0.
         25    1    1    2    0    0  0.37629636289E+02  0.43847899921E+02 -0.31153769229E+03  0.34061614990E+03  0.12500000000E+03 0.  0.
         25    1    1    2    0    0  0.97462469698E+01  0.35031810035E+02 -0.11190716817E+03  0.17166954108E+03  0.12500000000E+03 0.  0.
</event>
<event>
 5    0  0.5648525E-005  0.3042419E+03  0.7546771E-02  0.1083139E+00
         21   -1    0    0  502  501  0.00000000000E+00  0.00000000000E+00  0.18997488715E+03  0.18997488715E+03  0.00000000000E+00 0.  1.
         21   -1    0    0  501  502 -0.00000000000E+00 -0.00000000000E+00 -0.48723891108E+03  0.48723891108E+03  0.00000000000E+00 0.  1.
         25    1    1    2    0    0  0.22118809999E+02 -0.22164171607E+03 -0.14672485633E+03  0.29456319445E+03  0.12500000000E+03 0.  0.
         25    1    1    2    0    0 -0.28782929937E+02  0.78269662949E+02 -0.19387650635E+02  0.15151065372E+03  0.12500000000E+03 0.  0.
         25    1    1    2    0    0  0.66641199386E+01  0.14337205312E+03 -0.13115151697E+03  0.23113995006E+03  0.12500000000E+03 0.  0.
</event>
<event>
 5    0  0.5819828E-005  0.3527027E+03  0.7546771E-02  0.1061511E+00
         21   -1    0    0  502  501  0.00000000000E+00  0.00000000000E+00  0.79035922138E+03  0.79035922138E+03  0.00000000000E+00 0.  1.
         21   -1    0    0  501  502 -0.00000000000E+00 -0.00000000000E+00 -0.15739572821E+03  0.15739572821E+03  0.00000000000E+00 0.  1.
         25    1    1    2    0    0  0.77231540258E+02  0.88881429464E+02  0.29580934118E+03  0.34204208168E+03  0.12500000000E+03 0.  0.
         25    1    1    2    0    0 -0.35462611953E+02  0.15470684420E+03  0.23647140766E+03  0.31102336106E+03  0.12500000000E+03 0.  0.
         25    1    1    2    0    0 -0.41768928305E+02 -0.24358827366E+03  0.10068274433E+03  0.29468950685E+03  0.12500000000E+03 0.  0.
</event>
<event>
 5    0  0.5648525E-005  0.3305900E+03  0.7546771E-02  0.1070876E+00
         21   -1    0    0  502  501  0.00000000000E+00  0.00000000000E+00  0.42583106665E+03  0.42583106665E+03  0.00000000000E+00 0.  1.
         21   -1    0    0  501  502 -0.00000000000E+00 -0.00000000000E+00 -0.25665055044E+03  0.25665055044E+03  0.00000000000E+00 0.  1.
         25    1    1    2    0    0 -0.84875120160E+02  0.13833505939E+03  0.28529393831E+03  0.35122358394E+03  0.12500000000E+03 0.  0.
         25    1    1    2    0    0  0.43707720242E+02 -0.21334054251E+02 -0.52007689253E+02  0.14385863346E+03  0.12500000000E+03 0.  0.
         25    1    1    2    0    0  0.41167399918E+02 -0.11700100514E+03 -0.64105732850E+02  0.18739939969E+03  0.12500000000E+03 0.  0.
</event>
<event>
 5    0  0.5648525E-005  0.2447295E+03  0.7546771E-02  0.1116682E+00
         21   -1    0    0  502  501  0.00000000000E+00  0.00000000000E+00  0.20757086561E+03  0.20757086561E+03  0.00000000000E+00 0. -1.
         21   -1    0    0  501  502 -0.00000000000E+00 -0.00000000000E+00 -0.28854013753E+03  0.28854013753E+03  0.00000000000E+00 0. -1.
         25    1    1    2    0    0  0.20562790712E+02  0.46154891802E+02 -0.55637770185E+02  0.14585494119E+03  0.12500000000E+03 0.  0.
         25    1    1    2    0    0  0.10310230391E+03  0.61075888236E+01  0.13647657547E+02  0.16272260528E+03  0.12500000000E+03 0.  0.
         25    1    1    2    0    0 -0.12366509462E+03 -0.52262480626E+02 -0.38979159289E+02  0.18753345666E+03  0.12500000000E+03 0.  0.
</event>
<event>
 5    0  0.5648525E-005  0.3612059E+03  0.7546771E-02  0.1058107E+00
         21   -1    0    0  502  501  0.00000000000E+00  0.00000000000E+00  0.46221487659E+02  0.46221487659E+02  0.00000000000E+00 0. -1.
         21   -1    0    0  501  502 -0.00000000000E+00 -0.00000000000E+00 -0.28227072282E+04  0.28227072282E+04  0.00000000000E+00 0. -1.
         25    1    1    2    0    0  0.11576530037E+03 -0.18973817236E+03 -0.12276527873E+04  0.12538574660E+04  0.12500000000E+03 0.  0.
         25    1    1    2    0    0 -0.21287391248E+03  0.15641021757E+03 -0.10927243498E+04  0.11311281817E+04  0.12500000000E+03 0.  0.
         25    1    1    2    0    0  0.97108612111E+02  0.33327954792E+02 -0.45610860345E+03  0.48394306820E+03  0.12500000000E+03 0.  0.
</event>
<event>
 5    0  0.5648525E-005  0.3413744E+03  0.7546771E-02  0.1066212E+00
         21   -1    0    0  502  501  0.00000000000E+00  0.00000000000E+00  0.34528661775E+03  0.34528661775E+03  0.00000000000E+00 0. -1.
         21   -1    0    0  501  502 -0.00000000000E+00 -0.00000000000E+00 -0.33750655071E+03  0.33750655071E+03  0.00000000000E+00 0. -1.
         25    1    1    2    0    0 -0.83225374332E+02  0.19833527296E+03  0.34679833082E+02  0.25117928708E+03  0.12500000000E+03 0.  0.
         25    1    1    2    0    0 -0.84212541165E+02 -0.88334023325E+02  0.52612781478E+02  0.18244932595E+03  0.12500000000E+03 0.  0.
         25    1    1    2    0    0  0.16743791550E+03 -0.11000124964E+03 -0.79512547516E+02  0.24916455543E+03  0.12500000000E+03 0.  0.
</event>
<event>
 5    0  0.5648525E-005  0.5111827E+03  0.7546771E-02  0.1010901E+00
         21   -1    0    0  502  501  0.00000000000E+00  0.00000000000E+00  0.32766909503E+03  0.32766909503E+03  0.00000000000E+00 0.  1.
         21   -1    0    0  501  502 -0.00000000000E+00 -0.00000000000E+00 -0.79747439558E+03  0.79747439558E+03  0.00000000000E+00 0.  1.
         25    1    1    2    0    0  0.84705638358E+02  0.39045435746E+00 -0.22826700783E+03  0.27368964995E+03  0.12500000000E+03 0.  0.
         25    1    1    2    0    0 -0.87355472812E+02 -0.36382712046E+03 -0.24996344901E+03  0.46702021161E+03  0.12500000000E+03 0.  0.
         25    1    1    2    0    0  0.26498344542E+01  0.36343666610E+03  0.84251562831E+01  0.38443362905E+03  0.12500000000E+03 0.  0.
</event>
<event>
 5    0  0.5648525E-005  0.3489830E+03  0.7546771E-02  0.1063033E+00
         21   -1    0    0  502  501  0.00000000000E+00  0.00000000000E+00  0.32096472659E+03  0.32096472659E+03  0.00000000000E+00 0. -1.
         21   -1    0    0  501  502 -0.00000000000E+00 -0.00000000000E+00 -0.37944715015E+03  0.37944715015E+03  0.00000000000E+00 0. -1.
         25    1    1    2    0    0  0.77622431949E+02  0.13390328284E+03 -0.19044674117E+03  0.27540931778E+03  0.12500000000E+03 0.  0.
         25    1    1    2    0    0 -0.79638174796E+02  0.25335013751E+02  0.16121264556E+03  0.22045094442E+03  0.12500000000E+03 0.  0.
         25    1    1    2    0    0  0.20157428475E+01 -0.15923829659E+03 -0.29248327948E+02  0.20455161453E+03  0.12500000000E+03 0.  0.
</event>
<event>
 5    0  0.5648525E-005  0.4138216E+03  0.7546771E-02  0.1039096E+00
         21   -1    0    0  502  501  0.00000000000E+00  0.00000000000E+00  0.32381772241E+03  0.32381772241E+03  0.00000000000E+00 0. -1.
         21   -1    0    0  501  502 -0.00000000000E+00 -0.00000000000E+00 -0.52884170582E+03  0.52884170582E+03  0.00000000000E+00 0. -1.
         25    1    1    2    0    0  0.13976003290E+03  0.68416563993E+02 -0.23848817877E+03  0.31099084301E+03  0.12500000000E+03 0.  0.
         25    1    1    2    0    0  0.12487740255E+03 -0.27597074191E+02 -0.11332138743E+03  0.21171372421E+03  0.12500000000E+03 0.  0.
         25    1    1    2    0    0 -0.26463743545E+03 -0.40819489802E+02  0.14678558279E+03  0.32995486101E+03  0.12500000000E+03 0.  0.
</event>
<event>
 5    0  0.5648525E-005  0.2921025E+03  0.7546771E-02  0.1089257E+00
         21   -1    0    0  502  501  0.00000000000E+00  0.00000000000E+00  0.39389496850E+03  0.39389496850E+03  0.00000000000E+00 0. -1.
         21   -1    0    0  501  502 -0.00000000000E+00 -0.00000000000E+00 -0.21661575623E+03  0.21661575623E+03  0.00000000000E+00 0. -1.
         25    1    1    2    0    0 -0.14989740088E+03 -0.24281338289E+02  0.16320817204E+03  0.25557918851E+03  0.12500000000E+03 0.  0.
         25    1    1    2    0    0  0.26320539599E+02  0.60903459414E+02 -0.68597871742E+02  0.15726623980E+03  0.12500000000E+03 0.  0.
         25    1    1    2    0    0  0.12357686128E+03 -0.36622121125E+02  0.82668911975E+02  0.19766529641E+03  0.12500000000E+03 0.  0.
</event>
<event>
 5    0  0.5648525E-005  0.3222875E+03  0.7546771E-02  0.1074601E+00
         21   -1    0    0  502  501  0.00000000000E+00  0.00000000000E+00  0.15614960500E+04  0.15614960500E+04  0.00000000000E+00 0. -1.
         21   -1    0    0  501  502 -0.00000000000E+00 -0.00000000000E+00 -0.66519060077E+02  0.66519060077E+02  0.00000000000E+00 0. -1.
         25    1    1    2    0    0  0.42753148299E+02 -0.89871363219E+02  0.72558079929E+03  0.74296513371E+03  0.12500000000E+03 0.  0.
         25    1    1    2    0    0  0.12537632062E+02 -0.11802282947E+03  0.20229932180E+03  0.26577546180E+03  0.12500000000E+03 0.  0.
         25    1    1    2    0    0 -0.55290780361E+02  0.20789419269E+03  0.56709686881E+03  0.61927451454E+03  0.12500000000E+03 0.  0.
</event>
<event>
 5    0  0.5648525E-005  0.2373209E+03  0.7546771E-02  0.1121591E+00
         21   -1    0    0  502  501  0.00000000000E+00  0.00000000000E+00  0.58457485838E+03  0.58457485838E+03  0.00000000000E+00 0. -1.
         21   -1    0    0  501  502 -0.00000000000E+00 -0.00000000000E+00 -0.96345614505E+02  0.96345614505E+02  0.00000000000E+00 0. -1.
         25    1    1    2    0    0  0.31126562657E+02  0.11159329939E+02  0.29625831702E+03  0.32324508341E+03  0.12500000000E+03 0.  0.
         25    1    1    2    0    0  0.63969233711E+02 -0.47758605770E+01  0.12009382001E+03  0.18483072610E+03  0.12500000000E+03 0.  0.
         25    1    1    2    0    0 -0.95095796368E+02 -0.63834693624E+01  0.71877106844E+02  0.17284466337E+03  0.12500000000E+03 0.  0.
</event>
<event>
 5    0  0.5648525E-005  0.5523425E+03  0.7546771E-02  0.1000953E+00
         21   -1    0    0  502  501  0.00000000000E+00  0.00000000000E+00  0.19486666830E+03  0.19486666830E+03  0.00000000000E+00 0.  1.
         21   -1    0    0  501  502 -0.00000000000E+00 -0.00000000000E+00 -0.15655949646E+04  0.15655949646E+04  0.00000000000E+00 0.  1.
         25    1    1    2    0    0  0.14411184929E+03 -0.29762941280E+03 -0.46641150638E+03  0.58524882379E+03  0.12500000000E+03 0.  0.
         25    1    1    2    0    0 -0.30080587968E+03  0.38670330772E+03 -0.75937918340E+03  0.91230771653E+03  0.12500000000E+03 0.  0.
         25    1    1    2    0    0  0.15669403039E+03 -0.89073894927E+02 -0.14493760651E+03  0.26290509257E+03  0.12500000000E+03 0.  0.
</event>
<event>
 5    0  0.5648525E-005  0.3262183E+03  0.7546771E-02  0.1072823E+00
         21   -1    0    0  502  501  0.00000000000E+00  0.00000000000E+00  0.13866008495E+04  0.13866008495E+04  0.00000000000E+00 0.  1.
         21   -1    0    0  501  502 -0.00000000000E+00 -0.00000000000E+00 -0.76747654917E+02  0.76747654917E+02  0.00000000000E+00 0.  1.
         25    1    1    2    0    0  0.20241323388E+03  0.32083028962E+02  0.51868046660E+03  0.57153728175E+03  0.12500000000E+03 0.  0.
         25    1    1    2    0    0 -0.11514924629E+03 -0.86860672214E+02  0.19044657315E+03  0.26962756262E+03  0.12500000000E+03 0.  0.
         25    1    1    2    0    0 -0.87263987589E+02  0.54777643253E+02  0.60072615480E+03  0.62218366001E+03  0.12500000000E+03 0.  0.
</event>
<event>
 5    0  0.5648525E-005  0.2596875E+03  0.7546771E-02  0.1107331E+00
         21   -1    0    0  502  501  0.00000000000E+00  0.00000000000E+00  0.14017930195E+03  0.14017930195E+03  0.00000000000E+00 0. -1.
         21   -1    0    0  501  502 -0.00000000000E+00 -0.00000000000E+00 -0.48108108431E+03  0.48108108431E+03  0.00000000000E+00 0. -1.
         25    1    1    2    0    0 -0.12587883273E+03 -0.50402427578E+02 -0.17587771060E+03  0.25484084116E+03  0.12500000000E+03 0.  0.
         25    1    1    2    0    0  0.76678468310E+02  0.10564913266E+02 -0.17182031786E+03  0.22613806961E+03  0.12500000000E+03 0.  0.
         25    1    1    2    0    0  0.49200364421E+02  0.39837514312E+02  0.67962461036E+01  0.14028147549E+03  0.12500000000E+03 0.  0.
</event>
<event>
 5    0  0.5648525E-005  0.3402090E+03  0.7546771E-02  0.1066707E+00
         21   -1    0    0  502  501  0.00000000000E+00  0.00000000000E+00  0.11286857083E+03  0.11286857083E+03  0.00000000000E+00 0. -1.
         21   -1    0    0  501  502 -0.00000000000E+00 -0.00000000000E+00 -0.10254599250E+04  0.10254599250E+04  0.00000000000E+00 0. -1.
         25    1    1    2    0    0 -0.74560972307E+02 -0.86460012806E+02 -0.77556583479E+02  0.18621142835E+03  0.12500000000E+03 0.  0.
         25    1    1    2    0    0  0.39903750291E+02  0.20341243386E+03 -0.27937033714E+03  0.36965079847E+03  0.12500000000E+03 0.  0.
         25    1    1    2    0    0  0.34657222016E+02 -0.11695242105E+03 -0.55566443355E+03  0.58246626902E+03  0.12500000000E+03 0.  0.
</event>
<event>
 5    0  0.5648525E-005  0.2728709E+03  0.7546771E-02  0.1099648E+00
         21   -1    0    0  502  501  0.00000000000E+00  0.00000000000E+00  0.53341079937E+03  0.53341079937E+03  0.00000000000E+00 0.  1.
         21   -1    0    0  501  502 -0.00000000000E+00 -0.00000000000E+00 -0.13958947448E+03  0.13958947448E+03  0.00000000000E+00 0.  1.
         25    1    1    2    0    0 -0.11938732888E+03 -0.11939030591E+03  0.79009571521E+02  0.22444351591E+03  0.12500000000E+03 0.  0.
         25    1    1    2    0    0  0.48725759169E+01  0.67520072749E+02  0.13483546249E+03  0.19592933462E+03  0.12500000000E+03 0.  0.
         25    1    1    2    0    0  0.11451475296E+03  0.51870233163E+02  0.17997629087E+03  0.25262742332E+03  0.12500000000E+03 0.  0.
</event>
<event>
 5    0  0.5648525E-005  0.3027295E+03  0.7546771E-02  0.1083884E+00
         21   -1    0    0  502  501  0.00000000000E+00  0.00000000000E+00  0.56489073887E+03  0.56489073887E+03  0.00000000000E+00 0. -1.
         21   -1    0    0  501  502 -0.00000000000E+00 -0.00000000000E+00 -0.16223521494E+03  0.16223521494E+03  0.00000000000E+00 0. -1.
         25    1    1    2    0    0 -0.84500689773E+02  0.94951166985E+02  0.25549887772E+03  0.31154577063E+03  0.12500000000E+03 0.  0.
         25    1    1    2    0    0  0.17623602840E+03 -0.75441915752E+02  0.11462425391E+03  0.25595769170E+03  0.12500000000E+03 0.  0.
         25    1    1    2    0    0 -0.91735338626E+02 -0.19509251233E+02  0.32532392302E+02  0.15962249148E+03  0.12500000000E+03 0.  0.
</event>
<event>
 5    0  0.5648525E-005  0.2218919E+03  0.7546771E-02  0.1132480E+00
         21   -1    0    0  502  501  0.00000000000E+00  0.00000000000E+00  0.16337183572E+03  0.16337183572E+03  0.00000000000E+00 0.  1.
         21   -1    0    0  501  502 -0.00000000000E+00 -0.00000000000E+00 -0.30137391575E+03  0.30137391575E+03  0.00000000000E+00 0.  1.
         25    1    1    2    0    0  0.22808264338E+02  0.29866026100E+02  0.51203694944E+01  0.13062700571E+03  0.12500000000E+03 0.  0.
         25    1    1    2    0    0  0.31633500751E+02  0.29541246367E+02 -0.69355128992E+01  0.13246307012E+03  0.12500000000E+03 0.  0.
         25    1    1    2    0    0 -0.54441765090E+02 -0.59407272466E+02 -0.13618693662E+03  0.20165567563E+03  0.12500000000E+03 0.  0.
</event>
<event>
 5    0  0.5648525E-005  0.2991218E+03  0.7546771E-02  0.1085680E+00
         21   -1    0    0  502  501  0.00000000000E+00  0.00000000000E+00  0.53435175521E+03  0.53435175521E+03  0.00000000000E+00 0. -1.
         21   -1    0    0  501  502 -0.00000000000E+00 -0.00000000000E+00 -0.16744375148E+03  0.16744375148E+03  0.00000000000E+00 0. -1.
         25    1    1    2    0    0  0.10173531050E+03 -0.13670775468E+01  0.30058914661E+02  0.16395267809E+03  0.12500000000E+03 0.  0.
         25    1    1    2    0    0 -0.44918504052E+02  0.16099929335E+03  0.16537998390E+03  0.26629679596E+03  0.12500000000E+03 0.  0.
         25    1    1    2    0    0 -0.56816806445E+02 -0.15963221580E+03  0.17146910517E+03  0.27154603264E+03  0.12500000000E+03 0.  0.
</event>
<event>
 5    0  0.5648525E-005  0.3201782E+03  0.7546771E-02  0.1075567E+00
         21   -1    0    0  502  501  0.00000000000E+00  0.00000000000E+00  0.39573736262E+03  0.39573736262E+03  0.00000000000E+00 0.  1.
         21   -1    0    0  501  502 -0.00000000000E+00 -0.00000000000E+00 -0.25904576631E+03  0.25904576631E+03  0.00000000000E+00 0.  1.
         25    1    1    2    0    0  0.13719758469E+03 -0.68115933006E+02  0.22599351804E+03  0.30026825968E+03  0.12500000000E+03 0.  0.
         25    1    1    2    0    0 -0.85228468663E+02 -0.53008651691E+02 -0.56190702831E+02  0.16987113972E+03  0.12500000000E+03 0.  0.
         25    1    1    2    0    0 -0.51969116027E+02  0.12112458470E+03 -0.33111218902E+02  0.18464372953E+03  0.12500000000E+03 0.  0.
</event>
<event>
 5    0  0.5648525E-005  0.6323408E+03  0.7546771E-02  0.9840492E-01
         21   -1    0    0  502  501  0.00000000000E+00  0.00000000000E+00  0.13829664450E+04  0.13829664450E+04  0.00000000000E+00 0.  1.
         21   -1    0    0  501  502 -0.00000000000E+00 -0.00000000000E+00 -0.28912841209E+03  0.28912841209E+03  0.00000000000E+00 0.  1.
         25    1    1    2    0    0  0.19001132035E+03 -0.20069279078E+02  0.12573696150E+04  0.12779320899E+04  0.12500000000E+03 0.  0.
         25    1    1    2    0    0 -0.13900739542E+03 -0.44709271092E+02 -0.32011098986E+02  0.19486324785E+03  0.12500000000E+03 0.  0.
         25    1    1    2    0    0 -0.51003924926E+02  0.64778550170E+02 -0.13152048309E+03  0.19929951930E+03  0.12500000000E+03 0.  0.
</event>
<event>
 5    0  0.5648525E-005  0.3978972E+03  0.7546771E-02  0.1044510E+00
         21   -1    0    0  502  501  0.00000000000E+00  0.00000000000E+00  0.69324169405E+03  0.69324169405E+03  0.00000000000E+00 0. -1.
         21   -1    0    0  501  502 -0.00000000000E+00 -0.00000000000E+00 -0.22837949831E+03  0.22837949831E+03  0.00000000000E+00 0. -1.
         25    1    1    2    0    0  0.39365538321E+02 -0.17150242547E+03  0.25440327639E+03  0.33362966683E+03  0.12500000000E+03 0.  0.
         25    1    1    2    0    0  0.64243181755E+02  0.15114410485E+03  0.32729291363E+03  0.38693329935E+03  0.12500000000E+03 0.  0.
         25    1    1    2    0    0 -0.10360872008E+03  0.20358320618E+02 -0.11683399428E+03  0.20105822618E+03  0.12500000000E+03 0.  0.
</event>
<event>
 5    0  0.5648525E-005  0.2495267E+03  0.7546771E-02  0.1113604E+00
         21   -1    0    0  502  501  0.00000000000E+00  0.00000000000E+00  0.16030492298E+04  0.16030492298E+04  0.00000000000E+00 0. -1.
         21   -1    0    0  501  502 -0.00000000000E+00 -0.00000000000E+00 -0.38840698383E+02  0.38840698383E+02  0.00000000000E+00 0. -1.
         25    1    1    2    0    0 -0.56507067262E+02 -0.61688838289E+02  0.40350082657E+03  0.43062336033E+03  0.12500000000E+03 0.  0.
         25    1    1    2    0    0  0.54515523618E+02 -0.51279244896E+02  0.29153932456E+03  0.32591667806E+03  0.12500000000E+03 0.  0.
         25    1    1    2    0    0  0.19915436447E+01  0.11296808318E+03  0.86916838030E+03  0.88534988980E+03  0.12500000000E+03 0.  0.
</event>
<event>
 5    0  0.5648525E-005  0.3406673E+03  0.7546771E-02  0.1066512E+00
         21   -1    0    0  502  501  0.00000000000E+00  0.00000000000E+00  0.21102974349E+04  0.21102974349E+04  0.00000000000E+00 0.  1.
         21   -1    0    0  501  502 -0.00000000000E+00 -0.00000000000E+00 -0.54994248326E+02  0.54994248326E+02  0.00000000000E+00 0.  1.
         25    1    1    2    0    0 -0.49255810070E+02  0.12892853001E+03  0.31218555220E+03  0.36350174646E+03  0.12500000000E+03 0.  0.
         25    1    1    2    0    0  0.19184227601E+03 -0.89027056478E+02  0.12065012385E+04  0.12312593204E+04  0.12500000000E+03 0.  0.
         25    1    1    2    0    0 -0.14258646594E+03 -0.39901473528E+02  0.53661639591E+03  0.57053061638E+03  0.12500000000E+03 0.  0.
</event>
<event>
 5    0  0.5648525E-005  0.3304321E+03  0.7546771E-02  0.1070946E+00
         21   -1    0    0  502  501  0.00000000000E+00  0.00000000000E+00  0.47337470083E+03  0.47337470083E+03  0.00000000000E+00 0.  1.
         21   -1    0    0  501  502 -0.00000000000E+00 -0.00000000000E+00 -0.23065313181E+03  0.23065313181E+03  0.00000000000E+00 0.  1.
         25    1    1    2    0    0  0.18369285848E+02  0.38723471478E+02 -0.16118609093E+02  0.13312305384E+03  0.12500000000E+03 0.  0.
         25    1    1    2    0    0  0.47693939977E+02  0.32743721162E+02 -0.10557441146E+03  0.17354486319E+03  0.12500000000E+03 0.  0.
         25    1    1    2    0    0 -0.66063225825E+02 -0.71467192639E+02  0.36441458957E+03  0.39735991560E+03  0.12500000000E+03 0.  0.
</event>
<event>
 5    0  0.5648525E-005  0.2958436E+03  0.7546771E-02  0.1087337E+00
         21   -1    0    0  502  501  0.00000000000E+00  0.00000000000E+00  0.47248549487E+03  0.47248549487E+03  0.00000000000E+00 0.  1.
         21   -1    0    0  501  502 -0.00000000000E+00 -0.00000000000E+00 -0.18524047451E+03  0.18524047451E+03  0.00000000000E+00 0.  1.
         25    1    1    2    0    0 -0.84081426437E+02 -0.83992371910E+02  0.12878932593E+03  0.21525820608E+03  0.12500000000E+03 0.  0.
         25    1    1    2    0    0  0.19621438307E+03  0.28288303459E+02  0.69555650481E+02  0.24446533650E+03  0.12500000000E+03 0.  0.
         25    1    1    2    0    0 -0.11213295663E+03  0.55704068450E+02  0.88900043960E+02  0.19800242680E+03  0.12500000000E+03 0.  0.
</event>
<event>
 5    0  0.5648525E-005  0.2632723E+03  0.7546771E-02  0.1105193E+00
         21   -1    0    0  502  501  0.00000000000E+00  0.00000000000E+00  0.46803620740E+03  0.46803620740E+03  0.00000000000E+00 0.  1.
         21   -1    0    0  501  502 -0.00000000000E+00 -0.00000000000E+00 -0.14809171968E+03  0.14809171968E+03  0.00000000000E+00 0.  1.
         25    1    1    2    0    0  0.13720324673E+02  0.11177829011E+03  0.67280163536E+02  0.18120224572E+03  0.12500000000E+03 0.  0.
         25    1    1    2    0    0 -0.10430881678E+03 -0.10630257315E+03  0.10384519553E+03  0.22043001372E+03  0.12500000000E+03 0.  0.
         25    1    1    2    0    0  0.90588492102E+02 -0.54757169655E+01  0.14881912866E+03  0.21449566763E+03  0.12500000000E+03 0.  0.
</event>
<event>
 5    0  0.5911091E-005  0.3635717E+03  0.7546771E-02  0.1057179E+00
         21   -1    0    0  502  501  0.00000000000E+00  0.00000000000E+00  0.11384795649E+03  0.11384795649E+03  0.00000000000E+00 0. -1.
         21   -1    0    0  501  502 -0.00000000000E+00 -0.00000000000E+00 -0.11610605987E+04  0.11610605987E+04  0.00000000000E+00 0. -1.
         25    1    1    2    0    0 -0.89553055056E+02 -0.92669524429E+02 -0.22922203336E+02  0.18099120927E+03  0.12500000000E+03 0.  0.
         25    1    1    2    0    0  0.16193690718E+03  0.53423014333E+02 -0.40585001305E+03  0.45762081842E+03  0.12500000000E+03 0.  0.
         25    1    1    2    0    0 -0.72383852121E+02  0.39246510096E+02 -0.61844042586E+03  0.63629652753E+03  0.12500000000E+03 0.  0.
</event>
<event>
 5    0  0.5648525E-005  0.3573613E+03  0.7546771E-02  0.1059634E+00
         21   -1    0    0  502  501  0.00000000000E+00  0.00000000000E+00  0.14490841606E+03  0.14490841606E+03  0.00000000000E+00 0. -1.
         21   -1    0    0  501  502 -0.00000000000E+00 -0.00000000000E+00 -0.88129502023E+03  0.88129502023E+03  0.00000000000E+00 0. -1.
         25    1    1    2    0    0  0.42258636870E+02 -0.16201193388E+03 -0.51323084978E+03  0.55413406706E+03  0.12500000000E+03 0.  0.
         25    1    1    2    0    0 -0.19148366893E+01  0.20527597481E+03 -0.41723522811E+02  0.24394209311E+03  0.12500000000E+03 0.  0.
         25    1    1    2    0    0 -0.40343800181E+02 -0.43264040930E+02 -0.18143223158E+03  0.22812727611E+03  0.12500000000E+03 0.  0.
</event>
<event>
 5    0  0.5648525E-005  0.3076364E+03  0.7546771E-02  0.1081484E+00
         21   -1    0    0  502  501  0.00000000000E+00  0.00000000000E+00  0.22751279894E+03  0.22751279894E+03  0.00000000000E+00 0.  1.
         21   -1    0    0  501  502 -0.00000000000E+00 -0.00000000000E+00 -0.41597727030E+03  0.41597727030E+03  0.00000000000E+00 0.  1.
         25    1    1    2    0    0  0.67747652250E+02 -0.77881703845E+02  0.56405159159E+01  0.16221010942E+03  0.12500000000E+03 0.  0.
         25    1    1    2    0    0 -0.20074792159E+03  0.74823582950E+02 -0.16112436350E+03  0.29577754664E+03  0.12500000000E+03 0.  0.
         25    1    1    2    0    0  0.13300026934E+03  0.30581208956E+01 -0.32980623777E+02  0.18550241317E+03  0.12500000000E+03 0.  0.
</event>
<event>
 5    0  0.5648525E-005  0.2996404E+03  0.7546771E-02  0.1085420E+00
         21   -1    0    0  502  501  0.00000000000E+00  0.00000000000E+00  0.17958334263E+03  0.17958334263E+03  0.00000000000E+00 0.  1.
         21   -1    0    0  501  502 -0.00000000000E+00 -0.00000000000E+00 -0.49995944396E+03  0.49995944396E+03  0.00000000000E+00 0.  1.
         25    1    1    2    0    0  0.86465338905E+02 -0.40117895331E+02 -0.52081540242E+02  0.16559947823E+03  0.12500000000E+03 0.  0.
         25    1    1    2    0    0 -0.15064072856E+03  0.14747965117E+02  0.14819021241E+02  0.19686222331E+03  0.12500000000E+03 0.  0.
         25    1    1    2    0    0  0.64175389655E+02  0.25369930214E+02 -0.28311358232E+03  0.31708108504E+03  0.12500000000E+03 0.  0.
</event>
<event>
 5    0  0.5648525E-005  0.3998424E+03  0.7546771E-02  0.1043834E+00
         21   -1    0    0  502  501  0.00000000000E+00  0.00000000000E+00  0.63744358247E+03  0.63744358247E+03  0.00000000000E+00 0. -1.
         21   -1    0    0  501  502 -0.00000000000E+00 -0.00000000000E+00 -0.25080490128E+03  0.25080490128E+03  0.00000000000E+00 0. -1.
         25    1    1    2    0    0  0.17294157242E+03 -0.43591141837E+02  0.24047339819E+03  0.32444017994E+03  0.12500000000E+03 0.  0.
         25    1    1    2    0    0  0.12901251810E+03  0.10750267941E+03  0.31955418068E+02  0.21177158603E+03  0.12500000000E+03 0.  0.
         25    1    1    2    0    0 -0.30195409052E+03 -0.63911537576E+02  0.11420986493E+03  0.35203671778E+03  0.12500000000E+03 0.  0.
</event>
<event>
 5    0  0.5648525E-005  0.2504051E+03  0.7546771E-02  0.1113049E+00
         21   -1    0    0  502  501  0.00000000000E+00  0.00000000000E+00  0.23416190022E+03  0.23416190022E+03  0.00000000000E+00 0. -1.
         21   -1    0    0  501  502 -0.00000000000E+00 -0.00000000000E+00 -0.26777502721E+03  0.26777502721E+03  0.00000000000E+00 0. -1.
         25    1    1    2    0    0  0.70588447753E+02  0.24870762069E+01  0.28356638923E+02  0.14634894422E+03  0.12500000000E+03 0.  0.
         25    1    1    2    0    0  0.79590698706E+02 -0.28786918962E+02 -0.45881801476E+02  0.15777675916E+03  0.12500000000E+03 0.  0.
         25    1    1    2    0    0 -0.15017914646E+03  0.26299842755E+02 -0.16087964445E+02  0.19781122405E+03  0.12500000000E+03 0.  0.
</event>
<event>
 5    0  0.5648525E-005  0.2884382E+03  0.7546771E-02  0.1091167E+00
         21   -1    0    0  502  501  0.00000000000E+00  0.00000000000E+00  0.13037400327E+04  0.13037400327E+04  0.00000000000E+00 0. -1.
         21   -1    0    0  501  502 -0.00000000000E+00 -0.00000000000E+00 -0.63813805910E+02  0.63813805910E+02  0.00000000000E+00 0. -1.
         25    1    1    2    0    0 -0.68568964011E+02 -0.54973397204E+01  0.74762031521E+03  0.76111303975E+03  0.12500000000E+03 0.  0.
         25    1    1    2    0    0  0.78097795223E+02  0.11444253669E+03  0.23313861873E+03  0.29862179319E+03  0.12500000000E+03 0.  0.
         25    1    1    2    0    0 -0.95288312127E+01 -0.10894519697E+03  0.25916729284E+03  0.30781900566E+03  0.12500000000E+03 0.  0.
</event>
<event>
 5    0  0.5648525E-005  0.2776885E+03  0.7546771E-02  0.1096958E+00
         21   -1    0    0  502  501  0.00000000000E+00  0.00000000000E+00  0.17425577119E+03  0.17425577119E+03  0.00000000000E+00 0. -1.
         21   -1    0    0  501  502 -0.00000000000E+00 -0.00000000000E+00 -0.44251551927E+03  0.44251551927E+03  0.00000000000E+00 0. -1.
         25    1    1    2    0    0  0.23892040890E+02 -0.46421198126E+02 -0.31834596589E+03  0.34596952359E+03  0.12500000000E+03 0.  0.
         25    1    1    2    0    0 -0.14072142495E+02  0.51645672366E+00  0.54766491953E+02  0.13719570169E+03  0.12500000000E+03 0.  0.
         25    1    1    2    0    0 -0.98198983950E+01  0.45904741403E+02 -0.46802741416E+01  0.13360606518E+03  0.12500000000E+03 0.  0.
</event>
<event>
 5    0  0.5648525E-005  0.2959316E+03  0.7546771E-02  0.1087292E+00
         21   -1    0    0  502  501  0.00000000000E+00  0.00000000000E+00  0.52375122037E+02  0.52375122037E+02  0.00000000000E+00 0.  1.
         21   -1    0    0  501  502 -0.00000000000E+00 -0.00000000000E+00 -0.16720826444E+04  0.16720826444E+04  0.00000000000E+00 0.  1.
         25    1    1    2    0    0  0.82207089695E+02 -0.26517653427E+02 -0.34311430716E+03  0.37525140815E+03  0.12500000000E+03 0.  0.
         25    1    1    2    0    0 -0.13020134016E+03 -0.35902747072E+02 -0.11157066393E+04  0.11307818982E+04  0.12500000000E+03 0.  0.
         25    1    1    2    0    0  0.47994250466E+02  0.62420400499E+02 -0.16088657589E+03  0.21842446012E+03  0.12500000000E+03 0.  0.
</event>
<event>
 5    0  0.5648525E-005  0.2664944E+03  0.7546771E-02  0.1103303E+00
         21   -1    0    0  502  501  0.00000000000E+00  0.00000000000E+00  0.36017802884E+03  0.36017802884E+03  0.00000000000E+00 0. -1.
         21   -1    0    0  501  502 -0.00000000000E+00 -0.00000000000E+00 -0.19717823381E+03  0.19717823381E+03  0.00000000000E+00 0. -1.
         25    1    1    2    0    0  0.63471861896E+02  0.71627653253E+02  0.38656074927E+02  0.16210641595E+03  0.12500000000E+03 0.  0.
         25    1    1    2    0    0  0.80978685732E+02  0.25507382251E+02  0.96140109316E+02  0.17909800309E+03  0.12500000000E+03 0.  0.
         25    1    1    2    0    0 -0.14445054763E+03 -0.97135035504E+02  0.28203610792E+02  0.21615184361E+03  0.12500000000E+03 0.  0.
</event>
<event>
 5    0  0.5648525E-005  0.2857470E+03  0.7546771E-02  0.1092591E+00
         21   -1    0    0  502  501  0.00000000000E+00  0.00000000000E+00  0.52491431185E+03  0.52491431185E+03  0.00000000000E+00 0.  1.
         21   -1    0    0  501  502 -0.00000000000E+00 -0.00000000000E+00 -0.15555177709E+03  0.15555177709E+03  0.00000000000E+00 0.  1.
         25    1    1    2    0    0 -0.36540645956E+02  0.89776846113E+00  0.25259422712E+02  0.13266146099E+03  0.12500000000E+03 0.  0.
         25    1    1    2    0    0  0.10883260962E+03  0.12274311086E+03  0.77402175416E+02  0.22028732360E+03  0.12500000000E+03 0.  0.
         25    1    1    2    0    0 -0.72291963660E+02 -0.12364087933E+03  0.26670093664E+03  0.32751730436E+03  0.12500000000E+03 0.  0.
</event>
<event>
 5    0  0.5648525E-005  0.4122125E+03  0.7546771E-02  0.1039631E+00
         21   -1    0    0  502  501  0.00000000000E+00  0.00000000000E+00  0.12706186061E+04  0.12706186061E+04  0.00000000000E+00 0.  1.
         21   -1    0    0  501  502 -0.00000000000E+00 -0.00000000000E+00 -0.13372949297E+03  0.13372949297E+03  0.00000000000E+00 0.  1.
         25    1    1    2    0    0 -0.21667192154E+03 -0.21079449362E+03  0.22065782513E+03  0.39458321798E+03  0.12500000000E+03 0.  0.
         25    1    1    2    0    0  0.15976437688E+03  0.19528141544E+03  0.68125146252E+03  0.73714858918E+03  0.12500000000E+03 0.  0.
         25    1    1    2    0    0  0.56907544665E+02  0.15513078176E+02  0.23497982545E+03  0.27261629189E+03  0.12500000000E+03 0.  0.
</event>
<event>
 5    0  0.5648525E-005  0.2793694E+03  0.7546771E-02  0.1096034E+00
         21   -1    0    0  502  501  0.00000000000E+00  0.00000000000E+00  0.91593661851E+03  0.91593661851E+03  0.00000000000E+00 0.  1.
         21   -1    0    0  501  502 -0.00000000000E+00 -0.00000000000E+00 -0.85210315223E+02  0.85210315223E+02  0.00000000000E+00 0.  1.
         25    1    1    2    0    0 -0.57387864245E+02  0.79574665596E+02  0.52954732932E+03  0.55287509290E+03  0.12500000000E+03 0.  0.
         25    1    1    2    0    0  0.11385647158E+03  0.26706957583E+01  0.12471399500E+03  0.21011665637E+03  0.12500000000E+03 0.  0.
         25    1    1    2    0    0 -0.56468607336E+02 -0.82245361355E+02  0.17646497897E+03  0.23815518445E+03  0.12500000000E+03 0.  0.
</event>
<event>
 5    0  0.5648525E-005  0.2131266E+03  0.7546771E-02  0.1139114E+00
         21   -1    0    0  502  501  0.00000000000E+00  0.00000000000E+00  0.75444947081E+02  0.75444947081E+02  0.00000000000E+00 0.  1.
         21   -1    0    0  501  502 -0.00000000000E+00 -0.00000000000E+00 -0.60206773814E+03  0.60206773814E+03  0.00000000000E+00 0.  1.
         25    1    1    2    0    0 -0.50431708521E+02  0.24516985472E+02 -0.25025151582E+03  0.28529854709E+03  0.12500000000E+03 0.  0.
         25    1    1    2    0    0 -0.29433068382E+02 -0.15931337198E+02 -0.11939064540E+03  0.17606600816E+03  0.12500000000E+03 0.  0.
         25    1    1    2    0    0  0.79864776903E+02 -0.85856482733E+01 -0.15698062983E+03  0.21614812997E+03  0.12500000000E+03 0.  0.
</event>
<event>
 5    0  0.5648525E-005  0.4380172E+03  0.7546771E-02  0.1031357E+00
         21   -1    0    0  502  501  0.00000000000E+00  0.00000000000E+00  0.10656274493E+04  0.10656274493E+04  0.00000000000E+00 0. -1.
         21   -1    0    0  501  502 -0.00000000000E+00 -0.00000000000E+00 -0.18004328161E+03  0.18004328161E+03  0.00000000000E+00 0. -1.
         25    1    1    2    0    0  0.25499858509E+03  0.11026297846E+03  0.14636482242E+03  0.33797908819E+03  0.12500000000E+03 0.  0.
         25    1    1    2    0    0 -0.14700808434E+03 -0.17742874647E+03  0.66452275093E+03  0.71435832986E+03  0.12500000000E+03 0.  0.
         25    1    1    2    0    0 -0.10799050075E+03  0.67165768015E+02  0.74696594295E+02  0.19333331281E+03  0.12500000000E+03 0.  0.
</event>
<event>
 5    0  0.6296507E-005  0.3471113E+03  0.7546771E-02  0.1063807E+00
         21   -1    0    0  502  501  0.00000000000E+00  0.00000000000E+00  0.46288125835E+03  0.46288125835E+03  0.00000000000E+00 0. -1.
         21   -1    0    0  501  502 -0.00000000000E+00 -0.00000000000E+00 -0.26029629784E+03  0.26029629784E+03  0.00000000000E+00 0. -1.
         25    1    1    2    0    0 -0.77534519184E+02  0.12501739081E+02  0.23554972337E+03  0.27798663156E+03  0.12500000000E+03 0.  0.
         25    1    1    2    0    0  0.48726781259E+02  0.14052682639E+03 -0.11892375108E+03  0.22779364942E+03  0.12500000000E+03 0.  0.
         25    1    1    2    0    0  0.28807737926E+02 -0.15302856547E+03  0.85958988214E+02  0.21739727521E+03  0.12500000000E+03 0.  0.
</event>
<event>
 5    0  0.5648525E-005  0.3150422E+03  0.7546771E-02  0.1077954E+00
         21   -1    0    0  502  501  0.00000000000E+00  0.00000000000E+00  0.79032285777E+02  0.79032285777E+02  0.00000000000E+00 0. -1.
         21   -1    0    0  501  502 -0.00000000000E+00 -0.00000000000E+00 -0.12558356067E+04  0.12558356067E+04  0.00000000000E+00 0. -1.
         25    1    1    2    0    0  0.15604109301E+03  0.70184514542E+02 -0.31822380932E+03  0.38231672944E+03  0.12500000000E+03 0.  0.
         25    1    1    2    0    0 -0.52550966312E+02 -0.10799218439E+03 -0.16529284652E+03  0.23952169225E+03  0.12500000000E+03 0.  0.
         25    1    1    2    0    0 -0.10349012670E+03  0.37807669849E+02 -0.69328666510E+03  0.71302947080E+03  0.12500000000E+03 0.  0.
</event>
<event>
 5    0  0.5648525E-005  0.4648370E+03  0.7546771E-02  0.1023388E+00
         21   -1    0    0  502  501  0.00000000000E+00  0.00000000000E+00  0.32375224983E+03  0.32375224983E+03  0.00000000000E+00 0. -1.
         21   -1    0    0  501  502 -0.00000000000E+00 -0.00000000000E+00 -0.66740372654E+03  0.66740372654E+03  0.00000000000E+00 0. -1.
         25    1    1    2    0    0  0.25784021212E+03 -0.23513195557E+03  0.80211780875E+02  0.37924601687E+03  0.12500000000E+03 0.  0.
         25    1    1    2    0    0 -0.89674658680E+02  0.66529271464E+02 -0.12009730983E+03  0.20619420991E+03  0.12500000000E+03 0.  0.
         25    1    1    2    0    0 -0.16816555344E+03  0.16860268411E+03 -0.30376594776E+03  0.40571574959E+03  0.12500000000E+03 0.  0.
</event>
<event>
 5    0  0.5648525E-005  0.3240193E+03  0.7546771E-02  0.1073814E+00
         21   -1    0    0  502  501  0.00000000000E+00  0.00000000000E+00  0.76542824639E+02  0.76542824639E+02  0.00000000000E+00 0.  1.
         21   -1    0    0  501  502 -0.00000000000E+00 -0.00000000000E+00 -0.13716309248E+04  0.13716309248E+04  0.00000000000E+00 0.  1.
         25    1    1    2    0    0 -0.39088010392E+02 -0.80453458339E+02 -0.76810525365E+02  0.17182982373E+03  0.12500000000E+03 0.  0.
         25    1    1    2    0    0  0.82638038344E+01  0.58887875925E+02 -0.10694853618E+04  0.10784062368E+04  0.12500000000E+03 0.  0.
         25    1    1    2    0    0  0.30824206557E+02  0.21565582414E+02 -0.14879221296E+03  0.19793768891E+03  0.12500000000E+03 0.  0.
</event>
<event>
 5    0  0.5648525E-005  0.3556422E+03  0.7546771E-02  0.1060323E+00
         21   -1    0    0  502  501  0.00000000000E+00  0.00000000000E+00  0.12357721414E+04  0.12357721414E+04  0.00000000000E+00 0.  1.
         21   -1    0    0  501  502 -0.00000000000E+00 -0.00000000000E+00 -0.10235006536E+03  0.10235006536E+03  0.00000000000E+00 0.  1.
         25    1    1    2    0    0 -0.18840004865E+03  0.20419852767E+02  0.62947427884E+03  0.66915948505E+03  0.12500000000E+03 0.  0.
         25    1    1    2    0    0  0.10852405034E+03  0.37025229005E+02  0.34239213112E+02  0.17304814590E+03  0.12500000000E+03 0.  0.
         25    1    1    2    0    0  0.79875998317E+02 -0.57445081772E+02  0.46970858410E+03  0.49591457581E+03  0.12500000000E+03 0.  0.
</event>
<event>
 5    0  0.5648525E-005  0.2049211E+03  0.7546771E-02  0.1145652E+00
         21   -1    0    0  502  501  0.00000000000E+00  0.00000000000E+00  0.17807418735E+04  0.17807418735E+04  0.00000000000E+00 0.  1.
         21   -1    0    0  501  502 -0.00000000000E+00 -0.00000000000E+00 -0.23581550998E+02  0.23581550998E+02  0.00000000000E+00 0.  1.
         25    1    1    2    0    0  0.20091131582E+02  0.32466448338E+02  0.45847650389E+03  0.47674251799E+03  0.12500000000E+03 0.  0.
         25    1    1    2    0    0  0.26513030696E+02  0.13621353698E+02  0.48440740975E+03  0.50116266889E+03  0.12500000000E+03 0.  0.
         25    1    1    2    0    0 -0.46604162278E+02 -0.46087802036E+02  0.81427640887E+03  0.82641823762E+03  0.12500000000E+03 0.  0.
</event>
<event>
 5    0  0.5648525E-005  0.3365484E+03  0.7546771E-02  0.1068276E+00
         21   -1    0    0  502  501  0.00000000000E+00  0.00000000000E+00  0.59210528800E+03  0.59210528800E+03  0.00000000000E+00 0.  1.
         21   -1    0    0  501  502 -0.00000000000E+00 -0.00000000000E+00 -0.19129166634E+03  0.19129166634E+03  0.00000000000E+00 0.  1.
         25    1    1    2    0    0  0.41265105119E+02  0.15182476520E+03  0.16323683314E+03  0.25889154471E+03  0.12500000000E+03 0.  0.
         25    1    1    2    0    0 -0.12183453189E+03 -0.22067633621E+03  0.22477411586E+03  0.36012511949E+03  0.12500000000E+03 0.  0.
         25    1    1    2    0    0  0.80569426773E+02  0.68851571008E+02  0.12802672666E+02  0.16438029014E+03  0.12500000000E+03 0.  0.
</event>
<event>
 5    0  0.6007528E-005  0.2625361E+03  0.7546771E-02  0.1105629E+00
         21   -1    0    0  502  501  0.00000000000E+00  0.00000000000E+00  0.59042426283E+03  0.59042426283E+03  0.00000000000E+00 0. -1.
         21   -1    0    0  501  502 -0.00000000000E+00 -0.00000000000E+00 -0.11673845598E+03  0.11673845598E+03  0.00000000000E+00 0. -1.
         25    1    1    2    0    0  0.63108328447E+02 -0.14558412272E+03  0.11310804416E+03  0.23150772678E+03  0.12500000000E+03 0.  0.
         25    1    1    2    0    0 -0.74365505817E+01  0.36259507818E+02  0.19546969114E+03  0.23495415371E+03  0.12500000000E+03 0.  0.
         25    1    1    2    0    0 -0.55671777865E+02  0.10932461490E+03  0.16510807156E+03  0.24070083832E+03  0.12500000000E+03 0.  0.
</event>
<event>
 5    0  0.5648525E-005  0.3926050E+03  0.7546771E-02  0.1046371E+00
         21   -1    0    0  502  501  0.00000000000E+00  0.00000000000E+00  0.91628046850E+02  0.91628046850E+02  0.00000000000E+00 0.  1.
         21   -1    0    0  501  502 -0.00000000000E+00 -0.00000000000E+00 -0.16822220841E+04  0.16822220841E+04  0.00000000000E+00 0. -1.
         25    1    1    2    0    0 -0.67057770169E+02 -0.10928973943E+03 -0.35300703943E+03  0.39582819704E+03  0.12500000000E+03 0.  0.
         25    1    1    2    0    0  0.54963557380E+02  0.26861656311E+03 -0.32517286752E+03  0.44332634073E+03  0.12500000000E+03 0.  0.
         25    1    1    2    0    0  0.12094212789E+02 -0.15932682368E+03 -0.91241413029E+03  0.93469559317E+03  0.12500000000E+03 0.  0.
</event>
<event>
 5    0  0.5648525E-005  0.3445038E+03  0.7546771E-02  0.1064894E+00
         21   -1    0    0  502  501  0.00000000000E+00  0.00000000000E+00  0.88422464078E+03  0.88422464078E+03  0.00000000000E+00 0. -1.
         21   -1    0    0  501  502 -0.00000000000E+00 -0.00000000000E+00 -0.13422252894E+03  0.13422252894E+03  0.00000000000E+00 0. -1.
         25    1    1    2    0    0 -0.10975137597E+03 -0.22079931731E+03  0.37297289681E+03  0.46425368583E+03  0.12500000000E+03 0.  0.
         25    1    1    2    0    0 -0.16941327849E+02  0.16848754967E+03  0.13823713718E+03  0.25181256736E+03  0.12500000000E+03 0.  0.
         25    1    1    2    0    0  0.12669270382E+03  0.52311767643E+02  0.23879207786E+03  0.30238091653E+03  0.12500000000E+03 0.  0.
</event>
<event>
 5    0  0.5648525E-005  0.3192667E+03  0.7546771E-02  0.1075987E+00
         21   -1    0    0  502  501  0.00000000000E+00  0.00000000000E+00  0.25130186094E+03  0.25130186094E+03  0.00000000000E+00 0. -1.
         21   -1    0    0  501  502 -0.00000000000E+00 -0.00000000000E+00 -0.40561263259E+03  0.40561263259E+03  0.00000000000E+00 0. -1.
         25    1    1    2    0    0  0.59322273209E+02 -0.48082619126E+01  0.95092044621E+02  0.16795757926E+03  0.12500000000E+03 0.  0.
         25    1    1    2    0    0 -0.15151112767E+03 -0.11127475922E+03 -0.15018297444E+03  0.27114132783E+03  0.12500000000E+03 0.  0.
         25    1    1    2    0    0  0.92188854463E+02  0.11608302113E+03 -0.99219841827E+02  0.21781558644E+03  0.12500000000E+03 0.  0.
</event>
<event>
 5    0  0.5648525E-005  0.2577946E+03  0.7546771E-02  0.1108476E+00
         21   -1    0    0  502  501  0.00000000000E+00  0.00000000000E+00  0.15834186090E+02  0.15834186090E+02  0.00000000000E+00 0.  1.
         21   -1    0    0  501  502 -0.00000000000E+00 -0.00000000000E+00 -0.41971244872E+04  0.41971244872E+04  0.00000000000E+00 0.  1.
         25    1    1    2    0    0  0.13080324643E+03 -0.68496649565E+02 -0.20865174768E+04  0.20954668839E+04  0.12500000000E+03 0.  0.
         25    1    1    2    0    0 -0.10670449148E+03  0.79913947273E+01 -0.96006564028E+03  0.97406403514E+03  0.12500000000E+03 0.  0.
         25    1    1    2    0    0 -0.24098754954E+02  0.60505254838E+02 -0.11347071840E+04  0.11434277543E+04  0.12500000000E+03 0.  0.
</event>
<event>
 5    0  0.5648525E-005  0.5530458E+03  0.7546771E-02  0.1000791E+00
         21   -1    0    0  502  501  0.00000000000E+00  0.00000000000E+00  0.16227402601E+04  0.16227402601E+04  0.00000000000E+00 0. -1.
         21   -1    0    0  501  502 -0.00000000000E+00 -0.00000000000E+00 -0.18848343104E+03  0.18848343104E+03  0.00000000000E+00 0. -1.
         25    1    1    2    0    0  0.33385253780E+03  0.18207680263E+03  0.81999079392E+03  0.91247979768E+03  0.12500000000E+03 0.  0.
         25    1    1    2    0    0 -0.78607557703E+01 -0.18102977869E+03  0.47374054642E+03  0.52238747838E+03  0.12500000000E+03 0.  0.
         25    1    1    2    0    0 -0.32599178203E+03 -0.10470239376E+01  0.14052548876E+03  0.37635641512E+03  0.12500000000E+03 0.  0.
</event>
<event>
 5    0  0.5648525E-005  0.3619846E+03  0.7546771E-02  0.1057801E+00
         21   -1    0    0  502  501  0.00000000000E+00  0.00000000000E+00  0.64367121433E+03  0.64367121433E+03  0.00000000000E+00 0. -1.
         21   -1    0    0  501  502 -0.00000000000E+00 -0.00000000000E+00 -0.20357106118E+03  0.20357106118E+03  0.00000000000E+00 0. -1.
         25    1    1    2    0    0  0.23344309505E+03  0.13707487551E+03  0.12123527848E+03  0.32188226554E+03  0.12500000000E+03 0.  0.
         25    1    1    2    0    0 -0.10896197208E+03  0.29284276617E+02  0.17757295616E+03  0.24471909402E+03  0.12500000000E+03 0.  0.
         25    1    1    2    0    0 -0.12448112297E+03 -0.16635915212E+03  0.14129191851E+03  0.28064091595E+03  0.12500000000E+03 0.  0.
</event>
<event>
 5    0  0.5648525E-005  0.2946322E+03  0.7546771E-02  0.1087955E+00
         21   -1    0    0  502  501  0.00000000000E+00  0.00000000000E+00  0.72745183154E+02  0.72745183154E+02  0.00000000000E+00 0.  1.
         21   -1    0    0  501  502 -0.00000000000E+00 -0.00000000000E+00 -0.11933183079E+04  0.11933183079E+04  0.00000000000E+00 0.  1.
         25    1    1    2    0    0  0.15298140958E+03 -0.11187806044E+03 -0.28850167591E+03  0.36712154539E+03  0.12500000000E+03 0.  0.
         25    1    1    2    0    0 -0.83801508808E+02  0.52244004752E+01 -0.49807429800E+03  0.52033930619E+03  0.12500000000E+03 0.  0.
         25    1    1    2    0    0 -0.69179900768E+02  0.10665365997E+03 -0.33399715088E+03  0.37860263952E+03  0.12500000000E+03 0.  0.
</event>
<event>
 5    0  0.5648525E-005  0.3919780E+03  0.7546771E-02  0.1046593E+00
         21   -1    0    0  502  501  0.00000000000E+00  0.00000000000E+00  0.48463535183E+03  0.48463535183E+03  0.00000000000E+00 0.  1.
         21   -1    0    0  501  502 -0.00000000000E+00 -0.00000000000E+00 -0.31703580323E+03  0.31703580323E+03  0.00000000000E+00 0.  1.
         25    1    1    2    0    0  0.60235704704E+02  0.47194012047E+02  0.11120507049E+02  0.14698394664E+03  0.12500000000E+03 0.  0.
         25    1    1    2    0    0 -0.27629159350E+03 -0.46279995511E+02 -0.73319173943E+02  0.31540384254E+03  0.12500000000E+03 0.  0.
         25    1    1    2    0    0  0.21605588880E+03 -0.91401653623E+00  0.22979821550E+03  0.33928336587E+03  0.12500000000E+03 0.  0.
</event>
<event>
 5    0  0.5648525E-005  0.3189840E+03  0.7546771E-02  0.1076118E+00
         21   -1    0    0  502  501  0.00000000000E+00  0.00000000000E+00  0.43245605511E+03  0.43245605511E+03  0.00000000000E+00 0. -1.
         21   -1    0    0  501  502 -0.00000000000E+00 -0.00000000000E+00 -0.23528581366E+03  0.23528581366E+03  0.00000000000E+00 0. -1.
         25    1    1    2    0    0  0.10865781802E+03  0.25995412514E+02 -0.15263896459E+02  0.16834568431E+03  0.12500000000E+03 0.  0.
         25    1    1    2    0    0 -0.51698601679E+02 -0.19255654588E+03  0.12506206139E+03  0.26648881398E+03  0.12500000000E+03 0.  0.
         25    1    1    2    0    0 -0.56959216345E+02  0.16656113336E+03  0.87372076510E+02  0.23290737049E+03  0.12500000000E+03 0.  0.
</event>
<event>
 5    0  0.5648525E-005  0.3771209E+03  0.7546771E-02  0.1052003E+00
         21   -1    0    0  502  501  0.00000000000E+00  0.00000000000E+00  0.73359708844E+03  0.73359708844E+03  0.00000000000E+00 0. -1.
         21   -1    0    0  501  502 -0.00000000000E+00 -0.00000000000E+00 -0.19386682480E+03  0.19386682480E+03  0.00000000000E+00 0. -1.
         25    1    1    2    0    0  0.15257495029E+03 -0.14511007496E+03  0.39860440344E+03  0.46781034592E+03  0.12500000000E+03 0.  0.
         25    1    1    2    0    0  0.65330432500E+01  0.11500929083E+03  0.18415297104E+03  0.25061351595E+03  0.12500000000E+03 0.  0.
         25    1    1    2    0    0 -0.15910799354E+03  0.30100784129E+02 -0.43027110842E+02  0.20904005138E+03  0.12500000000E+03 0.  0.
</event>
<event>
 5    0  0.5648525E-005  0.3317072E+03  0.7546771E-02  0.1070384E+00
         21   -1    0    0  502  501  0.00000000000E+00  0.00000000000E+00  0.11392240565E+03  0.11392240565E+03  0.00000000000E+00 0.  1.
         21   -1    0    0  501  502 -0.00000000000E+00 -0.00000000000E+00 -0.96582963940E+03  0.96582963940E+03  0.00000000000E+00 0.  1.
         25    1    1    2    0    0 -0.33319784206E+01  0.24315724565E+03 -0.54412790389E+03  0.60896364751E+03  0.12500000000E+03 0.  0.
         25    1    1    2    0    0  0.30531503128E+02 -0.12252838142E+03 -0.12555007742E+03  0.21756194262E+03  0.12500000000E+03 0.  0.
         25    1    1    2    0    0 -0.27199524708E+02 -0.12062886424E+03 -0.18222925243E+03  0.25322645493E+03  0.12500000000E+03 0.  0.
</event>
<event>
 5    0  0.5648525E-005  0.2627141E+03  0.7546771E-02  0.1105523E+00
         21   -1    0    0  502  501  0.00000000000E+00  0.00000000000E+00  0.44207237244E+02  0.44207237244E+02  0.00000000000E+00 0. -1.
         21   -1    0    0  501  502 -0.00000000000E+00 -0.00000000000E+00 -0.15612535992E+04  0.15612535992E+04  0.00000000000E+00 0. -1.
         25    1    1    2    0    0  0.41458611185E+01  0.57705713490E+02 -0.28990535097E+03  0.32096300419E+03  0.12500000000E+03 0.  0.
         25    1    1    2    0    0 -0.10558004468E+03  0.54430743156E+02 -0.72899991565E+03  0.74911663221E+03  0.12500000000E+03 0.  0.
         25    1    1    2    0    0  0.10143418356E+03 -0.11213645665E+03 -0.49814109531E+03  0.53538120003E+03  0.12500000000E+03 0.  0.
</event>
<event>
 5    0  0.5648525E-005  0.3222825E+03  0.7546771E-02  0.1074604E+00
         21   -1    0    0  502  501  0.00000000000E+00  0.00000000000E+00  0.17983277556E+03  0.17983277556E+03  0.00000000000E+00 0. -1.
         21   -1    0    0  501  502 -0.00000000000E+00 -0.00000000000E+00 -0.57757010279E+03  0.57757010279E+03  0.00000000000E+00 0. -1.
         25    1    1    2    0    0 -0.34219030854E+02 -0.18678473607E+02 -0.15229960091E+03  0.20084819115E+03  0.12500000000E+03 0.  0.
         25    1    1    2    0    0  0.16223536390E+03 -0.13440627798E+03 -0.48821808867E+02  0.24978776968E+03  0.12500000000E+03 0.  0.
         25    1    1    2    0    0 -0.12801633305E+03  0.15308475159E+03 -0.19661591745E+03  0.30676691753E+03  0.12500000000E+03 0.  0.
</event>
<event>
 5    0  0.6334843E-005  0.3348401E+03  0.7546771E-02  0.1069015E+00
         21   -1    0    0  502  501  0.00000000000E+00  0.00000000000E+00  0.66848390143E+03  0.66848390143E+03  0.00000000000E+00 0.  1.
         21   -1    0    0  501  502 -0.00000000000E+00 -0.00000000000E+00 -0.16771965107E+03  0.16771965107E+03  0.00000000000E+00 0. -1.
         25    1    1    2    0    0  0.12821104090E+02 -0.67996935107E+02 -0.40338979698E+01  0.14293087919E+03  0.12500000000E+03 0.  0.
         25    1    1    2    0    0 -0.14950739355E+03  0.14788008602E+03  0.39224669621E+03  0.46228070612E+03  0.12500000000E+03 0.  0.
         25    1    1    2    0    0  0.13668628946E+03 -0.79883150915E+02  0.11255145212E+03  0.23099196718E+03  0.12500000000E+03 0.  0.
</event>
<event>
 5    0  0.5648525E-005  0.3420460E+03  0.7546771E-02  0.1065928E+00
         21   -1    0    0  502  501  0.00000000000E+00  0.00000000000E+00  0.33577756650E+03  0.33577756650E+03  0.00000000000E+00 0. -1.
         21   -1    0    0  501  502 -0.00000000000E+00 -0.00000000000E+00 -0.34843137710E+03  0.34843137710E+03  0.00000000000E+00 0. -1.
         25    1    1    2    0    0  0.63763955847E+01 -0.38301535601E+02  0.81170043106E+02  0.15401701837E+03  0.12500000000E+03 0.  0.
         25    1    1    2    0    0 -0.20853914383E+03 -0.78561992568E+02 -0.26315109725E+02  0.25686192046E+03  0.12500000000E+03 0.  0.
         25    1    1    2    0    0  0.20216274824E+03  0.11686352817E+03 -0.67508743981E+02  0.27333000477E+03  0.12500000000E+03 0.  0.
</event>
<event>
 5    0  0.5648525E-005  0.2332835E+03  0.7546771E-02  0.1124350E+00
         21   -1    0    0  502  501  0.00000000000E+00  0.00000000000E+00  0.49535727900E+02  0.49535727900E+02  0.00000000000E+00 0. -1.
         21   -1    0    0  501  502 -0.00000000000E+00 -0.00000000000E+00 -0.10986246660E+04  0.10986246660E+04  0.00000000000E+00 0. -1.
         25    1    1    2    0    0 -0.14962449656E+02  0.12621796418E+02 -0.32587685266E+03  0.34957675516E+03  0.12500000000E+03 0.  0.
         25    1    1    2    0    0 -0.10408417529E+03 -0.22282561176E+02 -0.31352907988E+03  0.35391455468E+03  0.12500000000E+03 0.  0.
         25    1    1    2    0    0  0.11904662495E+03  0.96607647578E+01 -0.40968300559E+03  0.44466908411E+03  0.12500000000E+03 0.  0.
</event>
<event>
 5    0  0.5648525E-005  0.2676249E+03  0.7546771E-02  0.1102647E+00
         21   -1    0    0  502  501  0.00000000000E+00  0.00000000000E+00  0.28481170372E+03  0.28481170372E+03  0.00000000000E+00 0. -1.
         21   -1    0    0  501  502 -0.00000000000E+00 -0.00000000000E+00 -0.25147530924E+03  0.25147530924E+03  0.00000000000E+00 0. -1.
         25    1    1    2    0    0 -0.38745423231E+02  0.51602630254E+02  0.45272270727E+02  0.14777894900E+03  0.12500000000E+03 0.  0.
         25    1    1    2    0    0  0.58829163165E+02  0.85698347049E+02 -0.90304386442E+02  0.18597031843E+03  0.12500000000E+03 0.  0.
         25    1    1    2    0    0 -0.20083739934E+02 -0.13730097730E+03  0.78368510193E+02  0.20253774554E+03  0.12500000000E+03 0.  0.
</event>
<event>
 5    0  0.5648525E-005  0.5361466E+03  0.7546771E-02  0.1004752E+00
         21   -1    0    0  502  501  0.00000000000E+00  0.00000000000E+00  0.46348990835E+03  0.46348990835E+03  0.00000000000E+00 0. -1.
         21   -1    0    0  501  502 -0.00000000000E+00 -0.00000000000E+00 -0.62019286894E+03  0.62019286894E+03  0.00000000000E+00 0. -1.
         25    1    1    2    0    0  0.15310248136E+03  0.15744123209E+03 -0.34893870753E+03  0.43082633737E+03  0.12500000000E+03 0.  0.
         25    1    1    2    0    0  0.57594314991E+02 -0.11060152634E+03  0.32532235308E+03  0.37014785716E+03  0.12500000000E+03 0.  0.
         25    1    1    2    0    0 -0.21069679635E+03 -0.46839705757E+02 -0.13308660614E+03  0.28270858275E+03  0.12500000000E+03 0.  0.
</event>
<event>
 5    0  0.5648525E-005  0.2451416E+03  0.7546771E-02  0.1116414E+00
         21   -1    0    0  502  501  0.00000000000E+00  0.00000000000E+00  0.25178824982E+03  0.25178824982E+03  0.00000000000E+00 0.  1.
         21   -1    0    0  501  502 -0.00000000000E+00 -0.00000000000E+00 -0.23867040186E+03  0.23867040186E+03  0.00000000000E+00 0.  1.
         25    1    1    2    0    0  0.93187624614E+02 -0.33486392130E+02 -0.98657050388E+02  0.18751929349E+03  0.12500000000E+03 0.  0.
         25    1    1    2    0    0 -0.41209173911E+02 -0.18798511120E+02  0.77251196713E+02  0.15376712076E+03  0.12500000000E+03 0.  0.
         25    1    1    2    0    0 -0.51978450704E+02  0.52284903250E+02  0.34523701632E+02  0.14917223743E+03  0.12500000000E+03 0.  0.
</event>
<event>
 5    0  0.5648525E-005  0.3091869E+03  0.7546771E-02  0.1080736E+00
         21   -1    0    0  502  501  0.00000000000E+00  0.00000000000E+00  0.33254823987E+03  0.33254823987E+03  0.00000000000E+00 0.  1.
         21   -1    0    0  501  502 -0.00000000000E+00 -0.00000000000E+00 -0.28746660864E+03  0.28746660864E+03  0.00000000000E+00 0.  1.
         25    1    1    2    0    0  0.14644466761E+02 -0.18621240416E+02 -0.92974221768E+01  0.12756430951E+03  0.12500000000E+03 0.  0.
         25    1    1    2    0    0  0.49438873700E+02  0.74340212804E+02  0.21995403630E+03  0.26828240262E+03  0.12500000000E+03 0.  0.
         25    1    1    2    0    0 -0.64083340461E+02 -0.55718972387E+02 -0.16557498289E+03  0.22416813638E+03  0.12500000000E+03 0.  0.
</event>
<event>
 5    0  0.5648525E-005  0.2115640E+03  0.7546771E-02  0.1140333E+00
         21   -1    0    0  502  501  0.00000000000E+00  0.00000000000E+00  0.14965943143E+03  0.14965943143E+03  0.00000000000E+00 0. -1.
         21   -1    0    0  501  502 -0.00000000000E+00 -0.00000000000E+00 -0.29907465100E+03  0.29907465100E+03  0.00000000000E+00 0. -1.
         25    1    1    2    0    0 -0.79276625404E+01  0.21121682764E+01 -0.59172764730E+02  0.13854142043E+03  0.12500000000E+03 0.  0.
         25    1    1    2    0    0  0.35346952574E+02 -0.19876520668E+02  0.28777936572E+02  0.13452751675E+03  0.12500000000E+03 0.  0.
         25    1    1    2    0    0 -0.27419290034E+02  0.17764352392E+02 -0.11902039141E+03  0.17566514524E+03  0.12500000000E+03 0.  0.
</event>
<event>
 5    0  0.5648525E-005  0.3836840E+03  0.7546771E-02  0.1049580E+00
         21   -1    0    0  502  501  0.00000000000E+00  0.00000000000E+00  0.84126882260E+02  0.84126882260E+02  0.00000000000E+00 0. -1.
         21   -1    0    0  501  502 -0.00000000000E+00 -0.00000000000E+00 -0.17498976445E+04  0.17498976445E+04  0.00000000000E+00 0. -1.
         25    1    1    2    0    0 -0.20625132921E+03 -0.11933257386E+03 -0.64830043032E+03  0.70192472669E+03  0.12500000000E+03 0.  0.
         25    1    1    2    0    0 -0.72583695074E+01  0.13173279194E+03 -0.73157518449E+03  0.75381261794E+03  0.12500000000E+03 0.  0.
         25    1    1    2    0    0  0.21350969871E+03 -0.12400218081E+02 -0.28589514748E+03  0.37828718218E+03  0.12500000000E+03 0.  0.
</event>
<event>
 5    0  0.5648525E-005  0.3537396E+03  0.7546771E-02  0.1061091E+00
         21   -1    0    0  502  501  0.00000000000E+00  0.00000000000E+00  0.77909569454E+02  0.77909569454E+02  0.00000000000E+00 0.  1.
         21   -1    0    0  501  502 -0.00000000000E+00 -0.00000000000E+00 -0.16061146033E+04  0.16061146033E+04  0.00000000000E+00 0.  1.
         25    1    1    2    0    0 -0.18065365352E+03  0.10346340356E+03 -0.51646546028E+03  0.57070306646E+03  0.12500000000E+03 0.  0.
         25    1    1    2    0    0 -0.24303216395E+02  0.48995178901E+02 -0.13633649345E+03  0.19288290056E+03  0.12500000000E+03 0.  0.
         25    1    1    2    0    0  0.20495686992E+03 -0.15245858246E+03 -0.87540308015E+03  0.92043820576E+03  0.12500000000E+03 0.  0.
</event>
<event>
 5    0  0.5648525E-005  0.2237119E+03  0.7546771E-02  0.1131146E+00
         21   -1    0    0  502  501  0.00000000000E+00  0.00000000000E+00  0.59275217301E+02  0.59275217301E+02  0.00000000000E+00 0. -1.
         21   -1    0    0  501  502 -0.00000000000E+00 -0.00000000000E+00 -0.84431572439E+03  0.84431572439E+03  0.00000000000E+00 0. -1.
         25    1    1    2    0    0 -0.56966337686E+02  0.13861200839E+02 -0.36326247819E+03  0.38861539416E+03  0.12500000000E+03 0.  0.
         25    1    1    2    0    0  0.45148953637E+02  0.62785452895E+02 -0.18595139215E+03  0.23703029627E+03  0.12500000000E+03 0.  0.
         25    1    1    2    0    0  0.11817384049E+02 -0.76646653734E+02 -0.23582663674E+03  0.27794525125E+03  0.12500000000E+03 0.  0.
</event>
<event>
 5    0  0.5648525E-005  0.2571415E+03  0.7546771E-02  0.1108873E+00
         21   -1    0    0  502  501  0.00000000000E+00  0.00000000000E+00  0.16395138512E+03  0.16395138512E+03  0.00000000000E+00 0. -1.
         21   -1    0    0  501  502 -0.00000000000E+00 -0.00000000000E+00 -0.40330110697E+03  0.40330110697E+03  0.00000000000E+00 0. -1.
         25    1    1    2    0    0  0.14174455689E+03  0.43902642785E+02 -0.16857005393E+03  0.25702105854E+03  0.12500000000E+03 0.  0.
         25    1    1    2    0    0 -0.11304663263E+03 -0.39175435322E+02 -0.50906811965E+02  0.18036285478E+03  0.12500000000E+03 0.  0.
         25    1    1    2    0    0 -0.28697924257E+02 -0.47272074629E+01 -0.19872855956E+02  0.12986857877E+03  0.12500000000E+03 0.  0.
</event>
<event>
 5    0  0.5648525E-005  0.2295460E+03  0.7546771E-02  0.1126960E+00
         21   -1    0    0  502  501  0.00000000000E+00  0.00000000000E+00  0.18354943554E+03  0.18354943554E+03  0.00000000000E+00 0. -1.
         21   -1    0    0  501  502 -0.00000000000E+00 -0.00000000000E+00 -0.28706915060E+03  0.28706915060E+03  0.00000000000E+00 0. -1.
         25    1    1    2    0    0  0.55025154385E+02  0.65085399695E+02  0.62554809477E+01  0.15141997197E+03  0.12500000000E+03 0.  0.
         25    1    1    2    0    0 -0.59250486908E+02  0.29020831065E+02 -0.34374187945E+02  0.14546275685E+03  0.12500000000E+03 0.  0.
         25    1    1    2    0    0  0.42253325224E+01 -0.94106230760E+02 -0.75401008060E+02  0.17373585732E+03  0.12500000000E+03 0.  0.
</event>
<event>
 5    0  0.5648525E-005  0.3095600E+03  0.7546771E-02  0.1080557E+00
         21   -1    0    0  502  501  0.00000000000E+00  0.00000000000E+00  0.41057366539E+02  0.41057366539E+02  0.00000000000E+00 0. -1.
         21   -1    0    0  501  502 -0.00000000000E+00 -0.00000000000E+00 -0.23339883222E+04  0.23339883222E+04  0.00000000000E+00 0. -1.
         25    1    1    2    0    0  0.20830811018E+03  0.22182216407E+01 -0.11083589159E+04  0.11346724971E+04  0.12500000000E+03 0.  0.
         25    1    1    2    0    0 -0.13320521468E+03 -0.45337170985E+02 -0.41168618806E+03  0.45266942212E+03  0.12500000000E+03 0.  0.
         25    1    1    2    0    0 -0.75102895503E+02  0.43118949345E+02 -0.77288585165E+03  0.78770376944E+03  0.12500000000E+03 0.  0.
</event>
<event>
 5    0  0.5648525E-005  0.3624370E+03  0.7546771E-02  0.1057623E+00
         21   -1    0    0  502  501  0.00000000000E+00  0.00000000000E+00  0.10529574173E+03  0.10529574173E+03  0.00000000000E+00 0. -1.
         21   -1    0    0  501  502 -0.00000000000E+00 -0.00000000000E+00 -0.12475394196E+04  0.12475394196E+04  0.00000000000E+00 0. -1.
         25    1    1    2    0    0  0.76201771814E+02  0.25443104088E+02 -0.15822787459E+03  0.21706018030E+03  0.12500000000E+03 0.  0.
         25    1    1    2    0    0 -0.60015780323E+02 -0.15424116598E+03 -0.94026769613E+02  0.22772409748E+03  0.12500000000E+03 0.  0.
         25    1    1    2    0    0 -0.16185991490E+02  0.12879806189E+03 -0.88998903367E+03  0.90805088355E+03  0.12500000000E+03 0.  0.
</event>
<event>
 5    0  0.5648525E-005  0.4415841E+03  0.7546771E-02  0.1030262E+00
         21   -1    0    0  502  501  0.00000000000E+00  0.00000000000E+00  0.10644701113E+04  0.10644701113E+04  0.00000000000E+00 0.  1.
         21   -1    0    0  501  502 -0.00000000000E+00 -0.00000000000E+00 -0.18318644434E+03  0.18318644434E+03  0.00000000000E+00 0.  1.
         25    1    1    2    0    0 -0.19787733096E+03 -0.79764357553E+02  0.22619221041E+03  0.33512043640E+03  0.12500000000E+03 0.  0.
         25    1    1    2    0    0  0.11861196346E+03  0.29181341029E+03  0.52025142052E+03  0.62089484203E+03  0.12500000000E+03 0.  0.
         25    1    1    2    0    0  0.79265367494E+02 -0.21204905274E+03  0.13484003599E+03  0.29164127718E+03  0.12500000000E+03 0.  0.
</event>
<event>
 5    0  0.5648525E-005  0.2522708E+03  0.7546771E-02  0.1111878E+00
         21   -1    0    0  502  501  0.00000000000E+00  0.00000000000E+00  0.83912374938E+02  0.83912374938E+02  0.00000000000E+00 0. -1.
         21   -1    0    0  501  502 -0.00000000000E+00 -0.00000000000E+00 -0.75841658149E+03  0.75841658149E+03  0.00000000000E+00 0. -1.
         25    1    1    2    0    0 -0.60991955209E+02  0.91560211989E+02 -0.30306969002E+03  0.34580272993E+03  0.12500000000E+03 0.  0.
         25    1    1    2    0    0  0.85837342240E+02 -0.10893798601E+03 -0.28794645521E+03  0.34318172327E+03  0.12500000000E+03 0.  0.
         25    1    1    2    0    0 -0.24845387031E+02  0.17377774023E+02 -0.83488061327E+02  0.15334450323E+03  0.12500000000E+03 0.  0.
</event>
<event>
 5    0  0.5735586E-005  0.3230984E+03  0.7546771E-02  0.1074232E+00
         21   -1    0    0  502  501  0.00000000000E+00  0.00000000000E+00  0.45989133093E+03  0.45989133093E+03  0.00000000000E+00 0. -1.
         21   -1    0    0  501  502 -0.00000000000E+00 -0.00000000000E+00 -0.22699395456E+03  0.22699395456E+03  0.00000000000E+00 0. -1.
         25    1    1    2    0    0 -0.80611062585E+02  0.14897152679E+03  0.14306927969E+03  0.25452795130E+03  0.12500000000E+03 0.  0.
         25    1    1    2    0    0  0.18206875642E+02 -0.12374820130E+03  0.18927084568E+03  0.25902424726E+03  0.12500000000E+03 0.  0.
         25    1    1    2    0    0  0.62404186943E+02 -0.25223325493E+02 -0.99442748986E+02  0.17333308692E+03  0.12500000000E+03 0.  0.
</event>
<event>
 5    0  0.5648525E-005  0.2455330E+03  0.7546771E-02  0.1116161E+00
         21   -1    0    0  502  501  0.00000000000E+00  0.00000000000E+00  0.24013064429E+03  0.24013064429E+03  0.00000000000E+00 0. -1.
         21   -1    0    0  501  502 -0.00000000000E+00 -0.00000000000E+00 -0.25105696311E+03  0.25105696311E+03  0.00000000000E+00 0. -1.
         25    1    1    2    0    0  0.59062013523E+01  0.55347156870E+02  0.33578239037E+02  0.14089247363E+03  0.12500000000E+03 0.  0.
         25    1    1    2    0    0  0.65777100618E+02 -0.79641053523E+01  0.72271588027E+02  0.15886546628E+03  0.12500000000E+03 0.  0.
         25    1    1    2    0    0 -0.71683301970E+02 -0.47383051518E+02 -0.11677614588E+03  0.19142966750E+03  0.12500000000E+03 0.  0.
</event>
<event>
 5    0  0.6611824E-005  0.3224301E+03  0.7546771E-02  0.1074536E+00
         21   -1    0    0  502  501  0.00000000000E+00  0.00000000000E+00  0.54841577003E+03  0.54841577003E+03  0.00000000000E+00 0. -1.
         21   -1    0    0  501  502 -0.00000000000E+00 -0.00000000000E+00 -0.18956628031E+03  0.18956628031E+03  0.00000000000E+00 0. -1.
         25    1    1    2    0    0 -0.84255069357E+02  0.69612163106E+02  0.26713484437E+03  0.31453266132E+03  0.12500000000E+03 0.  0.
         25    1    1    2    0    0  0.12696748006E+02 -0.18573475220E+03  0.20395865574E+02  0.22516570991E+03  0.12500000000E+03 0.  0.
         25    1    1    2    0    0  0.71558321351E+02  0.11612258910E+03  0.71318779782E+02  0.19828367911E+03  0.12500000000E+03 0.  0.
</event>
<event>
 5    0  0.5648525E-005  0.2870824E+03  0.7546771E-02  0.1091882E+00
         21   -1    0    0  502  501  0.00000000000E+00  0.00000000000E+00  0.24725854732E+03  0.24725854732E+03  0.00000000000E+00 0.  1.
         21   -1    0    0  501  502 -0.00000000000E+00 -0.00000000000E+00 -0.33332036211E+03  0.33332036211E+03  0.00000000000E+00 0.  1.
         25    1    1    2    0    0  0.29090616054E+02  0.19878191613E+02  0.49113537586E+02  0.13884720386E+03  0.12500000000E+03 0.  0.
         25    1    1    2    0    0 -0.11718769271E+03 -0.14306763210E+03 -0.57075615377E+02  0.23039949771E+03  0.12500000000E+03 0.  0.
         25    1    1    2    0    0  0.88097076657E+02  0.12318944048E+03 -0.78099736993E+02  0.21133220786E+03  0.12500000000E+03 0.  0.
</event>
<event>
 5    0  0.5648525E-005  0.2657495E+03  0.7546771E-02  0.1103737E+00
         21   -1    0    0  502  501  0.00000000000E+00  0.00000000000E+00  0.24939696593E+03  0.24939696593E+03  0.00000000000E+00 0.  1.
         21   -1    0    0  501  502 -0.00000000000E+00 -0.00000000000E+00 -0.28317414651E+03  0.28317414651E+03  0.00000000000E+00 0.  1.
         25    1    1    2    0    0  0.97019453962E+02  0.50405986318E+02  0.60638958588E+02  0.17679259374E+03  0.12500000000E+03 0.  0.
         25    1    1    2    0    0 -0.14377222420E+03 -0.95895121967E+01 -0.10142619096E+03  0.21604324430E+03  0.12500000000E+03 0.  0.
         25    1    1    2    0    0  0.46752770240E+02 -0.40816474121E+02  0.70100517957E+01  0.13973527440E+03  0.12500000000E+03 0.  0.
</event>
<event>
 5    0  0.5648525E-005  0.2690157E+03  0.7546771E-02  0.1101844E+00
         21   -1    0    0  502  501  0.00000000000E+00  0.00000000000E+00  0.93552028026E+02  0.93552028026E+02  0.00000000000E+00 0. -1.
         21   -1    0    0  501  502 -0.00000000000E+00 -0.00000000000E+00 -0.77357427344E+03  0.77357427344E+03  0.00000000000E+00 0. -1.
         25    1    1    2    0    0  0.49049071491E+02 -0.13876211720E+01 -0.14895871065E+03  0.20055282193E+03  0.12500000000E+03 0.  0.
         25    1    1    2    0    0 -0.15045138258E+03 -0.26133939969E+02 -0.13761848791E+03  0.24058771696E+03  0.12500000000E+03 0.  0.
         25    1    1    2    0    0  0.10140231109E+03  0.27521561141E+02 -0.39344504685E+03  0.42598576257E+03  0.12500000000E+03 0.  0.
</event>
<event>
 5    0  0.5648525E-005  0.2707086E+03  0.7546771E-02  0.1100875E+00
         21   -1    0    0  502  501  0.00000000000E+00  0.00000000000E+00  0.35281371816E+03  0.35281371816E+03  0.00000000000E+00 0. -1.
         21   -1    0    0  501  502 -0.00000000000E+00 -0.00000000000E+00 -0.20771056143E+03  0.20771056143E+03  0.00000000000E+00 0. -1.
         25    1    1    2    0    0 -0.69917617031E+02  0.10050268587E+03 -0.27642721796E+02  0.17713944537E+03  0.12500000000E+03 0.  0.
         25    1    1    2    0    0  0.14181517245E+02  0.43854869914E+02  0.11567270276E+03  0.17643565175E+03  0.12500000000E+03 0.  0.
         25    1    1    2    0    0  0.55736099787E+02 -0.14435755578E+03  0.57073175769E+02  0.20694918246E+03  0.12500000000E+03 0.  0.
</event>
<event>
 5    0  0.5648525E-005  0.2350312E+03  0.7546771E-02  0.1123148E+00
         21   -1    0    0  502  501  0.00000000000E+00  0.00000000000E+00  0.90513876027E+02  0.90513876027E+02  0.00000000000E+00 0. -1.
         21   -1    0    0  501  502 -0.00000000000E+00 -0.00000000000E+00 -0.61028959314E+03  0.61028959314E+03  0.00000000000E+00 0. -1.
         25    1    1    2    0    0 -0.57046220820E+02 -0.34355552829E+02 -0.72637839899E+02  0.15917233147E+03  0.12500000000E+03 0.  0.
         25    1    1    2    0    0 -0.28782762527E+02 -0.54370267046E+01 -0.30132805812E+03  0.32753871113E+03  0.12500000000E+03 0.  0.
         25    1    1    2    0    0  0.85828983348E+02  0.39792579534E+02 -0.14580981909E+03  0.21409242656E+03  0.12500000000E+03 0.  0.
</event>
<event>
 5    0  0.5648525E-005  0.2622539E+03  0.7546771E-02  0.1105797E+00
         21   -1    0    0  502  501  0.00000000000E+00  0.00000000000E+00  0.85774603558E+02  0.85774603558E+02  0.00000000000E+00 0.  1.
         21   -1    0    0  501  502 -0.00000000000E+00 -0.00000000000E+00 -0.80183522424E+03  0.80183522424E+03  0.00000000000E+00 0.  1.
         25    1    1    2    0    0  0.15831712763E+03  0.44725067046E+02 -0.30036936467E+03  0.36457015752E+03  0.12500000000E+03 0.  0.
         25    1    1    2    0    0 -0.24039934105E+02 -0.19567124040E+02 -0.20938064517E+03  0.24581709735E+03  0.12500000000E+03 0.  0.
         25    1    1    2    0    0 -0.13427719352E+03 -0.25157943006E+02 -0.20631061083E+03  0.27722257292E+03  0.12500000000E+03 0.  0.
</event>
<event>
 5    0  0.5648525E-005  0.3146432E+03  0.7546771E-02  0.1078141E+00
         21   -1    0    0  502  501  0.00000000000E+00  0.00000000000E+00  0.17353809494E+03  0.17353809494E+03  0.00000000000E+00 0.  1.
         21   -1    0    0  501  502 -0.00000000000E+00 -0.00000000000E+00 -0.57048203479E+03  0.57048203479E+03  0.00000000000E+00 0.  1.
         25    1    1    2    0    0 -0.85592655962E+02 -0.10424145514E+03 -0.98517717277E+02  0.20862196515E+03  0.12500000000E+03 0.  0.
         25    1    1    2    0    0  0.85474017522E+02  0.20677607434E+03 -0.26811417945E+03  0.37090748956E+03  0.12500000000E+03 0.  0.
         25    1    1    2    0    0  0.11863843936E+00 -0.10253461920E+03 -0.30312043125E+02  0.16449067502E+03  0.12500000000E+03 0.  0.
</event>
<event>
 5    0  0.5648525E-005  0.2230473E+03  0.7546771E-02  0.1131631E+00
         21   -1    0    0  502  501  0.00000000000E+00  0.00000000000E+00  0.14091569631E+04  0.14091569631E+04  0.00000000000E+00 0.  1.
         21   -1    0    0  501  502 -0.00000000000E+00 -0.00000000000E+00 -0.35304852034E+02  0.35304852034E+02  0.00000000000E+00 0.  1.
         25    1    1    2    0    0 -0.19716078159E+01  0.81373961864E+02  0.56520530350E+03  0.58455764815E+03  0.12500000000E+03 0.  0.
         25    1    1    2    0    0 -0.54408101254E+02 -0.73146504376E+02  0.40689091481E+03  0.43531123250E+03  0.12500000000E+03 0.  0.
         25    1    1    2    0    0  0.56379709070E+02 -0.82274574875E+01  0.40175589279E+03  0.42459293452E+03  0.12500000000E+03 0.  0.
</event>
<event>
 5    0  0.5648525E-005  0.2817144E+03  0.7546771E-02  0.1094756E+00
         21   -1    0    0  502  501  0.00000000000E+00  0.00000000000E+00  0.15066706116E+03  0.15066706116E+03  0.00000000000E+00 0. -1.
         21   -1    0    0  501  502 -0.00000000000E+00 -0.00000000000E+00 -0.52674433373E+03  0.52674433373E+03  0.00000000000E+00 0. -1.
         25    1    1    2    0    0  0.43148312579E+02 -0.69590959089E+02 -0.14122891045E+01  0.14943785674E+03  0.12500000000E+03 0.  0.
         25    1    1    2    0    0  0.35521957194E+02  0.15421746082E+03 -0.19683754165E+03  0.28180640956E+03  0.12500000000E+03 0.  0.
         25    1    1    2    0    0 -0.78670269773E+02 -0.84626501732E+02 -0.17782744181E+03  0.24616712860E+03  0.12500000000E+03 0.  0.
</event>
<event>
 5    0  0.5648525E-005  0.2088804E+03  0.7546771E-02  0.1142456E+00
         21   -1    0    0  502  501  0.00000000000E+00  0.00000000000E+00  0.97401924093E+03  0.97401924093E+03  0.00000000000E+00 0.  1.
         21   -1    0    0  501  502 -0.00000000000E+00 -0.00000000000E+00 -0.44794825315E+02  0.44794825315E+02  0.00000000000E+00 0.  1.
         25    1    1    2    0    0  0.65093143466E+02  0.52576667696E+02  0.33664734179E+03  0.36872463445E+03  0.12500000000E+03 0.  0.
         25    1    1    2    0    0 -0.37557450674E+02 -0.18002396305E+02  0.24685481429E+03  0.27981591755E+03  0.12500000000E+03 0.  0.
         25    1    1    2    0    0 -0.27535692791E+02 -0.34574271390E+02  0.34572225953E+03  0.37027351425E+03  0.12500000000E+03 0.  0.
</event>
<event>
 5    0  0.5648525E-005  0.2394136E+03  0.7546771E-02  0.1120184E+00
         21   -1    0    0  502  501  0.00000000000E+00  0.00000000000E+00  0.77902473663E+03  0.77902473663E+03  0.00000000000E+00 0. -1.
         21   -1    0    0  501  502 -0.00000000000E+00 -0.00000000000E+00 -0.73577712888E+02  0.73577712888E+02  0.00000000000E+00 0. -1.
         25    1    1    2    0    0 -0.24634397341E+02 -0.46953342845E+02  0.86885666852E+02  0.16120046228E+03  0.12500000000E+03 0.  0.
         25    1    1    2    0    0 -0.29800563131E+02  0.39901519577E+02  0.47330513904E+03  0.49205991451E+03  0.12500000000E+03 0.  0.
         25    1    1    2    0    0  0.54434960472E+02  0.70518232676E+01  0.14525621785E+03  0.19934207272E+03  0.12500000000E+03 0.  0.
</event>
<event>
 5    0  0.5648525E-005  0.3682526E+03  0.7546771E-02  0.1055363E+00
         21   -1    0    0  502  501  0.00000000000E+00  0.00000000000E+00  0.24447407385E+03  0.24447407385E+03  0.00000000000E+00 0. -1.
         21   -1    0    0  501  502 -0.00000000000E+00 -0.00000000000E+00 -0.55470090088E+03  0.55470090088E+03  0.00000000000E+00 0. -1.
         25    1    1    2    0    0 -0.10298323101E+03 -0.44967797607E+02  0.78232866942E+02  0.18539964984E+03  0.12500000000E+03 0.  0.
         25    1    1    2    0    0 -0.18345952144E+02 -0.50750406530E+02  0.39621603391E+02  0.14179932714E+03  0.12500000000E+03 0.  0.
         25    1    1    2    0    0  0.12132918316E+03  0.95718204137E+02 -0.42808129737E+03  0.47197599774E+03  0.12500000000E+03 0.  0.
</event>
<event>
 5    0  0.5648525E-005  0.2927459E+03  0.7546771E-02  0.1088924E+00
         21   -1    0    0  502  501  0.00000000000E+00  0.00000000000E+00  0.23595236794E+03  0.23595236794E+03  0.00000000000E+00 0.  1.
         21   -1    0    0  501  502 -0.00000000000E+00 -0.00000000000E+00 -0.36320961869E+03  0.36320961869E+03  0.00000000000E+00 0.  1.
         25    1    1    2    0    0 -0.16641745942E+02  0.10314092312E+03 -0.10732300969E+03  0.19508517663E+03  0.12500000000E+03 0.  0.
         25    1    1    2    0    0 -0.69586928878E+02 -0.35702940242E+02 -0.13664008440E+03  0.20102873744E+03  0.12500000000E+03 0.  0.
         25    1    1    2    0    0  0.86228674820E+02 -0.67437982882E+02  0.11670584335E+03  0.20304807255E+03  0.12500000000E+03 0.  0.
</event>
<event>
 5    0  0.5648525E-005  0.2646554E+03  0.7546771E-02  0.1104378E+00
         21   -1    0    0  502  501  0.00000000000E+00  0.00000000000E+00  0.53238433598E+02  0.53238433598E+02  0.00000000000E+00 0.  1.
         21   -1    0    0  501  502 -0.00000000000E+00 -0.00000000000E+00 -0.13156371190E+04  0.13156371190E+04  0.00000000000E+00 0.  1.
         25    1    1    2    0    0  0.69303098345E+02  0.14171448766E+03 -0.34992485535E+03  0.40368096294E+03  0.12500000000E+03 0.  0.
         25    1    1    2    0    0 -0.80928876174E+02 -0.75606958880E+02 -0.40051117145E+03  0.43393558702E+03  0.12500000000E+03 0.  0.
         25    1    1    2    0    0  0.11625777830E+02 -0.66107528779E+02 -0.51196265866E+03  0.53125900268E+03  0.12500000000E+03 0.  0.
</event>
<event>
 5    0  0.5648525E-005  0.4487379E+03  0.7546771E-02  0.1028099E+00
         21   -1    0    0  502  501  0.00000000000E+00  0.00000000000E+00  0.33921398821E+03  0.33921398821E+03  0.00000000000E+00 0. -1.
         21   -1    0    0  501  502 -0.00000000000E+00 -0.00000000000E+00 -0.59362439671E+03  0.59362439671E+03  0.00000000000E+00 0. -1.
         25    1    1    2    0    0 -0.11154768399E+03  0.72934623413E+02 -0.19661313017E+03  0.26841026070E+03  0.12500000000E+03 0.  0.
         25    1    1    2    0    0 -0.68689476309E+02 -0.17051681311E+03 -0.26599291011E+03  0.34665754851E+03  0.12500000000E+03 0.  0.
         25    1    1    2    0    0  0.18023716030E+03  0.97582189697E+02  0.20819563177E+03  0.31777057571E+03  0.12500000000E+03 0.  0.
</event>
<event>
 5    0  0.5648525E-005  0.3518320E+03  0.7546771E-02  0.1061866E+00
         21   -1    0    0  502  501  0.00000000000E+00  0.00000000000E+00  0.38636322476E+03  0.38636322476E+03  0.00000000000E+00 0. -1.
         21   -1    0    0  501  502 -0.00000000000E+00 -0.00000000000E+00 -0.32038697895E+03  0.32038697895E+03  0.00000000000E+00 0. -1.
         25    1    1    2    0    0 -0.14447981514E+03  0.12962703004E+03 -0.37325989288E+02  0.23387136075E+03  0.12500000000E+03 0.  0.
         25    1    1    2    0    0  0.14347407959E+03  0.85698881999E+02  0.77268350297E+02  0.22254102509E+03  0.12500000000E+03 0.  0.
         25    1    1    2    0    0  0.10057355482E+01 -0.21532591204E+03  0.26033884800E+02  0.25033781788E+03  0.12500000000E+03 0.  0.
</event>
<event>
 5    0  0.5648525E-005  0.2807522E+03  0.7546771E-02  0.1095279E+00
         21   -1    0    0  502  501  0.00000000000E+00  0.00000000000E+00  0.27942313404E+03  0.27942313404E+03  0.00000000000E+00 0. -1.
         21   -1    0    0  501  502 -0.00000000000E+00 -0.00000000000E+00 -0.28208768591E+03  0.28208768591E+03  0.00000000000E+00 0. -1.
         25    1    1    2    0    0  0.63100058250E+02  0.24071179554E+02 -0.17669743345E+03  0.22673337210E+03  0.12500000000E+03 0.  0.
         25    1    1    2    0    0  0.19237536444E+02 -0.29508708868E+02  0.11605301595E+03  0.17416701530E+03  0.12500000000E+03 0.  0.
         25    1    1    2    0    0 -0.82337594694E+02  0.54375293142E+01  0.57979865629E+02  0.16061043255E+03  0.12500000000E+03 0.  0.
</event>
<event>
 5    0  0.5648525E-005  0.3045482E+03  0.7546771E-02  0.1082989E+00
         21   -1    0    0  502  501  0.00000000000E+00  0.00000000000E+00  0.46215804971E+03  0.46215804971E+03  0.00000000000E+00 0. -1.
         21   -1    0    0  501  502 -0.00000000000E+00 -0.00000000000E+00 -0.20068802698E+03  0.20068802698E+03  0.00000000000E+00 0. -1.
         25    1    1    2    0    0 -0.84279268522E+02  0.88094228218E+02  0.44972939227E+02  0.18030849512E+03  0.12500000000E+03 0.  0.
         25    1    1    2    0    0 -0.60811762217E+02 -0.16747204345E+03  0.15184517205E+03  0.26538069265E+03  0.12500000000E+03 0.  0.
         25    1    1    2    0    0  0.14509103074E+03  0.79377815229E+02  0.64651911455E+02  0.21715688892E+03  0.12500000000E+03 0.  0.
</event>
<event>
 5    0  0.5648525E-005  0.2721498E+03  0.7546771E-02  0.1100055E+00
         21   -1    0    0  502  501  0.00000000000E+00  0.00000000000E+00  0.24199935465E+03  0.24199935465E+03  0.00000000000E+00 0. -1.
         21   -1    0    0  501  502 -0.00000000000E+00 -0.00000000000E+00 -0.30605663477E+03  0.30605663477E+03  0.00000000000E+00 0. -1.
         25    1    1    2    0    0 -0.26064712151E+02  0.82866372823E+02  0.13524241685E+02  0.15282051589E+03  0.12500000000E+03 0.  0.
         25    1    1    2    0    0  0.98368123791E+02 -0.62851351079E+02 -0.15443048926E+03  0.23043514516E+03  0.12500000000E+03 0.  0.
         25    1    1    2    0    0 -0.72303411640E+02 -0.20015021744E+02  0.76848967457E+02  0.16480032837E+03  0.12500000000E+03 0.  0.
</event>
<event>
 5    0  0.5648525E-005  0.2600421E+03  0.7546771E-02  0.1107118E+00
         21   -1    0    0  502  501  0.00000000000E+00  0.00000000000E+00  0.12608339876E+03  0.12608339876E+03  0.00000000000E+00 0. -1.
         21   -1    0    0  501  502 -0.00000000000E+00 -0.00000000000E+00 -0.53632650129E+03  0.53632650129E+03  0.00000000000E+00 0. -1.
         25    1    1    2    0    0 -0.59807956913E+02  0.12435279845E+03 -0.20407172450E+03  0.27624423783E+03  0.12500000000E+03 0.  0.
         25    1    1    2    0    0 -0.24151155445E-02 -0.13299212710E+03 -0.15055907064E+03  0.23660080226E+03  0.12500000000E+03 0.  0.
         25    1    1    2    0    0  0.59810372028E+02  0.86393286422E+01 -0.55612307386E+02  0.14956485996E+03  0.12500000000E+03 0.  0.
</event>
<event>
 5    0  0.5648525E-005  0.3583549E+03  0.7546771E-02  0.1059237E+00
         21   -1    0    0  502  501  0.00000000000E+00  0.00000000000E+00  0.61098270283E+03  0.61098270283E+03  0.00000000000E+00 0.  1.
         21   -1    0    0  501  502 -0.00000000000E+00 -0.00000000000E+00 -0.21018309452E+03  0.21018309452E+03  0.00000000000E+00 0.  1.
         25    1    1    2    0    0 -0.12469808171E+03  0.20812766631E+03  0.34026492879E+03  0.43620174098E+03  0.12500000000E+03 0.  0.
         25    1    1    2    0    0  0.23890862329E+02 -0.13688337550E+02  0.20228044317E+02  0.12958517533E+03  0.12500000000E+03 0.  0.
         25    1    1    2    0    0  0.10080721938E+03 -0.19443932876E+03  0.40306635200E+02  0.25537888105E+03  0.12500000000E+03 0.  0.
</event>
<event>
 5    0  0.5648525E-005  0.3131790E+03  0.7546771E-02  0.1078832E+00
         21   -1    0    0  502  501  0.00000000000E+00  0.00000000000E+00  0.59746887596E+03  0.59746887596E+03  0.00000000000E+00 0. -1.
         21   -1    0    0  501  502 -0.00000000000E+00 -0.00000000000E+00 -0.16416097684E+03  0.16416097684E+03  0.00000000000E+00 0. -1.
         25    1    1    2    0    0  0.21504005380E+02 -0.56707815840E+02  0.36776213418E+02  0.14372087009E+03  0.12500000000E+03 0.  0.
         25    1    1    2    0    0 -0.36521696131E+02  0.16150270304E+03  0.40376049175E+03  0.45394326966E+03  0.12500000000E+03 0.  0.
         25    1    1    2    0    0  0.15017690751E+02 -0.10479488720E+03 -0.72288060462E+01  0.16396571305E+03  0.12500000000E+03 0.  0.
</event>
<event>
 5    0  0.5648525E-005  0.2329107E+03  0.7546771E-02  0.1124608E+00
         21   -1    0    0  502  501  0.00000000000E+00  0.00000000000E+00  0.14827132361E+04  0.14827132361E+04  0.00000000000E+00 0.  1.
         21   -1    0    0  501  502 -0.00000000000E+00 -0.00000000000E+00 -0.36586558614E+02  0.36586558614E+02  0.00000000000E+00 0.  1.
         25    1    1    2    0    0 -0.41580415651E+00 -0.26746680676E+02  0.74936829662E+03  0.76019300299E+03  0.12500000000E+03 0.  0.
         25    1    1    2    0    0 -0.81315256992E+02 -0.22124806218E+01  0.34859264667E+03  0.37915550820E+03  0.12500000000E+03 0.  0.
         25    1    1    2    0    0  0.81731061149E+02  0.28959161298E+02  0.34816573424E+03  0.37995128356E+03  0.12500000000E+03 0.  0.
</event>
<event>
 5    0  0.5648525E-005  0.5523126E+03  0.7546771E-02  0.1000960E+00
         21   -1    0    0  502  501  0.00000000000E+00  0.00000000000E+00  0.71854792298E+03  0.71854792298E+03  0.00000000000E+00 0.  1.
         21   -1    0    0  501  502 -0.00000000000E+00 -0.00000000000E+00 -0.42453565529E+03  0.42453565529E+03  0.00000000000E+00 0.  1.
         25    1    1    2    0    0 -0.23221955262E+03  0.28785333926E+03  0.39823286951E+02  0.39242369924E+03  0.12500000000E+03 0.  0.
         25    1    1    2    0    0 -0.67184545494E+02 -0.15233018900E+03 -0.11745810696E+03  0.23903902720E+03  0.12500000000E+03 0.  0.
         25    1    1    2    0    0  0.29940409811E+03 -0.13552315027E+03  0.37164708770E+03  0.51162085182E+03  0.12500000000E+03 0.  0.
</event>
<event>
 5    0  0.5648525E-005  0.4820491E+03  0.7546771E-02  0.1018574E+00
         21   -1    0    0  502  501  0.00000000000E+00  0.00000000000E+00  0.51115754907E+03  0.51115754907E+03  0.00000000000E+00 0.  1.
         21   -1    0    0  501  502 -0.00000000000E+00 -0.00000000000E+00 -0.45459824546E+03  0.45459824546E+03  0.00000000000E+00 0.  1.
         25    1    1    2    0    0 -0.93992019380E+02 -0.12522540847E+03  0.14735660060E+03  0.24870639391E+03  0.12500000000E+03 0.  0.
         25    1    1    2    0    0  0.17437463600E+03 -0.23792607414E+02  0.24137345748E+03  0.32381900473E+03  0.12500000000E+03 0.  0.
         25    1    1    2    0    0 -0.80382616619E+02  0.14901801589E+03 -0.33217075448E+03  0.39323039588E+03  0.12500000000E+03 0.  0.
</event>
<event>
 5    0  0.5648525E-005  0.5429622E+03  0.7546771E-02  0.1003136E+00
         21   -1    0    0  502  501  0.00000000000E+00  0.00000000000E+00  0.48913813043E+03  0.48913813043E+03  0.00000000000E+00 0.  1.
         21   -1    0    0  501  502 -0.00000000000E+00 -0.00000000000E+00 -0.60270891980E+03  0.60270891980E+03  0.00000000000E+00 0.  1.
         25    1    1    2    0    0  0.41568607666E+03 -0.14455309259E+03 -0.35563295565E+01  0.45752394297E+03  0.12500000000E+03 0.  0.
         25    1    1    2    0    0 -0.74337700765E+02  0.20861888933E+03 -0.24946581851E+02  0.25552938517E+03  0.12500000000E+03 0.  0.
         25    1    1    2    0    0 -0.34134837590E+03 -0.64065796732E+02 -0.85067877965E+02  0.37879372210E+03  0.12500000000E+03 0.  0.
</event>
<event>
 5    0  0.5648525E-005  0.2955432E+03  0.7546771E-02  0.1087490E+00
         21   -1    0    0  502  501  0.00000000000E+00  0.00000000000E+00  0.75334952512E+03  0.75334952512E+03  0.00000000000E+00 0.  1.
         21   -1    0    0  501  502 -0.00000000000E+00 -0.00000000000E+00 -0.11594321224E+03  0.11594321224E+03  0.00000000000E+00 0.  1.
         25    1    1    2    0    0 -0.14270900482E+03  0.27783320682E+02  0.29223104428E+03  0.34951646057E+03  0.12500000000E+03 0.  0.
         25    1    1    2    0    0  0.14323971149E+02  0.86768599134E+02  0.60370047009E+02  0.16432744299E+03  0.12500000000E+03 0.  0.
         25    1    1    2    0    0  0.12838503368E+03 -0.11455191982E+03  0.28480522159E+03  0.35544883380E+03  0.12500000000E+03 0.  0.
</event>
<event>
 5    0  0.5648525E-005  0.2741011E+03  0.7546771E-02  0.1098955E+00
         21   -1    0    0  502  501  0.00000000000E+00  0.00000000000E+00  0.24412636307E+03  0.24412636307E+03  0.00000000000E+00 0.  1.
         21   -1    0    0  501  502 -0.00000000000E+00 -0.00000000000E+00 -0.30775619534E+03  0.30775619534E+03  0.00000000000E+00 0.  1.
         25    1    1    2    0    0  0.34118445822E+02 -0.10480758677E+03  0.45202915350E+02  0.17267600339E+03  0.12500000000E+03 0.  0.
         25    1    1    2    0    0  0.94615823365E+02  0.27374779545E+01 -0.44889955112E+02  0.16309431592E+03  0.12500000000E+03 0.  0.
         25    1    1    2    0    0 -0.12873426919E+03  0.10207010882E+03 -0.63942792504E+02  0.21611223910E+03  0.12500000000E+03 0.  0.
</event>
<event>
 5    0  0.5648525E-005  0.3051724E+03  0.7546771E-02  0.1082683E+00
         21   -1    0    0  502  501  0.00000000000E+00  0.00000000000E+00  0.61372471273E+03  0.61372471273E+03  0.00000000000E+00 0. -1.
         21   -1    0    0  501  502 -0.00000000000E+00 -0.00000000000E+00 -0.15174588084E+03  0.15174588084E+03  0.00000000000E+00 0. -1.
         25    1    1    2    0    0 -0.69180101994E+01 -0.12908071252E+02  0.14865930638E+03  0.19477953317E+03  0.12500000000E+03 0.  0.
         25    1    1    2    0    0  0.19442613327E+03  0.45800097660E+02  0.91504665511E+02  0.25277910130E+03  0.12500000000E+03 0.  0.
         25    1    1    2    0    0 -0.18750812307E+03 -0.32892026408E+02  0.22181485999E+03  0.31791195909E+03  0.12500000000E+03 0.  0.
</event>
<event>
 5    0  0.5648525E-005  0.2488116E+03  0.7546771E-02  0.1114058E+00
         21   -1    0    0  502  501  0.00000000000E+00  0.00000000000E+00  0.17731398163E+03  0.17731398163E+03  0.00000000000E+00 0. -1.
         21   -1    0    0  501  502 -0.00000000000E+00 -0.00000000000E+00 -0.34913892650E+03  0.34913892650E+03  0.00000000000E+00 0. -1.
         25    1    1    2    0    0 -0.12247816407E+03  0.12699889945E+02 -0.93363486058E+01  0.17571099933E+03  0.12500000000E+03 0.  0.
         25    1    1    2    0    0  0.72870987141E+02  0.60860220047E+02 -0.92889189846E+02  0.18239393834E+03  0.12500000000E+03 0.  0.
         25    1    1    2    0    0  0.49607176931E+02 -0.73560109992E+02 -0.69599406421E+02  0.16834797046E+03  0.12500000000E+03 0.  0.
</event>
<event>
 5    0  0.5648525E-005  0.2683868E+03  0.7546771E-02  0.1102206E+00
         21   -1    0    0  502  501  0.00000000000E+00  0.00000000000E+00  0.14174804607E+03  0.14174804607E+03  0.00000000000E+00 0.  1.
         21   -1    0    0  501  502 -0.00000000000E+00 -0.00000000000E+00 -0.50816547359E+03  0.50816547359E+03  0.00000000000E+00 0.  1.
         25    1    1    2    0    0 -0.16888605593E+03 -0.11483478127E+02 -0.13388544939E+03  0.24940866809E+03  0.12500000000E+03 0.  0.
         25    1    1    2    0    0  0.14122998321E+03  0.44479881430E+02 -0.13324287846E+03  0.23516596835E+03  0.12500000000E+03 0.  0.
         25    1    1    2    0    0  0.27656072723E+02 -0.32996403302E+02 -0.99289099676E+02  0.16533888322E+03  0.12500000000E+03 0.  0.
</event>
<event>
 5    0  0.5648525E-005  0.2899317E+03  0.7546771E-02  0.1090385E+00
         21   -1    0    0  502  501  0.00000000000E+00  0.00000000000E+00  0.18688520077E+04  0.18688520077E+04  0.00000000000E+00 0. -1.
         21   -1    0    0  501  502 -0.00000000000E+00 -0.00000000000E+00 -0.44979700682E+02  0.44979700682E+02  0.00000000000E+00 0. -1.
         25    1    1    2    0    0  0.20083748402E+01 -0.11380973592E+03  0.32152420497E+03  0.36326230735E+03  0.12500000000E+03 0.  0.
         25    1    1    2    0    0  0.31966960196E+02 -0.75037689896E+02  0.47016192324E+03  0.49328467999E+03  0.12500000000E+03 0.  0.
         25    1    1    2    0    0 -0.33975335036E+02  0.18884742581E+03  0.10321861788E+04  0.10572847211E+04  0.12500000000E+03 0.  0.
</event>
<event>
 5    0  0.5648525E-005  0.2511924E+03  0.7546771E-02  0.1112554E+00
         21   -1    0    0  502  501  0.00000000000E+00  0.00000000000E+00  0.28948971442E+03  0.28948971442E+03  0.00000000000E+00 0. -1.
         21   -1    0    0  501  502 -0.00000000000E+00 -0.00000000000E+00 -0.21796151266E+03  0.21796151266E+03  0.00000000000E+00 0. -1.
         25    1    1    2    0    0  0.41477145766E+02  0.44813765091E+02  0.15790482952E+03  0.21044610319E+03  0.12500000000E+03 0.  0.
         25    1    1    2    0    0 -0.51764736312E+02 -0.20992171570E+02 -0.98650250447E+02  0.16875168475E+03  0.12500000000E+03 0.  0.
         25    1    1    2    0    0  0.10287590546E+02 -0.23821593521E+02  0.12273622693E+02  0.12825343914E+03  0.12500000000E+03 0.  0.
</event>
<event>
 5    0  0.5648525E-005  0.2165833E+03  0.7546771E-02  0.1136456E+00
         21   -1    0    0  502  501  0.00000000000E+00  0.00000000000E+00  0.65087810308E+03  0.65087810308E+03  0.00000000000E+00 0. -1.
         21   -1    0    0  501  502 -0.00000000000E+00 -0.00000000000E+00 -0.72069282679E+02  0.72069282679E+02  0.00000000000E+00 0. -1.
         25    1    1    2    0    0  0.63629869602E+00  0.41558794652E+02  0.35856692830E+03  0.38199840361E+03  0.12500000000E+03 0.  0.
         25    1    1    2    0    0 -0.10471354550E+02 -0.40708782830E+02  0.87028947892E+02  0.15800598735E+03  0.12500000000E+03 0.  0.
         25    1    1    2    0    0  0.98350558544E+01 -0.85001182262E+00  0.13321294421E+03  0.18294299481E+03  0.12500000000E+03 0.  0.
</event>
<event>
 5    0  0.5648525E-005  0.3566500E+03  0.7546771E-02  0.1059918E+00
         21   -1    0    0  502  501  0.00000000000E+00  0.00000000000E+00  0.51075562347E+02  0.51075562347E+02  0.00000000000E+00 0. -1.
         21   -1    0    0  501  502 -0.00000000000E+00 -0.00000000000E+00 -0.24904122413E+04  0.24904122413E+04  0.00000000000E+00 0. -1.
         25    1    1    2    0    0 -0.16179368679E+03 -0.13187893605E+03 -0.15693315495E+04  0.15880792686E+04  0.12500000000E+03 0.  0.
         25    1    1    2    0    0  0.31982738732E+01  0.11402434455E+03 -0.54209492899E+03  0.56789408532E+03  0.12500000000E+03 0.  0.
         25    1    1    2    0    0  0.15859541292E+03  0.17854591503E+02 -0.32791020044E+03  0.38551444978E+03  0.12500000000E+03 0.  0.
</event>
<event>
 5    0  0.5648525E-005  0.3046232E+03  0.7546771E-02  0.1082952E+00
         21   -1    0    0  502  501  0.00000000000E+00  0.00000000000E+00  0.83933740374E+03  0.83933740374E+03  0.00000000000E+00 0.  1.
         21   -1    0    0  501  502 -0.00000000000E+00 -0.00000000000E+00 -0.11055781144E+03  0.11055781144E+03  0.00000000000E+00 0.  1.
         25    1    1    2    0    0  0.51679175691E+02 -0.12748098763E+03  0.13009665687E+03  0.22687503066E+03  0.12500000000E+03 0.  0.
         25    1    1    2    0    0 -0.65067418267E+02 -0.64692670469E+02  0.35913253095E+03  0.39117781803E+03  0.12500000000E+03 0.  0.
         25    1    1    2    0    0  0.13388242576E+02  0.19217365810E+03  0.23955040449E+03  0.33184236649E+03  0.12500000000E+03 0.  0.
</event>
<event>
 5    0  0.5648525E-005  0.2870322E+03  0.7546771E-02  0.1091909E+00
         21   -1    0    0  502  501  0.00000000000E+00  0.00000000000E+00  0.81297738053E+02  0.81297738053E+02  0.00000000000E+00 0.  1.
         21   -1    0    0  501  502 -0.00000000000E+00 -0.00000000000E+00 -0.10134042372E+04  0.10134042372E+04  0.00000000000E+00 0.  1.
         25    1    1    2    0    0 -0.26232419235E+02  0.11787911801E+02 -0.31589894498E+03  0.34094609269E+03  0.12500000000E+03 0.  0.
         25    1    1    2    0    0  0.34938905546E+02 -0.18137384697E+03 -0.30510968786E+03  0.37793401687E+03  0.12500000000E+03 0.  0.
         25    1    1    2    0    0 -0.87064863104E+01  0.16958593517E+03 -0.31109786634E+03  0.37582186572E+03  0.12500000000E+03 0.  0.
</event>
<event>
 5    0  0.5648525E-005  0.5543011E+03  0.7546771E-02  0.1000503E+00
         21   -1    0    0  502  501  0.00000000000E+00  0.00000000000E+00  0.25424245870E+03  0.25424245870E+03  0.00000000000E+00 0. -1.
         21   -1    0    0  501  502 -0.00000000000E+00 -0.00000000000E+00 -0.12084910491E+04  0.12084910491E+04  0.00000000000E+00 0. -1.
         25    1    1    2    0    0  0.22453330674E+03  0.65426096603E+02 -0.22551134806E+03  0.34810364557E+03  0.12500000000E+03 0.  0.
         25    1    1    2    0    0 -0.50614369056E+03  0.14512573971E+02 -0.50138535153E+03  0.72346687625E+03  0.12500000000E+03 0.  0.
         25    1    1    2    0    0  0.28161038382E+03 -0.79938670574E+02 -0.22735189078E+03  0.39116298594E+03  0.12500000000E+03 0.  0.
</event>
<event>
 5    0  0.5648525E-005  0.2524289E+03  0.7546771E-02  0.1111779E+00
         21   -1    0    0  502  501  0.00000000000E+00  0.00000000000E+00  0.37225544623E+03  0.37225544623E+03  0.00000000000E+00 0. -1.
         21   -1    0    0  501  502 -0.00000000000E+00 -0.00000000000E+00 -0.17117377927E+03  0.17117377927E+03  0.00000000000E+00 0. -1.
         25    1    1    2    0    0  0.42384190547E+01 -0.37366528141E+02  0.11346386602E+03  0.17295453308E+03  0.12500000000E+03 0.  0.
         25    1    1    2    0    0 -0.57821076287E+02  0.10422801194E+03 -0.34156812072E+02  0.17606374740E+03  0.12500000000E+03 0.  0.
         25    1    1    2    0    0  0.53582657232E+02 -0.66861483802E+02  0.12177461301E+03  0.19441094503E+03  0.12500000000E+03 0.  0.
</event>
<event>
 5    0  0.5648525E-005  0.6733268E+03  0.7546771E-02  0.9763967E-01
         21   -1    0    0  502  501  0.00000000000E+00  0.00000000000E+00  0.53725404806E+03  0.53725404806E+03  0.00000000000E+00 0.  1.
         21   -1    0    0  501  502 -0.00000000000E+00 -0.00000000000E+00 -0.84386321385E+03  0.84386321385E+03  0.00000000000E+00 0.  1.
         25    1    1    2    0    0 -0.11389111607E+02  0.37067140218E+03  0.15566844178E+03  0.42117058779E+03  0.12500000000E+03 0.  0.
         25    1    1    2    0    0 -0.19837259213E+03 -0.48517414333E+03 -0.42785510399E+03  0.68806295110E+03  0.12500000000E+03 0.  0.
         25    1    1    2    0    0  0.20976170374E+03  0.11450274115E+03 -0.34422503575E+02  0.27188372301E+03  0.12500000000E+03 0.  0.
</event>
<event>
 5    0  0.5648525E-005  0.3551250E+03  0.7546771E-02  0.1060531E+00
         21   -1    0    0  502  501  0.00000000000E+00  0.00000000000E+00  0.59304763504E+03  0.59304763504E+03  0.00000000000E+00 0.  1.
         21   -1    0    0  501  502 -0.00000000000E+00 -0.00000000000E+00 -0.21265368057E+03  0.21265368057E+03  0.00000000000E+00 0.  1.
         25    1    1    2    0    0  0.10204854349E+03 -0.17483569209E+03  0.18945326010E+03  0.30413642041E+03  0.12500000000E+03 0.  0.
         25    1    1    2    0    0  0.19255090352E+02  0.10063766905E+02  0.22606711355E+03  0.25923614280E+03  0.12500000000E+03 0.  0.
         25    1    1    2    0    0 -0.12130363384E+03  0.16477192519E+03 -0.35126419173E+02  0.24232875240E+03  0.12500000000E+03 0.  0.
</event>
<event>
 5    0  0.5648525E-005  0.2879820E+03  0.7546771E-02  0.1091407E+00
         21   -1    0    0  502  501  0.00000000000E+00  0.00000000000E+00  0.13215523423E+04  0.13215523423E+04  0.00000000000E+00 0.  1.
         21   -1    0    0  501  502 -0.00000000000E+00 -0.00000000000E+00 -0.62754717333E+02  0.62754717333E+02  0.00000000000E+00 0.  1.
         25    1    1    2    0    0  0.89265778137E+02  0.10661477444E+03  0.67072961464E+03  0.69630331410E+03  0.12500000000E+03 0.  0.
         25    1    1    2    0    0 -0.93876978968E+02 -0.34146877745E+02  0.48431603664E+03  0.51006462315E+03  0.12500000000E+03 0.  0.
         25    1    1    2    0    0  0.46112008312E+01 -0.72467896696E+02  0.10375197365E+03  0.17793912234E+03  0.12500000000E+03 0.  0.
</event>
<event>
 5    0  0.5648525E-005  0.2294111E+03  0.7546771E-02  0.1127055E+00
         21   -1    0    0  502  501  0.00000000000E+00  0.00000000000E+00  0.35294756375E+03  0.35294756375E+03  0.00000000000E+00 0.  1.
         21   -1    0    0  501  502 -0.00000000000E+00 -0.00000000000E+00 -0.14911406507E+03  0.14911406507E+03  0.00000000000E+00 0.  1.
         25    1    1    2    0    0 -0.18404440677E+02 -0.10238734975E+03  0.10743433604E+03  0.19490774583E+03  0.12500000000E+03 0.  0.
         25    1    1    2    0    0  0.46941050151E+02  0.12897306998E+02  0.31064114124E+02  0.13769452387E+03  0.12500000000E+03 0.  0.
         25    1    1    2    0    0 -0.28536609474E+02  0.89490042749E+02  0.65335048517E+02  0.16945935913E+03  0.12500000000E+03 0.  0.
</event>
<event>
 5    0  0.5648525E-005  0.3206214E+03  0.7546771E-02  0.1075364E+00
         21   -1    0    0  502  501  0.00000000000E+00  0.00000000000E+00  0.17342153514E+03  0.17342153514E+03  0.00000000000E+00 0.  1.
         21   -1    0    0  501  502 -0.00000000000E+00 -0.00000000000E+00 -0.59276412588E+03  0.59276412588E+03  0.00000000000E+00 0.  1.
         25    1    1    2    0    0  0.41936482673E+02 -0.35119711021E+02 -0.30708843041E+03  0.33603625812E+03  0.12500000000E+03 0.  0.
         25    1    1    2    0    0  0.64846435171E+02  0.11369514385E+03 -0.16023263719E+03  0.24172534809E+03  0.12500000000E+03 0.  0.
         25    1    1    2    0    0 -0.10678291784E+03 -0.78575432829E+02  0.47978476862E+02  0.18842405481E+03  0.12500000000E+03 0.  0.
</event>
<event>
 5    0  0.5648525E-005  0.4066633E+03  0.7546771E-02  0.1041497E+00
         21   -1    0    0  502  501  0.00000000000E+00  0.00000000000E+00  0.48603771783E+03  0.48603771783E+03  0.00000000000E+00 0. -1.
         21   -1    0    0  501  502 -0.00000000000E+00 -0.00000000000E+00 -0.34025147710E+03  0.34025147710E+03  0.00000000000E+00 0. -1.
         25    1    1    2    0    0  0.17094191489E+01  0.26408689713E+03  0.52268410135E+02  0.29681947046E+03  0.12500000000E+03 0.  0.
         25    1    1    2    0    0 -0.14881887282E+03 -0.79366130690E+00  0.43785213899E+02  0.19922307036E+03  0.12500000000E+03 0.  0.
         25    1    1    2    0    0  0.14710945368E+03 -0.26329323582E+03  0.49732616699E+02  0.33024665411E+03  0.12500000000E+03 0.  0.
</event>
<event>
 5    0  0.5648525E-005  0.2612889E+03  0.7546771E-02  0.1106371E+00
         21   -1    0    0  502  501  0.00000000000E+00  0.00000000000E+00  0.21463657733E+03  0.21463657733E+03  0.00000000000E+00 0.  1.
         21   -1    0    0  501  502 -0.00000000000E+00 -0.00000000000E+00 -0.31808140052E+03  0.31808140052E+03  0.00000000000E+00 0.  1.
         25    1    1    2    0    0  0.11283993909E+03  0.23332159461E+02 -0.99178573290E+02  0.19682131724E+03  0.12500000000E+03 0.  0.
         25    1    1    2    0    0 -0.15661055035E+03  0.30474238067E+01  0.57232745639E+01  0.20048418178E+03  0.12500000000E+03 0.  0.
         25    1    1    2    0    0  0.43770611259E+02 -0.26379583267E+02 -0.99895244682E+01  0.13541247883E+03  0.12500000000E+03 0.  0.
</event>
<event>
 5    0  0.5648525E-005  0.2260149E+03  0.7546771E-02  0.1129477E+00
         21   -1    0    0  502  501  0.00000000000E+00  0.00000000000E+00  0.10519303530E+04  0.10519303530E+04  0.00000000000E+00 0.  1.
         21   -1    0    0  501  502 -0.00000000000E+00 -0.00000000000E+00 -0.48560928307E+02  0.48560928307E+02  0.00000000000E+00 0.  1.
         25    1    1    2    0    0 -0.54253671014E+02  0.52017412261E+01  0.16613022873E+03  0.21492969043E+03  0.12500000000E+03 0.  0.
         25    1    1    2    0    0  0.37714031097E+02  0.62716295379E+02  0.44611604319E+03  0.46904179540E+03  0.12500000000E+03 0.  0.
         25    1    1    2    0    0  0.16539639918E+02 -0.67918036605E+02  0.39112315282E+03  0.41651979552E+03  0.12500000000E+03 0.  0.
</event>
<event>
 5    0  0.5648525E-005  0.4660644E+03  0.7546771E-02  0.1023037E+00
         21   -1    0    0  502  501  0.00000000000E+00  0.00000000000E+00  0.32929338198E+03  0.32929338198E+03  0.00000000000E+00 0.  1.
         21   -1    0    0  501  502 -0.00000000000E+00 -0.00000000000E+00 -0.65964297869E+03  0.65964297869E+03  0.00000000000E+00 0.  1.
         25    1    1    2    0    0  0.10169912969E+03  0.15502757492E+03 -0.30019646657E+03  0.37432496645E+03  0.12500000000E+03 0.  0.
         25    1    1    2    0    0  0.20123664525E+03 -0.28549583767E+02  0.71201356867E+02  0.24900983785E+03  0.12500000000E+03 0.  0.
         25    1    1    2    0    0 -0.30293577494E+03 -0.12647799115E+03 -0.10135448701E+03  0.36560155637E+03  0.12500000000E+03 0.  0.
</event>
<event>
 5    0  0.5648525E-005  0.5194160E+03  0.7546771E-02  0.1008832E+00
         21   -1    0    0  502  501  0.00000000000E+00  0.00000000000E+00  0.16095627077E+03  0.16095627077E+03  0.00000000000E+00 0.  1.
         21   -1    0    0  501  502 -0.00000000000E+00 -0.00000000000E+00 -0.16761880811E+04  0.16761880811E+04  0.00000000000E+00 0. -1.
         25    1    1    2    0    0 -0.41729355440E+03  0.11196555649E+03 -0.94115867160E+03  0.10431082597E+04  0.12500000000E+03 0.  0.
         25    1    1    2    0    0  0.35218903715E+03 -0.67187159678E+02 -0.50227348560E+03  0.62964663634E+03  0.12500000000E+03 0.  0.
         25    1    1    2    0    0  0.65104517251E+02 -0.44778396807E+02 -0.71799653089E+02  0.16438945578E+03  0.12500000000E+03 0.  0.
</event>
<event>
 5    0  0.5648525E-005  0.3683986E+03  0.7546771E-02  0.1055307E+00
         21   -1    0    0  502  501  0.00000000000E+00  0.00000000000E+00  0.42636572112E+02  0.42636572112E+02  0.00000000000E+00 0. -1.
         21   -1    0    0  501  502 -0.00000000000E+00 -0.00000000000E+00 -0.31831242016E+04  0.31831242016E+04  0.00000000000E+00 0. -1.
         25    1    1    2    0    0 -0.13265572153E+03  0.11214686427E+03 -0.48360188626E+03  0.52883858030E+03  0.12500000000E+03 0.  0.
         25    1    1    2    0    0  0.21557660362E+03 -0.16099489247E+03 -0.19656691024E+04  0.19879317513E+04  0.12500000000E+03 0.  0.
         25    1    1    2    0    0 -0.82920882092E+02  0.48848028195E+02 -0.69121664081E+03  0.70899044217E+03  0.12500000000E+03 0.  0.
</event>
<event>
 5    0  0.5648525E-005  0.2787035E+03  0.7546771E-02  0.1096399E+00
         21   -1    0    0  502  501  0.00000000000E+00  0.00000000000E+00  0.89387311487E+03  0.89387311487E+03  0.00000000000E+00 0. -1.
         21   -1    0    0  501  502 -0.00000000000E+00 -0.00000000000E+00 -0.86897856443E+02  0.86897856443E+02  0.00000000000E+00 0. -1.
         25    1    1    2    0    0 -0.49205326145E+02 -0.14186483085E+03  0.49440293866E+03  0.53160705423E+03  0.12500000000E+03 0.  0.
         25    1    1    2    0    0  0.64877745956E+02  0.15968269567E+02  0.10987502587E+03  0.17933663558E+03  0.12500000000E+03 0.  0.
         25    1    1    2    0    0 -0.15672419811E+02  0.12589656128E+03  0.20269729390E+03  0.26982728149E+03  0.12500000000E+03 0.  0.
</event>
<event>
 5    0  0.5648525E-005  0.3321322E+03  0.7546771E-02  0.1070197E+00
         21   -1    0    0  502  501  0.00000000000E+00  0.00000000000E+00  0.74123006459E+03  0.74123006459E+03  0.00000000000E+00 0.  1.
         21   -1    0    0  501  502 -0.00000000000E+00 -0.00000000000E+00 -0.14882261807E+03  0.14882261807E+03  0.00000000000E+00 0.  1.
         25    1    1    2    0    0 -0.33511032758E+02 -0.18024776510E+03  0.28188590161E+03  0.35874351237E+03  0.12500000000E+03 0.  0.
         25    1    1    2    0    0  0.96955554913E+02  0.17502346073E+03  0.31183828001E+03  0.39102647521E+03  0.12500000000E+03 0.  0.
         25    1    1    2    0    0 -0.63444522155E+02  0.52243043739E+01 -0.13167351075E+01  0.14028269508E+03  0.12500000000E+03 0.  0.
</event>
<event>
 5    0  0.5648525E-005  0.2665341E+03  0.7546771E-02  0.1103280E+00
         21   -1    0    0  502  501  0.00000000000E+00  0.00000000000E+00  0.42606975382E+03  0.42606975382E+03  0.00000000000E+00 0.  1.
         21   -1    0    0  501  502 -0.00000000000E+00 -0.00000000000E+00 -0.16673420089E+03  0.16673420089E+03  0.00000000000E+00 0.  1.
         25    1    1    2    0    0  0.41768481633E+02 -0.15051820261E+03  0.51856511111E+02  0.20667470362E+03  0.12500000000E+03 0.  0.
         25    1    1    2    0    0 -0.25934977808E+02  0.75973482586E+01  0.44522257144E+02  0.13541629945E+03  0.12500000000E+03 0.  0.
         25    1    1    2    0    0 -0.15833503826E+02  0.14292085435E+03  0.16295678468E+03  0.25071295165E+03  0.12500000000E+03 0.  0.
</event>
<event>
 5    0  0.5648525E-005  0.2989651E+03  0.7546771E-02  0.1085759E+00
         21   -1    0    0  502  501  0.00000000000E+00  0.00000000000E+00  0.18417960459E+03  0.18417960459E+03  0.00000000000E+00 0. -1.
         21   -1    0    0  501  502 -0.00000000000E+00 -0.00000000000E+00 -0.48528800112E+03  0.48528800112E+03  0.00000000000E+00 0. -1.
         25    1    1    2    0    0 -0.12981240416E+03  0.11780133048E+03 -0.13006102234E+03  0.25153386108E+03  0.12500000000E+03 0.  0.
         25    1    1    2    0    0  0.27901865588E+02 -0.97121054232E+02  0.25608757220E+02  0.16276308465E+03  0.12500000000E+03 0.  0.
         25    1    1    2    0    0  0.10191053857E+03 -0.20680276248E+02 -0.19665613140E+03  0.25517065998E+03  0.12500000000E+03 0.  0.
</event>
<event>
 5    0  0.5648525E-005  0.3017601E+03  0.7546771E-02  0.1084364E+00
         21   -1    0    0  502  501  0.00000000000E+00  0.00000000000E+00  0.38138895635E+03  0.38138895635E+03  0.00000000000E+00 0. -1.
         21   -1    0    0  501  502 -0.00000000000E+00 -0.00000000000E+00 -0.23875674013E+03  0.23875674013E+03  0.00000000000E+00 0. -1.
         25    1    1    2    0    0  0.18242765580E+02  0.21865311625E+03  0.97186576345E+02  0.27057755702E+03  0.12500000000E+03 0.  0.
         25    1    1    2    0    0  0.21151402743E+02 -0.15218827252E+03  0.95923730689E+01  0.19830699875E+03  0.12500000000E+03 0.  0.
         25    1    1    2    0    0 -0.39394168323E+02 -0.66464843728E+02  0.35853266811E+02  0.15126114072E+03  0.12500000000E+03 0.  0.
</event>
<event>
 5    0  0.5648525E-005  0.3702042E+03  0.7546771E-02  0.1054615E+00
         21   -1    0    0  502  501  0.00000000000E+00  0.00000000000E+00  0.23998294011E+03  0.23998294011E+03  0.00000000000E+00 0.  1.
         21   -1    0    0  501  502 -0.00000000000E+00 -0.00000000000E+00 -0.57108701843E+03  0.57108701843E+03  0.00000000000E+00 0.  1.
         25    1    1    2    0    0  0.13856243729E+03  0.69517773251E+02 -0.57321156328E+02  0.20722689205E+03  0.12500000000E+03 0.  0.
         25    1    1    2    0    0 -0.94900264904E+02  0.18845191008E+03 -0.15729988199E+03  0.29135620049E+03  0.12500000000E+03 0.  0.
         25    1    1    2    0    0 -0.43662172383E+02 -0.25796968333E+03 -0.11648304000E+03  0.31248686600E+03  0.12500000000E+03 0.  0.
</event>
<event>
 5    0  0.5648525E-005  0.2994240E+03  0.7546771E-02  0.1085529E+00
         21   -1    0    0  502  501  0.00000000000E+00  0.00000000000E+00  0.27199917905E+03  0.27199917905E+03  0.00000000000E+00 0. -1.
         21   -1    0    0  501  502 -0.00000000000E+00 -0.00000000000E+00 -0.32961395447E+03  0.32961395447E+03  0.00000000000E+00 0. -1.
         25    1    1    2    0    0 -0.12259918735E+03 -0.34636307398E+02  0.59260038565E+02  0.18806112490E+03  0.12500000000E+03 0.  0.
         25    1    1    2    0    0  0.48597667138E+02 -0.68127643204E+02 -0.17082427926E+03  0.22761599989E+03  0.12500000000E+03 0.  0.
         25    1    1    2    0    0  0.74001520209E+02  0.10276395060E+03  0.53949465282E+02  0.18593600873E+03  0.12500000000E+03 0.  0.
</event>
<event>
 5    0  0.5648525E-005  0.2493108E+03  0.7546771E-02  0.1113741E+00
         21   -1    0    0  502  501  0.00000000000E+00  0.00000000000E+00  0.17210203662E+04  0.17210203662E+04  0.00000000000E+00 0.  1.
         21   -1    0    0  501  502 -0.00000000000E+00 -0.00000000000E+00 -0.36115710781E+02  0.36115710781E+02  0.00000000000E+00 0.  1.
         25    1    1    2    0    0 -0.31613025281E+02 -0.11524138167E+03  0.47556191011E+03  0.50602775592E+03  0.12500000000E+03 0.  0.
         25    1    1    2    0    0  0.78641063407E+02  0.98825572663E+02  0.82415606405E+03  0.84309497008E+03  0.12500000000E+03 0.  0.
         25    1    1    2    0    0 -0.47028038126E+02  0.16415809007E+02  0.38518668122E+03  0.40801335094E+03  0.12500000000E+03 0.  0.
</event>
<event>
 5    0  0.5648525E-005  0.4697072E+03  0.7546771E-02  0.1022003E+00
         21   -1    0    0  502  501  0.00000000000E+00  0.00000000000E+00  0.78160293975E+03  0.78160293975E+03  0.00000000000E+00 0.  1.
         21   -1    0    0  501  502 -0.00000000000E+00 -0.00000000000E+00 -0.28227232314E+03  0.28227232314E+03  0.00000000000E+00 0.  1.
         25    1    1    2    0    0  0.23212825686E+03 -0.69275759317E+02 -0.60991681142E+02  0.27933428652E+03  0.12500000000E+03 0.  0.
         25    1    1    2    0    0  0.47541147847E+02  0.12247565501E+03  0.51967570029E+02  0.18864271824E+03  0.12500000000E+03 0.  0.
         25    1    1    2    0    0 -0.27966940470E+03 -0.53199895696E+02  0.50835472772E+03  0.59589825812E+03  0.12500000000E+03 0.  0.
</event>
<event>
 5    0  0.5648525E-005  0.2599258E+03  0.7546771E-02  0.1107188E+00
         21   -1    0    0  502  501  0.00000000000E+00  0.00000000000E+00  0.83831409849E+02  0.83831409849E+02  0.00000000000E+00 0. -1.
         21   -1    0    0  501  502 -0.00000000000E+00 -0.00000000000E+00 -0.80592043527E+03  0.80592043527E+03  0.00000000000E+00 0. -1.
         25    1    1    2    0    0 -0.12022295962E+03 -0.79698593174E+01 -0.15591419577E+03  0.23334805575E+03  0.12500000000E+03 0.  0.
         25    1    1    2    0    0 -0.15102348876E+02 -0.50754376298E+01 -0.12212968632E+03  0.17548362114E+03  0.12500000000E+03 0.  0.
         25    1    1    2    0    0  0.13532530850E+03  0.13045296947E+02 -0.44404514333E+03  0.48092016822E+03  0.12500000000E+03 0.  0.
</event>
<event>
 5    0  0.5648525E-005  0.3866037E+03  0.7546771E-02  0.1048520E+00
         21   -1    0    0  502  501  0.00000000000E+00  0.00000000000E+00  0.12061269357E+04  0.12061269357E+04  0.00000000000E+00 0.  1.
         21   -1    0    0  501  502 -0.00000000000E+00 -0.00000000000E+00 -0.12391928109E+03  0.12391928109E+03  0.00000000000E+00 0.  1.
         25    1    1    2    0    0  0.23448565636E+01 -0.34499721252E+02  0.24546465895E+02  0.13199718977E+03  0.12500000000E+03 0.  0.
         25    1    1    2    0    0 -0.20449068506E+03  0.10523461460E+03  0.79429165344E+03  0.83631034617E+03  0.12500000000E+03 0.  0.
         25    1    1    2    0    0  0.20214582849E+03 -0.70734893348E+02  0.26336953529E+03  0.36173868086E+03  0.12500000000E+03 0.  0.
</event>
<event>
 5    0  0.5648525E-005  0.4057925E+03  0.7546771E-02  0.1041792E+00
         21   -1    0    0  502  501  0.00000000000E+00  0.00000000000E+00  0.86602783192E+03  0.86602783192E+03  0.00000000000E+00 0.  1.
         21   -1    0    0  501  502 -0.00000000000E+00 -0.00000000000E+00 -0.19014113927E+03  0.19014113927E+03  0.00000000000E+00 0.  1.
         25    1    1    2    0    0 -0.28846586624E+02 -0.10192927390E+03 -0.17227723071E+02  0.16475283573E+03  0.12500000000E+03 0.  0.
         25    1    1    2    0    0  0.79808891047E+02 -0.18686088823E+03  0.25013468987E+03  0.34565707532E+03  0.12500000000E+03 0.  0.
         25    1    1    2    0    0 -0.50962304422E+02  0.28879016213E+03  0.44297972584E+03  0.54575906014E+03  0.12500000000E+03 0.  0.
</event>
<event>
 5    0  0.5648525E-005  0.3106060E+03  0.7546771E-02  0.1080056E+00
         21   -1    0    0  502  501  0.00000000000E+00  0.00000000000E+00  0.19266002868E+04  0.19266002868E+04  0.00000000000E+00 0.  1.
         21   -1    0    0  501  502 -0.00000000000E+00 -0.00000000000E+00 -0.50075824319E+02  0.50075824319E+02  0.00000000000E+00 0.  1.
         25    1    1    2    0    0  0.16700601082E+02 -0.20782709089E+03  0.11178023532E+04  0.11439309903E+04  0.12500000000E+03 0.  0.
         25    1    1    2    0    0  0.38696312675E+02  0.93466127020E+02  0.42497610155E+03  0.45438200713E+03  0.12500000000E+03 0.  0.
         25    1    1    2    0    0 -0.55396913756E+02  0.11436096387E+03  0.33374600772E+03  0.37836311367E+03  0.12500000000E+03 0.  0.
</event>
<event>
 5    0  0.5648525E-005  0.2728411E+03  0.7546771E-02  0.1099664E+00
         21   -1    0    0  502  501  0.00000000000E+00  0.00000000000E+00  0.41744273870E+03  0.41744273870E+03  0.00000000000E+00 0. -1.
         21   -1    0    0  501  502 -0.00000000000E+00 -0.00000000000E+00 -0.17832933487E+03  0.17832933487E+03  0.00000000000E+00 0. -1.
         25    1    1    2    0    0 -0.31938295737E+02  0.20385850467E+02  0.19635376474E+03  0.23582925722E+03  0.12500000000E+03 0.  0.
         25    1    1    2    0    0  0.59172195060E+02  0.37199863679E+01  0.14047749139E+03  0.19716519103E+03  0.12500000000E+03 0.  0.
         25    1    1    2    0    0 -0.27233899323E+02 -0.24105836835E+02 -0.97717852306E+02  0.16277762531E+03  0.12500000000E+03 0.  0.
</event>
<event>
 5    0  0.5648525E-005  0.3329322E+03  0.7546771E-02  0.1069847E+00
         21   -1    0    0  502  501  0.00000000000E+00  0.00000000000E+00  0.42892867857E+03  0.42892867857E+03  0.00000000000E+00 0. -1.
         21   -1    0    0  501  502 -0.00000000000E+00 -0.00000000000E+00 -0.25842029845E+03  0.25842029845E+03  0.00000000000E+00 0. -1.
         25    1    1    2    0    0 -0.93403733991E+02  0.59793221595E+02  0.97956161050E+02  0.19370053268E+03  0.12500000000E+03 0.  0.
         25    1    1    2    0    0  0.14198831658E+03 -0.14701047941E+02 -0.14175618045E+03  0.23684724518E+03  0.12500000000E+03 0.  0.
         25    1    1    2    0    0 -0.48584582586E+02 -0.45092173654E+02  0.21430839952E+03  0.25680119917E+03  0.12500000000E+03 0.  0.
</event>
<event>
 5    0  0.5648525E-005  0.3533018E+03  0.7546771E-02  0.1061268E+00
         21   -1    0    0  502  501  0.00000000000E+00  0.00000000000E+00  0.10867331935E+04  0.10867331935E+04  0.00000000000E+00 0.  1.
         21   -1    0    0  501  502 -0.00000000000E+00 -0.00000000000E+00 -0.11485999624E+03  0.11485999624E+03  0.00000000000E+00 0.  1.
         25    1    1    2    0    0 -0.18887506800E+03 -0.11111505669E+03  0.31485065920E+03  0.40345543091E+03  0.12500000000E+03 0.  0.
         25    1    1    2    0    0  0.20871438696E+03  0.17980599189E+02  0.56649582475E+03  0.61678806468E+03  0.12500000000E+03 0.  0.
         25    1    1    2    0    0 -0.19839318965E+02  0.93134457500E+02  0.90526713332E+02  0.18134969418E+03  0.12500000000E+03 0.  0.
</event>
<event>
 5    0  0.5648525E-005  0.2125147E+03  0.7546771E-02  0.1139590E+00
         21   -1    0    0  502  501  0.00000000000E+00  0.00000000000E+00  0.86241545766E+03  0.86241545766E+03  0.00000000000E+00 0.  1.
         21   -1    0    0  501  502 -0.00000000000E+00 -0.00000000000E+00 -0.52367447300E+02  0.52367447300E+02  0.00000000000E+00 0. -1.
         25    1    1    2    0    0 -0.54407006204E+02 -0.50556636771E+02  0.24431375470E+03  0.28430671216E+03  0.12500000000E+03 0.  0.
         25    1    1    2    0    0 -0.14294872251E+02  0.83178319915E+01  0.30937000782E+03  0.33407833129E+03  0.12500000000E+03 0.  0.
         25    1    1    2    0    0  0.68701878454E+02  0.42238804780E+02  0.25636424784E+03  0.29639786150E+03  0.12500000000E+03 0.  0.
</event>
<event>
 5    0  0.5648525E-005  0.5469690E+03  0.7546771E-02  0.1002198E+00
         21   -1    0    0  502  501  0.00000000000E+00  0.00000000000E+00  0.73906502766E+03  0.73906502766E+03  0.00000000000E+00 0.  1.
         21   -1    0    0  501  502 -0.00000000000E+00 -0.00000000000E+00 -0.40480206439E+03  0.40480206439E+03  0.00000000000E+00 0.  1.
         25    1    1    2    0    0  0.19806759232E+03 -0.54399133206E+01  0.19961725767E+03  0.30778631117E+03  0.12500000000E+03 0.  0.
         25    1    1    2    0    0  0.15449029274E+03 -0.25545209911E+03 -0.77956827369E+02  0.33290432923E+03  0.12500000000E+03 0.  0.
         25    1    1    2    0    0 -0.35255788506E+03  0.26089201243E+03  0.21260253296E+03  0.50317645164E+03  0.12500000000E+03 0.  0.
</event>
<event>
 5    0  0.5648525E-005  0.3122007E+03  0.7546771E-02  0.1079296E+00
         21   -1    0    0  502  501  0.00000000000E+00  0.00000000000E+00  0.10185583495E+04  0.10185583495E+04  0.00000000000E+00 0. -1.
         21   -1    0    0  501  502 -0.00000000000E+00 -0.00000000000E+00 -0.95693392023E+02  0.95693392023E+02  0.00000000000E+00 0. -1.
         25    1    1    2    0    0 -0.31103086583E+02  0.57589928188E+01  0.48520965939E+03  0.50204977996E+03  0.12500000000E+03 0.  0.
         25    1    1    2    0    0  0.10154719262E+03  0.54976292842E+02  0.42271022920E+03  0.45567879365E+03  0.12500000000E+03 0.  0.
         25    1    1    2    0    0 -0.70444106038E+02 -0.60735285660E+02  0.14945068844E+02  0.15652316788E+03  0.12500000000E+03 0.  0.
</event>
<event>
 5    0  0.5648525E-005  0.3170760E+03  0.7546771E-02  0.1077003E+00
         21   -1    0    0  502  501  0.00000000000E+00  0.00000000000E+00  0.53918122157E+03  0.53918122157E+03  0.00000000000E+00 0. -1.
         21   -1    0    0  501  502 -0.00000000000E+00 -0.00000000000E+00 -0.18646265133E+03  0.18646265133E+03  0.00000000000E+00 0. -1.
         25    1    1    2    0    0 -0.16509514918E+02  0.58746132692E+02  0.14315640432E+03  0.19960568200E+03  0.12500000000E+03 0.  0.
         25    1    1    2    0    0  0.96953545552E+02 -0.81599515782E+02 -0.83521475191E+02  0.19661970346E+03  0.12500000000E+03 0.  0.
         25    1    1    2    0    0 -0.80444030634E+02  0.22853383090E+02  0.29308364112E+03  0.32941848745E+03  0.12500000000E+03 0.  0.
</event>
<event>
 5    0  0.5648525E-005  0.3585409E+03  0.7546771E-02  0.1059163E+00
         21   -1    0    0  502  501  0.00000000000E+00  0.00000000000E+00  0.82223013129E+03  0.82223013129E+03  0.00000000000E+00 0. -1.
         21   -1    0    0  501  502 -0.00000000000E+00 -0.00000000000E+00 -0.15634497795E+03  0.15634497795E+03  0.00000000000E+00 0. -1.
         25    1    1    2    0    0  0.13506927715E+03 -0.27380437919E+02  0.18122806035E+03  0.25973449496E+03  0.12500000000E+03 0.  0.
         25    1    1    2    0    0 -0.14328482278E+02  0.58726823150E+02  0.52045097821E+03  0.53865421736E+03  0.12500000000E+03 0.  0.
         25    1    1    2    0    0 -0.12074079488E+03 -0.31346385231E+02 -0.35793885224E+02  0.18018639692E+03  0.12500000000E+03 0.  0.
</event>
<event>
 5    0  0.5648525E-005  0.2719301E+03  0.7546771E-02  0.1100180E+00
         21   -1    0    0  502  501  0.00000000000E+00  0.00000000000E+00  0.30066036737E+03  0.30066036737E+03  0.00000000000E+00 0. -1.
         21   -1    0    0  501  502 -0.00000000000E+00 -0.00000000000E+00 -0.24594524537E+03  0.24594524537E+03  0.00000000000E+00 0. -1.
         25    1    1    2    0    0  0.38031852983E+02  0.12307640901E+03  0.78949353013E+02  0.19609238801E+03  0.12500000000E+03 0.  0.
         25    1    1    2    0    0 -0.77416466268E+02 -0.11142581146E+03 -0.87889706555E+02  0.20434926285E+03  0.12500000000E+03 0.  0.
         25    1    1    2    0    0  0.39384613285E+02 -0.11650597545E+02  0.63655475541E+02  0.14616396188E+03  0.12500000000E+03 0.  0.
</event>
<event>
 5    0  0.5648525E-005  0.2392592E+03  0.7546771E-02  0.1120287E+00
         21   -1    0    0  502  501  0.00000000000E+00  0.00000000000E+00  0.14428212300E+04  0.14428212300E+04  0.00000000000E+00 0. -1.
         21   -1    0    0  501  502 -0.00000000000E+00 -0.00000000000E+00 -0.39675707488E+02  0.39675707488E+02  0.00000000000E+00 0. -1.
         25    1    1    2    0    0  0.26350784618E+02 -0.55506420483E+02  0.38428367491E+03  0.40874719494E+03  0.12500000000E+03 0.  0.
         25    1    1    2    0    0 -0.47574866517E+02 -0.13481546756E+02  0.19197931274E+03  0.23436334301E+03  0.12500000000E+03 0.  0.
         25    1    1    2    0    0  0.21224081899E+02  0.68987967239E+02  0.82688253490E+03  0.83938639958E+03  0.12500000000E+03 0.  0.
</event>
<event>
 5    0  0.5648525E-005  0.3233251E+03  0.7546771E-02  0.1074129E+00
         21   -1    0    0  502  501  0.00000000000E+00  0.00000000000E+00  0.13856884805E+04  0.13856884805E+04  0.00000000000E+00 0. -1.
         21   -1    0    0  501  502 -0.00000000000E+00 -0.00000000000E+00 -0.75441989568E+02  0.75441989568E+02  0.00000000000E+00 0. -1.
         25    1    1    2    0    0 -0.42283945347E+02  0.37121672169E+02  0.28658461891E+03  0.31768175014E+03  0.12500000000E+03 0.  0.
         25    1    1    2    0    0 -0.40621344619E+02  0.67416706085E+02  0.54904501464E+02  0.15759000660E+03  0.12500000000E+03 0.  0.
         25    1    1    2    0    0  0.82905289966E+02 -0.10453837825E+03  0.96875737053E+03  0.98585871330E+03  0.12500000000E+03 0.  0.
</event>
<event>
 5    0  0.5887949E-005  0.3535068E+03  0.7546771E-02  0.1061185E+00
         21   -1    0    0  502  501  0.00000000000E+00  0.00000000000E+00  0.47873798253E+03  0.47873798253E+03  0.00000000000E+00 0. -1.
         21   -1    0    0  501  502 -0.00000000000E+00 -0.00000000000E+00 -0.26103436950E+03  0.26103436950E+03  0.00000000000E+00 0. -1.
         25    1    1    2    0    0 -0.69381992283E+02 -0.78159251647E+02 -0.71912791394E+02  0.17809879011E+03  0.12500000000E+03 0.  0.
         25    1    1    2    0    0 -0.31380232858E+02 -0.15133974165E+03  0.14797422394E+03  0.24781002274E+03  0.12500000000E+03 0.  0.
         25    1    1    2    0    0  0.10076222514E+03  0.22949899330E+03  0.14164218047E+03  0.31386353919E+03  0.12500000000E+03 0.  0.
</event>
<event>
 5    0  0.5648525E-005  0.2977176E+03  0.7546771E-02  0.1086387E+00
         21   -1    0    0  502  501  0.00000000000E+00  0.00000000000E+00  0.13923030865E+03  0.13923030865E+03  0.00000000000E+00 0.  1.
         21   -1    0    0  501  502 -0.00000000000E+00 -0.00000000000E+00 -0.63661273690E+03  0.63661273690E+03  0.00000000000E+00 0.  1.
         25    1    1    2    0    0 -0.14943233101E+03  0.39636157769E+02 -0.13160140023E+03  0.23842184274E+03  0.12500000000E+03 0.  0.
         25    1    1    2    0    0  0.12367041825E+02  0.62060165083E+02 -0.34392952809E+02  0.14426462843E+03  0.12500000000E+03 0.  0.
         25    1    1    2    0    0  0.13706528918E+03 -0.10169632285E+03 -0.33138807521E+03  0.39315657437E+03  0.12500000000E+03 0.  0.
</event>
<event>
 5    0  0.6440719E-005  0.3552170E+03  0.7546771E-02  0.1060494E+00
         21   -1    0    0  502  501  0.00000000000E+00  0.00000000000E+00  0.65822254921E+03  0.65822254921E+03  0.00000000000E+00 0. -1.
         21   -1    0    0  501  502 -0.00000000000E+00 -0.00000000000E+00 -0.19169672505E+03  0.19169672505E+03  0.00000000000E+00 0. -1.
         25    1    1    2    0    0 -0.11473913536E+03  0.90383943396E+02  0.49541431499E+02  0.19852878845E+03  0.12500000000E+03 0.  0.
         25    1    1    2    0    0  0.25046979958E+03  0.55192225690E+01  0.30932527130E+03  0.41722021258E+03  0.12500000000E+03 0.  0.
         25    1    1    2    0    0 -0.13573066422E+03 -0.95903165965E+02  0.10765912137E+03  0.23417027323E+03  0.12500000000E+03 0.  0.
</event>
<event>
 5    0  0.5648525E-005  0.3127877E+03  0.7546771E-02  0.1079017E+00
         21   -1    0    0  502  501  0.00000000000E+00  0.00000000000E+00  0.26781380527E+03  0.26781380527E+03  0.00000000000E+00 0.  1.
         21   -1    0    0  501  502 -0.00000000000E+00 -0.00000000000E+00 -0.36531407425E+03  0.36531407425E+03  0.00000000000E+00 0.  1.
         25    1    1    2    0    0 -0.25403552747E+02 -0.72241422606E+02 -0.13442830077E+03  0.19889728927E+03  0.12500000000E+03 0.  0.
         25    1    1    2    0    0  0.31684340301E+02  0.19618867977E+03 -0.46486653189E+02  0.23933220513E+03  0.12500000000E+03 0.  0.
         25    1    1    2    0    0 -0.62807875544E+01 -0.12394725716E+03  0.83414684984E+02  0.19489838512E+03  0.12500000000E+03 0.  0.
</event>
<event>
 5    0  0.6548177E-005  0.2655035E+03  0.7546771E-02  0.1103881E+00
         21   -1    0    0  502  501  0.00000000000E+00  0.00000000000E+00  0.42843119415E+03  0.42843119415E+03  0.00000000000E+00 0. -1.
         21   -1    0    0  501  502 -0.00000000000E+00 -0.00000000000E+00 -0.16453546968E+03  0.16453546968E+03  0.00000000000E+00 0. -1.
         25    1    1    2    0    0  0.23598767270E+02 -0.20140579649E+02  0.15622892177E+03  0.20247227159E+03  0.12500000000E+03 0.  0.
         25    1    1    2    0    0 -0.10038859572E+03 -0.13807239387E+02 -0.53838220572E+02  0.16968224422E+03  0.12500000000E+03 0.  0.
         25    1    1    2    0    0  0.76789828447E+02  0.33947819036E+02  0.16150502327E+03  0.22081214801E+03  0.12500000000E+03 0.  0.
</event>
<event>
 5    0  0.5648525E-005  0.3242270E+03  0.7546771E-02  0.1073720E+00
         21   -1    0    0  502  501  0.00000000000E+00  0.00000000000E+00  0.35414750377E+03  0.35414750377E+03  0.00000000000E+00 0. -1.
         21   -1    0    0  501  502 -0.00000000000E+00 -0.00000000000E+00 -0.29683429951E+03  0.29683429951E+03  0.00000000000E+00 0. -1.
         25    1    1    2    0    0  0.13046610368E+03  0.30705517480E+02  0.86401111270E+02  0.20261881710E+03  0.12500000000E+03 0.  0.
         25    1    1    2    0    0  0.85377385830E+02 -0.16448708868E+01  0.83813280970E+02  0.17303661369E+03  0.12500000000E+03 0.  0.
         25    1    1    2    0    0 -0.21584348951E+03 -0.29060646593E+02 -0.11290118798E+03  0.27532637249E+03  0.12500000000E+03 0.  0.
</event>
<event>
 5    0  0.5648525E-005  0.3843356E+03  0.7546771E-02  0.1049343E+00
         21   -1    0    0  502  501  0.00000000000E+00  0.00000000000E+00  0.18348199171E+03  0.18348199171E+03  0.00000000000E+00 0. -1.
         21   -1    0    0  501  502 -0.00000000000E+00 -0.00000000000E+00 -0.80505894216E+03  0.80505894216E+03  0.00000000000E+00 0. -1.
         25    1    1    2    0    0  0.35764831505E+02 -0.16041086606E+03 -0.48576271146E+02  0.21212124656E+03  0.12500000000E+03 0.  0.
         25    1    1    2    0    0 -0.18312314743E+03 -0.10279374106E+02 -0.42413682576E+03  0.47870324798E+03  0.12500000000E+03 0.  0.
         25    1    1    2    0    0  0.14735831593E+03  0.17069024017E+03 -0.14886385354E+03  0.29771643934E+03  0.12500000000E+03 0.  0.
</event>
<event>
 5    0  0.5648525E-005  0.2561017E+03  0.7546771E-02  0.1109508E+00
         21   -1    0    0  502  501  0.00000000000E+00  0.00000000000E+00  0.46518270943E+03  0.46518270943E+03  0.00000000000E+00 0.  1.
         21   -1    0    0  501  502 -0.00000000000E+00 -0.00000000000E+00 -0.14099422224E+03  0.14099422224E+03  0.00000000000E+00 0.  1.
         25    1    1    2    0    0  0.69662835380E+01  0.49744152795E+02  0.17655591698E+03  0.22208107002E+03  0.12500000000E+03 0.  0.
         25    1    1    2    0    0 -0.80975076938E+02 -0.91390941119E+02  0.15389549613E+03  0.23284778490E+03  0.12500000000E+03 0.  0.
         25    1    1    2    0    0  0.74008793400E+02  0.41646788323E+02 -0.62629259136E+01  0.15124807675E+03  0.12500000000E+03 0.  0.
</event>
<event>
 5    0  0.5648525E-005  0.2500627E+03  0.7546771E-02  0.1113265E+00
         21   -1    0    0  502  501  0.00000000000E+00  0.00000000000E+00  0.11559598148E+03  0.11559598148E+03  0.00000000000E+00 0.  1.
         21   -1    0    0  501  502 -0.00000000000E+00 -0.00000000000E+00 -0.54094766329E+03  0.54094766329E+03  0.00000000000E+00 0.  1.
         25    1    1    2    0    0  0.86532380746E+02 -0.45490280084E+02 -0.21179792794E+03  0.26465181046E+03  0.12500000000E+03 0.  0.
         25    1    1    2    0    0 -0.35490984088E+02 -0.48348524386E+02 -0.17453309770E+03  0.22289906226E+03  0.12500000000E+03 0.  0.
         25    1    1    2    0    0 -0.51041396658E+02  0.93838804470E+02 -0.39020656159E+02  0.16899277205E+03  0.12500000000E+03 0.  0.
</event>
<event>
 5    0  0.5648525E-005  0.3207610E+03  0.7546771E-02  0.1075300E+00
         21   -1    0    0  502  501  0.00000000000E+00  0.00000000000E+00  0.11625054521E+03  0.11625054521E+03  0.00000000000E+00 0. -1.
         21   -1    0    0  501  502 -0.00000000000E+00 -0.00000000000E+00 -0.88505054346E+03  0.88505054346E+03  0.00000000000E+00 0. -1.
         25    1    1    2    0    0  0.92247783587E+02  0.11465495884E+03 -0.20906544501E+03  0.28458526571E+03  0.12500000000E+03 0.  0.
         25    1    1    2    0    0  0.81488041807E+01 -0.75108367168E+02 -0.52894311187E+03  0.54873808454E+03  0.12500000000E+03 0.  0.
         25    1    1    2    0    0 -0.10039658777E+03 -0.39546591667E+02 -0.30791441374E+02  0.16797773843E+03  0.12500000000E+03 0.  0.
</event>
<event>
 5    0  0.5648525E-005  0.3744493E+03  0.7546771E-02  0.1053005E+00
         21   -1    0    0  502  501  0.00000000000E+00  0.00000000000E+00  0.10069599106E+04  0.10069599106E+04  0.00000000000E+00 0. -1.
         21   -1    0    0  501  502 -0.00000000000E+00 -0.00000000000E+00 -0.13924314346E+03  0.13924314346E+03  0.00000000000E+00 0. -1.
         25    1    1    2    0    0 -0.67116310763E+02 -0.18649247541E+03  0.58202669662E+03  0.62742658386E+03  0.12500000000E+03 0.  0.
         25    1    1    2    0    0  0.13915781546E+03  0.11444988346E+03  0.37018575750E+02  0.22239390364E+03  0.12500000000E+03 0.  0.
         25    1    1    2    0    0 -0.72041504693E+02  0.72042591951E+02  0.24867149482E+03  0.29638256661E+03  0.12500000000E+03 0.  0.
</event>
<event>
 5    0  0.5959007E-005  0.3008744E+03  0.7546771E-02  0.1084804E+00
         21   -1    0    0  502  501  0.00000000000E+00  0.00000000000E+00  0.48460227446E+03  0.48460227446E+03  0.00000000000E+00 0. -1.
         21   -1    0    0  501  502 -0.00000000000E+00 -0.00000000000E+00 -0.18680355724E+03  0.18680355724E+03  0.00000000000E+00 0. -1.
         25    1    1    2    0    0 -0.98084645397E+02  0.28758866127E+02  0.84227836228E+02  0.18211808927E+03  0.12500000000E+03 0.  0.
         25    1    1    2    0    0  0.15763165583E+03 -0.41163242090E+02  0.27003615700E+03  0.33924427410E+03  0.12500000000E+03 0.  0.
         25    1    1    2    0    0 -0.59547010438E+02  0.12404375963E+02 -0.56465276000E+02  0.15004346833E+03  0.12500000000E+03 0.  0.
</event>
<event>
 5    0  0.5648525E-005  0.2471193E+03  0.7546771E-02  0.1115139E+00
         21   -1    0    0  502  501  0.00000000000E+00  0.00000000000E+00  0.14257223506E+03  0.14257223506E+03  0.00000000000E+00 0.  1.
         21   -1    0    0  501  502 -0.00000000000E+00 -0.00000000000E+00 -0.42832989410E+03  0.42832989410E+03  0.00000000000E+00 0.  1.
         25    1    1    2    0    0 -0.16248409457E+02 -0.11621903445E+03 -0.11194892751E+03  0.20476434540E+03  0.12500000000E+03 0.  0.
         25    1    1    2    0    0  0.47305382733E+02  0.10989206078E+03 -0.34741966653E+02  0.17648248781E+03  0.12500000000E+03 0.  0.
         25    1    1    2    0    0 -0.31056973276E+02  0.63269736719E+01 -0.13906676488E+03  0.18965529594E+03  0.12500000000E+03 0.  0.
</event>
<event>
 5    0  0.5648525E-005  0.2268592E+03  0.7546771E-02  0.1128870E+00
         21   -1    0    0  502  501  0.00000000000E+00  0.00000000000E+00  0.18261602515E+03  0.18261602515E+03  0.00000000000E+00 0.  1.
         21   -1    0    0  501  502 -0.00000000000E+00 -0.00000000000E+00 -0.28182142915E+03  0.28182142915E+03  0.00000000000E+00 0.  1.
         25    1    1    2    0    0  0.62763715398E+02  0.90241932788E+02 -0.28729268205E+02  0.16891791277E+03  0.12500000000E+03 0.  0.
         25    1    1    2    0    0 -0.44112668789E+01 -0.54691546615E+02  0.15966068944E+00  0.13651245378E+03  0.12500000000E+03 0.  0.
         25    1    1    2    0    0 -0.58352448519E+02 -0.35550386173E+02 -0.70635796485E+02  0.15900708774E+03  0.12500000000E+03 0.  0.
</event>
<event>
 5    0  0.5648525E-005  0.3924262E+03  0.7546771E-02  0.1046434E+00
         21   -1    0    0  502  501  0.00000000000E+00  0.00000000000E+00  0.17795606954E+04  0.17795606954E+04  0.00000000000E+00 0.  1.
         21   -1    0    0  501  502 -0.00000000000E+00 -0.00000000000E+00 -0.86537290181E+02  0.86537290181E+02  0.00000000000E+00 0.  1.
         25    1    1    2    0    0 -0.13790514045E+03 -0.69100625294E+02  0.14752737098E+03  0.24735005431E+03  0.12500000000E+03 0.  0.
         25    1    1    2    0    0  0.17318184322E+03 -0.54280638934E+02  0.12776475387E+04  0.12965132362E+04  0.12500000000E+03 0.  0.
         25    1    1    2    0    0 -0.35276702768E+02  0.12338126423E+03  0.26784849553E+03  0.32223469503E+03  0.12500000000E+03 0.  0.
</event>
<event>
 5    0  0.5648525E-005  0.3497124E+03  0.7546771E-02  0.1062733E+00
         21   -1    0    0  502  501  0.00000000000E+00  0.00000000000E+00  0.47562245187E+03  0.47562245187E+03  0.00000000000E+00 0. -1.
         21   -1    0    0  501  502 -0.00000000000E+00 -0.00000000000E+00 -0.25713414234E+03  0.25713414234E+03  0.00000000000E+00 0. -1.
         25    1    1    2    0    0  0.16516782563E+03  0.10321316538E+02 -0.18714642793E+02  0.20823587120E+03  0.12500000000E+03 0.  0.
         25    1    1    2    0    0 -0.34026980401E+02 -0.14314643441E+03  0.22927672616E+03  0.29973580740E+03  0.12500000000E+03 0.  0.
         25    1    1    2    0    0 -0.13114084523E+03  0.13282511787E+03  0.79262261542E+01  0.22478491561E+03  0.12500000000E+03 0.  0.
</event>
<event>
 5    0  0.5648525E-005  0.2611119E+03  0.7546771E-02  0.1106477E+00
         21   -1    0    0  502  501  0.00000000000E+00  0.00000000000E+00  0.15893183338E+03  0.15893183338E+03  0.00000000000E+00 0.  1.
         21   -1    0    0  501  502 -0.00000000000E+00 -0.00000000000E+00 -0.42898538650E+03  0.42898538650E+03  0.00000000000E+00 0.  1.
         25    1    1    2    0    0  0.20080067955E+02  0.14106605196E+02 -0.14469067777E+03  0.19277602982E+03  0.12500000000E+03 0.  0.
         25    1    1    2    0    0 -0.13081859595E+03  0.59607409979E+02 -0.45315292706E+02  0.19581885538E+03  0.12500000000E+03 0.  0.
         25    1    1    2    0    0  0.11073852799E+03 -0.73714015175E+02 -0.80047582643E+02  0.19932233468E+03  0.12500000000E+03 0.  0.
</event>
<event>
 5    0  0.5648525E-005  0.3238181E+03  0.7546771E-02  0.1073905E+00
         21   -1    0    0  502  501  0.00000000000E+00  0.00000000000E+00  0.16574699216E+04  0.16574699216E+04  0.00000000000E+00 0. -1.
         21   -1    0    0  501  502 -0.00000000000E+00 -0.00000000000E+00 -0.63263984823E+02  0.63263984823E+02  0.00000000000E+00 0. -1.
         25    1    1    2    0    0 -0.18080511235E+02  0.12790753862E+03  0.57479698280E+03  0.60224896410E+03  0.12500000000E+03 0.  0.
         25    1    1    2    0    0  0.13409788470E+03 -0.11979596926E+03  0.85078020214E+03  0.87851310137E+03  0.12500000000E+03 0.  0.
         25    1    1    2    0    0 -0.11601737346E+03 -0.81115693613E+01  0.16862875184E+03  0.23997184095E+03  0.12500000000E+03 0.  0.
</event>
<event>
 5    0  0.5648525E-005  0.2708239E+03  0.7546771E-02  0.1100809E+00
         21   -1    0    0  502  501  0.00000000000E+00  0.00000000000E+00  0.78331664678E+03  0.78331664678E+03  0.00000000000E+00 0.  1.
         21   -1    0    0  501  502 -0.00000000000E+00 -0.00000000000E+00 -0.93634667204E+02  0.93634667204E+02  0.00000000000E+00 0.  1.
         25    1    1    2    0    0 -0.99991173485E+01  0.77365369921E+02  0.35980919890E+03  0.38880977666E+03  0.12500000000E+03 0.  0.
         25    1    1    2    0    0  0.30883628954E+02 -0.13496477256E+03  0.81802139720E+02  0.20368082490E+03  0.12500000000E+03 0.  0.
         25    1    1    2    0    0 -0.20884511606E+02  0.57599402640E+02  0.24807064096E+03  0.28446071243E+03  0.12500000000E+03 0.  0.
</event>
<event>
 5    0  0.5648525E-005  0.2461307E+03  0.7546771E-02  0.1115775E+00
         21   -1    0    0  502  501  0.00000000000E+00  0.00000000000E+00  0.12250527361E+04  0.12250527361E+04  0.00000000000E+00 0. -1.
         21   -1    0    0  501  502 -0.00000000000E+00 -0.00000000000E+00 -0.49451201124E+02  0.49451201124E+02  0.00000000000E+00 0. -1.
         25    1    1    2    0    0  0.17619461866E+01 -0.32400478245E+02  0.84744466445E+03  0.85722829792E+03  0.12500000000E+03 0.  0.
         25    1    1    2    0    0 -0.18982445380E+02  0.18879756306E+02  0.13289241309E+03  0.18439677841E+03  0.12500000000E+03 0.  0.
         25    1    1    2    0    0  0.17220499193E+02  0.13520721939E+02  0.19526445741E+03  0.23287886087E+03  0.12500000000E+03 0.  0.
</event>
<event>
 5    0  0.5648525E-005  0.3774135E+03  0.7546771E-02  0.1051894E+00
         21   -1    0    0  502  501  0.00000000000E+00  0.00000000000E+00  0.18175542323E+03  0.18175542323E+03  0.00000000000E+00 0. -1.
         21   -1    0    0  501  502 -0.00000000000E+00 -0.00000000000E+00 -0.78369581344E+03  0.78369581344E+03  0.00000000000E+00 0. -1.
         25    1    1    2    0    0  0.79044926276E+01  0.48015358155E+02 -0.40063036797E+03  0.42248981924E+03  0.12500000000E+03 0.  0.
         25    1    1    2    0    0  0.71520483942E+02 -0.22665408867E+03 -0.75231578280E+02  0.27887639897E+03  0.12500000000E+03 0.  0.
         25    1    1    2    0    0 -0.79424976569E+02  0.17863873051E+03 -0.12607844396E+03  0.26408501846E+03  0.12500000000E+03 0.  0.
</event>
<event>
 5    0  0.5648525E-005  0.2675217E+03  0.7546771E-02  0.1102706E+00
         21   -1    0    0  502  501  0.00000000000E+00  0.00000000000E+00  0.16451787656E+04  0.16451787656E+04  0.00000000000E+00 0. -1.
         21   -1    0    0  501  502 -0.00000000000E+00 -0.00000000000E+00 -0.43501574481E+02  0.43501574481E+02  0.00000000000E+00 0. -1.
         25    1    1    2    0    0 -0.53249755083E+02  0.11767131444E+03  0.30868908360E+03  0.35720585800E+03  0.12500000000E+03 0.  0.
         25    1    1    2    0    0  0.98407270044E+02 -0.77581510131E+02  0.79762179297E+03  0.81702411600E+03  0.12500000000E+03 0.  0.
         25    1    1    2    0    0 -0.45157514961E+02 -0.40089804305E+02  0.49536631458E+03  0.51445036611E+03  0.12500000000E+03 0.  0.
</event>
<event>
 5    0  0.5648525E-005  0.2452044E+03  0.7546771E-02  0.1116374E+00
         21   -1    0    0  502  501  0.00000000000E+00  0.00000000000E+00  0.33587215413E+03  0.33587215413E+03  0.00000000000E+00 0.  1.
         21   -1    0    0  501  502 -0.00000000000E+00 -0.00000000000E+00 -0.17901210855E+03  0.17901210855E+03  0.00000000000E+00 0.  1.
         25    1    1    2    0    0 -0.22308440166E+02  0.38882068651E+02  0.12657859179E+03  0.18345741104E+03  0.12500000000E+03 0.  0.
         25    1    1    2    0    0 -0.90442464032E+02 -0.15854691955E+02  0.43275454440E+02  0.16102476677E+03  0.12500000000E+03 0.  0.
         25    1    1    2    0    0  0.11275090420E+03 -0.23027376696E+02 -0.12994000648E+02  0.17040208487E+03  0.12500000000E+03 0.  0.
</event>
<event>
 5    0  0.5648525E-005  0.4508054E+03  0.7546771E-02  0.1027482E+00
         21   -1    0    0  502  501  0.00000000000E+00  0.00000000000E+00  0.15824307325E+04  0.15824307325E+04  0.00000000000E+00 0. -1.
         21   -1    0    0  501  502 -0.00000000000E+00 -0.00000000000E+00 -0.12842618511E+03  0.12842618511E+03  0.00000000000E+00 0. -1.
         25    1    1    2    0    0  0.63858312558E+02 -0.16938976871E+03  0.18617109048E+03  0.28819342941E+03  0.12500000000E+03 0.  0.
         25    1    1    2    0    0  0.58678173860E+02 -0.24657360975E+02  0.11069009595E+04  0.11157534888E+04  0.12500000000E+03 0.  0.
         25    1    1    2    0    0 -0.12253648642E+03  0.19404712969E+03  0.16093249745E+03  0.30690999948E+03  0.12500000000E+03 0.  0.
</event>
<event>
 5    0  0.5648525E-005  0.3478069E+03  0.7546771E-02  0.1063519E+00
         21   -1    0    0  502  501  0.00000000000E+00  0.00000000000E+00  0.59513693746E+03  0.59513693746E+03  0.00000000000E+00 0.  1.
         21   -1    0    0  501  502 -0.00000000000E+00 -0.00000000000E+00 -0.20326358492E+03  0.20326358492E+03  0.00000000000E+00 0.  1.
         25    1    1    2    0    0  0.60842091561E+02 -0.20920731942E+03  0.34447688312E+03  0.42633177879E+03  0.12500000000E+03 0.  0.
         25    1    1    2    0    0  0.31149273700E+02  0.10210301839E+03 -0.32001780357E+02  0.16746467557E+03  0.12500000000E+03 0.  0.
         25    1    1    2    0    0 -0.91991365261E+02  0.10710430103E+03  0.79398249776E+02  0.20460406802E+03  0.12500000000E+03 0.  0.
</event>
<event>
 5    0  0.5648525E-005  0.3213962E+03  0.7546771E-02  0.1075009E+00
         21   -1    0    0  502  501  0.00000000000E+00  0.00000000000E+00  0.10723232441E+03  0.10723232441E+03  0.00000000000E+00 0. -1.
         21   -1    0    0  501  502 -0.00000000000E+00 -0.00000000000E+00 -0.96328727887E+03  0.96328727887E+03  0.00000000000E+00 0. -1.
         25    1    1    2    0    0  0.83847555653E+02  0.20531851548E+02 -0.12147097186E+02  0.15239593658E+03  0.12500000000E+03 0.  0.
         25    1    1    2    0    0  0.45081290677E+02 -0.19354153638E+02 -0.60229309078E+03  0.61708092924E+03  0.12500000000E+03 0.  0.
         25    1    1    2    0    0 -0.12892884633E+03 -0.11776979104E+01 -0.24161476650E+03  0.30104273746E+03  0.12500000000E+03 0.  0.
</event>
<event>
 5    0  0.5648525E-005  0.2773151E+03  0.7546771E-02  0.1097164E+00
         21   -1    0    0  502  501  0.00000000000E+00  0.00000000000E+00  0.14208500819E+04  0.14208500819E+04  0.00000000000E+00 0.  1.
         21   -1    0    0  501  502 -0.00000000000E+00 -0.00000000000E+00 -0.54125117826E+02  0.54125117826E+02  0.00000000000E+00 0.  1.
         25    1    1    2    0    0 -0.65434782471E+02  0.23646041899E+02  0.43748439781E+03  0.46028083208E+03  0.12500000000E+03 0.  0.
         25    1    1    2    0    0  0.70580629381E+02 -0.14594885319E+03  0.68022692756E+03  0.71036354493E+03  0.12500000000E+03 0.  0.
         25    1    1    2    0    0 -0.51458469101E+01  0.12230281129E+03  0.24901363870E+03  0.30433082271E+03  0.12500000000E+03 0.  0.
</event>
<event>
 5    0  0.5648525E-005  0.5124926E+03  0.7546771E-02  0.1010569E+00
         21   -1    0    0  502  501  0.00000000000E+00  0.00000000000E+00  0.31778715241E+03  0.31778715241E+03  0.00000000000E+00 0. -1.
         21   -1    0    0  501  502 -0.00000000000E+00 -0.00000000000E+00 -0.82649249761E+03  0.82649249761E+03  0.00000000000E+00 0. -1.
         25    1    1    2    0    0  0.12813423172E+03 -0.22624253157E+03  0.18362687342E+03  0.34197645105E+03  0.12500000000E+03 0.  0.
         25    1    1    2    0    0 -0.62367057305E+02  0.16397280378E+03 -0.55631737534E+03  0.59656579882E+03  0.12500000000E+03 0.  0.
         25    1    1    2    0    0 -0.65767174414E+02  0.62269727786E+02 -0.13601484328E+03  0.20573740015E+03  0.12500000000E+03 0.  0.
</event>
<event>
 5    0  0.5648525E-005  0.2506036E+03  0.7546771E-02  0.1112924E+00
         21   -1    0    0  502  501  0.00000000000E+00  0.00000000000E+00  0.46173338794E+03  0.46173338794E+03  0.00000000000E+00 0.  1.
         21   -1    0    0  501  502 -0.00000000000E+00 -0.00000000000E+00 -0.13601388855E+03  0.13601388855E+03  0.00000000000E+00 0.  1.
         25    1    1    2    0    0 -0.82401463052E+01 -0.22942343784E+02 -0.23651687620E+02  0.12953244179E+03  0.12500000000E+03 0.  0.
         25    1    1    2    0    0 -0.72936325566E+02  0.37330396831E+02  0.10886765954E+03  0.18490655318E+03  0.12500000000E+03 0.  0.
         25    1    1    2    0    0  0.81176471871E+02 -0.14388053047E+02  0.24050352746E+03  0.28330828152E+03  0.12500000000E+03 0.  0.
</event>
<event>
 5    0  0.5648525E-005  0.2758539E+03  0.7546771E-02  0.1097975E+00
         21   -1    0    0  502  501  0.00000000000E+00  0.00000000000E+00  0.58534475573E+02  0.58534475573E+02  0.00000000000E+00 0. -1.
         21   -1    0    0  501  502 -0.00000000000E+00 -0.00000000000E+00 -0.13000098584E+04  0.13000098584E+04  0.00000000000E+00 0. -1.
         25    1    1    2    0    0 -0.47281578852E+02 -0.23808079281E+02 -0.26807596577E+03  0.30048643191E+03  0.12500000000E+03 0.  0.
         25    1    1    2    0    0  0.32287856994E+02 -0.47199954842E+02 -0.93217253386E+02  0.16608671764E+03  0.12500000000E+03 0.  0.
         25    1    1    2    0    0  0.14993721858E+02  0.71008034123E+02 -0.88018216366E+03  0.89197118442E+03  0.12500000000E+03 0.  0.
</event>
<event>
 5    0  0.5952167E-005  0.3150236E+03  0.7546771E-02  0.1077963E+00
         21   -1    0    0  502  501  0.00000000000E+00  0.00000000000E+00  0.57524034886E+03  0.57524034886E+03  0.00000000000E+00 0. -1.
         21   -1    0    0  501  502 -0.00000000000E+00 -0.00000000000E+00 -0.17251890949E+03  0.17251890949E+03  0.00000000000E+00 0. -1.
         25    1    1    2    0    0  0.58368980205E+02  0.12399921573E+03  0.19094496205E+03  0.26620992071E+03  0.12500000000E+03 0.  0.
         25    1    1    2    0    0 -0.86002209216E+02  0.73070297644E+02  0.17643691146E+03  0.24390701530E+03  0.12500000000E+03 0.  0.
         25    1    1    2    0    0  0.27633229011E+02 -0.19706951338E+03  0.35339565865E+02  0.23764232233E+03  0.12500000000E+03 0.  0.
</event>
<event>
 5    0  0.5661618E-005  0.2741004E+03  0.7546771E-02  0.1098956E+00
         21   -1    0    0  502  501  0.00000000000E+00  0.00000000000E+00  0.44151912756E+03  0.44151912756E+03  0.00000000000E+00 0.  1.
         21   -1    0    0  501  502 -0.00000000000E+00 -0.00000000000E+00 -0.17016477560E+03  0.17016477560E+03  0.00000000000E+00 0.  1.
         25    1    1    2    0    0  0.10357241780E+03  0.67311095043E+02  0.99037417487E+02  0.20172119202E+03  0.12500000000E+03 0.  0.
         25    1    1    2    0    0 -0.33470793237E+02 -0.10816220739E+03 -0.16457084404E+02  0.16945557746E+03  0.12500000000E+03 0.  0.
         25    1    1    2    0    0 -0.70101624568E+02  0.40851112343E+02  0.18877401888E+03  0.24050713368E+03  0.12500000000E+03 0.  0.
</event>
<event>
 5    0  0.5648525E-005  0.3571914E+03  0.7546771E-02  0.1059702E+00
         21   -1    0    0  502  501  0.00000000000E+00  0.00000000000E+00  0.79594373159E+03  0.79594373159E+03  0.00000000000E+00 0. -1.
         21   -1    0    0  501  502 -0.00000000000E+00 -0.00000000000E+00 -0.16029484525E+03  0.16029484525E+03  0.00000000000E+00 0. -1.
         25    1    1    2    0    0 -0.18158121255E+03 -0.18705942167E+03  0.19804145099E+03  0.35044026637E+03  0.12500000000E+03 0.  0.
         25    1    1    2    0    0  0.16424250469E+03  0.26816910806E+02  0.27535101365E+03  0.34516362463E+03  0.12500000000E+03 0.  0.
         25    1    1    2    0    0  0.17338707863E+02  0.16024251086E+03  0.16225642170E+03  0.26063468583E+03  0.12500000000E+03 0.  0.
</event>
<event>
 5    0  0.5648525E-005  0.4277501E+03  0.7546771E-02  0.1034573E+00
         21   -1    0    0  502  501  0.00000000000E+00  0.00000000000E+00  0.33214269511E+03  0.33214269511E+03  0.00000000000E+00 0. -1.
         21   -1    0    0  501  502 -0.00000000000E+00 -0.00000000000E+00 -0.55087812175E+03  0.55087812175E+03  0.00000000000E+00 0. -1.
         25    1    1    2    0    0 -0.15132923390E+03  0.13940588987E+03  0.22625313758E+02  0.24180869295E+03  0.12500000000E+03 0.  0.
         25    1    1    2    0    0 -0.26639612563E+02 -0.11063341867E+03 -0.35570284609E+03  0.39382602377E+03  0.12500000000E+03 0.  0.
         25    1    1    2    0    0  0.17796884646E+03 -0.28772471199E+02  0.11434210569E+03  0.24738610014E+03  0.12500000000E+03 0.  0.
</event>
<event>
 5    0  0.5648525E-005  0.4246744E+03  0.7546771E-02  0.1035556E+00
         21   -1    0    0  502  501  0.00000000000E+00  0.00000000000E+00  0.15058566559E+03  0.15058566559E+03  0.00000000000E+00 0. -1.
         21   -1    0    0  501  502 -0.00000000000E+00 -0.00000000000E+00 -0.11976463055E+04  0.11976463055E+04  0.00000000000E+00 0. -1.
         25    1    1    2    0    0 -0.10106138353E+03 -0.30572568550E+02 -0.75565356762E+03  0.77316582920E+03  0.12500000000E+03 0.  0.
         25    1    1    2    0    0  0.34547018038E+02 -0.55121767991E+02 -0.36699233560E+03  0.39311611535E+03  0.12500000000E+03 0.  0.
         25    1    1    2    0    0  0.66514365492E+02  0.85694336541E+02  0.75585263296E+02  0.18195002654E+03  0.12500000000E+03 0.  0.
</event>
<event>
 5    0  0.5648525E-005  0.3614395E+03  0.7546771E-02  0.1058015E+00
         21   -1    0    0  502  501  0.00000000000E+00  0.00000000000E+00  0.27723594826E+03  0.27723594826E+03  0.00000000000E+00 0.  1.
         21   -1    0    0  501  502 -0.00000000000E+00 -0.00000000000E+00 -0.47121781339E+03  0.47121781339E+03  0.00000000000E+00 0.  1.
         25    1    1    2    0    0 -0.23743995714E+03  0.86533969413E+02 -0.14562347887E+02  0.28231706127E+03  0.12500000000E+03 0.  0.
         25    1    1    2    0    0  0.64561915951E+02  0.54166608981E+02 -0.14338379130E+03  0.20805329636E+03  0.12500000000E+03 0.  0.
         25    1    1    2    0    0  0.17287804119E+03 -0.14070057839E+03 -0.36035725942E+02  0.25808340402E+03  0.12500000000E+03 0.  0.
</event>
<event>
 5    0  0.5648525E-005  0.2603408E+03  0.7546771E-02  0.1106939E+00
         21   -1    0    0  502  501  0.00000000000E+00  0.00000000000E+00  0.86721124372E+03  0.86721124372E+03  0.00000000000E+00 0. -1.
         21   -1    0    0  501  502 -0.00000000000E+00 -0.00000000000E+00 -0.78155507409E+02  0.78155507409E+02  0.00000000000E+00 0. -1.
         25    1    1    2    0    0  0.41709266163E+02 -0.13726954695E+03  0.38031766164E+03  0.42526358316E+03  0.12500000000E+03 0.  0.
         25    1    1    2    0    0  0.29549219751E+01  0.13871264894E+03  0.20903130025E+03  0.28030165006E+03  0.12500000000E+03 0.  0.
         25    1    1    2    0    0 -0.44664188138E+02 -0.14431019982E+01  0.19970677441E+03  0.23980151791E+03  0.12500000000E+03 0.  0.
</event>
<event>
 5    0  0.5648525E-005  0.3264160E+03  0.7546771E-02  0.1072734E+00
         21   -1    0    0  502  501  0.00000000000E+00  0.00000000000E+00  0.34630832086E+02  0.34630832086E+02  0.00000000000E+00 0. -1.
         21   -1    0    0  501  502 -0.00000000000E+00 -0.00000000000E+00 -0.30766640746E+04  0.30766640746E+04  0.00000000000E+00 0. -1.
         25    1    1    2    0    0 -0.50764239694E+01  0.16794579030E+03 -0.11208309795E+04  0.11402274523E+04  0.12500000000E+03 0.  0.
         25    1    1    2    0    0 -0.58834421389E+02 -0.14239489494E+03 -0.43591487669E+03  0.47894109759E+03  0.12500000000E+03 0.  0.
         25    1    1    2    0    0  0.63910845359E+02 -0.25550895353E+02 -0.14852873863E+04  0.14921263567E+04  0.12500000000E+03 0.  0.
</event>
<event>
 5    0  0.5648525E-005  0.4012975E+03  0.7546771E-02  0.1043331E+00
         21   -1    0    0  502  501  0.00000000000E+00  0.00000000000E+00  0.32968752927E+03  0.32968752927E+03  0.00000000000E+00 0. -1.
         21   -1    0    0  501  502 -0.00000000000E+00 -0.00000000000E+00 -0.48846157994E+03  0.48846157994E+03  0.00000000000E+00 0.  1.
         25    1    1    2    0    0 -0.26458879510E+03  0.16512485894E+03 -0.19329389225E+03  0.38763510975E+03  0.12500000000E+03 0.  0.
         25    1    1    2    0    0  0.16519555310E+03 -0.14000378585E+03  0.80099073902E+02  0.26254807647E+03  0.12500000000E+03 0.  0.
         25    1    1    2    0    0  0.99393241999E+02 -0.25121073084E+02 -0.45579232323E+02  0.16796592299E+03  0.12500000000E+03 0.  0.
</event>
<event>
 5    0  0.5648525E-005  0.4081202E+03  0.7546771E-02  0.1041004E+00
         21   -1    0    0  502  501  0.00000000000E+00  0.00000000000E+00  0.32935128329E+03  0.32935128329E+03  0.00000000000E+00 0. -1.
         21   -1    0    0  501  502 -0.00000000000E+00 -0.00000000000E+00 -0.50572773802E+03  0.50572773802E+03  0.00000000000E+00 0. -1.
         25    1    1    2    0    0  0.10815731257E+03 -0.25882981063E+03 -0.38371679763E+02  0.30949678664E+03  0.12500000000E+03 0.  0.
         25    1    1    2    0    0 -0.83959071350E+02  0.10832207592E+02 -0.18930321682E+03  0.24213048194E+03  0.12500000000E+03 0.  0.
         25    1    1    2    0    0 -0.24198241221E+02  0.24799760303E+03  0.51298441860E+02  0.28345175273E+03  0.12500000000E+03 0.  0.
</event>
<event>
 5    0  0.5648525E-005  0.5541289E+03  0.7546771E-02  0.1000543E+00
         21   -1    0    0  502  501  0.00000000000E+00  0.00000000000E+00  0.12319185565E+03  0.12319185565E+03  0.00000000000E+00 0.  1.
         21   -1    0    0  501  502 -0.00000000000E+00 -0.00000000000E+00 -0.24925252977E+04  0.24925252977E+04  0.00000000000E+00 0.  1.
         25    1    1    2    0    0 -0.13160187576E+02  0.25591495095E+03 -0.35714660459E+03  0.45699491225E+03  0.12500000000E+03 0.  0.
         25    1    1    2    0    0 -0.32252965844E+03 -0.16901017105E+03 -0.13136338200E+04  0.13688859088E+04  0.12500000000E+03 0.  0.
         25    1    1    2    0    0  0.33568984601E+03 -0.86904779898E+02 -0.69855301750E+03  0.78983633225E+03  0.12500000000E+03 0.  0.
</event>
<event>
 5    0  0.5648525E-005  0.2925220E+03  0.7546771E-02  0.1089040E+00
         21   -1    0    0  502  501  0.00000000000E+00  0.00000000000E+00  0.30535674275E+02  0.30535674275E+02  0.00000000000E+00 0.  1.
         21   -1    0    0  501  502 -0.00000000000E+00 -0.00000000000E+00 -0.28022680583E+04  0.28022680583E+04  0.00000000000E+00 0.  1.
         25    1    1    2    0    0 -0.35559935486E+02 -0.13048499301E+03 -0.19606648131E+04  0.19692948870E+04  0.12500000000E+03 0.  0.
         25    1    1    2    0    0  0.20802420245E+02  0.19114091111E+02 -0.36312694758E+03  0.38507696533E+03  0.12500000000E+03 0.  0.
         25    1    1    2    0    0  0.14757515241E+02  0.11137090190E+03 -0.44794062330E+03  0.47843188025E+03  0.12500000000E+03 0.  0.
</event>
<event>
 5    0  0.5648525E-005  0.3076821E+03  0.7546771E-02  0.1081462E+00
         21   -1    0    0  502  501  0.00000000000E+00  0.00000000000E+00  0.47699825805E+03  0.47699825805E+03  0.00000000000E+00 0.  1.
         21   -1    0    0  501  502 -0.00000000000E+00 -0.00000000000E+00 -0.19846676005E+03  0.19846676005E+03  0.00000000000E+00 0.  1.
         25    1    1    2    0    0 -0.70031429554E+02  0.13546294252E-01  0.12477802097E+03  0.18999725216E+03  0.12500000000E+03 0.  0.
         25    1    1    2    0    0 -0.43477274354E+02 -0.16993459250E+03  0.11038034805E+03  0.24202656951E+03  0.12500000000E+03 0.  0.
         25    1    1    2    0    0  0.11350870391E+03  0.16992104620E+03  0.43373128983E+02  0.24344119644E+03  0.12500000000E+03 0.  0.
</event>
<event>
 5    0  0.5648525E-005  0.3885138E+03  0.7546771E-02  0.1047831E+00
         21   -1    0    0  502  501  0.00000000000E+00  0.00000000000E+00  0.31733306960E+03  0.31733306960E+03  0.00000000000E+00 0.  1.
         21   -1    0    0  501  502 -0.00000000000E+00 -0.00000000000E+00 -0.47566097849E+03  0.47566097849E+03  0.00000000000E+00 0.  1.
         25    1    1    2    0    0 -0.82651777089E+02 -0.42604303240E+01  0.12515885453E+03  0.19529261735E+03  0.12500000000E+03 0.  0.
         25    1    1    2    0    0  0.20290552846E+03  0.13640525771E+03 -0.51612053489E+02  0.27940266977E+03  0.12500000000E+03 0.  0.
         25    1    1    2    0    0 -0.12025375137E+03 -0.13214482739E+03 -0.23187470993E+03  0.31829876096E+03  0.12500000000E+03 0.  0.
</event>
<event>
 5    0  0.5648525E-005  0.2386767E+03  0.7546771E-02  0.1120678E+00
         21   -1    0    0  502  501  0.00000000000E+00  0.00000000000E+00  0.23363357362E+03  0.23363357362E+03  0.00000000000E+00 0. -1.
         21   -1    0    0  501  502 -0.00000000000E+00 -0.00000000000E+00 -0.24382868800E+03  0.24382868800E+03  0.00000000000E+00 0. -1.
         25    1    1    2    0    0  0.60692197430E+02  0.50716805898E+02 -0.62853278134E+00  0.14792272402E+03  0.12500000000E+03 0.  0.
         25    1    1    2    0    0 -0.10956429547E+03 -0.47707922525E+02  0.53773461565E+02  0.18109932601E+03  0.12500000000E+03 0.  0.
         25    1    1    2    0    0  0.48872098036E+02 -0.30088833733E+01 -0.63340043168E+02  0.14844021158E+03  0.12500000000E+03 0.  0.
</event>
<event>
 5    0  0.7069581E-005  0.6577904E+03  0.7546771E-02  0.9792270E-01
         21   -1    0    0  502  501  0.00000000000E+00  0.00000000000E+00  0.59578170497E+03  0.59578170497E+03  0.00000000000E+00 0. -1.
         21   -1    0    0  501  502 -0.00000000000E+00 -0.00000000000E+00 -0.72625300619E+03  0.72625300619E+03  0.00000000000E+00 0. -1.
         25    1    1    2    0    0  0.44396676997E+03  0.24797000133E+02 -0.18902725837E+03  0.49907683623E+03  0.12500000000E+03 0.  0.
         25    1    1    2    0    0 -0.32384358446E+03 -0.25927577596E+03  0.22393429255E+03  0.48771934817E+03  0.12500000000E+03 0.  0.
         25    1    1    2    0    0 -0.12012318551E+03  0.23447877583E+03 -0.16537833540E+03  0.33523852677E+03  0.12500000000E+03 0.  0.
</event>
<event>
 5    0  0.5648525E-005  0.3570876E+03  0.7546771E-02  0.1059743E+00
         21   -1    0    0  502  501  0.00000000000E+00  0.00000000000E+00  0.22665706121E+03  0.22665706121E+03  0.00000000000E+00 0.  1.
         21   -1    0    0  501  502 -0.00000000000E+00 -0.00000000000E+00 -0.56257491272E+03  0.56257491272E+03  0.00000000000E+00 0.  1.
         25    1    1    2    0    0 -0.14730305219E+03  0.85316126712E+02 -0.14732404587E+03  0.25750030127E+03  0.12500000000E+03 0.  0.
         25    1    1    2    0    0 -0.75789383588E+02  0.42777195064E+02 -0.19277955328E+03  0.24568857370E+03  0.12500000000E+03 0.  0.
         25    1    1    2    0    0  0.22309243577E+03 -0.12809332178E+03  0.41857476508E+01  0.28604309897E+03  0.12500000000E+03 0.  0.
</event>
<event>
 5    0  0.7947565E-005  0.3251989E+03  0.7546771E-02  0.1073281E+00
         21   -1    0    0  502  501  0.00000000000E+00  0.00000000000E+00  0.20693263823E+03  0.20693263823E+03  0.00000000000E+00 0.  1.
         21   -1    0    0  501  502 -0.00000000000E+00 -0.00000000000E+00 -0.51105663675E+03  0.51105663675E+03  0.00000000000E+00 0.  1.
         25    1    1    2    0    0  0.89836519099E+02  0.20978523825E+02  0.54473251252E+02  0.16462999037E+03  0.12500000000E+03 0.  0.
         25    1    1    2    0    0  0.11224613762E+03  0.44166598375E+02 -0.17025574240E+03  0.24323219697E+03  0.12500000000E+03 0.  0.
         25    1    1    2    0    0 -0.20208265672E+03 -0.65145122200E+02 -0.18834150737E+03  0.31012708765E+03  0.12500000000E+03 0.  0.
</event>
<event>
 5    0  0.6046198E-005  0.4408608E+03  0.7546771E-02  0.1030483E+00
         21   -1    0    0  502  501  0.00000000000E+00  0.00000000000E+00  0.41396425356E+03  0.41396425356E+03  0.00000000000E+00 0.  1.
         21   -1    0    0  501  502 -0.00000000000E+00 -0.00000000000E+00 -0.46950480358E+03  0.46950480358E+03  0.00000000000E+00 0.  1.
         25    1    1    2    0    0 -0.90076561044E+02  0.24924975293E+03 -0.78738590277E+02  0.30342048675E+03  0.12500000000E+03 0.  0.
         25    1    1    2    0    0  0.14695121826E+03 -0.82199372270E+02 -0.18516000063E+03  0.27975100211E+03  0.12500000000E+03 0.  0.
         25    1    1    2    0    0 -0.56874657220E+02 -0.16705038066E+03  0.20835804088E+03  0.30029756827E+03  0.12500000000E+03 0.  0.
</event>
<event>
 5    0  0.5648525E-005  0.3946188E+03  0.7546771E-02  0.1045659E+00
         21   -1    0    0  502  501  0.00000000000E+00  0.00000000000E+00  0.42256978000E+03  0.42256978000E+03  0.00000000000E+00 0. -1.
         21   -1    0    0  501  502 -0.00000000000E+00 -0.00000000000E+00 -0.36851668802E+03  0.36851668802E+03  0.00000000000E+00 0. -1.
         25    1    1    2    0    0  0.80872169808E+02  0.20762430182E+02  0.33700126794E+02  0.15405221486E+03  0.12500000000E+03 0.  0.
         25    1    1    2    0    0 -0.30411795821E+03 -0.13281080034E+03 -0.18130640297E+02  0.35507768349E+03  0.12500000000E+03 0.  0.
         25    1    1    2    0    0  0.22324578841E+03  0.11204837015E+03  0.38483605480E+02  0.28195656968E+03  0.12500000000E+03 0.  0.
</event>
<event>
 5    0  0.5648525E-005  0.3014901E+03  0.7546771E-02  0.1084498E+00
         21   -1    0    0  502  501  0.00000000000E+00  0.00000000000E+00  0.84013782870E+03  0.84013782870E+03  0.00000000000E+00 0.  1.
         21   -1    0    0  501  502 -0.00000000000E+00 -0.00000000000E+00 -0.10819212485E+03  0.10819212485E+03  0.00000000000E+00 0.  1.
         25    1    1    2    0    0 -0.63571490171E+02  0.63114325548E+02  0.12461400353E+03  0.19793534886E+03  0.12500000000E+03 0.  0.
         25    1    1    2    0    0  0.11999346714E+02  0.79649212699E+02  0.50951514619E+03  0.53077176414E+03  0.12500000000E+03 0.  0.
         25    1    1    2    0    0  0.51572143457E+02 -0.14276353825E+03  0.97816554124E+02  0.21962284056E+03  0.12500000000E+03 0.  0.
</event>
<event>
 5    0  0.5652688E-005  0.3389893E+03  0.7546771E-02  0.1067227E+00
         21   -1    0    0  502  501  0.00000000000E+00  0.00000000000E+00  0.16825115397E+03  0.16825115397E+03  0.00000000000E+00 0.  1.
         21   -1    0    0  501  502 -0.00000000000E+00 -0.00000000000E+00 -0.68298947646E+03  0.68298947646E+03  0.00000000000E+00 0.  1.
         25    1    1    2    0    0  0.15631290247E+03  0.61492058906E+02 -0.88704647550E+02  0.22739505554E+03  0.12500000000E+03 0.  0.
         25    1    1    2    0    0 -0.15435833763E+03 -0.24343941140E+02 -0.44885907932E+03  0.49144541604E+03  0.12500000000E+03 0.  0.
         25    1    1    2    0    0 -0.19545648446E+01 -0.37148117767E+02  0.22825404378E+02  0.13240015885E+03  0.12500000000E+03 0.  0.
</event>
<event>
 5    0  0.5648525E-005  0.6693513E+03  0.7546771E-02  0.9771130E-01
         21   -1    0    0  502  501  0.00000000000E+00  0.00000000000E+00  0.62506815932E+03  0.62506815932E+03  0.00000000000E+00 0. -1.
         21   -1    0    0  501  502 -0.00000000000E+00 -0.00000000000E+00 -0.71677167307E+03  0.71677167307E+03  0.00000000000E+00 0. -1.
         25    1    1    2    0    0 -0.51145681707E+03 -0.20729964328E+03 -0.11951017911E+03  0.57833286328E+03  0.12500000000E+03 0.  0.
         25    1    1    2    0    0  0.25599828746E+03  0.34255893629E+03 -0.14342299965E+02  0.44577174605E+03  0.12500000000E+03 0.  0.
         25    1    1    2    0    0  0.25545852961E+03 -0.13525929301E+03  0.42148965325E+02  0.31773522306E+03  0.12500000000E+03 0.  0.
</event>
<event>
 5    0  0.5648525E-005  0.3758468E+03  0.7546771E-02  0.1052480E+00
         21   -1    0    0  502  501  0.00000000000E+00  0.00000000000E+00  0.58204900358E+03  0.58204900358E+03  0.00000000000E+00 0.  1.
         21   -1    0    0  501  502 -0.00000000000E+00 -0.00000000000E+00 -0.24269578252E+03  0.24269578252E+03  0.00000000000E+00 0.  1.
         25    1    1    2    0    0  0.12152130538E+01 -0.35469104104E+02 -0.18882209268E+03  0.22921238355E+03  0.12500000000E+03 0.  0.
         25    1    1    2    0    0 -0.17869670324E+02  0.32143117843E+02  0.37561385038E+03  0.39757171647E+03  0.12500000000E+03 0.  0.
         25    1    1    2    0    0  0.16654457270E+02  0.33259862612E+01  0.15256146336E+03  0.19796068608E+03  0.12500000000E+03 0.  0.
</event>
<event>
 5    0  0.5648525E-005  0.2700795E+03  0.7546771E-02  0.1101234E+00
         21   -1    0    0  502  501  0.00000000000E+00  0.00000000000E+00  0.30263191383E+03  0.30263191383E+03  0.00000000000E+00 0. -1.
         21   -1    0    0  501  502 -0.00000000000E+00 -0.00000000000E+00 -0.24102863719E+03  0.24102863719E+03  0.00000000000E+00 0. -1.
         25    1    1    2    0    0 -0.22572471795E+02  0.34079762647E+02  0.19182135307E+03  0.23257553224E+03  0.12500000000E+03 0.  0.
         25    1    1    2    0    0  0.32813077438E+01  0.10406938731E+02 -0.12469178286E+03  0.17689576611E+03  0.12500000000E+03 0.  0.
         25    1    1    2    0    0  0.19291164051E+02 -0.44486701378E+02 -0.55262935760E+01  0.13418925266E+03  0.12500000000E+03 0.  0.
</event>
<event>
 5    0  0.5648525E-005  0.2620479E+03  0.7546771E-02  0.1105919E+00
         21   -1    0    0  502  501  0.00000000000E+00  0.00000000000E+00  0.81471353454E+03  0.81471353454E+03  0.00000000000E+00 0. -1.
         21   -1    0    0  501  502 -0.00000000000E+00 -0.00000000000E+00 -0.84286208410E+02  0.84286208410E+02  0.00000000000E+00 0. -1.
         25    1    1    2    0    0 -0.23593504830E+02 -0.64148686547E+02  0.47227149503E+02  0.15009034315E+03  0.12500000000E+03 0.  0.
         25    1    1    2    0    0 -0.80219744470E+01  0.96293781149E+02  0.48665327560E+03  0.51165736095E+03  0.12500000000E+03 0.  0.
         25    1    1    2    0    0  0.31615479277E+02 -0.32145094602E+02  0.19654690103E+03  0.23725203886E+03  0.12500000000E+03 0.  0.
</event>
<event>
 5    0  0.5648525E-005  0.4213401E+03  0.7546771E-02  0.1036631E+00
         21   -1    0    0  502  501  0.00000000000E+00  0.00000000000E+00  0.21560078049E+03  0.21560078049E+03  0.00000000000E+00 0.  1.
         21   -1    0    0  501  502 -0.00000000000E+00 -0.00000000000E+00 -0.82340822335E+03  0.82340822335E+03  0.00000000000E+00 0.  1.
         25    1    1    2    0    0  0.15489911641E+03  0.21522642866E+02 -0.21523055764E+03  0.29394923603E+03  0.12500000000E+03 0.  0.
         25    1    1    2    0    0 -0.24065035664E+03  0.19492504473E+03 -0.95264103725E+02  0.34728751298E+03  0.12500000000E+03 0.  0.
         25    1    1    2    0    0  0.85751240234E+02 -0.21644768759E+03 -0.29731278150E+03  0.39777225483E+03  0.12500000000E+03 0.  0.
</event>
<event>
 5    0  0.5648525E-005  0.4549274E+03  0.7546771E-02  0.1026263E+00
         21   -1    0    0  502  501  0.00000000000E+00  0.00000000000E+00  0.91505026793E+03  0.91505026793E+03  0.00000000000E+00 0. -1.
         21   -1    0    0  501  502 -0.00000000000E+00 -0.00000000000E+00 -0.22617216816E+03  0.22617216816E+03  0.00000000000E+00 0. -1.
         25    1    1    2    0    0 -0.18560950679E+03  0.21986833836E+03  0.50004146689E+03  0.59030453482E+03  0.12500000000E+03 0.  0.
         25    1    1    2    0    0  0.15218784468E+03 -0.30043428415E+03  0.16970279026E+03  0.39729829622E+03  0.12500000000E+03 0.  0.
         25    1    1    2    0    0  0.33421662105E+02  0.80565945787E+02  0.19133842617E+02  0.15361960504E+03  0.12500000000E+03 0.  0.
</event>
<event>
 5    0  0.5648525E-005  0.2437821E+03  0.7546771E-02  0.1117299E+00
         21   -1    0    0  502  501  0.00000000000E+00  0.00000000000E+00  0.52982619654E+03  0.52982619654E+03  0.00000000000E+00 0. -1.
         21   -1    0    0  501  502 -0.00000000000E+00 -0.00000000000E+00 -0.11216830824E+03  0.11216830824E+03  0.00000000000E+00 0. -1.
         25    1    1    2    0    0 -0.24391419182E+02  0.21223516506E+02  0.45548990211E+02  0.13691270756E+03  0.12500000000E+03 0.  0.
         25    1    1    2    0    0 -0.23301664682E+02  0.85755731732E+02  0.25502539403E+03  0.29759026312E+03  0.12500000000E+03 0.  0.
         25    1    1    2    0    0  0.47693083864E+02 -0.10697924824E+03  0.11708350407E+03  0.20749153411E+03  0.12500000000E+03 0.  0.
</event>
<event>
 5    0  0.5648525E-005  0.2712768E+03  0.7546771E-02  0.1100551E+00
         21   -1    0    0  502  501  0.00000000000E+00  0.00000000000E+00  0.22575368671E+03  0.22575368671E+03  0.00000000000E+00 0. -1.
         21   -1    0    0  501  502 -0.00000000000E+00 -0.00000000000E+00 -0.32597967677E+03  0.32597967677E+03  0.00000000000E+00 0. -1.
         25    1    1    2    0    0  0.10985487425E+03  0.57371195662E+02  0.22403023537E+02  0.17744419672E+03  0.12500000000E+03 0.  0.
         25    1    1    2    0    0 -0.10319484655E+03 -0.37090640826E+02 -0.17104586965E+03  0.23855100401E+03  0.12500000000E+03 0.  0.
         25    1    1    2    0    0 -0.66600276957E+01 -0.20280554836E+02  0.48416856056E+02  0.13573816274E+03  0.12500000000E+03 0.  0.
</event>
<event>
 5    0  0.6178255E-005  0.2663374E+03  0.7546771E-02  0.1103394E+00
         21   -1    0    0  502  501  0.00000000000E+00  0.00000000000E+00  0.43331253829E+03  0.43331253829E+03  0.00000000000E+00 0.  1.
         21   -1    0    0  501  502 -0.00000000000E+00 -0.00000000000E+00 -0.16370543114E+03  0.16370543114E+03  0.00000000000E+00 0.  1.
         25    1    1    2    0    0  0.12980382910E+03  0.30197887292E+02  0.12834428188E+03  0.22328950073E+03  0.12500000000E+03 0.  0.
         25    1    1    2    0    0  0.60913588109E+01  0.36441051536E+02 -0.25754147526E+01  0.13037134520E+03  0.12500000000E+03 0.  0.
         25    1    1    2    0    0 -0.13589518791E+03 -0.66638938828E+02  0.14383824003E+03  0.24335712350E+03  0.12500000000E+03 0.  0.
</event>
<event>
 5    0  0.5648525E-005  0.2290306E+03  0.7546771E-02  0.1127324E+00
         21   -1    0    0  502  501  0.00000000000E+00  0.00000000000E+00  0.26824895335E+04  0.26824895335E+04  0.00000000000E+00 0.  1.
         21   -1    0    0  501  502 -0.00000000000E+00 -0.00000000000E+00 -0.19554598090E+02  0.19554598090E+02  0.00000000000E+00 0.  1.
         25    1    1    2    0    0  0.79981312898E+02 -0.15140265838E+02  0.14959446368E+04  0.15033634273E+04  0.12500000000E+03 0.  0.
         25    1    1    2    0    0 -0.55727546687E+02  0.13959182706E+02  0.45314570602E+03  0.47356778725E+03  0.12500000000E+03 0.  0.
         25    1    1    2    0    0 -0.24253766211E+02  0.11810831312E+01  0.71384459253E+03  0.72511291702E+03  0.12500000000E+03 0.  0.
</event>
<event>
 5    0  0.5648525E-005  0.2642138E+03  0.7546771E-02  0.1104638E+00
         21   -1    0    0  502  501  0.00000000000E+00  0.00000000000E+00  0.75565841276E+03  0.75565841276E+03  0.00000000000E+00 0.  1.
         21   -1    0    0  501  502 -0.00000000000E+00 -0.00000000000E+00 -0.92381619684E+02  0.92381619684E+02  0.00000000000E+00 0.  1.
         25    1    1    2    0    0 -0.14364528391E+02  0.48892960854E+02  0.53472792118E+02  0.14519366651E+03  0.12500000000E+03 0.  0.
         25    1    1    2    0    0 -0.47988424135E+02 -0.25749660984E+02  0.88254891170E+02  0.16241877880E+03  0.12500000000E+03 0.  0.
         25    1    1    2    0    0  0.62352952526E+02 -0.23143299871E+02  0.52154910979E+03  0.54042758714E+03  0.12500000000E+03 0.  0.
</event>
<event>
 5    0  0.5648525E-005  0.3131930E+03  0.7546771E-02  0.1078825E+00
         21   -1    0    0  502  501  0.00000000000E+00  0.00000000000E+00  0.24849177433E+03  0.24849177433E+03  0.00000000000E+00 0.  1.
         21   -1    0    0  501  502 -0.00000000000E+00 -0.00000000000E+00 -0.39474082413E+03  0.39474082413E+03  0.00000000000E+00 0.  1.
         25    1    1    2    0    0 -0.27024546001E+02 -0.12513794625E+03  0.10779569627E+03  0.20888930995E+03  0.12500000000E+03 0.  0.
         25    1    1    2    0    0 -0.51280217053E+02  0.66677499225E+02 -0.20579007805E+02  0.15206592362E+03  0.12500000000E+03 0.  0.
         25    1    1    2    0    0  0.78304763054E+02  0.58460447023E+02 -0.23346573827E+03  0.28227736489E+03  0.12500000000E+03 0.  0.
</event>
<event>
 5    0  0.5648525E-005  0.3668852E+03  0.7546771E-02  0.1055890E+00
         21   -1    0    0  502  501  0.00000000000E+00  0.00000000000E+00  0.55825289612E+03  0.55825289612E+03  0.00000000000E+00 0. -1.
         21   -1    0    0  501  502 -0.00000000000E+00 -0.00000000000E+00 -0.24111793291E+03  0.24111793291E+03  0.00000000000E+00 0. -1.
         25    1    1    2    0    0  0.62741883214E+01  0.46956681700E+02  0.23744065718E+03  0.27248368956E+03  0.12500000000E+03 0.  0.
         25    1    1    2    0    0 -0.90023213191E+02  0.62434290170E+02 -0.15509449281E+03  0.22733570155E+03  0.12500000000E+03 0.  0.
         25    1    1    2    0    0  0.83749024870E+02 -0.10939097187E+03  0.23478879885E+03  0.29955143792E+03  0.12500000000E+03 0.  0.
</event>
<event>
 5    0  0.5648525E-005  0.3659637E+03  0.7546771E-02  0.1056247E+00
         21   -1    0    0  502  501  0.00000000000E+00  0.00000000000E+00  0.41546096198E+03  0.41546096198E+03  0.00000000000E+00 0.  1.
         21   -1    0    0  501  502 -0.00000000000E+00 -0.00000000000E+00 -0.32236343297E+03  0.32236343297E+03  0.00000000000E+00 0.  1.
         25    1    1    2    0    0 -0.69442568958E+02  0.46449401735E+02 -0.73561491061E+01  0.15052883523E+03  0.12500000000E+03 0.  0.
         25    1    1    2    0    0 -0.16698011008E+03  0.12596503521E+03 -0.25669312672E+02  0.24501726647E+03  0.12500000000E+03 0.  0.
         25    1    1    2    0    0  0.23642267904E+03 -0.17241443694E+03  0.12612299078E+03  0.34227829325E+03  0.12500000000E+03 0.  0.
</event>
<event>
 5    0  0.5648525E-005  0.4416604E+03  0.7546771E-02  0.1030239E+00
         21   -1    0    0  502  501  0.00000000000E+00  0.00000000000E+00  0.54738718877E+03  0.54738718877E+03  0.00000000000E+00 0. -1.
         21   -1    0    0  501  502 -0.00000000000E+00 -0.00000000000E+00 -0.35635459731E+03  0.35635459731E+03  0.00000000000E+00 0. -1.
         25    1    1    2    0    0 -0.19627969096E+03 -0.10902175950E+03  0.19597121669E+02  0.25772176529E+03  0.12500000000E+03 0.  0.
         25    1    1    2    0    0 -0.29632770998E+02  0.16432068674E+03  0.28947557065E+03  0.35679194948E+03  0.12500000000E+03 0.  0.
         25    1    1    2    0    0  0.22591246196E+03 -0.55298927244E+02 -0.11804010086E+03  0.28922807131E+03  0.12500000000E+03 0.  0.
</event>
<event>
 5    0  0.5648525E-005  0.2362019E+03  0.7546771E-02  0.1122349E+00
         21   -1    0    0  502  501  0.00000000000E+00  0.00000000000E+00  0.89363712532E+02  0.89363712532E+02  0.00000000000E+00 0. -1.
         21   -1    0    0  501  502 -0.00000000000E+00 -0.00000000000E+00 -0.62431776056E+03  0.62431776056E+03  0.00000000000E+00 0. -1.
         25    1    1    2    0    0  0.26610303814E+02 -0.60830956666E+02 -0.20193443857E+03  0.24659892749E+03  0.12500000000E+03 0.  0.
         25    1    1    2    0    0 -0.44145550254E+02  0.11807699311E+03 -0.24622404808E+03  0.30354948157E+03  0.12500000000E+03 0.  0.
         25    1    1    2    0    0  0.17535246440E+02 -0.57246036448E+02 -0.86795561382E+02  0.16353306403E+03  0.12500000000E+03 0.  0.
</event>
<event>
 5    0  0.5663205E-005  0.3036811E+03  0.7546771E-02  0.1083415E+00
         21   -1    0    0  502  501  0.00000000000E+00  0.00000000000E+00  0.85508402066E+02  0.85508402066E+02  0.00000000000E+00 0. -1.
         21   -1    0    0  501  502 -0.00000000000E+00 -0.00000000000E+00 -0.10785166502E+04  0.10785166502E+04  0.00000000000E+00 0. -1.
         25    1    1    2    0    0  0.68834129234E+02  0.10501886731E+03 -0.19194326713E+03  0.26121699339E+03  0.12500000000E+03 0.  0.
         25    1    1    2    0    0  0.61441453021E+02 -0.21060123860E+02 -0.96757870098E+02  0.17089665413E+03  0.12500000000E+03 0.  0.
         25    1    1    2    0    0 -0.13027558226E+03 -0.83958743451E+02 -0.70430711095E+03  0.73191140479E+03  0.12500000000E+03 0.  0.
</event>
<event>
 5    0  0.5648525E-005  0.3077367E+03  0.7546771E-02  0.1081436E+00
         21   -1    0    0  502  501  0.00000000000E+00  0.00000000000E+00  0.38544222263E+03  0.38544222263E+03  0.00000000000E+00 0.  1.
         21   -1    0    0  501  502 -0.00000000000E+00 -0.00000000000E+00 -0.24569666317E+03  0.24569666317E+03  0.00000000000E+00 0.  1.
         25    1    1    2    0    0  0.75929561087E+02  0.11393483293E+01 -0.22973161288E+02  0.14805189124E+03  0.12500000000E+03 0.  0.
         25    1    1    2    0    0 -0.19494528610E+03  0.51185668794E+02 -0.43993816626E+01  0.23720875157E+03  0.12500000000E+03 0.  0.
         25    1    1    2    0    0  0.11901572501E+03 -0.52325017123E+02  0.16711810242E+03  0.24587824298E+03  0.12500000000E+03 0.  0.
</event>
<event>
 5    0  0.5648525E-005  0.4580212E+03  0.7546771E-02  0.1025357E+00
         21   -1    0    0  502  501  0.00000000000E+00  0.00000000000E+00  0.28367780025E+03  0.28367780025E+03  0.00000000000E+00 0.  1.
         21   -1    0    0  501  502 -0.00000000000E+00 -0.00000000000E+00 -0.73951298005E+03  0.73951298005E+03  0.00000000000E+00 0.  1.
         25    1    1    2    0    0 -0.13336770947E+02  0.18387202676E+03 -0.19101836536E+03  0.29342768715E+03  0.12500000000E+03 0.  0.
         25    1    1    2    0    0 -0.43655550461E+02 -0.12468842157E+03 -0.45371499769E+03  0.48881009471E+03  0.12500000000E+03 0.  0.
         25    1    1    2    0    0  0.56992321408E+02 -0.59183605185E+02  0.18889818325E+03  0.24095299844E+03  0.12500000000E+03 0.  0.
</event>
<event>
 5    0  0.5648525E-005  0.3358190E+03  0.7546771E-02  0.1068591E+00
         21   -1    0    0  502  501  0.00000000000E+00  0.00000000000E+00  0.40319916526E+04  0.40319916526E+04  0.00000000000E+00 0.  1.
         21   -1    0    0  501  502 -0.00000000000E+00 -0.00000000000E+00 -0.27969902213E+02  0.27969902213E+02  0.00000000000E+00 0.  1.
         25    1    1    2    0    0 -0.11166029044E+03  0.63732497979E+02  0.15317333232E+04  0.15421938351E+04  0.12500000000E+03 0.  0.
         25    1    1    2    0    0  0.16287480227E+03  0.12450772085E+03  0.10837280092E+04  0.11100098070E+04  0.12500000000E+03 0.  0.
         25    1    1    2    0    0 -0.51214511835E+02 -0.18824021883E+03  0.13885604180E+04  0.14077579127E+04  0.12500000000E+03 0.  0.
</event>
<event>
 5    0  0.5648525E-005  0.2962598E+03  0.7546771E-02  0.1087125E+00
         21   -1    0    0  502  501  0.00000000000E+00  0.00000000000E+00  0.30218980555E+03  0.30218980555E+03  0.00000000000E+00 0. -1.
         21   -1    0    0  501  502 -0.00000000000E+00 -0.00000000000E+00 -0.29044622112E+03  0.29044622112E+03  0.00000000000E+00 0. -1.
         25    1    1    2    0    0 -0.11052200597E+03 -0.10582472143E+03 -0.58832012126E+02  0.20615574482E+03  0.12500000000E+03 0.  0.
         25    1    1    2    0    0  0.12006447039E+03 -0.49587984144E+02  0.30942297011E+02  0.18291219469E+03  0.12500000000E+03 0.  0.
         25    1    1    2    0    0 -0.95424644156E+01  0.15541270558E+03  0.39633299548E+02  0.20356808717E+03  0.12500000000E+03 0.  0.
</event>
<event>
 5    0  0.5648525E-005  0.3438710E+03  0.7546771E-02  0.1065159E+00
         21   -1    0    0  502  501  0.00000000000E+00  0.00000000000E+00  0.11584471879E+04  0.11584471879E+04  0.00000000000E+00 0. -1.
         21   -1    0    0  501  502 -0.00000000000E+00 -0.00000000000E+00 -0.10207395920E+03  0.10207395920E+03  0.00000000000E+00 0. -1.
         25    1    1    2    0    0 -0.10804343688E+03  0.67275806475E+02  0.19108961947E+03  0.26141855531E+03  0.12500000000E+03 0.  0.
         25    1    1    2    0    0  0.71879330419E+02  0.14778048782E+03  0.19808827999E+03  0.28612877763E+03  0.12500000000E+03 0.  0.
         25    1    1    2    0    0  0.36164106461E+02 -0.21505629429E+03  0.66719532923E+03  0.71297381414E+03  0.12500000000E+03 0.  0.
</event>
<event>
 5    0  0.5648525E-005  0.2375747E+03  0.7546771E-02  0.1121419E+00
         21   -1    0    0  502  501  0.00000000000E+00  0.00000000000E+00  0.26855721999E+03  0.26855721999E+03  0.00000000000E+00 0.  1.
         21   -1    0    0  501  502 -0.00000000000E+00 -0.00000000000E+00 -0.21016657278E+03  0.21016657278E+03  0.00000000000E+00 0.  1.
         25    1    1    2    0    0 -0.76913499994E+02  0.71785093990E+02  0.21934248450E+02  0.16484810419E+03  0.12500000000E+03 0.  0.
         25    1    1    2    0    0 -0.23470199084E+02 -0.64642513915E+02  0.53774015790E+02  0.15246688042E+03  0.12500000000E+03 0.  0.
         25    1    1    2    0    0  0.10038369908E+03 -0.71425800754E+01 -0.17317617029E+02  0.16140880816E+03  0.12500000000E+03 0.  0.
</event>
<event>
 5    0  0.5648525E-005  0.3725094E+03  0.7546771E-02  0.1053738E+00
         21   -1    0    0  502  501  0.00000000000E+00  0.00000000000E+00  0.15533599811E+04  0.15533599811E+04  0.00000000000E+00 0. -1.
         21   -1    0    0  501  502 -0.00000000000E+00 -0.00000000000E+00 -0.89331038310E+02  0.89331038310E+02  0.00000000000E+00 0. -1.
         25    1    1    2    0    0 -0.30238531147E+02  0.21473766713E+03  0.76204812143E+03  0.80210284492E+03  0.12500000000E+03 0.  0.
         25    1    1    2    0    0  0.13976803288E+03  0.21619167221E+01  0.25158277857E+03  0.31378124764E+03  0.12500000000E+03 0.  0.
         25    1    1    2    0    0 -0.10952950174E+03 -0.21689958386E+03  0.45039804282E+03  0.52680692687E+03  0.12500000000E+03 0.  0.
</event>
<event>
 5    0  0.5648525E-005  0.2823217E+03  0.7546771E-02  0.1094428E+00
         21   -1    0    0  502  501  0.00000000000E+00  0.00000000000E+00  0.50342170710E+02  0.50342170710E+02  0.00000000000E+00 0. -1.
         21   -1    0    0  501  502 -0.00000000000E+00 -0.00000000000E+00 -0.15832761353E+04  0.15832761353E+04  0.00000000000E+00 0. -1.
         25    1    1    2    0    0  0.74297615932E+02 -0.75681513875E+02 -0.37513490732E+03  0.40938860019E+03  0.12500000000E+03 0.  0.
         25    1    1    2    0    0  0.20008585253E+02 -0.67719981575E+01 -0.91523007783E+03  0.92396823474E+03  0.12500000000E+03 0.  0.
         25    1    1    2    0    0 -0.94306201185E+02  0.82453512032E+02 -0.24256897943E+03  0.30026147107E+03  0.12500000000E+03 0.  0.
</event>
<event>
 5    0  0.5648525E-005  0.3031974E+03  0.7546771E-02  0.1083653E+00
         21   -1    0    0  502  501  0.00000000000E+00  0.00000000000E+00  0.31477244618E+02  0.31477244618E+02  0.00000000000E+00 0.  1.
         21   -1    0    0  501  502 -0.00000000000E+00 -0.00000000000E+00 -0.29204794468E+04  0.29204794468E+04  0.00000000000E+00 0.  1.
         25    1    1    2    0    0  0.10845444882E+01  0.70355043283E+02 -0.27752544577E+03  0.31240419556E+03  0.12500000000E+03 0.  0.
         25    1    1    2    0    0 -0.68687725548E+02 -0.10926880149E+03 -0.20885571421E+04  0.20962713590E+04  0.12500000000E+03 0.  0.
         25    1    1    2    0    0  0.67603181060E+02  0.38913758204E+02 -0.52291961425E+03  0.54328113683E+03  0.12500000000E+03 0.  0.
</event>
<event>
 5    0  0.5648525E-005  0.3920791E+03  0.7546771E-02  0.1046557E+00
         21   -1    0    0  502  501  0.00000000000E+00  0.00000000000E+00  0.32831075138E+03  0.32831075138E+03  0.00000000000E+00 0. -1.
         21   -1    0    0  501  502 -0.00000000000E+00 -0.00000000000E+00 -0.46823317898E+03  0.46823317898E+03  0.00000000000E+00 0. -1.
         25    1    1    2    0    0 -0.81635136099E+02 -0.22433472309E+03  0.43547007392E+02  0.27296832285E+03  0.12500000000E+03 0.  0.
         25    1    1    2    0    0  0.18837155674E+03  0.42396060753E+02 -0.15356674889E+03  0.27656647613E+03  0.12500000000E+03 0.  0.
         25    1    1    2    0    0 -0.10673642064E+03  0.18193866234E+03 -0.29902686110E+02  0.24700913137E+03  0.12500000000E+03 0.  0.
</event>
<event>
 5    0  0.5648525E-005  0.3170671E+03  0.7546771E-02  0.1077007E+00
         21   -1    0    0  502  501  0.00000000000E+00  0.00000000000E+00  0.16599356162E+04  0.16599356162E+04  0.00000000000E+00 0. -1.
         21   -1    0    0  501  502 -0.00000000000E+00 -0.00000000000E+00 -0.60563535438E+02  0.60563535438E+02  0.00000000000E+00 0. -1.
         25    1    1    2    0    0  0.47713775607E+01  0.24657423987E+02  0.78629068205E+03  0.79656060113E+03  0.12500000000E+03 0.  0.
         25    1    1    2    0    0  0.65148965309E+01  0.11038073300E+03  0.11689102026E+03  0.20375195879E+03  0.12500000000E+03 0.  0.
         25    1    1    2    0    0 -0.11286274092E+02 -0.13503815699E+03  0.69619037845E+03  0.72018659170E+03  0.12500000000E+03 0.  0.
</event>
<event>
 5    0  0.5648525E-005  0.3198694E+03  0.7546771E-02  0.1075709E+00
         21   -1    0    0  502  501  0.00000000000E+00  0.00000000000E+00  0.47234596955E+03  0.47234596955E+03  0.00000000000E+00 0. -1.
         21   -1    0    0  501  502 -0.00000000000E+00 -0.00000000000E+00 -0.21661331823E+03  0.21661331823E+03  0.00000000000E+00 0. -1.
         25    1    1    2    0    0  0.42762989041E+02  0.22775603549E+03  0.18567899387E+03  0.32218499918E+03  0.12500000000E+03 0.  0.
         25    1    1    2    0    0 -0.62136641062E+02 -0.73080789745E+02  0.89109902569E+01  0.15781688674E+03  0.12500000000E+03 0.  0.
         25    1    1    2    0    0  0.19373652021E+02 -0.15467524574E+03  0.61142667197E+02  0.20895740186E+03  0.12500000000E+03 0.  0.
</event>
<event>
 5    0  0.5648525E-005  0.3065997E+03  0.7546771E-02  0.1081987E+00
         21   -1    0    0  502  501  0.00000000000E+00  0.00000000000E+00  0.80034561715E+02  0.80034561715E+02  0.00000000000E+00 0. -1.
         21   -1    0    0  501  502 -0.00000000000E+00 -0.00000000000E+00 -0.11745348062E+04  0.11745348062E+04  0.00000000000E+00 0. -1.
         25    1    1    2    0    0  0.14191555171E+03  0.92202966328E+02 -0.66583835312E+03  0.69828871056E+03  0.12500000000E+03 0.  0.
         25    1    1    2    0    0 -0.63782522122E+02 -0.75465719363E+02 -0.35820088704E+03  0.39204101878E+03  0.12500000000E+03 0.  0.
         25    1    1    2    0    0 -0.78133029588E+02 -0.16737246965E+02 -0.70461004325E+02  0.16423963857E+03  0.12500000000E+03 0.  0.
</event>
<event>
 5    0  0.5648525E-005  0.3809163E+03  0.7546771E-02  0.1050596E+00
         21   -1    0    0  502  501  0.00000000000E+00  0.00000000000E+00  0.83797459547E+02  0.83797459547E+02  0.00000000000E+00 0.  1.
         21   -1    0    0  501  502 -0.00000000000E+00 -0.00000000000E+00 -0.17315227609E+04  0.17315227609E+04  0.00000000000E+00 0.  1.
         25    1    1    2    0    0  0.29998730366E+02  0.16623593671E+03 -0.50531675170E+03  0.54726988774E+03  0.12500000000E+03 0.  0.
         25    1    1    2    0    0 -0.22531782767E+03 -0.12173721900E+03 -0.82226104276E+03  0.87024496345E+03  0.12500000000E+03 0.  0.
         25    1    1    2    0    0  0.19531909731E+03 -0.44498717712E+02 -0.32014750693E+03  0.39780536930E+03  0.12500000000E+03 0.  0.
</event>
<event>
 5    0  0.6635085E-005  0.5622967E+03  0.7546771E-02  0.9986871E-01
         21   -1    0    0  502  501  0.00000000000E+00  0.00000000000E+00  0.58986030419E+03  0.58986030419E+03  0.00000000000E+00 0.  1.
         21   -1    0    0  501  502 -0.00000000000E+00 -0.00000000000E+00 -0.53602118657E+03  0.53602118657E+03  0.00000000000E+00 0.  1.
         25    1    1    2    0    0  0.51602238486E+01  0.22240679631E+03  0.17116222689E+03  0.30726685286E+03  0.12500000000E+03 0.  0.
         25    1    1    2    0    0  0.19990536114E+03 -0.27338629486E+03  0.20366786674E+03  0.41449706824E+03  0.12500000000E+03 0.  0.
         25    1    1    2    0    0 -0.20506558499E+03  0.50979498555E+02 -0.32099097602E+03  0.40411756966E+03  0.12500000000E+03 0.  0.
</event>
<event>
 5    0  0.5648525E-005  0.3603214E+03  0.7546771E-02  0.1058457E+00
         21   -1    0    0  502  501  0.00000000000E+00  0.00000000000E+00  0.23642485483E+03  0.23642485483E+03  0.00000000000E+00 0. -1.
         21   -1    0    0  501  502 -0.00000000000E+00 -0.00000000000E+00 -0.54914504862E+03  0.54914504862E+03  0.00000000000E+00 0. -1.
         25    1    1    2    0    0  0.65058439093E+02  0.32045579150E+02  0.11083405165E+03  0.18212277904E+03  0.12500000000E+03 0.  0.
         25    1    1    2    0    0  0.14579632577E+02 -0.22104369109E+02 -0.43604134898E+03  0.45437674549E+03  0.12500000000E+03 0.  0.
         25    1    1    2    0    0 -0.79638071670E+02 -0.99412100412E+01  0.12487103543E+02  0.14907037892E+03  0.12500000000E+03 0.  0.
</event>
<event>
 5    0  0.5648525E-005  0.4040065E+03  0.7546771E-02  0.1042401E+00
         21   -1    0    0  502  501  0.00000000000E+00  0.00000000000E+00  0.20835032769E+03  0.20835032769E+03  0.00000000000E+00 0.  1.
         21   -1    0    0  501  502 -0.00000000000E+00 -0.00000000000E+00 -0.78339794945E+03  0.78339794945E+03  0.00000000000E+00 0.  1.
         25    1    1    2    0    0 -0.22351140794E+03  0.11923401721E+03 -0.11821188028E+03  0.30622401764E+03  0.12500000000E+03 0.  0.
         25    1    1    2    0    0  0.54911358347E+02 -0.75749925683E+02  0.25038161135E+02  0.15813038301E+03  0.12500000000E+03 0.  0.
         25    1    1    2    0    0  0.16860004959E+03 -0.43484091526E+02 -0.48187390262E+03  0.52739387649E+03  0.12500000000E+03 0.  0.
</event>
<event>
 5    0  0.5648525E-005  0.3091593E+03  0.7546771E-02  0.1080750E+00
         21   -1    0    0  502  501  0.00000000000E+00  0.00000000000E+00  0.10631898559E+04  0.10631898559E+04  0.00000000000E+00 0.  1.
         21   -1    0    0  501  502 -0.00000000000E+00 -0.00000000000E+00 -0.89898781875E+02  0.89898781875E+02  0.00000000000E+00 0.  1.
         25    1    1    2    0    0 -0.14035582732E+03 -0.82328781291E+02  0.53128871897E+03  0.56953532761E+03  0.12500000000E+03 0.  0.
         25    1    1    2    0    0  0.10170477098E+03  0.84818676579E+02  0.80523180317E+02  0.19911567217E+03  0.12500000000E+03 0.  0.
         25    1    1    2    0    0  0.38651056343E+02 -0.24898952878E+01  0.36147917472E+03  0.38443763798E+03  0.12500000000E+03 0.  0.
</event>
<event>
 5    0  0.5648525E-005  0.2692256E+03  0.7546771E-02  0.1101724E+00
         21   -1    0    0  502  501  0.00000000000E+00  0.00000000000E+00  0.11710042124E+03  0.11710042124E+03  0.00000000000E+00 0. -1.
         21   -1    0    0  501  502 -0.00000000000E+00 -0.00000000000E+00 -0.61897681722E+03  0.61897681722E+03  0.00000000000E+00 0. -1.
         25    1    1    2    0    0  0.60769095039E+02  0.22364250056E+02 -0.41079805532E+01  0.14083649419E+03  0.12500000000E+03 0.  0.
         25    1    1    2    0    0  0.17156507929E+02 -0.67517875166E+02 -0.36431548465E+03  0.39141254653E+03  0.12500000000E+03 0.  0.
         25    1    1    2    0    0 -0.77925602968E+02  0.45153625111E+02 -0.13345293078E+03  0.20382819774E+03  0.12500000000E+03 0.  0.
</event>
<event>
 5    0  0.5648525E-005  0.3924857E+03  0.7546771E-02  0.1046413E+00
         21   -1    0    0  502  501  0.00000000000E+00  0.00000000000E+00  0.45523496018E+02  0.45523496018E+02  0.00000000000E+00 0.  1.
         21   -1    0    0  501  502 -0.00000000000E+00 -0.00000000000E+00 -0.33838580412E+04  0.33838580412E+04  0.00000000000E+00 0.  1.
         25    1    1    2    0    0  0.46551341786E+02  0.12936768715E+03 -0.76397273606E+03  0.78624574234E+03  0.12500000000E+03 0.  0.
         25    1    1    2    0    0 -0.26465742151E+03 -0.13587201742E+02 -0.17281304788E+04  0.17527943732E+04  0.12500000000E+03 0.  0.
         25    1    1    2    0    0  0.21810607973E+03 -0.11578048541E+03 -0.84623133025E+03  0.89034142165E+03  0.12500000000E+03 0.  0.
</event>
<event>
 5    0  0.5648525E-005  0.3504813E+03  0.7546771E-02  0.1062418E+00
         21   -1    0    0  502  501  0.00000000000E+00  0.00000000000E+00  0.87074233494E+02  0.87074233494E+02  0.00000000000E+00 0. -1.
         21   -1    0    0  501  502 -0.00000000000E+00 -0.00000000000E+00 -0.14107171863E+04  0.14107171863E+04  0.00000000000E+00 0. -1.
         25    1    1    2    0    0 -0.87787998857E+02 -0.13182191522E+02 -0.21358077637E+03  0.26291110846E+03  0.12500000000E+03 0.  0.
         25    1    1    2    0    0 -0.15041662100E+03  0.14282196243E+03 -0.51454474726E+03  0.56868670616E+03  0.12500000000E+03 0.  0.
         25    1    1    2    0    0  0.23820461986E+03 -0.12963977091E+03 -0.59551742915E+03  0.66619360516E+03  0.12500000000E+03 0.  0.
</event>
<event>
 5    0  0.5648525E-005  0.4249885E+03  0.7546771E-02  0.1035455E+00
         21   -1    0    0  502  501  0.00000000000E+00  0.00000000000E+00  0.85630140677E+03  0.85630140677E+03  0.00000000000E+00 0.  1.
         21   -1    0    0  501  502 -0.00000000000E+00 -0.00000000000E+00 -0.21092480622E+03  0.21092480622E+03  0.00000000000E+00 0.  1.
         25    1    1    2    0    0  0.64199920891E+02 -0.18607904673E+03  0.55177779811E+03  0.59902485755E+03  0.12500000000E+03 0.  0.
         25    1    1    2    0    0 -0.23968412677E+02  0.29439938245E+02 -0.11652914513E+03  0.17505780884E+03  0.12500000000E+03 0.  0.
         25    1    1    2    0    0 -0.40231508214E+02  0.15663910848E+03  0.21012794757E+03  0.29314354659E+03  0.12500000000E+03 0.  0.
</event>
<event>
 5    0  0.5648525E-005  0.4355476E+03  0.7546771E-02  0.1032122E+00
         21   -1    0    0  502  501  0.00000000000E+00  0.00000000000E+00  0.34076572465E+03  0.34076572465E+03  0.00000000000E+00 0. -1.
         21   -1    0    0  501  502 -0.00000000000E+00 -0.00000000000E+00 -0.55669249923E+03  0.55669249923E+03  0.00000000000E+00 0. -1.
         25    1    1    2    0    0  0.15751968610E+03  0.31755338379E+03 -0.17200173342E+01  0.37587306571E+03  0.12500000000E+03 0.  0.
         25    1    1    2    0    0 -0.11283914081E+03 -0.25554577029E+03 -0.65789098240E+02  0.31303277442E+03  0.12500000000E+03 0.  0.
         25    1    1    2    0    0 -0.44680545291E+02 -0.62007613497E+02 -0.14841765901E+03  0.20855238374E+03  0.12500000000E+03 0.  0.
</event>
<event>
 5    0  0.5648525E-005  0.4750856E+03  0.7546771E-02  0.1020495E+00
         21   -1    0    0  502  501  0.00000000000E+00  0.00000000000E+00  0.10171051799E+03  0.10171051799E+03  0.00000000000E+00 0. -1.
         21   -1    0    0  501  502 -0.00000000000E+00 -0.00000000000E+00 -0.22191046183E+04  0.22191046183E+04  0.00000000000E+00 0. -1.
         25    1    1    2    0    0  0.17736476807E+03  0.10165363430E+03 -0.59588984900E+03  0.64226274566E+03  0.12500000000E+03 0.  0.
         25    1    1    2    0    0 -0.26463111286E+03 -0.14505044980E+03 -0.14787314253E+04  0.15143780529E+04  0.12500000000E+03 0.  0.
         25    1    1    2    0    0  0.87266344797E+02  0.43396815498E+02 -0.42772826003E+02  0.16417433774E+03  0.12500000000E+03 0.  0.
</event>
<event>
 5    0  0.5648525E-005  0.2329204E+03  0.7546771E-02  0.1124601E+00
         21   -1    0    0  502  501  0.00000000000E+00  0.00000000000E+00  0.37049194595E+03  0.37049194595E+03  0.00000000000E+00 0. -1.
         21   -1    0    0  501  502 -0.00000000000E+00 -0.00000000000E+00 -0.14643206722E+03  0.14643206722E+03  0.00000000000E+00 0. -1.
         25    1    1    2    0    0 -0.26579329557E+02 -0.20368529255E+02  0.14914236617E+02  0.13026423990E+03  0.12500000000E+03 0.  0.
         25    1    1    2    0    0 -0.82036610339E+02 -0.10549212309E+02  0.13818298052E+03  0.20386472824E+03  0.12500000000E+03 0.  0.
         25    1    1    2    0    0  0.10861593990E+03  0.30917741565E+02  0.70962661596E+02  0.18279504502E+03  0.12500000000E+03 0.  0.
</event>
<event>
 5    0  0.5648525E-005  0.4305361E+03  0.7546771E-02  0.1033691E+00
         21   -1    0    0  502  501  0.00000000000E+00  0.00000000000E+00  0.55794696699E+02  0.55794696699E+02  0.00000000000E+00 0. -1.
         21   -1    0    0  501  502 -0.00000000000E+00 -0.00000000000E+00 -0.33222036822E+04  0.33222036822E+04  0.00000000000E+00 0. -1.
         25    1    1    2    0    0 -0.68782908102E+02  0.19981714467E+03 -0.35365478046E+03  0.43052837711E+03  0.12500000000E+03 0.  0.
         25    1    1    2    0    0  0.12099200916E+03 -0.16167878030E+03 -0.25025965354E+04  0.25138403914E+04  0.12500000000E+03 0.  0.
         25    1    1    2    0    0 -0.52209101060E+02 -0.38138364371E+02 -0.41015766962E+03  0.43362961040E+03  0.12500000000E+03 0.  0.
</event>
<event>
 5    0  0.5648525E-005  0.3173993E+03  0.7546771E-02  0.1076852E+00
         21   -1    0    0  502  501  0.00000000000E+00  0.00000000000E+00  0.16685903969E+04  0.16685903969E+04  0.00000000000E+00 0. -1.
         21   -1    0    0  501  502 -0.00000000000E+00 -0.00000000000E+00 -0.60375697122E+02  0.60375697122E+02  0.00000000000E+00 0. -1.
         25    1    1    2    0    0  0.89287831411E+02  0.70070276588E+00  0.70855980607E+03  0.72502055598E+03  0.12500000000E+03 0.  0.
         25    1    1    2    0    0 -0.19651431837E+03 -0.89322744140E+02  0.41160887776E+03  0.48129335980E+03  0.12500000000E+03 0.  0.
         25    1    1    2    0    0  0.10722648696E+03  0.88622041374E+02  0.48804601592E+03  0.52265217820E+03  0.12500000000E+03 0.  0.
</event>
<event>
 5    0  0.5648525E-005  0.3252060E+03  0.7546771E-02  0.1073278E+00
         21   -1    0    0  502  501  0.00000000000E+00  0.00000000000E+00  0.32598928529E+03  0.32598928529E+03  0.00000000000E+00 0. -1.
         21   -1    0    0  501  502 -0.00000000000E+00 -0.00000000000E+00 -0.32442456008E+03  0.32442456008E+03  0.00000000000E+00 0. -1.
         25    1    1    2    0    0 -0.28527316945E+02 -0.77146216160E+02  0.22602190236E+02  0.15133144248E+03  0.12500000000E+03 0.  0.
         25    1    1    2    0    0  0.60230637548E+02 -0.15518028347E+03 -0.86494050919E+02  0.22542154050E+03  0.12500000000E+03 0.  0.
         25    1    1    2    0    0 -0.31703320603E+02  0.23232649963E+03  0.65456585886E+02  0.27366086239E+03  0.12500000000E+03 0.  0.
</event>
<event>
 5    0  0.5648525E-005  0.3598382E+03  0.7546771E-02  0.1058648E+00
         21   -1    0    0  502  501  0.00000000000E+00  0.00000000000E+00  0.72546474269E+03  0.72546474269E+03  0.00000000000E+00 0.  1.
         21   -1    0    0  501  502 -0.00000000000E+00 -0.00000000000E+00 -0.17848352911E+03  0.17848352911E+03  0.00000000000E+00 0.  1.
         25    1    1    2    0    0  0.72558747535E+01  0.27304463431E+03  0.28696890863E+03  0.41543010792E+03  0.12500000000E+03 0.  0.
         25    1    1    2    0    0 -0.90229992645E+02 -0.11922999955E+03  0.90722468727E+02  0.21497165091E+03  0.12500000000E+03 0.  0.
         25    1    1    2    0    0  0.82974117892E+02 -0.15381463477E+03  0.16928983622E+03  0.27354651297E+03  0.12500000000E+03 0.  0.
</event>
<event>
 5    0  0.5648525E-005  0.3451254E+03  0.7546771E-02  0.1064634E+00
         21   -1    0    0  502  501  0.00000000000E+00  0.00000000000E+00  0.18444737295E+03  0.18444737295E+03  0.00000000000E+00 0.  1.
         21   -1    0    0  501  502 -0.00000000000E+00 -0.00000000000E+00 -0.64577513560E+03  0.64577513560E+03  0.00000000000E+00 0.  1.
         25    1    1    2    0    0  0.11644982454E+03  0.39460064236E+02 -0.10851951460E+03  0.20620170551E+03  0.12500000000E+03 0.  0.
         25    1    1    2    0    0  0.93369692694E+02 -0.57514005493E+02  0.30596314191E+02  0.16907659443E+03  0.12500000000E+03 0.  0.
         25    1    1    2    0    0 -0.20981951723E+03  0.18053941257E+02 -0.38340456224E+03  0.45494420862E+03  0.12500000000E+03 0.  0.
</event>
<event>
 5    0  0.5648525E-005  0.3195678E+03  0.7546771E-02  0.1075848E+00
         21   -1    0    0  502  501  0.00000000000E+00  0.00000000000E+00  0.12419552226E+04  0.12419552226E+04  0.00000000000E+00 0.  1.
         21   -1    0    0  501  502 -0.00000000000E+00 -0.00000000000E+00 -0.82228055424E+02  0.82228055424E+02  0.00000000000E+00 0.  1.
         25    1    1    2    0    0  0.24424398024E+02  0.19487160915E+03  0.60643728518E+03  0.64958654245E+03  0.12500000000E+03 0.  0.
         25    1    1    2    0    0  0.89071683139E+02 -0.13650615174E+03  0.32900959142E+03  0.38786596324E+03  0.12500000000E+03 0.  0.
         25    1    1    2    0    0 -0.11349608116E+03 -0.58365457418E+02  0.22428029057E+03  0.28673077233E+03  0.12500000000E+03 0.  0.
</event>
<event>
 5    0  0.5648525E-005  0.2693296E+03  0.7546771E-02  0.1101664E+00
         21   -1    0    0  502  501  0.00000000000E+00  0.00000000000E+00  0.73962081167E+02  0.73962081167E+02  0.00000000000E+00 0.  1.
         21   -1    0    0  501  502 -0.00000000000E+00 -0.00000000000E+00 -0.98075160064E+03  0.98075160064E+03  0.00000000000E+00 0.  1.
         25    1    1    2    0    0 -0.25503719007E+02  0.30844243511E+01 -0.36660921815E+03  0.38818458520E+03  0.12500000000E+03 0.  0.
         25    1    1    2    0    0 -0.56045155408E+01 -0.14921210345E+03 -0.29315147668E+03  0.35193529333E+03  0.12500000000E+03 0.  0.
         25    1    1    2    0    0  0.31108234548E+02  0.14612767910E+03 -0.24702882464E+03  0.31459380327E+03  0.12500000000E+03 0.  0.
</event>
<event>
 5    0  0.5648525E-005  0.2857148E+03  0.7546771E-02  0.1092608E+00
         21   -1    0    0  502  501  0.00000000000E+00  0.00000000000E+00  0.37832696907E+03  0.37832696907E+03  0.00000000000E+00 0. -1.
         21   -1    0    0  501  502 -0.00000000000E+00 -0.00000000000E+00 -0.21577345907E+03  0.21577345907E+03  0.00000000000E+00 0. -1.
         25    1    1    2    0    0 -0.22208817359E+02  0.13794690586E+03 -0.51964535528E+02  0.19454535039E+03  0.12500000000E+03 0.  0.
         25    1    1    2    0    0 -0.56489347045E+02 -0.11382630468E+02  0.55889549811E+02  0.14855723605E+03  0.12500000000E+03 0.  0.
         25    1    1    2    0    0  0.78698164404E+02 -0.12656427539E+03  0.15862849571E+03  0.25099784170E+03  0.12500000000E+03 0.  0.
</event>
<event>
 5    0  0.5648525E-005  0.2253081E+03  0.7546771E-02  0.1129986E+00
         21   -1    0    0  502  501  0.00000000000E+00  0.00000000000E+00  0.55523595551E+02  0.55523595551E+02  0.00000000000E+00 0. -1.
         21   -1    0    0  501  502 -0.00000000000E+00 -0.00000000000E+00 -0.91427361247E+03  0.91427361247E+03  0.00000000000E+00 0. -1.
         25    1    1    2    0    0 -0.33777819491E+02 -0.10237962806E+03 -0.24423366027E+03  0.29478400591E+03  0.12500000000E+03 0.  0.
         25    1    1    2    0    0  0.16662275809E+02  0.57204304717E+02 -0.38618362686E+03  0.41025937841E+03  0.12500000000E+03 0.  0.
         25    1    1    2    0    0  0.17115543682E+02  0.45175323345E+02 -0.22833272979E+03  0.26475382371E+03  0.12500000000E+03 0.  0.
</event>
<event>
 5    0  0.5648525E-005  0.3524387E+03  0.7546771E-02  0.1061619E+00
         21   -1    0    0  502  501  0.00000000000E+00  0.00000000000E+00  0.74964407283E+03  0.74964407283E+03  0.00000000000E+00 0. -1.
         21   -1    0    0  501  502 -0.00000000000E+00 -0.00000000000E+00 -0.16569604084E+03  0.16569604084E+03  0.00000000000E+00 0. -1.
         25    1    1    2    0    0 -0.10909762994E+03 -0.14710446821E+03  0.25772115240E+02  0.22322907371E+03  0.12500000000E+03 0.  0.
         25    1    1    2    0    0  0.17728589327E+03  0.10202914821E+03  0.23309669957E+03  0.33436403274E+03  0.12500000000E+03 0.  0.
         25    1    1    2    0    0 -0.68188263334E+02  0.45075319993E+02  0.32507921718E+03  0.35774700722E+03  0.12500000000E+03 0.  0.
</event>
<event>
 5    0  0.5648525E-005  0.3114083E+03  0.7546771E-02  0.1079673E+00
         21   -1    0    0  502  501  0.00000000000E+00  0.00000000000E+00  0.13345418759E+03  0.13345418759E+03  0.00000000000E+00 0. -1.
         21   -1    0    0  501  502 -0.00000000000E+00 -0.00000000000E+00 -0.72665489666E+03  0.72665489666E+03  0.00000000000E+00 0. -1.
         25    1    1    2    0    0  0.58482272541E+02 -0.11573988021E+03 -0.11273509159E+03  0.21248552174E+03  0.12500000000E+03 0.  0.
         25    1    1    2    0    0 -0.17430963341E+03  0.13373356960E+03 -0.21597967630E+03  0.33247667063E+03  0.12500000000E+03 0.  0.
         25    1    1    2    0    0  0.11582736087E+03 -0.17993689395E+02 -0.26448594118E+03  0.31514689189E+03  0.12500000000E+03 0.  0.
</event>
<event>
 5    0  0.5648525E-005  0.2632391E+03  0.7546771E-02  0.1105213E+00
         21   -1    0    0  502  501  0.00000000000E+00  0.00000000000E+00  0.19513443458E+03  0.19513443458E+03  0.00000000000E+00 0. -1.
         21   -1    0    0  501  502 -0.00000000000E+00 -0.00000000000E+00 -0.35511312834E+03  0.35511312834E+03  0.00000000000E+00 0. -1.
         25    1    1    2    0    0  0.44080938869E+02  0.12248523278E+03 -0.18335529535E+03  0.25727402852E+03  0.12500000000E+03 0.  0.
         25    1    1    2    0    0 -0.24228513447E+02 -0.91529291523E+02  0.39426844330E+02  0.16169139781E+03  0.12500000000E+03 0.  0.
         25    1    1    2    0    0 -0.19852425422E+02 -0.30955941257E+02 -0.16050242746E+02  0.13128213659E+03  0.12500000000E+03 0.  0.
</event>
<event>
 5    0  0.5648525E-005  0.3250734E+03  0.7546771E-02  0.1073338E+00
         21   -1    0    0  502  501  0.00000000000E+00  0.00000000000E+00  0.17702113019E+03  0.17702113019E+03  0.00000000000E+00 0.  1.
         21   -1    0    0  501  502 -0.00000000000E+00 -0.00000000000E+00 -0.59694990437E+03  0.59694990437E+03  0.00000000000E+00 0.  1.
         25    1    1    2    0    0 -0.20879670113E+03  0.72150178573E+02 -0.30005423200E+03  0.39301304408E+03  0.12500000000E+03 0.  0.
         25    1    1    2    0    0  0.94326843668E+02 -0.10473029032E+03 -0.73675785832E+02  0.20228472153E+03  0.12500000000E+03 0.  0.
         25    1    1    2    0    0  0.11446985746E+03  0.32580111744E+02 -0.46198756346E+02  0.17867326895E+03  0.12500000000E+03 0.  0.
</event>
<event>
 5    0  0.5648525E-005  0.5759466E+03  0.7546771E-02  0.9956605E-01
         21   -1    0    0  502  501  0.00000000000E+00  0.00000000000E+00  0.10687196838E+04  0.10687196838E+04  0.00000000000E+00 0. -1.
         21   -1    0    0  501  502 -0.00000000000E+00 -0.00000000000E+00 -0.31038491595E+03  0.31038491595E+03  0.00000000000E+00 0. -1.
         25    1    1    2    0    0  0.86176563193E+02  0.50084829969E+02  0.52851982175E+03  0.55217125262E+03  0.12500000000E+03 0.  0.
         25    1    1    2    0    0 -0.18949983736E+03  0.43050536944E+02  0.46928849423E+03  0.52308720870E+03  0.12500000000E+03 0.  0.
         25    1    1    2    0    0  0.10332327416E+03 -0.93135366913E+02 -0.23947354816E+03  0.30384613840E+03  0.12500000000E+03 0.  0.
</event>
<event>
 5    0  0.5648525E-005  0.3820591E+03  0.7546771E-02  0.1050175E+00
         21   -1    0    0  502  501  0.00000000000E+00  0.00000000000E+00  0.20608584667E+03  0.20608584667E+03  0.00000000000E+00 0. -1.
         21   -1    0    0  501  502 -0.00000000000E+00 -0.00000000000E+00 -0.70829304270E+03  0.70829304270E+03  0.00000000000E+00 0. -1.
         25    1    1    2    0    0  0.57133881429E+02  0.11627101068E+02 -0.71657143504E+02  0.15543235217E+03  0.12500000000E+03 0.  0.
         25    1    1    2    0    0  0.10759311139E+02 -0.15349493214E+03 -0.50669754922E+03  0.54409913008E+03  0.12500000000E+03 0.  0.
         25    1    1    2    0    0 -0.67893192567E+02  0.14186783107E+03  0.76147496693E+02  0.21484740711E+03  0.12500000000E+03 0.  0.
</event>
<event>
 5    0  0.5648525E-005  0.3115771E+03  0.7546771E-02  0.1079592E+00
         21   -1    0    0  502  501  0.00000000000E+00  0.00000000000E+00  0.93826575066E+02  0.93826575066E+02  0.00000000000E+00 0. -1.
         21   -1    0    0  501  502 -0.00000000000E+00 -0.00000000000E+00 -0.10346780556E+04  0.10346780556E+04  0.00000000000E+00 0. -1.
         25    1    1    2    0    0 -0.38365587114E+01 -0.14123752612E+03 -0.46663658085E+03  0.50332639168E+03  0.12500000000E+03 0.  0.
         25    1    1    2    0    0  0.48583493993E+02 -0.14578736750E+02 -0.37333939837E+03  0.39696372861E+03  0.12500000000E+03 0.  0.
         25    1    1    2    0    0 -0.44746935282E+02  0.15581626287E+03 -0.10087550134E+03  0.22821451042E+03  0.12500000000E+03 0.  0.
</event>
<event>
 5    0  0.5648525E-005  0.5215113E+03  0.7546771E-02  0.1008312E+00
         21   -1    0    0  502  501  0.00000000000E+00  0.00000000000E+00  0.43144348957E+03  0.43144348957E+03  0.00000000000E+00 0.  1.
         21   -1    0    0  501  502 -0.00000000000E+00 -0.00000000000E+00 -0.63038168374E+03  0.63038168374E+03  0.00000000000E+00 0.  1.
         25    1    1    2    0    0 -0.97729704049E+02 -0.80472536779E+02 -0.53613915631E+03  0.56488681978E+03  0.12500000000E+03 0.  0.
         25    1    1    2    0    0 -0.38956928518E+02  0.10344339795E+02  0.24606030717E+03  0.27891812851E+03  0.12500000000E+03 0.  0.
         25    1    1    2    0    0  0.13668663257E+03  0.70128196983E+02  0.91140654962E+02  0.21802022503E+03  0.12500000000E+03 0.  0.
</event>
<event>
 5    0  0.5648525E-005  0.3225642E+03  0.7546771E-02  0.1074475E+00
         21   -1    0    0  502  501  0.00000000000E+00  0.00000000000E+00  0.31456133122E+03  0.31456133122E+03  0.00000000000E+00 0. -1.
         21   -1    0    0  501  502 -0.00000000000E+00 -0.00000000000E+00 -0.33077061855E+03  0.33077061855E+03  0.00000000000E+00 0. -1.
         25    1    1    2    0    0 -0.42239216652E+02 -0.10433249044E+03  0.11075964388E+03  0.20140039398E+03  0.12500000000E+03 0.  0.
         25    1    1    2    0    0 -0.10105569234E+03  0.26744813595E+02  0.52492710660E+02  0.17119586058E+03  0.12500000000E+03 0.  0.
         25    1    1    2    0    0  0.14329490899E+03  0.77587676841E+02 -0.17946164186E+03  0.27273569521E+03  0.12500000000E+03 0.  0.
</event>
<event>
 5    0  0.5648525E-005  0.2803395E+03  0.7546771E-02  0.1095504E+00
         21   -1    0    0  502  501  0.00000000000E+00  0.00000000000E+00  0.10244572874E+03  0.10244572874E+03  0.00000000000E+00 0.  1.
         21   -1    0    0  501  502 -0.00000000000E+00 -0.00000000000E+00 -0.76714019267E+03  0.76714019267E+03  0.00000000000E+00 0.  1.
         25    1    1    2    0    0  0.45427326373E+02 -0.10957803775E+03 -0.10360408149E+03  0.20107161421E+03  0.12500000000E+03 0.  0.
         25    1    1    2    0    0 -0.91616114375E+02 -0.14602049209E+02 -0.38449805846E+03  0.41481380066E+03  0.12500000000E+03 0.  0.
         25    1    1    2    0    0  0.46188788002E+02  0.12418008696E+03 -0.17659232398E+03  0.25370050655E+03  0.12500000000E+03 0.  0.
</event>
<event>
 5    0  0.5687251E-005  0.2896241E+03  0.7546771E-02  0.1090546E+00
         21   -1    0    0  502  501  0.00000000000E+00  0.00000000000E+00  0.10110546566E+04  0.10110546566E+04  0.00000000000E+00 0.  1.
         21   -1    0    0  501  502 -0.00000000000E+00 -0.00000000000E+00 -0.82964954906E+02  0.82964954906E+02  0.00000000000E+00 0.  1.
         25    1    1    2    0    0 -0.52914215092E+02  0.84333445676E+02  0.38676781148E+03  0.41848104404E+03  0.12500000000E+03 0.  0.
         25    1    1    2    0    0  0.69467780716E+02  0.21487272209E+02  0.47761738763E+03  0.49902990331E+03  0.12500000000E+03 0.  0.
         25    1    1    2    0    0 -0.16553565625E+02 -0.10582071788E+03  0.63704502544E+02  0.17650866413E+03  0.12500000000E+03 0.  0.
</event>
<event>
 5    0  0.5648525E-005  0.2437577E+03  0.7546771E-02  0.1117315E+00
         21   -1    0    0  502  501  0.00000000000E+00  0.00000000000E+00  0.20094136975E+03  0.20094136975E+03  0.00000000000E+00 0.  1.
         21   -1    0    0  501  502 -0.00000000000E+00 -0.00000000000E+00 -0.29569730693E+03  0.29569730693E+03  0.00000000000E+00 0.  1.
         25    1    1    2    0    0 -0.33348382801E+02 -0.41464994541E+02 -0.70105619062E+02  0.15287661113E+03  0.12500000000E+03 0.  0.
         25    1    1    2    0    0 -0.34772544671E+01  0.11502648503E+03 -0.75213001661E+02  0.18580952391E+03  0.12500000000E+03 0.  0.
         25    1    1    2    0    0  0.36825637268E+02 -0.73561490486E+02  0.50562683537E+02  0.15795254164E+03  0.12500000000E+03 0.  0.
</event>
<event>
 5    0  0.5648525E-005  0.4064912E+03  0.7546771E-02  0.1041555E+00
         21   -1    0    0  502  501  0.00000000000E+00  0.00000000000E+00  0.28487315088E+03  0.28487315088E+03  0.00000000000E+00 0. -1.
         21   -1    0    0  501  502 -0.00000000000E+00 -0.00000000000E+00 -0.58003053790E+03  0.58003053790E+03  0.00000000000E+00 0. -1.
         25    1    1    2    0    0  0.28774302043E+02  0.89613078896E+02 -0.29121596442E+03  0.33059068695E+03  0.12500000000E+03 0.  0.
         25    1    1    2    0    0  0.12139613954E+03  0.11589314380E+03 -0.10390542050E+03  0.23364413086E+03  0.12500000000E+03 0.  0.
         25    1    1    2    0    0 -0.15017044159E+03 -0.20550622270E+03  0.99963997901E+02  0.30066887097E+03  0.12500000000E+03 0.  0.
</event>
<event>
 5    0  0.5648525E-005  0.3956399E+03  0.7546771E-02  0.1045300E+00
         21   -1    0    0  502  501  0.00000000000E+00  0.00000000000E+00  0.25063377660E+04  0.25063377660E+04  0.00000000000E+00 0.  1.
         21   -1    0    0  501  502 -0.00000000000E+00 -0.00000000000E+00 -0.62454044741E+02  0.62454044741E+02  0.00000000000E+00 0.  1.
         25    1    1    2    0    0 -0.92890228652E+02 -0.26093537895E+03  0.12340401249E+04  0.12709035748E+04  0.12500000000E+03 0.  0.
         25    1    1    2    0    0 -0.17676957718E+02  0.83091507005E+02  0.16002102608E+03  0.22010997742E+03  0.12500000000E+03 0.  0.
         25    1    1    2    0    0  0.11056718637E+03  0.17784387194E+03  0.10498225702E+04  0.10777782584E+04  0.12500000000E+03 0.  0.
</event>
<event>
 5    0  0.5648525E-005  0.3217794E+03  0.7546771E-02  0.1074833E+00
         21   -1    0    0  502  501  0.00000000000E+00  0.00000000000E+00  0.30194048796E+03  0.30194048796E+03  0.00000000000E+00 0. -1.
         21   -1    0    0  501  502 -0.00000000000E+00 -0.00000000000E+00 -0.34292183698E+03  0.34292183698E+03  0.00000000000E+00 0. -1.
         25    1    1    2    0    0 -0.15377246962E+02  0.17732704999E+03 -0.59857679154E+02  0.22558653359E+03  0.12500000000E+03 0.  0.
         25    1    1    2    0    0  0.74980255162E+02 -0.17086909410E+03  0.11328540392E+03  0.25154893902E+03  0.12500000000E+03 0.  0.
         25    1    1    2    0    0 -0.59603008200E+02 -0.64579558915E+01 -0.94409073778E+02  0.16772685233E+03  0.12500000000E+03 0.  0.
</event>
<event>
 5    0  0.5648525E-005  0.2329457E+03  0.7546771E-02  0.1124583E+00
         21   -1    0    0  502  501  0.00000000000E+00  0.00000000000E+00  0.81551373205E+02  0.81551373205E+02  0.00000000000E+00 0.  1.
         21   -1    0    0  501  502 -0.00000000000E+00 -0.00000000000E+00 -0.66539284266E+03  0.66539284266E+03  0.00000000000E+00 0.  1.
         25    1    1    2    0    0  0.20662858905E+02  0.94171876674E+02 -0.23136880131E+03  0.28009251742E+03  0.12500000000E+03 0.  0.
         25    1    1    2    0    0  0.36069989952E+01 -0.51043164993E+01 -0.25323241478E+03  0.28247251262E+03  0.12500000000E+03 0.  0.
         25    1    1    2    0    0 -0.24269857900E+02 -0.89067560175E+02 -0.99240253358E+02  0.18437918582E+03  0.12500000000E+03 0.  0.
</event>
<event>
 5    0  0.5648525E-005  0.4689644E+03  0.7546771E-02  0.1022213E+00
         21   -1    0    0  502  501  0.00000000000E+00  0.00000000000E+00  0.52194775343E+03  0.52194775343E+03  0.00000000000E+00 0.  1.
         21   -1    0    0  501  502 -0.00000000000E+00 -0.00000000000E+00 -0.42135952095E+03  0.42135952095E+03  0.00000000000E+00 0.  1.
         25    1    1    2    0    0  0.31529876748E+03 -0.15121652666E+03  0.15799248879E+03  0.40356706658E+03  0.12500000000E+03 0.  0.
         25    1    1    2    0    0 -0.13936758471E+03  0.30106675452E+02 -0.18186041642E+03  0.26273170085E+03  0.12500000000E+03 0.  0.
         25    1    1    2    0    0 -0.17593118277E+03  0.12110985121E+03  0.12445616011E+03  0.27700850695E+03  0.12500000000E+03 0.  0.
</event>
<event>
 5    0  0.5648525E-005  0.4026260E+03  0.7546771E-02  0.1042874E+00
         21   -1    0    0  502  501  0.00000000000E+00  0.00000000000E+00  0.90961669465E+03  0.90961669465E+03  0.00000000000E+00 0. -1.
         21   -1    0    0  501  502 -0.00000000000E+00 -0.00000000000E+00 -0.17821536854E+03  0.17821536854E+03  0.00000000000E+00 0. -1.
         25    1    1    2    0    0 -0.37863988818E+02 -0.30858829430E+02 -0.16262092080E+02  0.13518655496E+03  0.12500000000E+03 0.  0.
         25    1    1    2    0    0 -0.96991236471E+02 -0.12223206616E+02 -0.21950399654E+02  0.16019839817E+03  0.12500000000E+03 0.  0.
         25    1    1    2    0    0  0.13485522529E+03  0.43082036046E+02  0.76961381785E+03  0.79244711006E+03  0.12500000000E+03 0.  0.
</event>
<event>
 5    0  0.5648525E-005  0.2667270E+03  0.7546771E-02  0.1103168E+00
         21   -1    0    0  502  501  0.00000000000E+00  0.00000000000E+00  0.17345212978E+04  0.17345212978E+04  0.00000000000E+00 0.  1.
         21   -1    0    0  501  502 -0.00000000000E+00 -0.00000000000E+00 -0.41016092199E+02  0.41016092199E+02  0.00000000000E+00 0.  1.
         25    1    1    2    0    0  0.81697645129E+01 -0.29228534826E+02  0.35929538195E+03  0.38162707424E+03  0.12500000000E+03 0.  0.
         25    1    1    2    0    0  0.75093555698E+02  0.52004007808E+02  0.21782813717E+03  0.26724063366E+03  0.12500000000E+03 0.  0.
         25    1    1    2    0    0 -0.83263320211E+02 -0.22775472982E+02  0.11163816865E+04  0.11266696821E+04  0.12500000000E+03 0.  0.
</event>
<event>
 5    0  0.5788043E-005  0.5657018E+03  0.7546771E-02  0.9979235E-01
         21   -1    0    0  502  501  0.00000000000E+00  0.00000000000E+00  0.14089676136E+04  0.14089676136E+04  0.00000000000E+00 0.  1.
         21   -1    0    0  501  502 -0.00000000000E+00 -0.00000000000E+00 -0.22712982661E+03  0.22712982661E+03  0.00000000000E+00 0.  1.
         25    1    1    2    0    0 -0.11636524973E+03 -0.28582908885E+02  0.74701618791E+03  0.76682203869E+03  0.12500000000E+03 0.  0.
         25    1    1    2    0    0 -0.14914726552E+03 -0.13051818638E+03 -0.86887306316E+02  0.24990859887E+03  0.12500000000E+03 0.  0.
         25    1    1    2    0    0  0.26551251525E+03  0.15910109527E+03  0.52170890544E+03  0.61936680269E+03  0.12500000000E+03 0.  0.
</event>
<event>
 5    0  0.5648525E-005  0.5377687E+03  0.7546771E-02  0.1004365E+00
         21   -1    0    0  502  501  0.00000000000E+00  0.00000000000E+00  0.12156759784E+03  0.12156759784E+03  0.00000000000E+00 0. -1.
         21   -1    0    0  501  502 -0.00000000000E+00 -0.00000000000E+00 -0.23788837669E+04  0.23788837669E+04  0.00000000000E+00 0. -1.
         25    1    1    2    0    0  0.41203428674E+03 -0.78070891407E+01 -0.44464279611E+03  0.61900357045E+03  0.12500000000E+03 0.  0.
         25    1    1    2    0    0 -0.22304117458E+03 -0.48345775899E+02 -0.11432158616E+04  0.11724556222E+04  0.12500000000E+03 0.  0.
         25    1    1    2    0    0 -0.18899311216E+03  0.56152865040E+02 -0.66945751126E+03  0.70899217209E+03  0.12500000000E+03 0.  0.
</event>
<event>
 5    0  0.5648525E-005  0.3420148E+03  0.7546771E-02  0.1065941E+00
         21   -1    0    0  502  501  0.00000000000E+00  0.00000000000E+00  0.22997632289E+03  0.22997632289E+03  0.00000000000E+00 0.  1.
         21   -1    0    0  501  502 -0.00000000000E+00 -0.00000000000E+00 -0.50863537771E+03  0.50863537771E+03  0.00000000000E+00 0.  1.
         25    1    1    2    0    0 -0.14877172072E+03  0.10180802608E+03 -0.15207419160E+03  0.26692594256E+03  0.12500000000E+03 0.  0.
         25    1    1    2    0    0 -0.40174213148E+02 -0.14370131553E+03  0.24479487415E+02  0.19618430312E+03  0.12500000000E+03 0.  0.
         25    1    1    2    0    0  0.18894593387E+03  0.41893289448E+02 -0.15106435064E+03  0.27550145492E+03  0.12500000000E+03 0.  0.
</event>
<event>
 5    0  0.5648525E-005  0.4132082E+03  0.7546771E-02  0.1039300E+00
         21   -1    0    0  502  501  0.00000000000E+00  0.00000000000E+00  0.78764499772E+02  0.78764499772E+02  0.00000000000E+00 0.  1.
         21   -1    0    0  501  502 -0.00000000000E+00 -0.00000000000E+00 -0.21677411673E+04  0.21677411673E+04  0.00000000000E+00 0.  1.
         25    1    1    2    0    0  0.55064199549E+02  0.59988476582E+02 -0.10754921267E+04  0.10857895735E+04  0.12500000000E+03 0.  0.
         25    1    1    2    0    0 -0.43955239246E+02  0.16533342506E+03 -0.15016619055E+03  0.25969614800E+03  0.12500000000E+03 0.  0.
         25    1    1    2    0    0 -0.11108960303E+02 -0.22532190164E+03 -0.86331835035E+03  0.90101994562E+03  0.12500000000E+03 0.  0.
</event>
<event>
 5    0  0.5648525E-005  0.2647002E+03  0.7546771E-02  0.1104352E+00
         21   -1    0    0  502  501  0.00000000000E+00  0.00000000000E+00  0.84489177336E+02  0.84489177336E+02  0.00000000000E+00 0. -1.
         21   -1    0    0  501  502 -0.00000000000E+00 -0.00000000000E+00 -0.82929188467E+03  0.82929188467E+03  0.00000000000E+00 0. -1.
         25    1    1    2    0    0  0.15588219970E+02 -0.53881067673E+02 -0.66836191045E+02  0.15244093443E+03  0.12500000000E+03 0.  0.
         25    1    1    2    0    0 -0.60261558982E+02 -0.52910367513E+02 -0.17087271891E+03  0.22639224490E+03  0.12500000000E+03 0.  0.
         25    1    1    2    0    0  0.44673339012E+02  0.10679143519E+03 -0.50709379737E+03  0.53494788268E+03  0.12500000000E+03 0.  0.
</event>
<event>
 5    0  0.5648525E-005  0.3230972E+03  0.7546771E-02  0.1074233E+00
         21   -1    0    0  502  501  0.00000000000E+00  0.00000000000E+00  0.88151986126E+02  0.88151986126E+02  0.00000000000E+00 0.  1.
         21   -1    0    0  501  502 -0.00000000000E+00 -0.00000000000E+00 -0.11842253482E+04  0.11842253482E+04  0.00000000000E+00 0.  1.
         25    1    1    2    0    0 -0.11523481669E+03 -0.13016534671E+03 -0.45568486144E+03  0.50348363767E+03  0.12500000000E+03 0.  0.
         25    1    1    2    0    0  0.12164000015E+03  0.21091852409E+03 -0.37048111469E+03  0.46061281982E+03  0.12500000000E+03 0.  0.
         25    1    1    2    0    0 -0.64051834588E+01 -0.80753177380E+02 -0.26990738592E+03  0.30828087681E+03  0.12500000000E+03 0.  0.
</event>
<event>
 5    0  0.5648525E-005  0.4392526E+03  0.7546771E-02  0.1030976E+00
         21   -1    0    0  502  501  0.00000000000E+00  0.00000000000E+00  0.45179908406E+03  0.45179908406E+03  0.00000000000E+00 0. -1.
         21   -1    0    0  501  502 -0.00000000000E+00 -0.00000000000E+00 -0.42705445860E+03  0.42705445860E+03  0.00000000000E+00 0. -1.
         25    1    1    2    0    0  0.14783281374E+03 -0.46379003064E+02 -0.25139060735E+03  0.32066772555E+03  0.12500000000E+03 0.  0.
         25    1    1    2    0    0 -0.24413054390E+02  0.16791837354E+03  0.21434514644E+01  0.21076567980E+03  0.12500000000E+03 0.  0.
         25    1    1    2    0    0 -0.12341975935E+03 -0.12153937047E+03  0.27399178134E+03  0.34742013732E+03  0.12500000000E+03 0.  0.
</event>
<event>
 5    0  0.5648525E-005  0.4624815E+03  0.7546771E-02  0.1024064E+00
         21   -1    0    0  502  501  0.00000000000E+00  0.00000000000E+00  0.55299874498E+03  0.55299874498E+03  0.00000000000E+00 0. -1.
         21   -1    0    0  501  502 -0.00000000000E+00 -0.00000000000E+00 -0.38678048727E+03  0.38678048727E+03  0.00000000000E+00 0. -1.
         25    1    1    2    0    0 -0.29602703814E+03 -0.78850378390E+02  0.36861764397E+02  0.33291617437E+03  0.12500000000E+03 0.  0.
         25    1    1    2    0    0  0.33536292421E+02 -0.15093490786E+03  0.12766368882E+03  0.23628171060E+03  0.12500000000E+03 0.  0.
         25    1    1    2    0    0  0.26249074572E+03  0.22978528625E+03  0.16928044891E+01  0.37058134728E+03  0.12500000000E+03 0.  0.
</event>
<event>
 5    0  0.5648525E-005  0.5703273E+03  0.7546771E-02  0.9968955E-01
         21   -1    0    0  502  501  0.00000000000E+00  0.00000000000E+00  0.51897836743E+03  0.51897836743E+03  0.00000000000E+00 0. -1.
         21   -1    0    0  501  502 -0.00000000000E+00 -0.00000000000E+00 -0.62675690865E+03  0.62675690865E+03  0.00000000000E+00 0. -1.
         25    1    1    2    0    0  0.13442269324E+03 -0.24133436093E+03  0.15715113408E+03  0.34151605111E+03  0.12500000000E+03 0.  0.
         25    1    1    2    0    0  0.99167644419E+02  0.41351756321E+03 -0.16189764552E+03  0.47187587818E+03  0.12500000000E+03 0.  0.
         25    1    1    2    0    0 -0.23359033766E+03 -0.17218320229E+03 -0.10303202978E+03  0.33234334679E+03  0.12500000000E+03 0.  0.
</event>
<event>
 5    0  0.5648525E-005  0.3872758E+03  0.7546771E-02  0.1048277E+00
         21   -1    0    0  502  501  0.00000000000E+00  0.00000000000E+00  0.13626410955E+03  0.13626410955E+03  0.00000000000E+00 0.  1.
         21   -1    0    0  501  502 -0.00000000000E+00 -0.00000000000E+00 -0.11006755272E+04  0.11006755272E+04  0.00000000000E+00 0.  1.
         25    1    1    2    0    0 -0.15377469631E+03  0.39382699870E+02 -0.13125237074E+03  0.24093534215E+03  0.12500000000E+03 0.  0.
         25    1    1    2    0    0  0.15426280520E+03 -0.21659220157E+03 -0.29762482710E+03  0.41822808677E+03  0.12500000000E+03 0.  0.
         25    1    1    2    0    0 -0.48810889808E+00  0.17720950170E+03 -0.53553421983E+03  0.57777620785E+03  0.12500000000E+03 0.  0.
</event>
<event>
 5    0  0.5648525E-005  0.2930383E+03  0.7546771E-02  0.1088773E+00
         21   -1    0    0  502  501  0.00000000000E+00  0.00000000000E+00  0.10239839141E+03  0.10239839141E+03  0.00000000000E+00 0. -1.
         21   -1    0    0  501  502 -0.00000000000E+00 -0.00000000000E+00 -0.83860158837E+03  0.83860158837E+03  0.00000000000E+00 0. -1.
         25    1    1    2    0    0  0.31316275725E+02 -0.86245915056E+02 -0.10007052326E+03  0.18454857522E+03  0.12500000000E+03 0.  0.
         25    1    1    2    0    0  0.21308754744E+02  0.18164662609E+03 -0.48018500485E+03  0.52882151874E+03  0.12500000000E+03 0.  0.
         25    1    1    2    0    0 -0.52625030469E+02 -0.95400711036E+02 -0.15594766885E+03  0.22762988582E+03  0.12500000000E+03 0.  0.
</event>
<event>
 5    0  0.5648525E-005  0.2385055E+03  0.7546771E-02  0.1120792E+00
         21   -1    0    0  502  501  0.00000000000E+00  0.00000000000E+00  0.71105233024E+02  0.71105233024E+02  0.00000000000E+00 0.  1.
         21   -1    0    0  501  502 -0.00000000000E+00 -0.00000000000E+00 -0.80000972065E+03  0.80000972065E+03  0.00000000000E+00 0.  1.
         25    1    1    2    0    0 -0.15269560756E+02 -0.42868898314E+02 -0.19712306902E+03  0.23780960087E+03  0.12500000000E+03 0.  0.
         25    1    1    2    0    0  0.41539356301E+02  0.13230993364E+03 -0.31691833910E+03  0.36782287900E+03  0.12500000000E+03 0.  0.
         25    1    1    2    0    0 -0.26269795545E+02 -0.89441035325E+02 -0.21486307952E+03  0.26548247380E+03  0.12500000000E+03 0.  0.
</event>
<event>
 5    0  0.5648525E-005  0.3110909E+03  0.7546771E-02  0.1079824E+00
         21   -1    0    0  502  501  0.00000000000E+00  0.00000000000E+00  0.24183757028E+03  0.24183757028E+03  0.00000000000E+00 0.  1.
         21   -1    0    0  501  502 -0.00000000000E+00 -0.00000000000E+00 -0.40017569759E+03  0.40017569759E+03  0.00000000000E+00 0.  1.
         25    1    1    2    0    0  0.46451794128E+02  0.32652765476E+02  0.24173119018E+02  0.13940341443E+03  0.12500000000E+03 0.  0.
         25    1    1    2    0    0 -0.14051726289E+03 -0.87501092205E+02 -0.24892798517E+03  0.32402420297E+03  0.12500000000E+03 0.  0.
         25    1    1    2    0    0  0.94065468765E+02  0.54848326728E+02  0.66416738845E+02  0.17858565048E+03  0.12500000000E+03 0.  0.
</event>
<event>
 5    0  0.5648525E-005  0.3106443E+03  0.7546771E-02  0.1080037E+00
         21   -1    0    0  502  501  0.00000000000E+00  0.00000000000E+00  0.17043792006E+03  0.17043792006E+03  0.00000000000E+00 0.  1.
         21   -1    0    0  501  502 -0.00000000000E+00 -0.00000000000E+00 -0.56618782304E+03  0.56618782304E+03  0.00000000000E+00 0.  1.
         25    1    1    2    0    0 -0.25674055428E+02 -0.75814596102E+02 -0.43678273609E+03  0.46131460918E+03  0.12500000000E+03 0.  0.
         25    1    1    2    0    0 -0.49941256050E+00  0.37004442471E+02  0.54208534775E+02  0.14118478465E+03  0.12500000000E+03 0.  0.
         25    1    1    2    0    0  0.26173467988E+02  0.38810153631E+02 -0.13175701675E+02  0.13412634926E+03  0.12500000000E+03 0.  0.
</event>
<event>
 5    0  0.5648525E-005  0.2602903E+03  0.7546771E-02  0.1106969E+00
         21   -1    0    0  502  501  0.00000000000E+00  0.00000000000E+00  0.24226063149E+03  0.24226063149E+03  0.00000000000E+00 0.  1.
         21   -1    0    0  501  502 -0.00000000000E+00 -0.00000000000E+00 -0.27966167737E+03  0.27966167737E+03  0.00000000000E+00 0.  1.
         25    1    1    2    0    0  0.62667994160E+02  0.88790853099E+02 -0.90474366557E+02  0.18873712960E+03  0.12500000000E+03 0.  0.
         25    1    1    2    0    0  0.46339496223E+02 -0.39362390954E+01 -0.16350716536E+02  0.13436959783E+03  0.12500000000E+03 0.  0.
         25    1    1    2    0    0 -0.10900749038E+03 -0.84854614003E+02  0.69424037218E+02  0.19881558143E+03  0.12500000000E+03 0.  0.
</event>
<event>
 5    0  0.5648525E-005  0.2549159E+03  0.7546771E-02  0.1110237E+00
         21   -1    0    0  502  501  0.00000000000E+00  0.00000000000E+00  0.37833314224E+03  0.37833314224E+03  0.00000000000E+00 0. -1.
         21   -1    0    0  501  502 -0.00000000000E+00 -0.00000000000E+00 -0.17175892907E+03  0.17175892907E+03  0.00000000000E+00 0. -1.
         25    1    1    2    0    0  0.19118904795E+01  0.62795599545E+01 -0.25069165626E+02  0.12765794634E+03  0.12500000000E+03 0.  0.
         25    1    1    2    0    0 -0.70533107829E+02  0.73594528826E+01  0.23912746539E+03  0.27899108508E+03  0.12500000000E+03 0.  0.
         25    1    1    2    0    0  0.68621217350E+02 -0.13639012837E+02 -0.74840865994E+01  0.14344303989E+03  0.12500000000E+03 0.  0.
</event>
<event>
 5    0  0.5648525E-005  0.2695262E+03  0.7546771E-02  0.1101551E+00
         21   -1    0    0  502  501  0.00000000000E+00  0.00000000000E+00  0.40782453421E+03  0.40782453421E+03  0.00000000000E+00 0. -1.
         21   -1    0    0  501  502 -0.00000000000E+00 -0.00000000000E+00 -0.17812650752E+03  0.17812650752E+03  0.00000000000E+00 0. -1.
         25    1    1    2    0    0  0.27016105216E+02 -0.48791736947E+01  0.21917260068E+03  0.25380170442E+03  0.12500000000E+03 0.  0.
         25    1    1    2    0    0  0.53964322866E+02 -0.38115865515E+02  0.79803071060E+02  0.16235300273E+03  0.12500000000E+03 0.  0.
         25    1    1    2    0    0 -0.80980428082E+02  0.42995039210E+02 -0.69277645056E+02  0.16979633457E+03  0.12500000000E+03 0.  0.
</event>
<event>
 5    0  0.9018124E-005  0.4438701E+03  0.7546771E-02  0.1029566E+00
         21   -1    0    0  502  501  0.00000000000E+00  0.00000000000E+00  0.32203926695E+03  0.32203926695E+03  0.00000000000E+00 0. -1.
         21   -1    0    0  501  502 -0.00000000000E+00 -0.00000000000E+00 -0.61179068546E+03  0.61179068546E+03  0.00000000000E+00 0. -1.
         25    1    1    2    0    0  0.15313177273E+03  0.23618240580E+03 -0.19224408451E+02  0.30858717814E+03  0.12500000000E+03 0.  0.
         25    1    1    2    0    0 -0.17898377943E+03 -0.12488769685E+03  0.55767341751E+02  0.25761817974E+03  0.12500000000E+03 0.  0.
         25    1    1    2    0    0  0.25852006699E+02 -0.11129470895E+03 -0.32629435181E+03  0.36762459454E+03  0.12500000000E+03 0.  0.
</event>
<event>
 5    0  0.5648525E-005  0.3290988E+03  0.7546771E-02  0.1071536E+00
         21   -1    0    0  502  501  0.00000000000E+00  0.00000000000E+00  0.34823766201E+03  0.34823766201E+03  0.00000000000E+00 0.  1.
         21   -1    0    0  501  502 -0.00000000000E+00 -0.00000000000E+00 -0.31101171549E+03  0.31101171549E+03  0.00000000000E+00 0.  1.
         25    1    1    2    0    0 -0.15352950014E+03 -0.89776568813E+02 -0.15658358574E+02  0.21794798443E+03  0.12500000000E+03 0.  0.
         25    1    1    2    0    0  0.72940616863E+02 -0.10911713366E+03 -0.20319266648E+02  0.18238627976E+03  0.12500000000E+03 0.  0.
         25    1    1    2    0    0  0.80588883280E+02  0.19889370247E+03  0.73203571741E+02  0.25891511332E+03  0.12500000000E+03 0.  0.
</event>
<event>
 5    0  0.5648525E-005  0.3113899E+03  0.7546771E-02  0.1079682E+00
         21   -1    0    0  502  501  0.00000000000E+00  0.00000000000E+00  0.16375051571E+03  0.16375051571E+03  0.00000000000E+00 0. -1.
         21   -1    0    0  501  502 -0.00000000000E+00 -0.00000000000E+00 -0.59214258607E+03  0.59214258607E+03  0.00000000000E+00 0. -1.
         25    1    1    2    0    0 -0.12602324787E+02  0.14522178904E+03 -0.80013572376E+01  0.19219055211E+03  0.12500000000E+03 0.  0.
         25    1    1    2    0    0  0.93328777608E+02 -0.89820474830E+02 -0.99499897288E+02  0.20567743675E+03  0.12500000000E+03 0.  0.
         25    1    1    2    0    0 -0.80726452821E+02 -0.55401314208E+02 -0.32089081583E+03  0.35802511293E+03  0.12500000000E+03 0.  0.
</event>
<event>
 5    0  0.5648525E-005  0.3257346E+03  0.7546771E-02  0.1073040E+00
         21   -1    0    0  502  501  0.00000000000E+00  0.00000000000E+00  0.74244277640E+03  0.74244277640E+03  0.00000000000E+00 0. -1.
         21   -1    0    0  501  502 -0.00000000000E+00 -0.00000000000E+00 -0.14291073549E+03  0.14291073549E+03  0.00000000000E+00 0. -1.
         25    1    1    2    0    0 -0.10364857412E+02 -0.62911084325E+02  0.12075294326E+03  0.18512565491E+03  0.12500000000E+03 0.  0.
         25    1    1    2    0    0  0.17051608973E+03  0.64671113189E+02  0.44136441010E+03  0.49364524939E+03  0.12500000000E+03 0.  0.
         25    1    1    2    0    0 -0.16015123232E+03 -0.17600288640E+01  0.37414687543E+02  0.20658260759E+03  0.12500000000E+03 0.  0.
</event>
<event>
 5    0  0.5648525E-005  0.3692506E+03  0.7546771E-02  0.1054980E+00
         21   -1    0    0  502  501  0.00000000000E+00  0.00000000000E+00  0.18335592402E+03  0.18335592402E+03  0.00000000000E+00 0.  1.
         21   -1    0    0  501  502 -0.00000000000E+00 -0.00000000000E+00 -0.74361387357E+03  0.74361387357E+03  0.00000000000E+00 0.  1.
         25    1    1    2    0    0 -0.11502002221E+03 -0.28898846599E+02 -0.30457274636E+01  0.17233405148E+03  0.12500000000E+03 0.  0.
         25    1    1    2    0    0  0.14374422939E+03  0.27562964538E+02 -0.59136651417E+03  0.62190149910E+03  0.12500000000E+03 0.  0.
         25    1    1    2    0    0 -0.28724207172E+02  0.13358820612E+01  0.34154292091E+02  0.13273424700E+03  0.12500000000E+03 0.  0.
</event>
<event>
 5    0  0.5648525E-005  0.2420774E+03  0.7546771E-02  0.1118417E+00
         21   -1    0    0  502  501  0.00000000000E+00  0.00000000000E+00  0.35838077737E+03  0.35838077737E+03  0.00000000000E+00 0.  1.
         21   -1    0    0  501  502 -0.00000000000E+00 -0.00000000000E+00 -0.16351734922E+03  0.16351734922E+03  0.00000000000E+00 0.  1.
         25    1    1    2    0    0  0.78005835627E+02  0.10812668508E+03  0.44126350279E+02  0.18801176880E+03  0.12500000000E+03 0.  0.
         25    1    1    2    0    0 -0.49918468031E+02 -0.94344837770E+02  0.11352731200E+03  0.19976549360E+03  0.12500000000E+03 0.  0.
         25    1    1    2    0    0 -0.28087367596E+02 -0.13781847312E+02  0.37209765878E+02  0.13412086419E+03  0.12500000000E+03 0.  0.
</event>
<event>
 5    0  0.5648525E-005  0.5558070E+03  0.7546771E-02  0.1000159E+00
         21   -1    0    0  502  501  0.00000000000E+00  0.00000000000E+00  0.13490519630E+03  0.13490519630E+03  0.00000000000E+00 0. -1.
         21   -1    0    0  501  502 -0.00000000000E+00 -0.00000000000E+00 -0.22899145937E+04  0.22899145937E+04  0.00000000000E+00 0. -1.
         25    1    1    2    0    0 -0.85761102731E+02 -0.17667898760E+03 -0.10632472663E+04  0.10884347388E+04  0.12500000000E+03 0.  0.
         25    1    1    2    0    0  0.30313878441E+03  0.12442567672E+03 -0.10074092206E+04  0.10667113993E+04  0.12500000000E+03 0.  0.
         25    1    1    2    0    0 -0.21737768168E+03  0.52253310885E+02 -0.84352910457E+02  0.26967365183E+03  0.12500000000E+03 0.  0.
</event>
<event>
 5    0  0.5648525E-005  0.2425758E+03  0.7546771E-02  0.1118089E+00
         21   -1    0    0  502  501  0.00000000000E+00  0.00000000000E+00  0.51808362755E+02  0.51808362755E+02  0.00000000000E+00 0. -1.
         21   -1    0    0  501  502 -0.00000000000E+00 -0.00000000000E+00 -0.11357821042E+04  0.11357821042E+04  0.00000000000E+00 0. -1.
         25    1    1    2    0    0 -0.96979576924E+01  0.93773996515E+02 -0.27709126456E+03  0.31826432678E+03  0.12500000000E+03 0.  0.
         25    1    1    2    0    0  0.28942896862E+02  0.30490742926E+02 -0.22259999647E+03  0.25873371468E+03  0.12500000000E+03 0.  0.
         25    1    1    2    0    0 -0.19244939169E+02 -0.12426473944E+03 -0.58428248041E+03  0.61059242549E+03  0.12500000000E+03 0.  0.
</event>
<event>
 5    0  0.5648525E-005  0.2645481E+03  0.7546771E-02  0.1104441E+00
         21   -1    0    0  502  501  0.00000000000E+00  0.00000000000E+00  0.14186489161E+04  0.14186489161E+04  0.00000000000E+00 0. -1.
         21   -1    0    0  501  502 -0.00000000000E+00 -0.00000000000E+00 -0.49332654152E+02  0.49332654152E+02  0.00000000000E+00 0. -1.
         25    1    1    2    0    0 -0.49788245729E+02  0.35217170883E+02  0.42307453024E+03  0.44534949946E+03  0.12500000000E+03 0.  0.
         25    1    1    2    0    0  0.73386017157E+02 -0.15501732591E+03  0.55243534485E+03  0.59179868966E+03  0.12500000000E+03 0.  0.
         25    1    1    2    0    0 -0.23597771428E+02  0.11980015503E+03  0.39380638690E+03  0.43083338117E+03  0.12500000000E+03 0.  0.
</event>
<event>
 5    0  0.5648525E-005  0.5323266E+03  0.7546771E-02  0.1005669E+00
         21   -1    0    0  502  501  0.00000000000E+00  0.00000000000E+00  0.15688340363E+03  0.15688340363E+03  0.00000000000E+00 0.  1.
         21   -1    0    0  501  502 -0.00000000000E+00 -0.00000000000E+00 -0.18062561966E+04  0.18062561966E+04  0.00000000000E+00 0.  1.
         25    1    1    2    0    0 -0.18783471767E+03 -0.12159292478E+02 -0.10948281335E+03  0.25108009872E+03  0.12500000000E+03 0.  0.
         25    1    1    2    0    0  0.10753439878E+03  0.34218671226E+03 -0.67578556662E+03  0.77522030741E+03  0.12500000000E+03 0.  0.
         25    1    1    2    0    0  0.80300318891E+02 -0.33002741978E+03 -0.86410441300E+03  0.93683919409E+03  0.12500000000E+03 0.  0.
</event>
<event>
 5    0  0.7179456E-005  0.6821664E+03  0.7546771E-02  0.9748226E-01
         21   -1    0    0  502  501  0.00000000000E+00  0.00000000000E+00  0.96176401230E+03  0.96176401230E+03  0.00000000000E+00 0.  1.
         21   -1    0    0  501  502 -0.00000000000E+00 -0.00000000000E+00 -0.48385152467E+03  0.48385152467E+03  0.00000000000E+00 0.  1.
         25    1    1    2    0    0 -0.17727949729E+03  0.37783666781E+03  0.48749604917E+03  0.65380881430E+03  0.12500000000E+03 0.  0.
         25    1    1    2    0    0  0.13251313852E+03 -0.50248482706E+03  0.14403407254E+03  0.55355356323E+03  0.12500000000E+03 0.  0.
         25    1    1    2    0    0  0.44766358768E+02  0.12464815925E+03 -0.15361763408E+03  0.23825315944E+03  0.12500000000E+03 0.  0.
</event>
<event>
 5    0  0.5648525E-005  0.2972554E+03  0.7546771E-02  0.1086621E+00
         21   -1    0    0  502  501  0.00000000000E+00  0.00000000000E+00  0.65950797511E+02  0.65950797511E+02  0.00000000000E+00 0.  1.
         21   -1    0    0  501  502 -0.00000000000E+00 -0.00000000000E+00 -0.13397982844E+04  0.13397982844E+04  0.00000000000E+00 0.  1.
         25    1    1    2    0    0  0.11749768720E+03  0.30281728841E+01 -0.73672084157E+03  0.75643735678E+03  0.12500000000E+03 0.  0.
         25    1    1    2    0    0 -0.10078784941E+03 -0.97158187108E+01 -0.89238591106E+02  0.18395954410E+03  0.12500000000E+03 0.  0.
         25    1    1    2    0    0 -0.16709837793E+02  0.66876458267E+01 -0.44788805420E+03  0.46535218102E+03  0.12500000000E+03 0.  0.
</event>
<event>
 5    0  0.5648525E-005  0.4767464E+03  0.7546771E-02  0.1020033E+00
         21   -1    0    0  502  501  0.00000000000E+00  0.00000000000E+00  0.23476530837E+03  0.23476530837E+03  0.00000000000E+00 0. -1.
         21   -1    0    0  501  502 -0.00000000000E+00 -0.00000000000E+00 -0.96814614536E+03  0.96814614536E+03  0.00000000000E+00 0. -1.
         25    1    1    2    0    0 -0.49844823503E+01  0.15663365877E+02  0.11737807633E+03  0.17225794291E+03  0.12500000000E+03 0.  0.
         25    1    1    2    0    0 -0.80080545615E+02  0.15541852284E+03 -0.75160855150E+03  0.78173411446E+03  0.12500000000E+03 0.  0.
         25    1    1    2    0    0  0.85065027966E+02 -0.17108188872E+03 -0.99150361818E+02  0.24891939635E+03  0.12500000000E+03 0.  0.
</event>
<event>
 5    0  0.5648525E-005  0.2432199E+03  0.7546771E-02  0.1117666E+00
         21   -1    0    0  502  501  0.00000000000E+00  0.00000000000E+00  0.75407140617E+03  0.75407140617E+03  0.00000000000E+00 0. -1.
         21   -1    0    0  501  502 -0.00000000000E+00 -0.00000000000E+00 -0.78448682806E+02  0.78448682806E+02  0.00000000000E+00 0. -1.
         25    1    1    2    0    0 -0.34122890395E+02 -0.44698252506E+02  0.26689894435E+03  0.30003725089E+03  0.12500000000E+03 0.  0.
         25    1    1    2    0    0 -0.22418739762E+02 -0.36083451295E+02  0.52091480588E+02  0.14192652219E+03  0.12500000000E+03 0.  0.
         25    1    1    2    0    0  0.56541630156E+02  0.80781703801E+02  0.35663229842E+03  0.39055631589E+03  0.12500000000E+03 0.  0.
</event>
<event>
 5    0  0.5648525E-005  0.3620556E+03  0.7546771E-02  0.1057773E+00
         21   -1    0    0  502  501  0.00000000000E+00  0.00000000000E+00  0.38534799737E+03  0.38534799737E+03  0.00000000000E+00 0. -1.
         21   -1    0    0  501  502 -0.00000000000E+00 -0.00000000000E+00 -0.34017118791E+03  0.34017118791E+03  0.00000000000E+00 0. -1.
         25    1    1    2    0    0 -0.40045635084E+02 -0.40793797322E+02 -0.16546074942E+03  0.21510473353E+03  0.12500000000E+03 0.  0.
         25    1    1    2    0    0  0.56465639955E+02  0.21187563972E+03  0.11596091680E+03  0.27776174940E+03  0.12500000000E+03 0.  0.
         25    1    1    2    0    0 -0.16420004871E+02 -0.17108184240E+03  0.94676642070E+02  0.23265270236E+03  0.12500000000E+03 0.  0.
</event>
<event>
 5    0  0.5648525E-005  0.2693466E+03  0.7546771E-02  0.1101654E+00
         21   -1    0    0  502  501  0.00000000000E+00  0.00000000000E+00  0.22250750930E+03  0.22250750930E+03  0.00000000000E+00 0. -1.
         21   -1    0    0  501  502 -0.00000000000E+00 -0.00000000000E+00 -0.32604552578E+03  0.32604552578E+03  0.00000000000E+00 0. -1.
         25    1    1    2    0    0  0.74106682662E+02 -0.99953458446E+02  0.78469549051E+02  0.19304135412E+03  0.12500000000E+03 0.  0.
         25    1    1    2    0    0 -0.69465958357E+02  0.88997872617E+02 -0.15091153054E+03  0.22615355569E+03  0.12500000000E+03 0.  0.
         25    1    1    2    0    0 -0.46407243053E+01  0.10955585829E+02 -0.31096034995E+02  0.12935812528E+03  0.12500000000E+03 0.  0.
</event>
<event>
 5    0  0.5648525E-005  0.3661143E+03  0.7546771E-02  0.1056189E+00
         21   -1    0    0  502  501  0.00000000000E+00  0.00000000000E+00  0.32870779324E+03  0.32870779324E+03  0.00000000000E+00 0. -1.
         21   -1    0    0  501  502 -0.00000000000E+00 -0.00000000000E+00 -0.40777751812E+03  0.40777751812E+03  0.00000000000E+00 0. -1.
         25    1    1    2    0    0  0.44980140646E+02 -0.30009608102E+01  0.13681510589E+03  0.19072386326E+03  0.12500000000E+03 0.  0.
         25    1    1    2    0    0 -0.23319713111E+03 -0.49759234122E+02 -0.11649859438E+03  0.29334928981E+03  0.12500000000E+03 0.  0.
         25    1    1    2    0    0  0.18821699047E+03  0.52760194932E+02 -0.99386236381E+02  0.25241215829E+03  0.12500000000E+03 0.  0.
</event>
<event>
 5    0  0.5648525E-005  0.3176120E+03  0.7546771E-02  0.1076754E+00
         21   -1    0    0  502  501  0.00000000000E+00  0.00000000000E+00  0.90577811181E+03  0.90577811181E+03  0.00000000000E+00 0.  1.
         21   -1    0    0  501  502 -0.00000000000E+00 -0.00000000000E+00 -0.11137099091E+03  0.11137099091E+03  0.00000000000E+00 0.  1.
         25    1    1    2    0    0 -0.31482826411E+02  0.21342768909E+03  0.51558851567E+03  0.57271202565E+03  0.12500000000E+03 0.  0.
         25    1    1    2    0    0 -0.30837087647E+02 -0.73568566787E+02  0.12610978486E+03  0.19465851595E+03  0.12500000000E+03 0.  0.
         25    1    1    2    0    0  0.62319914057E+02 -0.13985912231E+03  0.15270882036E+03  0.24977856112E+03  0.12500000000E+03 0.  0.
</event>
<event>
 5    0  0.5648525E-005  0.2471272E+03  0.7546771E-02  0.1115134E+00
         21   -1    0    0  502  501  0.00000000000E+00  0.00000000000E+00  0.25109561826E+03  0.25109561826E+03  0.00000000000E+00 0.  1.
         21   -1    0    0  501  502 -0.00000000000E+00 -0.00000000000E+00 -0.24322151866E+03  0.24322151866E+03  0.00000000000E+00 0.  1.
         25    1    1    2    0    0  0.63676157429E+02 -0.97607429611E+01  0.55766638490E+02  0.15127737140E+03  0.12500000000E+03 0.  0.
         25    1    1    2    0    0 -0.29330901513E+02  0.11002362462E+03 -0.58228159779E+02  0.17883237500E+03  0.12500000000E+03 0.  0.
         25    1    1    2    0    0 -0.34345255916E+02 -0.10026288166E+03  0.10335620895E+02  0.16420739052E+03  0.12500000000E+03 0.  0.
</event>
<event>
 5    0  0.5648525E-005  0.2663531E+03  0.7546771E-02  0.1103385E+00
         21   -1    0    0  502  501  0.00000000000E+00  0.00000000000E+00  0.60259087237E+03  0.60259087237E+03  0.00000000000E+00 0. -1.
         21   -1    0    0  501  502 -0.00000000000E+00 -0.00000000000E+00 -0.11773159472E+03  0.11773159472E+03  0.00000000000E+00 0. -1.
         25    1    1    2    0    0  0.20087146544E+02  0.92751218730E+02  0.18347914629E+03  0.24144539581E+03  0.12500000000E+03 0.  0.
         25    1    1    2    0    0  0.45935006418E+02 -0.23974562310E+02 -0.40379955546E+01  0.13537396301E+03  0.12500000000E+03 0.  0.
         25    1    1    2    0    0 -0.66022152962E+02 -0.68776656419E+02  0.30541812691E+03  0.34350310827E+03  0.12500000000E+03 0.  0.
</event>
<event>
 5    0  0.5648525E-005  0.2941664E+03  0.7546771E-02  0.1088194E+00
         21   -1    0    0  502  501  0.00000000000E+00  0.00000000000E+00  0.10500861251E+04  0.10500861251E+04  0.00000000000E+00 0.  1.
         21   -1    0    0  501  502 -0.00000000000E+00 -0.00000000000E+00 -0.82406474196E+02  0.82406474196E+02  0.00000000000E+00 0.  1.
         25    1    1    2    0    0 -0.18893368964E+03 -0.18475767396E+02  0.30012776371E+03  0.37648236029E+03  0.12500000000E+03 0.  0.
         25    1    1    2    0    0  0.90245830654E+02 -0.24516676906E+01  0.15400789387E+03  0.21793061281E+03  0.12500000000E+03 0.  0.
         25    1    1    2    0    0  0.98687858982E+02  0.20927435086E+02  0.51354399333E+03  0.53807962620E+03  0.12500000000E+03 0.  0.
</event>
<event>
 5    0  0.5648525E-005  0.3382940E+03  0.7546771E-02  0.1067525E+00
         21   -1    0    0  502  501  0.00000000000E+00  0.00000000000E+00  0.15664185125E+04  0.15664185125E+04  0.00000000000E+00 0. -1.
         21   -1    0    0  501  502 -0.00000000000E+00 -0.00000000000E+00 -0.73060167028E+02  0.73060167028E+02  0.00000000000E+00 0. -1.
         25    1    1    2    0    0  0.46154804184E+02  0.81395691971E+02  0.10978305971E+03  0.19087389769E+03  0.12500000000E+03 0.  0.
         25    1    1    2    0    0 -0.18920329654E+03 -0.29519403573E+02  0.64979767069E+03  0.68886231966E+03  0.12500000000E+03 0.  0.
         25    1    1    2    0    0  0.14304849235E+03 -0.51876288398E+02  0.73377761509E+03  0.75974246219E+03  0.12500000000E+03 0.  0.
</event>
<event>
 5    0  0.5648525E-005  0.2049663E+03  0.7546771E-02  0.1145615E+00
         21   -1    0    0  502  501  0.00000000000E+00  0.00000000000E+00  0.11423213919E+03  0.11423213919E+03  0.00000000000E+00 0.  1.
         21   -1    0    0  501  502 -0.00000000000E+00 -0.00000000000E+00 -0.36777022298E+03  0.36777022298E+03  0.00000000000E+00 0.  1.
         25    1    1    2    0    0  0.40751094586E+02 -0.18688174441E+02 -0.39794039240E+02  0.13863067890E+03  0.12500000000E+03 0.  0.
         25    1    1    2    0    0 -0.54652716917E+02 -0.62857670095E+01 -0.13940751750E+03  0.19515605619E+03  0.12500000000E+03 0.  0.
         25    1    1    2    0    0  0.13901622330E+02  0.24973941450E+02 -0.74336527061E+02  0.14821562708E+03  0.12500000000E+03 0.  0.
</event>
<event>
 5    0  0.5648525E-005  0.3298978E+03  0.7546771E-02  0.1071182E+00
         21   -1    0    0  502  501  0.00000000000E+00  0.00000000000E+00  0.30955780059E+03  0.30955780059E+03  0.00000000000E+00 0.  1.
         21   -1    0    0  501  502 -0.00000000000E+00 -0.00000000000E+00 -0.35157433464E+03  0.35157433464E+03  0.00000000000E+00 0.  1.
         25    1    1    2    0    0  0.16984993854E+02  0.57266979209E+02  0.20155933616E+03  0.24457956357E+03  0.12500000000E+03 0.  0.
         25    1    1    2    0    0  0.74073886866E+02  0.28227862528E+02 -0.54435115047E+02  0.15770838497E+03  0.12500000000E+03 0.  0.
         25    1    1    2    0    0 -0.91058880720E+02 -0.85494841737E+02 -0.18914075516E+03  0.25884418669E+03  0.12500000000E+03 0.  0.
</event>
<event>
 5    0  0.5648525E-005  0.2356473E+03  0.7546771E-02  0.1122727E+00
         21   -1    0    0  502  501  0.00000000000E+00  0.00000000000E+00  0.20529499822E+03  0.20529499822E+03  0.00000000000E+00 0. -1.
         21   -1    0    0  501  502 -0.00000000000E+00 -0.00000000000E+00 -0.27048709391E+03  0.27048709391E+03  0.00000000000E+00 0. -1.
         25    1    1    2    0    0  0.11801505497E+02  0.71638882660E+01 -0.89754636588E+02  0.15450401812E+03  0.12500000000E+03 0.  0.
         25    1    1    2    0    0 -0.28506446893E+02 -0.10073064357E+03  0.18977859295E+02  0.16414761409E+03  0.12500000000E+03 0.  0.
         25    1    1    2    0    0  0.16704941396E+02  0.93566755307E+02  0.55846816048E+01  0.15713045992E+03  0.12500000000E+03 0.  0.
</event>
<event>
 5    0  0.5796076E-005  0.5656141E+03  0.7546771E-02  0.9979431E-01
         21   -1    0    0  502  501  0.00000000000E+00  0.00000000000E+00  0.14573359787E+04  0.14573359787E+04  0.00000000000E+00 0. -1.
         21   -1    0    0  501  502 -0.00000000000E+00 -0.00000000000E+00 -0.21952340838E+03  0.21952340838E+03  0.00000000000E+00 0. -1.
         25    1    1    2    0    0  0.25644416126E+03 -0.21766167341E+03  0.48377986882E+03  0.60233559864E+03  0.12500000000E+03 0.  0.
         25    1    1    2    0    0  0.77580129275E+02  0.20235500687E+03  0.11275262093E+02  0.25043633282E+03  0.12500000000E+03 0.  0.
         25    1    1    2    0    0 -0.33402429054E+03  0.15306666542E+02  0.74275743938E+03  0.82408745559E+03  0.12500000000E+03 0.  0.
</event>
<event>
 5    0  0.5648525E-005  0.2932900E+03  0.7546771E-02  0.1088644E+00
         21   -1    0    0  502  501  0.00000000000E+00  0.00000000000E+00  0.11393263566E+04  0.11393263566E+04  0.00000000000E+00 0. -1.
         21   -1    0    0  501  502 -0.00000000000E+00 -0.00000000000E+00 -0.75499907338E+02  0.75499907338E+02  0.00000000000E+00 0. -1.
         25    1    1    2    0    0 -0.12790797377E+03  0.24531150730E+02  0.11704841983E+03  0.21514543847E+03  0.12500000000E+03 0.  0.
         25    1    1    2    0    0  0.11501116182E+03  0.30232134325E+02  0.39325413382E+03  0.42943609892E+03  0.12500000000E+03 0.  0.
         25    1    1    2    0    0  0.12896811952E+02 -0.54763285056E+02  0.55352389565E+03  0.57024472659E+03  0.12500000000E+03 0.  0.
</event>
<event>
 5    0  0.5648525E-005  0.4488718E+03  0.7546771E-02  0.1028059E+00
         21   -1    0    0  502  501  0.00000000000E+00  0.00000000000E+00  0.52871053408E+03  0.52871053408E+03  0.00000000000E+00 0.  1.
         21   -1    0    0  501  502 -0.00000000000E+00 -0.00000000000E+00 -0.38108919251E+03  0.38108919251E+03  0.00000000000E+00 0.  1.
         25    1    1    2    0    0 -0.67596605733E+02  0.13115637131E+03  0.16534203690E+03  0.25442933008E+03  0.12500000000E+03 0.  0.
         25    1    1    2    0    0  0.59048804661E+02  0.11249122338E+03 -0.24252374382E+03  0.30097143218E+03  0.12500000000E+03 0.  0.
         25    1    1    2    0    0  0.85478010720E+01 -0.24364759470E+03  0.22480304849E+03  0.35439896432E+03  0.12500000000E+03 0.  0.
</event>
<event>
 5    0  0.5648525E-005  0.7256572E+03  0.7546771E-02  0.9674334E-01
         21   -1    0    0  502  501  0.00000000000E+00  0.00000000000E+00  0.96315796433E+03  0.96315796433E+03  0.00000000000E+00 0. -1.
         21   -1    0    0  501  502 -0.00000000000E+00 -0.00000000000E+00 -0.54672073320E+03  0.54672073320E+03  0.00000000000E+00 0. -1.
         25    1    1    2    0    0 -0.15454924935E+03 -0.38325075108E+02  0.20358703876E+03  0.28710096518E+03  0.12500000000E+03 0.  0.
         25    1    1    2    0    0  0.30641100799E+02  0.59996545289E+03  0.14316237225E+03  0.63009355380E+03  0.12500000000E+03 0.  0.
         25    1    1    2    0    0  0.12390814855E+03 -0.56164037778E+03  0.69687820125E+02  0.59268417855E+03  0.12500000000E+03 0.  0.
</event>
<event>
 5    0  0.5648525E-005  0.2584885E+03  0.7546771E-02  0.1108055E+00
         21   -1    0    0  502  501  0.00000000000E+00  0.00000000000E+00  0.10297860077E+03  0.10297860077E+03  0.00000000000E+00 0. -1.
         21   -1    0    0  501  502 -0.00000000000E+00 -0.00000000000E+00 -0.64883669264E+03  0.64883669264E+03  0.00000000000E+00 0. -1.
         25    1    1    2    0    0  0.12652904624E+02  0.10764075375E+03 -0.32342425952E+03  0.36328346991E+03  0.12500000000E+03 0.  0.
         25    1    1    2    0    0  0.22866044542E+02 -0.20664035802E+02 -0.16258576108E+02  0.12976594186E+03  0.12500000000E+03 0.  0.
         25    1    1    2    0    0 -0.35518949166E+02 -0.86976717945E+02 -0.20617525625E+03  0.25876588165E+03  0.12500000000E+03 0.  0.
</event>
<event>
 5    0  0.5648525E-005  0.2722396E+03  0.7546771E-02  0.1100005E+00
         21   -1    0    0  502  501  0.00000000000E+00  0.00000000000E+00  0.73324194239E+02  0.73324194239E+02  0.00000000000E+00 0.  1.
         21   -1    0    0  501  502 -0.00000000000E+00 -0.00000000000E+00 -0.10107766513E+04  0.10107766513E+04  0.00000000000E+00 0.  1.
         25    1    1    2    0    0 -0.27697822540E+02  0.17446209533E+03 -0.35757778731E+03  0.41796060348E+03  0.12500000000E+03 0.  0.
         25    1    1    2    0    0  0.24488129082E+02 -0.12056284295E+03 -0.42588367812E+03  0.46058329850E+03  0.12500000000E+03 0.  0.
         25    1    1    2    0    0  0.32096934572E+01 -0.53899252382E+02 -0.15399099158E+03  0.20555694351E+03  0.12500000000E+03 0.  0.
</event>
<event>
 5    0  0.5648525E-005  0.2588774E+03  0.7546771E-02  0.1107820E+00
         21   -1    0    0  502  501  0.00000000000E+00  0.00000000000E+00  0.17996304446E+04  0.17996304446E+04  0.00000000000E+00 0. -1.
         21   -1    0    0  501  502 -0.00000000000E+00 -0.00000000000E+00 -0.37239585899E+02  0.37239585899E+02  0.00000000000E+00 0. -1.
         25    1    1    2    0    0 -0.14690100028E+02  0.11974928629E+03  0.11357939808E+04  0.11490033322E+04  0.12500000000E+03 0.  0.
         25    1    1    2    0    0 -0.17784704715E+02 -0.68397981281E+02  0.28663121149E+03  0.32058856961E+03  0.12500000000E+03 0.  0.
         25    1    1    2    0    0  0.32474804743E+02 -0.51351305009E+02  0.33996566645E+03  0.36727812872E+03  0.12500000000E+03 0.  0.
</event>
<event>
 5    0  0.5648525E-005  0.3115295E+03  0.7546771E-02  0.1079615E+00
         21   -1    0    0  502  501  0.00000000000E+00  0.00000000000E+00  0.61010650736E+03  0.61010650736E+03  0.00000000000E+00 0.  1.
         21   -1    0    0  501  502 -0.00000000000E+00 -0.00000000000E+00 -0.15907164905E+03  0.15907164905E+03  0.00000000000E+00 0.  1.
         25    1    1    2    0    0 -0.34805436965E+02  0.13635927153E+03  0.35542782633E+02  0.19155562840E+03  0.12500000000E+03 0.  0.
         25    1    1    2    0    0 -0.29953513738E+02 -0.47691935751E+02  0.38472870902E+03  0.40842736596E+03  0.12500000000E+03 0.  0.
         25    1    1    2    0    0  0.64758950703E+02 -0.88667335783E+02  0.30763366657E+02  0.16919516204E+03  0.12500000000E+03 0.  0.
</event>
<event>
 5    0  0.5648525E-005  0.3612549E+03  0.7546771E-02  0.1058088E+00
         21   -1    0    0  502  501  0.00000000000E+00  0.00000000000E+00  0.37776199504E+03  0.37776199504E+03  0.00000000000E+00 0.  1.
         21   -1    0    0  501  502 -0.00000000000E+00 -0.00000000000E+00 -0.34546920830E+03  0.34546920830E+03  0.00000000000E+00 0.  1.
         25    1    1    2    0    0  0.59543116093E+02  0.81243274030E+02 -0.49118911700E+02  0.16787947979E+03  0.12500000000E+03 0.  0.
         25    1    1    2    0    0 -0.27624753068E+02  0.12714617055E+03 -0.13740630891E+03  0.22679234863E+03  0.12500000000E+03 0.  0.
         25    1    1    2    0    0 -0.31918363026E+02 -0.20838944458E+03  0.21881800734E+03  0.32855937492E+03  0.12500000000E+03 0.  0.
</event>
<event>
 5    0  0.5648525E-005  0.2308780E+03  0.7546771E-02  0.1126023E+00
         21   -1    0    0  502  501  0.00000000000E+00  0.00000000000E+00  0.42733046695E+03  0.42733046695E+03  0.00000000000E+00 0.  1.
         21   -1    0    0  501  502 -0.00000000000E+00 -0.00000000000E+00 -0.12473875204E+03  0.12473875204E+03  0.00000000000E+00 0.  1.
         25    1    1    2    0    0  0.65543823641E+02 -0.41486432942E+02  0.47898977792E+02  0.15471402331E+03  0.12500000000E+03 0.  0.
         25    1    1    2    0    0 -0.98386327673E+02 -0.68413542980E+01  0.18050063645E+03  0.24069099144E+03  0.12500000000E+03 0.  0.
         25    1    1    2    0    0  0.32842504032E+02  0.48327787240E+02  0.74192100670E+02  0.15666420425E+03  0.12500000000E+03 0.  0.
</event>
<event>
 5    0  0.5648525E-005  0.2534159E+03  0.7546771E-02  0.1111165E+00
         21   -1    0    0  502  501  0.00000000000E+00  0.00000000000E+00  0.14799071869E+03  0.14799071869E+03  0.00000000000E+00 0.  1.
         21   -1    0    0  501  502 -0.00000000000E+00 -0.00000000000E+00 -0.43394356065E+03  0.43394356065E+03  0.00000000000E+00 0. -1.
         25    1    1    2    0    0  0.40863132508E+01 -0.15154892661E+03 -0.84597819751E+02  0.21392888122E+03  0.12500000000E+03 0.  0.
         25    1    1    2    0    0  0.13615784194E+02  0.12506088901E+03 -0.13542109759E+03  0.22313558482E+03  0.12500000000E+03 0.  0.
         25    1    1    2    0    0 -0.17702097444E+02  0.26488037598E+02 -0.65933924619E+02  0.14486981330E+03  0.12500000000E+03 0.  0.
</event>
<event>
 5    0  0.5648525E-005  0.3140530E+03  0.7546771E-02  0.1078419E+00
         21   -1    0    0  502  501  0.00000000000E+00  0.00000000000E+00  0.15127110123E+04  0.15127110123E+04  0.00000000000E+00 0.  1.
         21   -1    0    0  501  502 -0.00000000000E+00 -0.00000000000E+00 -0.65200370009E+02  0.65200370009E+02  0.00000000000E+00 0.  1.
         25    1    1    2    0    0 -0.16548908507E+03 -0.14508211067E+03  0.37564147441E+03  0.45295361066E+03  0.12500000000E+03 0.  0.
         25    1    1    2    0    0  0.38183859400E+02  0.61479823964E+02  0.44530779972E+03  0.46814721228E+03  0.12500000000E+03 0.  0.
         25    1    1    2    0    0  0.12730522567E+03  0.83602286709E+02  0.62656136815E+03  0.65681055936E+03  0.12500000000E+03 0.  0.
</event>
<event>
 5    0  0.5648525E-005  0.2799018E+03  0.7546771E-02  0.1095743E+00
         21   -1    0    0  502  501  0.00000000000E+00  0.00000000000E+00  0.26561524339E+03  0.26561524339E+03  0.00000000000E+00 0. -1.
         21   -1    0    0  501  502 -0.00000000000E+00 -0.00000000000E+00 -0.29495668022E+03  0.29495668022E+03  0.00000000000E+00 0. -1.
         25    1    1    2    0    0  0.16255006735E+03  0.66571467076E+02  0.42698424746E+02  0.21977816111E+03  0.12500000000E+03 0.  0.
         25    1    1    2    0    0 -0.57180803612E+02  0.41160053676E+00 -0.88292296030E+02  0.16337179455E+03  0.12500000000E+03 0.  0.
         25    1    1    2    0    0 -0.10536926374E+03 -0.66983067613E+02  0.16252434449E+02  0.17742196795E+03  0.12500000000E+03 0.  0.
</event>
<event>
 5    0  0.5648525E-005  0.3306005E+03  0.7546771E-02  0.1070871E+00
         21   -1    0    0  502  501  0.00000000000E+00  0.00000000000E+00  0.71341592175E+03  0.71341592175E+03  0.00000000000E+00 0. -1.
         21   -1    0    0  501  502 -0.00000000000E+00 -0.00000000000E+00 -0.15320193150E+03  0.15320193150E+03  0.00000000000E+00 0. -1.
         25    1    1    2    0    0 -0.12752661828E+03 -0.27581978335E+02  0.36515399315E+03  0.40741409231E+03  0.12500000000E+03 0.  0.
         25    1    1    2    0    0  0.19760378613E+03 -0.97214333502E+01  0.27570431762E+02  0.23564144641E+03  0.12500000000E+03 0.  0.
         25    1    1    2    0    0 -0.70077167853E+02  0.37303411685E+02  0.16748956535E+03  0.22356231453E+03  0.12500000000E+03 0.  0.
</event>
<event>
 5    0  0.5648525E-005  0.2513268E+03  0.7546771E-02  0.1112469E+00
         21   -1    0    0  502  501  0.00000000000E+00  0.00000000000E+00  0.16500525824E+03  0.16500525824E+03  0.00000000000E+00 0.  1.
         21   -1    0    0  501  502 -0.00000000000E+00 -0.00000000000E+00 -0.38280689142E+03  0.38280689142E+03  0.00000000000E+00 0.  1.
         25    1    1    2    0    0  0.94091547070E+02  0.74944328764E+01 -0.69337103622E+01  0.15678795264E+03  0.12500000000E+03 0.  0.
         25    1    1    2    0    0 -0.20032317865E+02 -0.92200009897E+02 -0.69581779492E+02  0.17137315899E+03  0.12500000000E+03 0.  0.
         25    1    1    2    0    0 -0.74059229205E+02  0.84705577020E+02 -0.14128614333E+03  0.21965103802E+03  0.12500000000E+03 0.  0.
</event>
<event>
 5    0  0.5648525E-005  0.2602533E+03  0.7546771E-02  0.1106991E+00
         21   -1    0    0  502  501  0.00000000000E+00  0.00000000000E+00  0.29878165499E+03  0.29878165499E+03  0.00000000000E+00 0. -1.
         21   -1    0    0  501  502 -0.00000000000E+00 -0.00000000000E+00 -0.22669329218E+03  0.22669329218E+03  0.00000000000E+00 0. -1.
         25    1    1    2    0    0  0.13708101579E+01 -0.19202320257E+02 -0.93770634319E+02  0.15744376801E+03  0.12500000000E+03 0.  0.
         25    1    1    2    0    0 -0.77428708541E+02  0.60324381072E+02  0.14402416916E+03  0.21448122799E+03  0.12500000000E+03 0.  0.
         25    1    1    2    0    0  0.76057898383E+02 -0.41122060816E+02  0.21834827970E+02  0.15354995117E+03  0.12500000000E+03 0.  0.
</event>
<event>
 5    0  0.5648525E-005  0.2922423E+03  0.7546771E-02  0.1089184E+00
         21   -1    0    0  502  501  0.00000000000E+00  0.00000000000E+00  0.15415714569E+04  0.15415714569E+04  0.00000000000E+00 0. -1.
         21   -1    0    0  501  502 -0.00000000000E+00 -0.00000000000E+00 -0.55401629085E+02  0.55401629085E+02  0.00000000000E+00 0. -1.
         25    1    1    2    0    0  0.26180789304E+01  0.12238435181E+03  0.72460797251E+03  0.74543041105E+03  0.12500000000E+03 0.  0.
         25    1    1    2    0    0  0.94193373197E+02 -0.12943370648E+03  0.55721866168E+03  0.59307934786E+03  0.12500000000E+03 0.  0.
         25    1    1    2    0    0 -0.96811452127E+02  0.70493546708E+01  0.20434319366E+03  0.25846332711E+03  0.12500000000E+03 0.  0.
</event>
<event>
 5    0  0.5648525E-005  0.3516093E+03  0.7546771E-02  0.1061956E+00
         21   -1    0    0  502  501  0.00000000000E+00  0.00000000000E+00  0.78655348003E+03  0.78655348003E+03  0.00000000000E+00 0. -1.
         21   -1    0    0  501  502 -0.00000000000E+00 -0.00000000000E+00 -0.15717825298E+03  0.15717825298E+03  0.00000000000E+00 0. -1.
         25    1    1    2    0    0  0.85943502902E+02  0.11112303094E+02  0.52374988254E+03  0.54538858480E+03  0.12500000000E+03 0.  0.
         25    1    1    2    0    0  0.54239077055E+02 -0.44836850139E+02  0.14448825303E+03  0.20360274034E+03  0.12500000000E+03 0.  0.
         25    1    1    2    0    0 -0.14018257996E+03  0.33724547045E+02 -0.38862908518E+02  0.19474040786E+03  0.12500000000E+03 0.  0.
</event>
<event>
 5    0  0.5648525E-005  0.4188061E+03  0.7546771E-02  0.1037456E+00
         21   -1    0    0  502  501  0.00000000000E+00  0.00000000000E+00  0.33660712182E+03  0.33660712182E+03  0.00000000000E+00 0.  1.
         21   -1    0    0  501  502 -0.00000000000E+00 -0.00000000000E+00 -0.52107804271E+03  0.52107804271E+03  0.00000000000E+00 0. -1.
         25    1    1    2    0    0 -0.44879355822E+02 -0.10754523432E+03 -0.17362592859E+03  0.24362080593E+03  0.12500000000E+03 0.  0.
         25    1    1    2    0    0  0.17236570273E+03  0.27635572355E+03 -0.81768803703E+02  0.35832046924E+03  0.12500000000E+03 0.  0.
         25    1    1    2    0    0 -0.12748634691E+03 -0.16881048923E+03  0.70923811403E+02  0.25574388936E+03  0.12500000000E+03 0.  0.
</event>
<event>
 5    0  0.5648525E-005  0.2711414E+03  0.7546771E-02  0.1100628E+00
         21   -1    0    0  502  501  0.00000000000E+00  0.00000000000E+00  0.23413303822E+03  0.23413303822E+03  0.00000000000E+00 0.  1.
         21   -1    0    0  501  502 -0.00000000000E+00 -0.00000000000E+00 -0.31399961341E+03  0.31399961341E+03  0.00000000000E+00 0.  1.
         25    1    1    2    0    0 -0.34324180635E+02  0.40363796732E+02 -0.17431308689E+01  0.13577711136E+03  0.12500000000E+03 0.  0.
         25    1    1    2    0    0 -0.73396715529E+02  0.60022634707E+02 -0.13924074461E+03  0.20976839487E+03  0.12500000000E+03 0.  0.
         25    1    1    2    0    0  0.10772089616E+03 -0.10038643144E+03  0.61117300286E+02  0.20258714540E+03  0.12500000000E+03 0.  0.
</event>
<event>
 5    0  0.5648525E-005  0.2755862E+03  0.7546771E-02  0.1098124E+00
         21   -1    0    0  502  501  0.00000000000E+00  0.00000000000E+00  0.34983050554E+03  0.34983050554E+03  0.00000000000E+00 0. -1.
         21   -1    0    0  501  502 -0.00000000000E+00 -0.00000000000E+00 -0.21709865796E+03  0.21709865796E+03  0.00000000000E+00 0. -1.
         25    1    1    2    0    0  0.10982402776E+03 -0.12750342133E+03  0.26875743155E+02  0.21134271952E+03  0.12500000000E+03 0.  0.
         25    1    1    2    0    0 -0.65603621045E+02  0.23347026188E+01  0.10025182833E+03  0.17316095118E+03  0.12500000000E+03 0.  0.
         25    1    1    2    0    0 -0.44220406711E+02  0.12516871871E+03  0.56042760950E+01  0.18242549280E+03  0.12500000000E+03 0.  0.
</event>
<event>
 5    0  0.5648525E-005  0.2227120E+03  0.7546771E-02  0.1131877E+00
         21   -1    0    0  502  501  0.00000000000E+00  0.00000000000E+00  0.25967719689E+03  0.25967719689E+03  0.00000000000E+00 0.  1.
         21   -1    0    0  501  502 -0.00000000000E+00 -0.00000000000E+00 -0.19100875637E+03  0.19100875637E+03  0.00000000000E+00 0.  1.
         25    1    1    2    0    0 -0.60604519844E+01  0.21024965434E+02  0.89887519186E+01  0.12721861464E+03  0.12500000000E+03 0.  0.
         25    1    1    2    0    0  0.91980543286E+02  0.26333608685E+02  0.45898110092E+02  0.16396803286E+03  0.12500000000E+03 0.  0.
         25    1    1    2    0    0 -0.85920091302E+02 -0.47358574119E+02  0.13781578502E+02  0.15949930576E+03  0.12500000000E+03 0.  0.
</event>
<event>
 5    0  0.5648525E-005  0.4985858E+03  0.7546771E-02  0.1014149E+00
         21   -1    0    0  502  501  0.00000000000E+00  0.00000000000E+00  0.48718590749E+03  0.48718590749E+03  0.00000000000E+00 0.  1.
         21   -1    0    0  501  502 -0.00000000000E+00 -0.00000000000E+00 -0.51025243676E+03  0.51025243676E+03  0.00000000000E+00 0.  1.
         25    1    1    2    0    0 -0.63851429062E+02  0.12865745404E+03 -0.15175179151E+03  0.24348172765E+03  0.12500000000E+03 0.  0.
         25    1    1    2    0    0  0.16118201939E+03 -0.31054238722E+03  0.28349535060E+03  0.46734444625E+03  0.12500000000E+03 0.  0.
         25    1    1    2    0    0 -0.97330590332E+02  0.18188493318E+03 -0.15481008836E+03  0.28661217035E+03  0.12500000000E+03 0.  0.
</event>
<event>
 5    0  0.5648525E-005  0.4621821E+03  0.7546771E-02  0.1024150E+00
         21   -1    0    0  502  501  0.00000000000E+00  0.00000000000E+00  0.63447041623E+03  0.63447041623E+03  0.00000000000E+00 0. -1.
         21   -1    0    0  501  502 -0.00000000000E+00 -0.00000000000E+00 -0.33667805449E+03  0.33667805449E+03  0.00000000000E+00 0. -1.
         25    1    1    2    0    0 -0.57605390876E+02 -0.23122986310E+03  0.31523931441E+03  0.41447129695E+03  0.12500000000E+03 0.  0.
         25    1    1    2    0    0 -0.71737065216E+02  0.32107320270E+03 -0.40665865054E+02  0.35427802726E+03  0.12500000000E+03 0.  0.
         25    1    1    2    0    0  0.12934245609E+03 -0.89843339599E+02  0.23218912381E+02  0.20239914652E+03  0.12500000000E+03 0.  0.
</event>
<event>
 5    0  0.5648525E-005  0.3641733E+03  0.7546771E-02  0.1056944E+00
         21   -1    0    0  502  501  0.00000000000E+00  0.00000000000E+00  0.18094950779E+03  0.18094950779E+03  0.00000000000E+00 0.  1.
         21   -1    0    0  501  502 -0.00000000000E+00 -0.00000000000E+00 -0.73292382603E+03  0.73292382603E+03  0.00000000000E+00 0.  1.
         25    1    1    2    0    0 -0.27984755218E+02 -0.10192699217E+03 -0.17739648589E+03  0.24138511028E+03  0.12500000000E+03 0.  0.
         25    1    1    2    0    0 -0.15408376724E+03 -0.73658681440E+02 -0.32224866665E+03  0.38553419023E+03  0.12500000000E+03 0.  0.
         25    1    1    2    0    0  0.18206852246E+03  0.17558567361E+03 -0.52329165702E+02  0.28695403331E+03  0.12500000000E+03 0.  0.
</event>
<event>
 5    0  0.5648525E-005  0.2964928E+03  0.7546771E-02  0.1087007E+00
         21   -1    0    0  502  501  0.00000000000E+00  0.00000000000E+00  0.47771160944E+03  0.47771160944E+03  0.00000000000E+00 0.  1.
         21   -1    0    0  501  502 -0.00000000000E+00 -0.00000000000E+00 -0.18401897864E+03  0.18401897864E+03  0.00000000000E+00 0.  1.
         25    1    1    2    0    0  0.10766713654E+03 -0.16928863311E+03  0.18271716841E+03  0.29876649280E+03  0.12500000000E+03 0.  0.
         25    1    1    2    0    0 -0.62116507908E+02  0.39357156866E+02  0.10100844456E+03  0.17673469445E+03  0.12500000000E+03 0.  0.
         25    1    1    2    0    0 -0.45550628630E+02  0.12993147624E+03  0.99670178330E+01  0.18622940082E+03  0.12500000000E+03 0.  0.
</event>
<event>
 5    0  0.5648525E-005  0.2540724E+03  0.7546771E-02  0.1110758E+00
         21   -1    0    0  502  501  0.00000000000E+00  0.00000000000E+00  0.14720015896E+04  0.14720015896E+04  0.00000000000E+00 0. -1.
         21   -1    0    0  501  502 -0.00000000000E+00 -0.00000000000E+00 -0.43853736223E+02  0.43853736223E+02  0.00000000000E+00 0. -1.
         25    1    1    2    0    0  0.35728662951E+02 -0.12930391404E+03  0.38572266966E+03  0.42708666267E+03  0.12500000000E+03 0.  0.
         25    1    1    2    0    0 -0.65485229073E+02  0.10530616059E+03  0.47781242602E+03  0.50922236513E+03  0.12500000000E+03 0.  0.
         25    1    1    2    0    0  0.29756566123E+02  0.23997753448E+02  0.56461275765E+03  0.57954629798E+03  0.12500000000E+03 0.  0.
</event>
<event>
 5    0  0.5648525E-005  0.3141562E+03  0.7546771E-02  0.1078371E+00
         21   -1    0    0  502  501  0.00000000000E+00  0.00000000000E+00  0.16075278702E+04  0.16075278702E+04  0.00000000000E+00 0.  1.
         21   -1    0    0  501  502 -0.00000000000E+00 -0.00000000000E+00 -0.61394947624E+02  0.61394947624E+02  0.00000000000E+00 0.  1.
         25    1    1    2    0    0 -0.60190301258E+02 -0.89633651378E+02  0.20167557787E+03  0.26068199503E+03  0.12500000000E+03 0.  0.
         25    1    1    2    0    0  0.17138562554E+03 -0.93597115432E+01  0.86929768956E+03  0.89485423948E+03  0.12500000000E+03 0.  0.
         25    1    1    2    0    0 -0.11119532428E+03  0.98993362921E+02  0.47515965513E+03  0.51338658330E+03  0.12500000000E+03 0.  0.
</event>
<event>
 5    0  0.5648525E-005  0.2979510E+03  0.7546771E-02  0.1086269E+00
         21   -1    0    0  502  501  0.00000000000E+00  0.00000000000E+00  0.43216056408E+03  0.43216056408E+03  0.00000000000E+00 0.  1.
         21   -1    0    0  501  502 -0.00000000000E+00 -0.00000000000E+00 -0.20542088016E+03  0.20542088016E+03  0.00000000000E+00 0.  1.
         25    1    1    2    0    0  0.14425425653E+01 -0.12859794063E+03  0.11415887536E+02  0.17970763409E+03  0.12500000000E+03 0.  0.
         25    1    1    2    0    0 -0.19693209211E+02  0.16010043488E+03 -0.25235229611E+01  0.20408659903E+03  0.12500000000E+03 0.  0.
         25    1    1    2    0    0  0.18250666645E+02 -0.31502494254E+02  0.21784731935E+03  0.25378721111E+03  0.12500000000E+03 0.  0.
</event>
<event>
 5    0  0.5648525E-005  0.2654815E+03  0.7546771E-02  0.1103894E+00
         21   -1    0    0  502  501  0.00000000000E+00  0.00000000000E+00  0.22773452413E+03  0.22773452413E+03  0.00000000000E+00 0.  1.
         21   -1    0    0  501  502 -0.00000000000E+00 -0.00000000000E+00 -0.30948493082E+03  0.30948493082E+03  0.00000000000E+00 0.  1.
         25    1    1    2    0    0 -0.49859018239E+02  0.10722351518E+03  0.76769350676E+01  0.17224035311E+03  0.12500000000E+03 0.  0.
         25    1    1    2    0    0  0.12713013570E+03 -0.81093200496E+02 -0.10526327838E+02  0.19614785787E+03  0.12500000000E+03 0.  0.
         25    1    1    2    0    0 -0.77271117464E+02 -0.26130314683E+02 -0.78901013920E+02  0.16883124396E+03  0.12500000000E+03 0.  0.
</event>
<event>
 5    0  0.5648525E-005  0.3494079E+03  0.7546771E-02  0.1062858E+00
         21   -1    0    0  502  501  0.00000000000E+00  0.00000000000E+00  0.53562900091E+03  0.53562900091E+03  0.00000000000E+00 0.  1.
         21   -1    0    0  501  502 -0.00000000000E+00 -0.00000000000E+00 -0.22792991977E+03  0.22792991977E+03  0.00000000000E+00 0.  1.
         25    1    1    2    0    0  0.14050512508E+02  0.15060558342E+03  0.20302767247E+03  0.28235561700E+03  0.12500000000E+03 0.  0.
         25    1    1    2    0    0  0.49967381872E+02  0.66477479586E+02  0.15719307123E+03  0.21737216056E+03  0.12500000000E+03 0.  0.
         25    1    1    2    0    0 -0.64017894380E+02 -0.21708306301E+03 -0.52521662561E+02  0.26383114313E+03  0.12500000000E+03 0.  0.
</event>
<event>
 5    0  0.5648525E-005  0.2449952E+03  0.7546771E-02  0.1116509E+00
         21   -1    0    0  502  501  0.00000000000E+00  0.00000000000E+00  0.74730230219E+03  0.74730230219E+03  0.00000000000E+00 0.  1.
         21   -1    0    0  501  502 -0.00000000000E+00 -0.00000000000E+00 -0.80319086994E+02  0.80319086994E+02  0.00000000000E+00 0.  1.
         25    1    1    2    0    0  0.13059259024E+02  0.31852689512E+02  0.15215549560E+03  0.19990355904E+03  0.12500000000E+03 0.  0.
         25    1    1    2    0    0  0.47523184737E+02  0.96596241285E+02  0.29225386084E+03  0.33559887677E+03  0.12500000000E+03 0.  0.
         25    1    1    2    0    0 -0.60582443761E+02 -0.12844893080E+03  0.22257385876E+03  0.29211895337E+03  0.12500000000E+03 0.  0.
</event>
<event>
 5    0  0.5648525E-005  0.2715529E+03  0.7546771E-02  0.1100394E+00
         21   -1    0    0  502  501  0.00000000000E+00  0.00000000000E+00  0.52816955988E+03  0.52816955988E+03  0.00000000000E+00 0.  1.
         21   -1    0    0  501  502 -0.00000000000E+00 -0.00000000000E+00 -0.13961609174E+03  0.13961609174E+03  0.00000000000E+00 0.  1.
         25    1    1    2    0    0  0.11456817157E+03 -0.18544586041E+01  0.74927398534E+01  0.16973640182E+03  0.12500000000E+03 0.  0.
         25    1    1    2    0    0 -0.97490750050E+02 -0.72165420091E+02  0.19735215312E+03  0.26322075629E+03  0.12500000000E+03 0.  0.
         25    1    1    2    0    0 -0.17077421521E+02  0.74019878695E+02  0.18370857517E+03  0.23482849350E+03  0.12500000000E+03 0.  0.
</event>
<event>
 5    0  0.5648525E-005  0.2219746E+03  0.7546771E-02  0.1132419E+00
         21   -1    0    0  502  501  0.00000000000E+00  0.00000000000E+00  0.15086885447E+03  0.15086885447E+03  0.00000000000E+00 0. -1.
         21   -1    0    0  501  502 -0.00000000000E+00 -0.00000000000E+00 -0.32659308172E+03  0.32659308172E+03  0.00000000000E+00 0. -1.
         25    1    1    2    0    0 -0.46111212782E+02 -0.76649943860E+02 -0.13339962708E+03  0.20352375376E+03  0.12500000000E+03 0.  0.
         25    1    1    2    0    0  0.14158474104E+02  0.21301195821E+02 -0.10066592970E+01  0.12759395242E+03  0.12500000000E+03 0.  0.
         25    1    1    2    0    0  0.31952738678E+02  0.55348748039E+02 -0.41317940880E+02  0.14634423001E+03  0.12500000000E+03 0.  0.
</event>
<event>
 5    0  0.5648525E-005  0.3080531E+03  0.7546771E-02  0.1081283E+00
         21   -1    0    0  502  501  0.00000000000E+00  0.00000000000E+00  0.23329821497E+03  0.23329821497E+03  0.00000000000E+00 0.  1.
         21   -1    0    0  501  502 -0.00000000000E+00 -0.00000000000E+00 -0.40676154056E+03  0.40676154056E+03  0.00000000000E+00 0.  1.
         25    1    1    2    0    0 -0.10721465198E+02 -0.23160545612E+02  0.54941320133E+01  0.12769708758E+03  0.12500000000E+03 0.  0.
         25    1    1    2    0    0  0.16872870825E+03  0.43190720356E+02 -0.21845959099E+03  0.30607908815E+03  0.12500000000E+03 0.  0.
         25    1    1    2    0    0 -0.15800724305E+03 -0.20030174744E+02  0.39502133382E+02  0.20628357981E+03  0.12500000000E+03 0.  0.
</event>
<event>
 5    0  0.5648525E-005  0.6134406E+03  0.7546771E-02  0.9877907E-01
         21   -1    0    0  502  501  0.00000000000E+00  0.00000000000E+00  0.83504385405E+03  0.83504385405E+03  0.00000000000E+00 0.  1.
         21   -1    0    0  501  502 -0.00000000000E+00 -0.00000000000E+00 -0.45064626733E+03  0.45064626733E+03  0.00000000000E+00 0. -1.
         25    1    1    2    0    0 -0.14300891778E+02  0.71364229216E+01  0.13461404683E+03  0.18439464645E+03  0.12500000000E+03 0.  0.
         25    1    1    2    0    0 -0.17385126307E+03 -0.44795821475E+03  0.33464378476E+03  0.59875060460E+03  0.12500000000E+03 0.  0.
         25    1    1    2    0    0  0.18815215485E+03  0.44082179183E+03 -0.84860244863E+02  0.50254487032E+03  0.12500000000E+03 0.  0.
</event>
<event>
 5    0  0.5648525E-005  0.2461858E+03  0.7546771E-02  0.1115739E+00
         21   -1    0    0  502  501  0.00000000000E+00  0.00000000000E+00  0.56281928205E+03  0.56281928205E+03  0.00000000000E+00 0. -1.
         21   -1    0    0  501  502 -0.00000000000E+00 -0.00000000000E+00 -0.10768547104E+03  0.10768547104E+03  0.00000000000E+00 0. -1.
         25    1    1    2    0    0 -0.15143889189E+02 -0.55362972048E+02  0.43051277228E+02  0.14412775071E+03  0.12500000000E+03 0.  0.
         25    1    1    2    0    0  0.43349021092E+02 -0.15293254002E+02  0.33603265316E+03  0.36146364304E+03  0.12500000000E+03 0.  0.
         25    1    1    2    0    0 -0.28205131903E+02  0.70656226050E+02  0.76049880625E+02  0.16491335934E+03  0.12500000000E+03 0.  0.
</event>
<event>
 5    0  0.5648525E-005  0.3047777E+03  0.7546771E-02  0.1082876E+00
         21   -1    0    0  502  501  0.00000000000E+00  0.00000000000E+00  0.21116219904E+03  0.21116219904E+03  0.00000000000E+00 0. -1.
         21   -1    0    0  501  502 -0.00000000000E+00 -0.00000000000E+00 -0.43989628316E+03  0.43989628316E+03  0.00000000000E+00 0. -1.
         25    1    1    2    0    0 -0.10638231377E+03  0.14992231433E+03 -0.12432530622E+03  0.25470704502E+03  0.12500000000E+03 0.  0.
         25    1    1    2    0    0  0.78870854672E+02 -0.16123837114E+03 -0.14402662833E+03  0.26189137770E+03  0.12500000000E+03 0.  0.
         25    1    1    2    0    0  0.27511459096E+02  0.11316056809E+02  0.39617850433E+02  0.13446005948E+03  0.12500000000E+03 0.  0.
</event>
<event>
 5    0  0.5648525E-005  0.5432855E+03  0.7546771E-02  0.1003060E+00
         21   -1    0    0  502  501  0.00000000000E+00  0.00000000000E+00  0.11928604935E+04  0.11928604935E+04  0.00000000000E+00 0.  1.
         21   -1    0    0  501  502 -0.00000000000E+00 -0.00000000000E+00 -0.24743809278E+03  0.24743809278E+03  0.00000000000E+00 0.  1.
         25    1    1    2    0    0  0.13098788588E+03  0.16726531163E+03  0.53071954232E+03  0.58516984143E+03  0.12500000000E+03 0.  0.
         25    1    1    2    0    0 -0.18166684873E+03 -0.33670358879E+03  0.17677394683E+02  0.40287670684E+03  0.12500000000E+03 0.  0.
         25    1    1    2    0    0  0.50678962852E+02  0.16943827717E+03  0.39702546371E+03  0.45225203800E+03  0.12500000000E+03 0.  0.
</event>
<event>
 5    0  0.5648525E-005  0.2401169E+03  0.7546771E-02  0.1119715E+00
         21   -1    0    0  502  501  0.00000000000E+00  0.00000000000E+00  0.11363985323E+04  0.11363985323E+04  0.00000000000E+00 0. -1.
         21   -1    0    0  501  502 -0.00000000000E+00 -0.00000000000E+00 -0.50735820772E+02  0.50735820772E+02  0.00000000000E+00 0. -1.
         25    1    1    2    0    0  0.36513023758E+02  0.11498335827E+03  0.57185913333E+03  0.59766398750E+03  0.12500000000E+03 0.  0.
         25    1    1    2    0    0 -0.21921084250E+02 -0.38284056286E+02  0.17125749667E+03  0.21656484726E+03  0.12500000000E+03 0.  0.
         25    1    1    2    0    0 -0.14591939508E+02 -0.76699301983E+02  0.34254608156E+03  0.37290551835E+03  0.12500000000E+03 0.  0.
</event>
<event>
 5    0  0.5648525E-005  0.2285015E+03  0.7546771E-02  0.1127699E+00
         21   -1    0    0  502  501  0.00000000000E+00  0.00000000000E+00  0.11597994739E+04  0.11597994739E+04  0.00000000000E+00 0.  1.
         21   -1    0    0  501  502 -0.00000000000E+00 -0.00000000000E+00 -0.45018934046E+02  0.45018934046E+02  0.00000000000E+00 0.  1.
         25    1    1    2    0    0 -0.41932655764E+02  0.57443093181E+02  0.41669488416E+03  0.44081479451E+03  0.12500000000E+03 0.  0.
         25    1    1    2    0    0 -0.64062130033E+02 -0.16488229767E+02  0.32749809390E+03  0.35672933680E+03  0.12500000000E+03 0.  0.
         25    1    1    2    0    0  0.10599478580E+03 -0.40954863414E+02  0.37058756178E+03  0.40727427662E+03  0.12500000000E+03 0.  0.
</event>
<event>
 5    0  0.5648525E-005  0.3574514E+03  0.7546771E-02  0.1059598E+00
         21   -1    0    0  502  501  0.00000000000E+00  0.00000000000E+00  0.10213169368E+04  0.10213169368E+04  0.00000000000E+00 0.  1.
         21   -1    0    0  501  502 -0.00000000000E+00 -0.00000000000E+00 -0.12510463499E+03  0.12510463499E+03  0.00000000000E+00 0.  1.
         25    1    1    2    0    0 -0.14196397870E+03 -0.39838188819E+02  0.67526907027E+03  0.70239174953E+03  0.12500000000E+03 0.  0.
         25    1    1    2    0    0 -0.42638961583E+02 -0.22286346994E+02  0.15189326202E+03  0.20251253135E+03  0.12500000000E+03 0.  0.
         25    1    1    2    0    0  0.18460294028E+03  0.62124535813E+02  0.69049969493E+02  0.24151729089E+03  0.12500000000E+03 0.  0.
</event>
<event>
 5    0  0.5648525E-005  0.3916289E+03  0.7546771E-02  0.1046717E+00
         21   -1    0    0  502  501  0.00000000000E+00  0.00000000000E+00  0.34356355415E+03  0.34356355415E+03  0.00000000000E+00 0.  1.
         21   -1    0    0  501  502 -0.00000000000E+00 -0.00000000000E+00 -0.44641862523E+03  0.44641862523E+03  0.00000000000E+00 0.  1.
         25    1    1    2    0    0 -0.28044039340E+03  0.66142374796E+02  0.47834165033E+00  0.31408097173E+03  0.12500000000E+03 0.  0.
         25    1    1    2    0    0  0.29092817612E+03  0.63631529657E+01 -0.45772885713E+02  0.31999976631E+03  0.12500000000E+03 0.  0.
         25    1    1    2    0    0 -0.10487782719E+02 -0.72505527762E+02 -0.57560527014E+02  0.15590144134E+03  0.12500000000E+03 0.  0.
</event>
<event>
 5    0  0.5648525E-005  0.3379620E+03  0.7546771E-02  0.1067667E+00
         21   -1    0    0  502  501  0.00000000000E+00  0.00000000000E+00  0.11483791970E+03  0.11483791970E+03  0.00000000000E+00 0. -1.
         21   -1    0    0  501  502 -0.00000000000E+00 -0.00000000000E+00 -0.99460467562E+03  0.99460467562E+03  0.00000000000E+00 0. -1.
         25    1    1    2    0    0 -0.95670443198E+02 -0.24415112232E+03 -0.37364361467E+03  0.47328337708E+03  0.12500000000E+03 0.  0.
         25    1    1    2    0    0  0.52210799893E+02  0.12026922883E+03 -0.36117860729E+03  0.40406143270E+03  0.12500000000E+03 0.  0.
         25    1    1    2    0    0  0.43459643305E+02  0.12388189349E+03 -0.14494453396E+03  0.23209778555E+03  0.12500000000E+03 0.  0.
</event>
<event>
 5    0  0.5648525E-005  0.2645854E+03  0.7546771E-02  0.1104419E+00
         21   -1    0    0  502  501  0.00000000000E+00  0.00000000000E+00  0.95215717142E+02  0.95215717142E+02  0.00000000000E+00 0. -1.
         21   -1    0    0  501  502 -0.00000000000E+00 -0.00000000000E+00 -0.73522976023E+03  0.73522976023E+03  0.00000000000E+00 0. -1.
         25    1    1    2    0    0 -0.59332284479E+02 -0.41879411794E+02 -0.25001870012E+03  0.28880539386E+03  0.12500000000E+03 0.  0.
         25    1    1    2    0    0 -0.70341384920E+01  0.18717595957E+02 -0.50797258519E+00  0.12659022687E+03  0.12500000000E+03 0.  0.
         25    1    1    2    0    0  0.66366422971E+02  0.23161815837E+02 -0.38948737038E+03  0.41504985664E+03  0.12500000000E+03 0.  0.
</event>
<event>
 5    0  0.5648525E-005  0.2541988E+03  0.7546771E-02  0.1110680E+00
         21   -1    0    0  502  501  0.00000000000E+00  0.00000000000E+00  0.71577180927E+02  0.71577180927E+02  0.00000000000E+00 0. -1.
         21   -1    0    0  501  502 -0.00000000000E+00 -0.00000000000E+00 -0.90275987355E+03  0.90275987355E+03  0.00000000000E+00 0. -1.
         25    1    1    2    0    0  0.55220802689E+02 -0.47743399324E+02 -0.13660784284E+03  0.19903635837E+03  0.12500000000E+03 0.  0.
         25    1    1    2    0    0 -0.41185154037E+02  0.10422638394E+03 -0.19629403943E+03  0.25829383643E+03  0.12500000000E+03 0.  0.
         25    1    1    2    0    0 -0.14035648652E+02 -0.56482984615E+02 -0.49828081035E+03  0.51700685968E+03  0.12500000000E+03 0.  0.
</event>
<event>
 5    0  0.5648525E-005  0.2950964E+03  0.7546771E-02  0.1087718E+00
         21   -1    0    0  502  501  0.00000000000E+00  0.00000000000E+00  0.16451240633E+03  0.16451240633E+03  0.00000000000E+00 0.  1.
         21   -1    0    0  501  502 -0.00000000000E+00 -0.00000000000E+00 -0.52933316584E+03  0.52933316584E+03  0.00000000000E+00 0.  1.
         25    1    1    2    0    0  0.12202436249E+03 -0.42044108077E+02  0.34334659042E+02  0.18292490502E+03  0.12500000000E+03 0.  0.
         25    1    1    2    0    0  0.19747516993E+02  0.14620793468E+02 -0.17451726655E+03  0.21606713853E+03  0.12500000000E+03 0.  0.
         25    1    1    2    0    0 -0.14177187949E+03  0.27423314609E+02 -0.22463815201E+03  0.29485352861E+03  0.12500000000E+03 0.  0.
</event>
<event>
 5    0  0.5648525E-005  0.4072945E+03  0.7546771E-02  0.1041283E+00
         21   -1    0    0  502  501  0.00000000000E+00  0.00000000000E+00  0.25284837613E+03  0.25284837613E+03  0.00000000000E+00 0.  1.
         21   -1    0    0  501  502 -0.00000000000E+00 -0.00000000000E+00 -0.65608021474E+03  0.65608021474E+03  0.00000000000E+00 0.  1.
         25    1    1    2    0    0  0.30364949825E+02 -0.77295553408E+02  0.42207756057E+02  0.15589460358E+03  0.12500000000E+03 0.  0.
         25    1    1    2    0    0  0.10180753245E+03  0.26158527154E+03 -0.37472475010E+03  0.48459804610E+03  0.12500000000E+03 0.  0.
         25    1    1    2    0    0 -0.13217248227E+03 -0.18428971813E+03 -0.70714844564E+02  0.26843594119E+03  0.12500000000E+03 0.  0.
</event>
<event>
 5    0  0.5648525E-005  0.3816416E+03  0.7546771E-02  0.1050329E+00
         21   -1    0    0  502  501  0.00000000000E+00  0.00000000000E+00  0.29314334354E+03  0.29314334354E+03  0.00000000000E+00 0.  1.
         21   -1    0    0  501  502 -0.00000000000E+00 -0.00000000000E+00 -0.49685707069E+03  0.49685707069E+03  0.00000000000E+00 0.  1.
         25    1    1    2    0    0  0.16632309827E+03 -0.12727981932E+03 -0.88037488974E+02  0.25930508072E+03  0.12500000000E+03 0.  0.
         25    1    1    2    0    0 -0.10482104194E+03  0.11384193809E+03  0.13721303768E+03  0.24166062031E+03  0.12500000000E+03 0.  0.
         25    1    1    2    0    0 -0.61502056333E+02  0.13437881230E+02 -0.25288927585E+03  0.28903471319E+03  0.12500000000E+03 0.  0.
</event>
<event>
 5    0  0.5648525E-005  0.6792186E+03  0.7546771E-02  0.9753446E-01
         21   -1    0    0  502  501  0.00000000000E+00  0.00000000000E+00  0.19164259644E+03  0.19164259644E+03  0.00000000000E+00 0. -1.
         21   -1    0    0  501  502 -0.00000000000E+00 -0.00000000000E+00 -0.24072826924E+04  0.24072826924E+04  0.00000000000E+00 0. -1.
         25    1    1    2    0    0 -0.10588711425E+03  0.12497096410E+03 -0.11726788291E+04  0.11906428764E+04  0.12500000000E+03 0.  0.
         25    1    1    2    0    0  0.27894873661E+03 -0.42125656228E+03 -0.84622534412E+03  0.99347462069E+03  0.12500000000E+03 0.  0.
         25    1    1    2    0    0 -0.17306162236E+03  0.29628559818E+03 -0.19673592275E+03  0.41480779178E+03  0.12500000000E+03 0.  0.
</event>
<event>
 5    0  0.5648525E-005  0.2399365E+03  0.7546771E-02  0.1119835E+00
         21   -1    0    0  502  501  0.00000000000E+00  0.00000000000E+00  0.12087925053E+03  0.12087925053E+03  0.00000000000E+00 0.  1.
         21   -1    0    0  501  502 -0.00000000000E+00 -0.00000000000E+00 -0.47625641319E+03  0.47625641319E+03  0.00000000000E+00 0.  1.
         25    1    1    2    0    0  0.89418284275E+02  0.43220983673E+01 -0.15374794088E+03  0.21743444856E+03  0.12500000000E+03 0.  0.
         25    1    1    2    0    0  0.19296071658E+02  0.28935784982E+02 -0.15941114926E+03  0.20553961308E+03  0.12500000000E+03 0.  0.
         25    1    1    2    0    0 -0.10871435593E+03 -0.33257883349E+02 -0.42218072520E+02  0.17416160208E+03  0.12500000000E+03 0.  0.
</event>
<event>
 5    0  0.5648525E-005  0.2783985E+03  0.7546771E-02  0.1096567E+00
         21   -1    0    0  502  501  0.00000000000E+00  0.00000000000E+00  0.89833755331E+02  0.89833755331E+02  0.00000000000E+00 0.  1.
         21   -1    0    0  501  502 -0.00000000000E+00 -0.00000000000E+00 -0.86276828647E+03  0.86276828647E+03  0.00000000000E+00 0.  1.
         25    1    1    2    0    0  0.11437903936E+03 -0.12366115128E+03 -0.23241335067E+03  0.31307444889E+03  0.12500000000E+03 0.  0.
         25    1    1    2    0    0 -0.90484430046E+02  0.13108569731E+03 -0.40894597560E+03  0.45632521636E+03  0.12500000000E+03 0.  0.
         25    1    1    2    0    0 -0.23894609316E+02 -0.74245460310E+01 -0.13157520487E+03  0.18320237656E+03  0.12500000000E+03 0.  0.
</event>
<event>
 5    0  0.5648525E-005  0.2880426E+03  0.7546771E-02  0.1091376E+00
         21   -1    0    0  502  501  0.00000000000E+00  0.00000000000E+00  0.72439359325E+02  0.72439359325E+02  0.00000000000E+00 0.  1.
         21   -1    0    0  501  502 -0.00000000000E+00 -0.00000000000E+00 -0.11453519144E+04  0.11453519144E+04  0.00000000000E+00 0.  1.
         25    1    1    2    0    0 -0.64439878797E+01  0.14287742468E+03 -0.49560804836E+03  0.53076154821E+03  0.12500000000E+03 0.  0.
         25    1    1    2    0    0  0.68832349700E+02 -0.48559264486E+02 -0.10013825794E+03  0.18096564656E+03  0.12500000000E+03 0.  0.
         25    1    1    2    0    0 -0.62388361820E+02 -0.94318160195E+02 -0.47716624879E+03  0.50606407897E+03  0.12500000000E+03 0.  0.
</event>
<event>
 5    0  0.5648525E-005  0.7022038E+03  0.7546771E-02  0.9713471E-01
         21   -1    0    0  502  501  0.00000000000E+00  0.00000000000E+00  0.11251482001E+04  0.11251482001E+04  0.00000000000E+00 0.  1.
         21   -1    0    0  501  502 -0.00000000000E+00 -0.00000000000E+00 -0.43824460535E+03  0.43824460535E+03  0.00000000000E+00 0.  1.
         25    1    1    2    0    0 -0.26852171092E+03 -0.36036178769E+03  0.76031032098E+03  0.89199849296E+03  0.12500000000E+03 0.  0.
         25    1    1    2    0    0  0.32305789163E+03  0.85840060280E+02 -0.75880770601E+02  0.36485313297E+03  0.12500000000E+03 0.  0.
         25    1    1    2    0    0 -0.54536180707E+02  0.27452172741E+03  0.24740443536E+01  0.30654117949E+03  0.12500000000E+03 0.  0.
</event>
<event>
 5    0  0.5804452E-005  0.3730429E+03  0.7546771E-02  0.1053536E+00
         21   -1    0    0  502  501  0.00000000000E+00  0.00000000000E+00  0.26797440484E+03  0.26797440484E+03  0.00000000000E+00 0. -1.
         21   -1    0    0  501  502 -0.00000000000E+00 -0.00000000000E+00 -0.51930713265E+03  0.51930713265E+03  0.00000000000E+00 0. -1.
         25    1    1    2    0    0  0.72924048747E+02  0.19961824379E+02 -0.30873644441E+03  0.34155465657E+03  0.12500000000E+03 0.  0.
         25    1    1    2    0    0 -0.21243966445E+03 -0.32242955378E+02 -0.27456103801E+01  0.24860160414E+03  0.12500000000E+03 0.  0.
         25    1    1    2    0    0  0.13951561571E+03  0.12281130999E+02  0.60149326986E+02  0.19712527677E+03  0.12500000000E+03 0.  0.
</event>
<event>
 5    0  0.5648525E-005  0.3206484E+03  0.7546771E-02  0.1075351E+00
         21   -1    0    0  502  501  0.00000000000E+00  0.00000000000E+00  0.40990051461E+03  0.40990051461E+03  0.00000000000E+00 0. -1.
         21   -1    0    0  501  502 -0.00000000000E+00 -0.00000000000E+00 -0.25083014329E+03  0.25083014329E+03  0.00000000000E+00 0. -1.
         25    1    1    2    0    0  0.67645132207E+02 -0.41720851397E+02  0.12999100748E+03  0.19707652163E+03  0.12500000000E+03 0.  0.
         25    1    1    2    0    0  0.19043476157E+02  0.15648888009E+03  0.13818568688E+03  0.24407316042E+03  0.12500000000E+03 0.  0.
         25    1    1    2    0    0 -0.86688608364E+02 -0.11476802870E+03 -0.10910632304E+03  0.21958097586E+03  0.12500000000E+03 0.  0.
</event>
<event>
 5    0  0.5648525E-005  0.2876546E+03  0.7546771E-02  0.1091580E+00
         21   -1    0    0  502  501  0.00000000000E+00  0.00000000000E+00  0.24535280957E+03  0.24535280957E+03  0.00000000000E+00 0.  1.
         21   -1    0    0  501  502 -0.00000000000E+00 -0.00000000000E+00 -0.33724980557E+03  0.33724980557E+03  0.00000000000E+00 0.  1.
         25    1    1    2    0    0  0.18421468833E+03  0.50797786115E+02 -0.11715861194E+03  0.25664490415E+03  0.12500000000E+03 0.  0.
         25    1    1    2    0    0 -0.11694474612E+03 -0.36985764572E+01  0.39522985749E+02  0.17571801136E+03  0.12500000000E+03 0.  0.
         25    1    1    2    0    0 -0.67269942213E+02 -0.47099209658E+02 -0.14261369806E+02  0.15023969963E+03  0.12500000000E+03 0.  0.
</event>
<event>
 5    0  0.5648525E-005  0.4224611E+03  0.7546771E-02  0.1036268E+00
         21   -1    0    0  502  501  0.00000000000E+00  0.00000000000E+00  0.81436719673E+02  0.81436719673E+02  0.00000000000E+00 0.  1.
         21   -1    0    0  501  502 -0.00000000000E+00 -0.00000000000E+00 -0.21915591839E+04  0.21915591839E+04  0.00000000000E+00 0.  1.
         25    1    1    2    0    0 -0.10122110464E+03 -0.22759572459E+03 -0.11773067805E+04  0.12098437012E+04  0.12500000000E+03 0.  0.
         25    1    1    2    0    0 -0.91876054605E+02 -0.51471488923E+01 -0.15524396888E+03  0.21952993514E+03  0.12500000000E+03 0.  0.
         25    1    1    2    0    0  0.19309715925E+03  0.23274287348E+03 -0.77757171490E+03  0.84362226730E+03  0.12500000000E+03 0.  0.
</event>
<event>
 5    0  0.5648525E-005  0.3374404E+03  0.7546771E-02  0.1067891E+00
         21   -1    0    0  502  501  0.00000000000E+00  0.00000000000E+00  0.24633228952E+03  0.24633228952E+03  0.00000000000E+00 0.  1.
         21   -1    0    0  501  502 -0.00000000000E+00 -0.00000000000E+00 -0.46224565539E+03  0.46224565539E+03  0.00000000000E+00 0.  1.
         25    1    1    2    0    0 -0.15074539121E+03 -0.16599474825E+02 -0.32589798673E+03  0.38057090442E+03  0.12500000000E+03 0.  0.
         25    1    1    2    0    0  0.60596527652E+02  0.47522868695E+02  0.82579164707E+02  0.16844785738E+03  0.12500000000E+03 0.  0.
         25    1    1    2    0    0  0.90148863558E+02 -0.30923393870E+02  0.27405456155E+02  0.15955918312E+03  0.12500000000E+03 0.  0.
</event>
<event>
 5    0  0.5648525E-005  0.2942954E+03  0.7546771E-02  0.1088128E+00
         21   -1    0    0  502  501  0.00000000000E+00  0.00000000000E+00  0.11026305977E+03  0.11026305977E+03  0.00000000000E+00 0. -1.
         21   -1    0    0  501  502 -0.00000000000E+00 -0.00000000000E+00 -0.78548310016E+03  0.78548310016E+03  0.00000000000E+00 0. -1.
         25    1    1    2    0    0 -0.13006637872E+03 -0.32284939440E+02 -0.18755298025E+03  0.26222261647E+03  0.12500000000E+03 0.  0.
         25    1    1    2    0    0  0.13129276163E+03 -0.10257350750E+03 -0.33524332561E+03  0.39467987162E+03  0.12500000000E+03 0.  0.
         25    1    1    2    0    0 -0.12263829140E+01  0.13485844694E+03 -0.15242373453E+03  0.23884367183E+03  0.12500000000E+03 0.  0.
</event>
<event>
 5    0  0.5648525E-005  0.3468168E+03  0.7546771E-02  0.1063929E+00
         21   -1    0    0  502  501  0.00000000000E+00  0.00000000000E+00  0.70843696973E+03  0.70843696973E+03  0.00000000000E+00 0.  1.
         21   -1    0    0  501  502 -0.00000000000E+00 -0.00000000000E+00 -0.16978490891E+03  0.16978490891E+03  0.00000000000E+00 0.  1.
         25    1    1    2    0    0 -0.11066648519E+03 -0.22270149835E+03  0.75364980937E+02  0.28835379079E+03  0.12500000000E+03 0.  0.
         25    1    1    2    0    0  0.23174723351E+02  0.14832186729E+03  0.25131329060E+03  0.31830773499E+03  0.12500000000E+03 0.  0.
         25    1    1    2    0    0  0.87491761835E+02  0.74379631061E+02  0.21197378928E+03  0.27156035286E+03  0.12500000000E+03 0.  0.
</event>
<event>
 5    0  0.5648525E-005  0.2641691E+03  0.7546771E-02  0.1104664E+00
         21   -1    0    0  502  501  0.00000000000E+00  0.00000000000E+00  0.61671620422E+03  0.61671620422E+03  0.00000000000E+00 0. -1.
         21   -1    0    0  501  502 -0.00000000000E+00 -0.00000000000E+00 -0.11315632320E+03  0.11315632320E+03  0.00000000000E+00 0. -1.
         25    1    1    2    0    0 -0.23408810922E+02  0.68246529361E+02  0.79297376244E+02  0.16467736662E+03  0.12500000000E+03 0.  0.
         25    1    1    2    0    0 -0.84992284045E+02  0.44858938137E+02  0.26846031326E+03  0.31133896716E+03  0.12500000000E+03 0.  0.
         25    1    1    2    0    0  0.10840109497E+03 -0.11310546750E+03  0.15580219152E+03  0.25385619364E+03  0.12500000000E+03 0.  0.
</event>
<event>
 5    0  0.5648525E-005  0.4069649E+03  0.7546771E-02  0.1041394E+00
         21   -1    0    0  502  501  0.00000000000E+00  0.00000000000E+00  0.93546644309E+02  0.93546644309E+02  0.00000000000E+00 0. -1.
         21   -1    0    0  501  502 -0.00000000000E+00 -0.00000000000E+00 -0.17704579330E+04  0.17704579330E+04  0.00000000000E+00 0. -1.
         25    1    1    2    0    0 -0.90134766769E+02 -0.29145708007E+03 -0.76229169178E+03  0.83053303912E+03  0.12500000000E+03 0.  0.
         25    1    1    2    0    0 -0.69821212126E+02  0.14593482592E+03 -0.24685577864E+03  0.32052262093E+03  0.12500000000E+03 0.  0.
         25    1    1    2    0    0  0.15995597889E+03  0.14552225415E+03 -0.66776381823E+03  0.71294891723E+03  0.12500000000E+03 0.  0.
</event>
<event>
 5    0  0.5648525E-005  0.3743317E+03  0.7546771E-02  0.1053049E+00
         21   -1    0    0  502  501  0.00000000000E+00  0.00000000000E+00  0.14498825155E+03  0.14498825155E+03  0.00000000000E+00 0. -1.
         21   -1    0    0  501  502 -0.00000000000E+00 -0.00000000000E+00 -0.96645224438E+03  0.96645224438E+03  0.00000000000E+00 0. -1.
         25    1    1    2    0    0  0.10712670095E+03  0.87724743665E+02 -0.18439565203E+03  0.26229471439E+03  0.12500000000E+03 0.  0.
         25    1    1    2    0    0 -0.78616222708E+02  0.10177322153E+03 -0.58854309103E+03  0.61526113894E+03  0.12500000000E+03 0.  0.
         25    1    1    2    0    0 -0.28510478244E+02 -0.18949796519E+03 -0.48525249772E+02  0.23388464260E+03  0.12500000000E+03 0.  0.
</event>
<event>
 5    0  0.6078773E-005  0.3878089E+03  0.7546771E-02  0.1048085E+00
         21   -1    0    0  502  501  0.00000000000E+00  0.00000000000E+00  0.60044388239E+03  0.60044388239E+03  0.00000000000E+00 0.  1.
         21   -1    0    0  501  502 -0.00000000000E+00 -0.00000000000E+00 -0.25047429966E+03  0.25047429966E+03  0.00000000000E+00 0.  1.
         25    1    1    2    0    0  0.11821012287E+03 -0.23204162493E+03  0.85873834781E+02  0.30135736983E+03  0.12500000000E+03 0.  0.
         25    1    1    2    0    0 -0.11933554937E+03  0.16339527530E+03 -0.12715902103E+02  0.23817154217E+03  0.12500000000E+03 0.  0.
         25    1    1    2    0    0  0.11254264949E+01  0.68646349634E+02  0.27681165005E+03  0.31138927006E+03  0.12500000000E+03 0.  0.
</event>
<event>
 5    0  0.5648525E-005  0.3398833E+03  0.7546771E-02  0.1066846E+00
         21   -1    0    0  502  501  0.00000000000E+00  0.00000000000E+00  0.20009255877E+03  0.20009255877E+03  0.00000000000E+00 0. -1.
         21   -1    0    0  501  502 -0.00000000000E+00 -0.00000000000E+00 -0.57733611697E+03  0.57733611697E+03  0.00000000000E+00 0. -1.
         25    1    1    2    0    0  0.14326750154E+02  0.84555388514E+02 -0.23466185108E+03  0.27936723832E+03  0.12500000000E+03 0.  0.
         25    1    1    2    0    0 -0.84682793975E+02 -0.56211927714E+01 -0.25713706300E+03  0.29824024304E+03  0.12500000000E+03 0.  0.
         25    1    1    2    0    0  0.70356043821E+02 -0.78934195742E+02  0.11455535588E+03  0.19982119437E+03  0.12500000000E+03 0.  0.
</event>
<event>
 5    0  0.5648525E-005  0.2445600E+03  0.7546771E-02  0.1116792E+00
         21   -1    0    0  502  501  0.00000000000E+00  0.00000000000E+00  0.82745748804E+03  0.82745748804E+03  0.00000000000E+00 0.  1.
         21   -1    0    0  501  502 -0.00000000000E+00 -0.00000000000E+00 -0.72281142720E+02  0.72281142720E+02  0.00000000000E+00 0.  1.
         25    1    1    2    0    0 -0.30695315339E+02  0.59060527470E+02  0.32104842051E+03  0.35089519319E+03  0.12500000000E+03 0.  0.
         25    1    1    2    0    0  0.45613036556E+02 -0.10039530894E+03  0.11279488871E+03  0.20126463693E+03  0.12500000000E+03 0.  0.
         25    1    1    2    0    0 -0.14917721217E+02  0.41334781469E+02  0.32133303610E+03  0.34757880064E+03  0.12500000000E+03 0.  0.
</event>
<event>
 5    0  0.5648525E-005  0.2576155E+03  0.7546771E-02  0.1108584E+00
         21   -1    0    0  502  501  0.00000000000E+00  0.00000000000E+00  0.75903330030E+02  0.75903330030E+02  0.00000000000E+00 0.  1.
         21   -1    0    0  501  502 -0.00000000000E+00 -0.00000000000E+00 -0.87434591257E+03  0.87434591257E+03  0.00000000000E+00 0.  1.
         25    1    1    2    0    0 -0.21007243991E+02 -0.57589864379E+02 -0.21124793719E+03  0.25299918527E+03  0.12500000000E+03 0.  0.
         25    1    1    2    0    0  0.24470804539E+02  0.13931764942E+03 -0.47281228360E+03  0.50910183975E+03  0.12500000000E+03 0.  0.
         25    1    1    2    0    0 -0.34635605483E+01 -0.81727785042E+02 -0.11438236175E+03  0.18814821758E+03  0.12500000000E+03 0.  0.
</event>
<event>
 5    0  0.5648525E-005  0.2381120E+03  0.7546771E-02  0.1121057E+00
         21   -1    0    0  502  501  0.00000000000E+00  0.00000000000E+00  0.36628167989E+03  0.36628167989E+03  0.00000000000E+00 0.  1.
         21   -1    0    0  501  502 -0.00000000000E+00 -0.00000000000E+00 -0.15479164630E+03  0.15479164630E+03  0.00000000000E+00 0.  1.
         25    1    1    2    0    0 -0.41179664461E+02  0.66484818506E+01  0.53633342171E+02  0.14227263429E+03  0.12500000000E+03 0.  0.
         25    1    1    2    0    0  0.86267585123E+02  0.92668838149E+02  0.92149632114E+02  0.20036507806E+03  0.12500000000E+03 0.  0.
         25    1    1    2    0    0 -0.45087920661E+02 -0.99317320000E+02  0.65707059307E+02  0.17843561383E+03  0.12500000000E+03 0.  0.
</event>
<event>
 5    0  0.5648525E-005  0.3172457E+03  0.7546771E-02  0.1076924E+00
         21   -1    0    0  502  501  0.00000000000E+00  0.00000000000E+00  0.27384095960E+04  0.27384095960E+04  0.00000000000E+00 0. -1.
         21   -1    0    0  501  502 -0.00000000000E+00 -0.00000000000E+00 -0.36753018400E+02  0.36753018400E+02  0.00000000000E+00 0. -1.
         25    1    1    2    0    0  0.14878305286E+03 -0.55765266420E+02  0.19370687992E+04  0.19475899709E+04  0.12500000000E+03 0.  0.
         25    1    1    2    0    0 -0.25439941067E+02 -0.63769959741E+01  0.25948633490E+03  0.28921620750E+03  0.12500000000E+03 0.  0.
         25    1    1    2    0    0 -0.12334311179E+03  0.62142262394E+02  0.50510144344E+03  0.53835643598E+03  0.12500000000E+03 0.  0.
</event>
<event>
 5    0  0.5648525E-005  0.3429611E+03  0.7546771E-02  0.1065542E+00
         21   -1    0    0  502  501  0.00000000000E+00  0.00000000000E+00  0.10531139964E+04  0.10531139964E+04  0.00000000000E+00 0. -1.
         21   -1    0    0  501  502 -0.00000000000E+00 -0.00000000000E+00 -0.11169003492E+03  0.11169003492E+03  0.00000000000E+00 0. -1.
         25    1    1    2    0    0 -0.19260265419E+03  0.14884246592E+02  0.38321434557E+03  0.44698496378E+03  0.12500000000E+03 0.  0.
         25    1    1    2    0    0  0.10840964390E+03  0.14186641776E+03  0.18500183228E+03  0.28588355904E+03  0.12500000000E+03 0.  0.
         25    1    1    2    0    0  0.84193010287E+02 -0.15675066435E+03  0.37320778366E+03  0.43193550854E+03  0.12500000000E+03 0.  0.
</event>
<event>
 5    0  0.5648525E-005  0.3632569E+03  0.7546771E-02  0.1057302E+00
         21   -1    0    0  502  501  0.00000000000E+00  0.00000000000E+00  0.14899442134E+03  0.14899442134E+03  0.00000000000E+00 0.  1.
         21   -1    0    0  501  502 -0.00000000000E+00 -0.00000000000E+00 -0.88564094478E+03  0.88564094478E+03  0.00000000000E+00 0.  1.
         25    1    1    2    0    0  0.16641052050E+03  0.10326115436E+03 -0.35386694592E+03  0.42332274065E+03  0.12500000000E+03 0.  0.
         25    1    1    2    0    0 -0.22266417078E+03 -0.11814236169E+03 -0.10338890793E+03  0.29975192553E+03  0.12500000000E+03 0.  0.
         25    1    1    2    0    0  0.56253650282E+02  0.14881207330E+02 -0.27939066958E+03  0.31156069994E+03  0.12500000000E+03 0.  0.
</event>
<event>
 5    0  0.5648525E-005  0.5083682E+03  0.7546771E-02  0.1011617E+00
         21   -1    0    0  502  501  0.00000000000E+00  0.00000000000E+00  0.72727114194E+03  0.72727114194E+03  0.00000000000E+00 0.  1.
         21   -1    0    0  501  502 -0.00000000000E+00 -0.00000000000E+00 -0.35535335683E+03  0.35535335683E+03  0.00000000000E+00 0.  1.
         25    1    1    2    0    0  0.50561674482E+02  0.20264402306E+03  0.56093971697E+03  0.61147317936E+03  0.12500000000E+03 0.  0.
         25    1    1    2    0    0  0.76471954263E+02 -0.74255472489E+02 -0.19043046235E+03  0.25149671165E+03  0.12500000000E+03 0.  0.
         25    1    1    2    0    0 -0.12703362874E+03 -0.12838855057E+03  0.14085304887E+01  0.21965460775E+03  0.12500000000E+03 0.  0.
</event>
<event>
 5    0  0.5648525E-005  0.2684800E+03  0.7546771E-02  0.1102153E+00
         21   -1    0    0  502  501  0.00000000000E+00  0.00000000000E+00  0.79256130029E+03  0.79256130029E+03  0.00000000000E+00 0.  1.
         21   -1    0    0  501  502 -0.00000000000E+00 -0.00000000000E+00 -0.90947535911E+02  0.90947535911E+02  0.00000000000E+00 0.  1.
         25    1    1    2    0    0  0.10039323827E+03 -0.65181911860E+02  0.34813805831E+03  0.38878347646E+03  0.12500000000E+03 0.  0.
         25    1    1    2    0    0 -0.13490621628E+03 -0.76981695157E+00  0.27092107070E+03  0.32745000589E+03  0.12500000000E+03 0.  0.
         25    1    1    2    0    0  0.34512978002E+02  0.65951728811E+02  0.82554635359E+02  0.16727535384E+03  0.12500000000E+03 0.  0.
</event>
<event>
 5    0  0.5648525E-005  0.3543122E+03  0.7546771E-02  0.1060859E+00
         21   -1    0    0  502  501  0.00000000000E+00  0.00000000000E+00  0.19609542230E+03  0.19609542230E+03  0.00000000000E+00 0.  1.
         21   -1    0    0  501  502 -0.00000000000E+00 -0.00000000000E+00 -0.64018397475E+03  0.64018397475E+03  0.00000000000E+00 0.  1.
         25    1    1    2    0    0  0.56212064529E+02 -0.16404238710E+03 -0.24504999041E+03  0.32518333101E+03  0.12500000000E+03 0.  0.
         25    1    1    2    0    0  0.48642848605E+02  0.24092944096E+03 -0.57148553695E+02  0.28160979995E+03  0.12500000000E+03 0.  0.
         25    1    1    2    0    0 -0.10485491313E+03 -0.76887053858E+02 -0.14189000834E+03  0.22948626609E+03  0.12500000000E+03 0.  0.
</event>
<event>
 5    0  0.5648525E-005  0.3908807E+03  0.7546771E-02  0.1046984E+00
         21   -1    0    0  502  501  0.00000000000E+00  0.00000000000E+00  0.31520366371E+03  0.31520366371E+03  0.00000000000E+00 0.  1.
         21   -1    0    0  501  502 -0.00000000000E+00 -0.00000000000E+00 -0.48472697215E+03  0.48472697215E+03  0.00000000000E+00 0.  1.
         25    1    1    2    0    0  0.13366251383E+03 -0.86329772137E+02  0.65928472048E+02  0.21281461554E+03  0.12500000000E+03 0.  0.
         25    1    1    2    0    0  0.14014530670E+03 -0.63778119329E+02 -0.56959966228E+02  0.20634387136E+03  0.12500000000E+03 0.  0.
         25    1    1    2    0    0 -0.27380782053E+03  0.15010789147E+03 -0.17849181426E+03  0.38077214896E+03  0.12500000000E+03 0.  0.
</event>
<event>
 5    0  0.5648525E-005  0.2487938E+03  0.7546771E-02  0.1114069E+00
         21   -1    0    0  502  501  0.00000000000E+00  0.00000000000E+00  0.92819556278E+03  0.92819556278E+03  0.00000000000E+00 0.  1.
         21   -1    0    0  501  502 -0.00000000000E+00 -0.00000000000E+00 -0.66686766953E+02  0.66686766953E+02  0.00000000000E+00 0.  1.
         25    1    1    2    0    0 -0.65261126995E+02  0.75570811836E+02  0.12778975192E+03  0.20475639915E+03  0.12500000000E+03 0.  0.
         25    1    1    2    0    0  0.53878463481E+02  0.13629957575E+01  0.25202924456E+03  0.28644107020E+03  0.12500000000E+03 0.  0.
         25    1    1    2    0    0  0.11382663514E+02 -0.76933807594E+02  0.48168979935E+03  0.50368486038E+03  0.12500000000E+03 0.  0.
</event>
<event>
 5    0  0.5648525E-005  0.3679092E+03  0.7546771E-02  0.1055495E+00
         21   -1    0    0  502  501  0.00000000000E+00  0.00000000000E+00  0.45822023070E+03  0.45822023070E+03  0.00000000000E+00 0. -1.
         21   -1    0    0  501  502 -0.00000000000E+00 -0.00000000000E+00 -0.29539757520E+03  0.29539757520E+03  0.00000000000E+00 0. -1.
         25    1    1    2    0    0  0.34922922829E+02  0.21139779907E+03  0.13053442389E+03  0.28030853681E+03  0.12500000000E+03 0.  0.
         25    1    1    2    0    0  0.68006146160E+01 -0.10901461181E+02  0.15845470657E+03  0.20223250047E+03  0.12500000000E+03 0.  0.
         25    1    1    2    0    0 -0.41723537445E+02 -0.20049633788E+03 -0.12616647495E+03  0.27107676862E+03  0.12500000000E+03 0.  0.
</event>
<event>
 5    0  0.5648525E-005  0.2591829E+03  0.7546771E-02  0.1107635E+00
         21   -1    0    0  502  501  0.00000000000E+00  0.00000000000E+00  0.48964370985E+03  0.48964370985E+03  0.00000000000E+00 0.  1.
         21   -1    0    0  501  502 -0.00000000000E+00 -0.00000000000E+00 -0.13719314093E+03  0.13719314093E+03  0.00000000000E+00 0.  1.
         25    1    1    2    0    0  0.11033984960E+03  0.11513682610E+03  0.20291096004E+03  0.28675639285E+03  0.12500000000E+03 0.  0.
         25    1    1    2    0    0 -0.83611734743E+02 -0.50611517824E+02  0.10442644303E+03  0.18995349412E+03  0.12500000000E+03 0.  0.
         25    1    1    2    0    0 -0.26728114857E+02 -0.64525308276E+02  0.45113165851E+02  0.15012696382E+03  0.12500000000E+03 0.  0.
</event>
<event>
 5    0  0.5862333E-005  0.4248869E+03  0.7546771E-02  0.1035487E+00
         21   -1    0    0  502  501  0.00000000000E+00  0.00000000000E+00  0.42794250371E+03  0.42794250371E+03  0.00000000000E+00 0. -1.
         21   -1    0    0  501  502 -0.00000000000E+00 -0.00000000000E+00 -0.42185303738E+03  0.42185303738E+03  0.00000000000E+00 0. -1.
         25    1    1    2    0    0 -0.12791395045E+03  0.11062738996E+03 -0.98933901016E+02  0.23240764810E+03  0.12500000000E+03 0.  0.
         25    1    1    2    0    0  0.55901210106E+02 -0.20352392806E+03 -0.16630409454E+03  0.29635955602E+03  0.12500000000E+03 0.  0.
         25    1    1    2    0    0  0.72012740339E+02  0.92896538102E+02  0.27132746188E+03  0.32102833696E+03  0.12500000000E+03 0.  0.
</event>
<event>
 5    0  0.5648525E-005  0.3266284E+03  0.7546771E-02  0.1072639E+00
         21   -1    0    0  502  501  0.00000000000E+00  0.00000000000E+00  0.53570415382E+02  0.53570415382E+02  0.00000000000E+00 0.  1.
         21   -1    0    0  501  502 -0.00000000000E+00 -0.00000000000E+00 -0.19915112381E+04  0.19915112381E+04  0.00000000000E+00 0.  1.
         25    1    1    2    0    0 -0.45698196808E+01 -0.33495071822E+02 -0.42825652003E+03  0.44740524140E+03  0.12500000000E+03 0.  0.
         25    1    1    2    0    0 -0.11999809147E+01  0.63727567208E+02 -0.78628016115E+02  0.16084156084E+03  0.12500000000E+03 0.  0.
         25    1    1    2    0    0  0.57698005956E+01 -0.30232495385E+02 -0.14310562865E+04  0.14368348512E+04  0.12500000000E+03 0.  0.
</event>
<event>
 5    0  0.5648525E-005  0.3065505E+03  0.7546771E-02  0.1082011E+00
         21   -1    0    0  502  501  0.00000000000E+00  0.00000000000E+00  0.17244646464E+04  0.17244646464E+04  0.00000000000E+00 0. -1.
         21   -1    0    0  501  502 -0.00000000000E+00 -0.00000000000E+00 -0.54494143743E+02  0.54494143743E+02  0.00000000000E+00 0. -1.
         25    1    1    2    0    0 -0.53089574338E+02  0.13725029680E+03  0.87366359357E+03  0.89474533897E+03  0.12500000000E+03 0.  0.
         25    1    1    2    0    0  0.50583177177E+02  0.59128276851E+02  0.37491569899E+03  0.40279224457E+03  0.12500000000E+03 0.  0.
         25    1    1    2    0    0  0.25063971611E+01 -0.19637857365E+03  0.42139121005E+03  0.48142120656E+03  0.12500000000E+03 0.  0.
</event>
<event>
 5    0  0.5648525E-005  0.2289238E+03  0.7546771E-02  0.1127400E+00
         21   -1    0    0  502  501  0.00000000000E+00  0.00000000000E+00  0.11263754103E+04  0.11263754103E+04  0.00000000000E+00 0. -1.
         21   -1    0    0  501  502 -0.00000000000E+00 -0.00000000000E+00 -0.46526326742E+02  0.46526326742E+02  0.00000000000E+00 0. -1.
         25    1    1    2    0    0  0.56546727342E+02  0.17773550302E+02  0.45763123665E+03  0.47808449067E+03  0.12500000000E+03 0.  0.
         25    1    1    2    0    0 -0.48552900418E+02  0.16084807767E+02  0.49503572904E+03  0.51312910481E+03  0.12500000000E+03 0.  0.
         25    1    1    2    0    0 -0.79938269239E+01 -0.33858358069E+02  0.12718211790E+03  0.18168814159E+03  0.12500000000E+03 0.  0.
</event>
<event>
 5    0  0.5648525E-005  0.2058700E+03  0.7546771E-02  0.1144879E+00
         21   -1    0    0  502  501  0.00000000000E+00  0.00000000000E+00  0.17946828504E+03  0.17946828504E+03  0.00000000000E+00 0. -1.
         21   -1    0    0  501  502 -0.00000000000E+00 -0.00000000000E+00 -0.23615578682E+03  0.23615578682E+03  0.00000000000E+00 0. -1.
         25    1    1    2    0    0 -0.11937792455E+02 -0.28093352066E+02 -0.33825722367E+02  0.13304483009E+03  0.12500000000E+03 0.  0.
         25    1    1    2    0    0  0.64944230562E+02  0.29520568890E+02  0.48170767052E+01  0.14400493498E+03  0.12500000000E+03 0.  0.
         25    1    1    2    0    0 -0.53006438108E+02 -0.14272168242E+01 -0.27678856116E+02  0.13857430680E+03  0.12500000000E+03 0.  0.
</event>
<event>
 5    0  0.5648525E-005  0.3315472E+03  0.7546771E-02  0.1070454E+00
         21   -1    0    0  502  501  0.00000000000E+00  0.00000000000E+00  0.55243386683E+03  0.55243386683E+03  0.00000000000E+00 0.  1.
         21   -1    0    0  501  502 -0.00000000000E+00 -0.00000000000E+00 -0.19898041975E+03  0.19898041975E+03  0.00000000000E+00 0.  1.
         25    1    1    2    0    0  0.72067570891E+02  0.18322265447E+03  0.99000950897E+02  0.25335837102E+03  0.12500000000E+03 0.  0.
         25    1    1    2    0    0  0.80769619394E+02 -0.17500320858E+03  0.12149764195E+03  0.25987791640E+03  0.12500000000E+03 0.  0.
         25    1    1    2    0    0 -0.15283719028E+03 -0.82194458904E+01  0.13295485423E+03  0.23817799917E+03  0.12500000000E+03 0.  0.
</event>
<event>
 5    0  0.5648525E-005  0.2817793E+03  0.7546771E-02  0.1094721E+00
         21   -1    0    0  502  501  0.00000000000E+00  0.00000000000E+00  0.18359819163E+04  0.18359819163E+04  0.00000000000E+00 0.  1.
         21   -1    0    0  501  502 -0.00000000000E+00 -0.00000000000E+00 -0.43246366459E+02  0.43246366459E+02  0.00000000000E+00 0.  1.
         25    1    1    2    0    0  0.13603973391E+02 -0.10211062858E+03  0.78799863175E+03  0.80447404694E+03  0.12500000000E+03 0.  0.
         25    1    1    2    0    0 -0.10258534400E+01  0.18971207403E+03  0.64174478642E+03  0.68077389367E+03  0.12500000000E+03 0.  0.
         25    1    1    2    0    0 -0.12578119951E+02 -0.87601445453E+02  0.36299213172E+03  0.39398034220E+03  0.12500000000E+03 0.  0.
</event>
<event>
 5    0  0.5648525E-005  0.3550044E+03  0.7546771E-02  0.1060580E+00
         21   -1    0    0  502  501  0.00000000000E+00  0.00000000000E+00  0.54521236971E+02  0.54521236971E+02  0.00000000000E+00 0. -1.
         21   -1    0    0  501  502 -0.00000000000E+00 -0.00000000000E+00 -0.23115422155E+04  0.23115422155E+04  0.00000000000E+00 0.  1.
         25    1    1    2    0    0  0.16005966969E+03 -0.15038606910E+03 -0.96938824779E+03  0.10017852278E+04  0.12500000000E+03 0.  0.
         25    1    1    2    0    0 -0.47964008936E+02  0.80524837619E+02 -0.10669131836E+04  0.10782919535E+04  0.12500000000E+03 0.  0.
         25    1    1    2    0    0 -0.11209566076E+03  0.69861231477E+02 -0.22071954712E+03  0.28598627118E+03  0.12500000000E+03 0.  0.
</event>
<event>
 5    0  0.5648525E-005  0.2964247E+03  0.7546771E-02  0.1087042E+00
         21   -1    0    0  502  501  0.00000000000E+00  0.00000000000E+00  0.48536057693E+03  0.48536057693E+03  0.00000000000E+00 0. -1.
         21   -1    0    0  501  502 -0.00000000000E+00 -0.00000000000E+00 -0.18103566709E+03  0.18103566709E+03  0.00000000000E+00 0. -1.
         25    1    1    2    0    0  0.64600540292E+02  0.76422840028E+02  0.24716341110E+02  0.16201721452E+03  0.12500000000E+03 0.  0.
         25    1    1    2    0    0  0.11277124160E+03 -0.10395355958E+03  0.16389926337E+03  0.25692735163E+03  0.12500000000E+03 0.  0.
         25    1    1    2    0    0 -0.17737178189E+03  0.27530719548E+02  0.11570930536E+03  0.24745167786E+03  0.12500000000E+03 0.  0.
</event>
<event>
 5    0  0.5648525E-005  0.3000495E+03  0.7546771E-02  0.1085216E+00
         21   -1    0    0  502  501  0.00000000000E+00  0.00000000000E+00  0.98796479961E+02  0.98796479961E+02  0.00000000000E+00 0.  1.
         21   -1    0    0  501  502 -0.00000000000E+00 -0.00000000000E+00 -0.91126409264E+03  0.91126409264E+03  0.00000000000E+00 0.  1.
         25    1    1    2    0    0 -0.98112516628E+02  0.12542933609E+03 -0.87115973340E+02  0.22039232537E+03  0.12500000000E+03 0.  0.
         25    1    1    2    0    0  0.68604498289E+02 -0.59900057781E+02 -0.48832181666E+03  0.51222826038E+03  0.12500000000E+03 0.  0.
         25    1    1    2    0    0  0.29508018340E+02 -0.65529278312E+02 -0.23702982268E+03  0.27743998685E+03  0.12500000000E+03 0.  0.
</event>
<event>
 5    0  0.5648525E-005  0.2444273E+03  0.7546771E-02  0.1116878E+00
         21   -1    0    0  502  501  0.00000000000E+00  0.00000000000E+00  0.52413665259E+03  0.52413665259E+03  0.00000000000E+00 0.  1.
         21   -1    0    0  501  502 -0.00000000000E+00 -0.00000000000E+00 -0.11398684589E+03  0.11398684589E+03  0.00000000000E+00 0.  1.
         25    1    1    2    0    0 -0.58291133792E+02  0.39359438345E+02  0.21540729387E+03  0.25879011557E+03  0.12500000000E+03 0.  0.
         25    1    1    2    0    0  0.47998303380E+02 -0.10582470828E+02 -0.13022191262E+02  0.13494592725E+03  0.12500000000E+03 0.  0.
         25    1    1    2    0    0  0.10292830412E+02 -0.28776967516E+02  0.20776470410E+03  0.24438745566E+03  0.12500000000E+03 0.  0.
</event>
<event>
 5    0  0.5648525E-005  0.3429416E+03  0.7546771E-02  0.1065550E+00
         21   -1    0    0  502  501  0.00000000000E+00  0.00000000000E+00  0.23821679803E+03  0.23821679803E+03  0.00000000000E+00 0. -1.
         21   -1    0    0  501  502 -0.00000000000E+00 -0.00000000000E+00 -0.49370555395E+03  0.49370555395E+03  0.00000000000E+00 0. -1.
         25    1    1    2    0    0  0.16771598212E+03  0.12131649091E+03 -0.24340342120E+02  0.24303043817E+03  0.12500000000E+03 0.  0.
         25    1    1    2    0    0 -0.42587453951E+02 -0.69910411337E+02  0.45806362733E+02  0.15628301160E+03  0.12500000000E+03 0.  0.
         25    1    1    2    0    0 -0.12512852817E+03 -0.51406079571E+02 -0.27695477654E+03  0.33260890221E+03  0.12500000000E+03 0.  0.
</event>
<event>
 5    0  0.5648525E-005  0.3526407E+03  0.7546771E-02  0.1061536E+00
         21   -1    0    0  502  501  0.00000000000E+00  0.00000000000E+00  0.88562218584E+02  0.88562218584E+02  0.00000000000E+00 0.  1.
         21   -1    0    0  501  502 -0.00000000000E+00 -0.00000000000E+00 -0.14041593523E+04  0.14041593523E+04  0.00000000000E+00 0.  1.
         25    1    1    2    0    0  0.78925052866E+02  0.93863252497E+02 -0.47105052763E+03  0.50254658860E+03  0.12500000000E+03 0.  0.
         25    1    1    2    0    0 -0.15951184860E+03  0.15892366750E+02 -0.76036610868E+03  0.78706938474E+03  0.12500000000E+03 0.  0.
         25    1    1    2    0    0  0.80586795737E+02 -0.10975561925E+03 -0.84180497388E+02  0.20310559752E+03  0.12500000000E+03 0.  0.
</event>
<event>
 5    0  0.5648525E-005  0.3636923E+03  0.7546771E-02  0.1057131E+00
         21   -1    0    0  502  501  0.00000000000E+00  0.00000000000E+00  0.86978665208E+03  0.86978665208E+03  0.00000000000E+00 0. -1.
         21   -1    0    0  501  502 -0.00000000000E+00 -0.00000000000E+00 -0.15207416278E+03  0.15207416278E+03  0.00000000000E+00 0. -1.
         25    1    1    2    0    0  0.90649520052E+02 -0.10410134612E+03  0.29296733706E+03  0.34714447473E+03  0.12500000000E+03 0.  0.
         25    1    1    2    0    0  0.11916530447E+03  0.26647678767E+02  0.37500148918E+03  0.41371679379E+03  0.12500000000E+03 0.  0.
         25    1    1    2    0    0 -0.20981482452E+03  0.77453667350E+02  0.49743663058E+02  0.26099954634E+03  0.12500000000E+03 0.  0.
</event>
<event>
 5    0  0.5648525E-005  0.5019604E+03  0.7546771E-02  0.1013268E+00
         21   -1    0    0  502  501  0.00000000000E+00  0.00000000000E+00  0.52625358184E+03  0.52625358184E+03  0.00000000000E+00 0.  1.
         21   -1    0    0  501  502 -0.00000000000E+00 -0.00000000000E+00 -0.47878860451E+03  0.47878860451E+03  0.00000000000E+00 0.  1.
         25    1    1    2    0    0 -0.51445119787E+00  0.33375070212E+03  0.16506561824E+03  0.39276131957E+03  0.12500000000E+03 0.  0.
         25    1    1    2    0    0 -0.15640187814E+03 -0.26192382653E+01  0.20372349192E+02  0.20126708749E+03  0.12500000000E+03 0.  0.
         25    1    1    2    0    0  0.15691632934E+03 -0.33113146385E+03 -0.13797299009E+03  0.41101377929E+03  0.12500000000E+03 0.  0.
</event>
<event>
 5    0  0.5648525E-005  0.5838312E+03  0.7546771E-02  0.9939531E-01
         21   -1    0    0  502  501  0.00000000000E+00  0.00000000000E+00  0.42934409264E+03  0.42934409264E+03  0.00000000000E+00 0. -1.
         21   -1    0    0  501  502 -0.00000000000E+00 -0.00000000000E+00 -0.79390611890E+03  0.79390611890E+03  0.00000000000E+00 0. -1.
         25    1    1    2    0    0  0.11686467933E+03  0.22413147231E+03 -0.12465814183E+03  0.30831302677E+03  0.12500000000E+03 0.  0.
         25    1    1    2    0    0  0.26847962494E+03 -0.26357742034E+03 -0.30827435177E+03  0.50220756812E+03  0.12500000000E+03 0.  0.
         25    1    1    2    0    0 -0.38534430427E+03  0.39445948032E+02  0.68370467344E+02  0.41272961664E+03  0.12500000000E+03 0.  0.
</event>
<event>
 5    0  0.5648525E-005  0.2113253E+03  0.7546771E-02  0.1140521E+00
         21   -1    0    0  502  501  0.00000000000E+00  0.00000000000E+00  0.68695517075E+03  0.68695517075E+03  0.00000000000E+00 0.  1.
         21   -1    0    0  501  502 -0.00000000000E+00 -0.00000000000E+00 -0.65009140975E+02  0.65009140975E+02  0.00000000000E+00 0.  1.
         25    1    1    2    0    0 -0.88608390144E+02 -0.14808286480E+02  0.21242185363E+03  0.26233333004E+03  0.12500000000E+03 0.  0.
         25    1    1    2    0    0  0.53527708635E+02 -0.82830614504E+01  0.19683908708E+03  0.23938348085E+03  0.12500000000E+03 0.  0.
         25    1    1    2    0    0  0.35080681508E+02  0.23091347930E+02  0.21268508906E+03  0.25024750083E+03  0.12500000000E+03 0.  0.
</event>
<event>
 5    0  0.5648525E-005  0.3660880E+03  0.7546771E-02  0.1056199E+00
         21   -1    0    0  502  501  0.00000000000E+00  0.00000000000E+00  0.39027253867E+03  0.39027253867E+03  0.00000000000E+00 0. -1.
         21   -1    0    0  501  502 -0.00000000000E+00 -0.00000000000E+00 -0.34340213570E+03  0.34340213570E+03  0.00000000000E+00 0. -1.
         25    1    1    2    0    0  0.39637079992E+02 -0.30402036274E+02 -0.97529058968E+02  0.16622965819E+03  0.12500000000E+03 0.  0.
         25    1    1    2    0    0  0.90528240338E+02 -0.33615500921E+02 -0.14896397910E+03  0.21711893347E+03  0.12500000000E+03 0.  0.
         25    1    1    2    0    0 -0.13016532033E+03  0.64017537196E+02  0.29336344104E+03  0.35032608270E+03  0.12500000000E+03 0.  0.
</event>
<event>
 5    0  0.5851623E-005  0.3509540E+03  0.7546771E-02  0.1062224E+00
         21   -1    0    0  502  501  0.00000000000E+00  0.00000000000E+00  0.27520777458E+03  0.27520777458E+03  0.00000000000E+00 0. -1.
         21   -1    0    0  501  502 -0.00000000000E+00 -0.00000000000E+00 -0.44754813668E+03  0.44754813668E+03  0.00000000000E+00 0. -1.
         25    1    1    2    0    0  0.20643137504E+03 -0.51360061920E+01 -0.11968403698E+02  0.24167857548E+03  0.12500000000E+03 0.  0.
         25    1    1    2    0    0 -0.26438784260E+03 -0.14366013393E+02 -0.37041265320E+02  0.29513449306E+03  0.12500000000E+03 0.  0.
         25    1    1    2    0    0  0.57956467558E+02  0.19502019585E+02 -0.12333069308E+03  0.18594284271E+03  0.12500000000E+03 0.  0.
</event>
<event>
 5    0  0.5648525E-005  0.4809238E+03  0.7546771E-02  0.1018882E+00
         21   -1    0    0  502  501  0.00000000000E+00  0.00000000000E+00  0.43168875900E+03  0.43168875900E+03  0.00000000000E+00 0.  1.
         21   -1    0    0  501  502 -0.00000000000E+00 -0.00000000000E+00 -0.53577428118E+03  0.53577428118E+03  0.00000000000E+00 0.  1.
         25    1    1    2    0    0 -0.62540097614E+02  0.49949004030E+02 -0.87035646515E+02  0.17206501846E+03  0.12500000000E+03 0.  0.
         25    1    1    2    0    0  0.12381042624E+03 -0.21993606270E+03 -0.31670359984E+03  0.42382433091E+03  0.12500000000E+03 0.  0.
         25    1    1    2    0    0 -0.61270328622E+02  0.16998705867E+03  0.29965372418E+03  0.37157369081E+03  0.12500000000E+03 0.  0.
</event>
<event>
 5    0  0.5648525E-005  0.2338195E+03  0.7546771E-02  0.1123980E+00
         21   -1    0    0  502  501  0.00000000000E+00  0.00000000000E+00  0.86142522301E+02  0.86142522301E+02  0.00000000000E+00 0. -1.
         21   -1    0    0  501  502 -0.00000000000E+00 -0.00000000000E+00 -0.63466407360E+03  0.63466407360E+03  0.00000000000E+00 0. -1.
         25    1    1    2    0    0  0.13631793467E+02 -0.37431787240E+02 -0.20391436030E+03  0.24247274244E+03  0.12500000000E+03 0.  0.
         25    1    1    2    0    0 -0.84194463065E+02  0.46700019931E+02 -0.79403859770E+02  0.17663400697E+03  0.12500000000E+03 0.  0.
         25    1    1    2    0    0  0.70562669598E+02 -0.92682326914E+01 -0.26520333123E+03  0.30169984649E+03  0.12500000000E+03 0.  0.
</event>
<event>
 5    0  0.5648525E-005  0.3040871E+03  0.7546771E-02  0.1083215E+00
         21   -1    0    0  502  501  0.00000000000E+00  0.00000000000E+00  0.21850707518E+04  0.21850707518E+04  0.00000000000E+00 0.  1.
         21   -1    0    0  501  502 -0.00000000000E+00 -0.00000000000E+00 -0.42318512912E+02  0.42318512912E+02  0.00000000000E+00 0.  1.
         25    1    1    2    0    0  0.97598467294E+00 -0.65241133574E+02  0.12798988216E+03  0.19043048073E+03  0.12500000000E+03 0.  0.
         25    1    1    2    0    0 -0.18153447956E+02 -0.98609395234E+00  0.50782629045E+03  0.52330016370E+03  0.12500000000E+03 0.  0.
         25    1    1    2    0    0  0.17177463283E+02  0.66227227526E+02  0.15069360663E+04  0.15136586203E+04  0.12500000000E+03 0.  0.
</event>
<event>
 5    0  0.5648525E-005  0.3390241E+03  0.7546771E-02  0.1067212E+00
         21   -1    0    0  502  501  0.00000000000E+00  0.00000000000E+00  0.12000247613E+03  0.12000247613E+03  0.00000000000E+00 0.  1.
         21   -1    0    0  501  502 -0.00000000000E+00 -0.00000000000E+00 -0.95779126012E+03  0.95779126012E+03  0.00000000000E+00 0.  1.
         25    1    1    2    0    0  0.96632913159E+02 -0.45670436257E+02 -0.17864242639E+03  0.24282056165E+03  0.12500000000E+03 0.  0.
         25    1    1    2    0    0  0.10288792842E+03 -0.77563978666E+02 -0.77575693652E+02  0.19556350591E+03  0.12500000000E+03 0.  0.
         25    1    1    2    0    0 -0.19952084157E+03  0.12323441492E+03 -0.58157066395E+03  0.63940966869E+03  0.12500000000E+03 0.  0.
</event>
<event>
 5    0  0.7027929E-005  0.2862186E+03  0.7546771E-02  0.1092340E+00
         21   -1    0    0  502  501  0.00000000000E+00  0.00000000000E+00  0.67238903253E+03  0.67238903253E+03  0.00000000000E+00 0. -1.
         21   -1    0    0  501  502 -0.00000000000E+00 -0.00000000000E+00 -0.12183583629E+03  0.12183583629E+03  0.00000000000E+00 0. -1.
         25    1    1    2    0    0 -0.61986709376E+02  0.73428050341E+02 -0.16945389370E+02  0.15857546133E+03  0.12500000000E+03 0.  0.
         25    1    1    2    0    0 -0.63480996724E+01 -0.70165473894E+02  0.30077288369E+03  0.33324588469E+03  0.12500000000E+03 0.  0.
         25    1    1    2    0    0  0.68334809049E+02 -0.32625764475E+01  0.26672570192E+03  0.30240352279E+03  0.12500000000E+03 0.  0.
</event>
<event>
 5    0  0.5648525E-005  0.3696672E+03  0.7546771E-02  0.1054820E+00
         21   -1    0    0  502  501  0.00000000000E+00  0.00000000000E+00  0.47567777925E+03  0.47567777925E+03  0.00000000000E+00 0. -1.
         21   -1    0    0  501  502 -0.00000000000E+00 -0.00000000000E+00 -0.28728230857E+03  0.28728230857E+03  0.00000000000E+00 0. -1.
         25    1    1    2    0    0  0.15762918523E+03 -0.59709636216E+02  0.11416433610E+03  0.23889473902E+03  0.12500000000E+03 0.  0.
         25    1    1    2    0    0 -0.16125899616E+03  0.18220869597E+03  0.17241902191E+03  0.32335397298E+03  0.12500000000E+03 0.  0.
         25    1    1    2    0    0  0.36298109365E+01 -0.12249905975E+03 -0.98187887322E+02  0.20071137582E+03  0.12500000000E+03 0.  0.
</event>
<event>
 5    0  0.5648525E-005  0.3197291E+03  0.7546771E-02  0.1075774E+00
         21   -1    0    0  502  501  0.00000000000E+00  0.00000000000E+00  0.65059683967E+03  0.65059683967E+03  0.00000000000E+00 0.  1.
         21   -1    0    0  501  502 -0.00000000000E+00 -0.00000000000E+00 -0.15712755822E+03  0.15712755822E+03  0.00000000000E+00 0.  1.
         25    1    1    2    0    0 -0.15728789821E+02  0.63829025985E+02  0.23621389058E+03  0.27521544559E+03  0.12500000000E+03 0.  0.
         25    1    1    2    0    0 -0.79042406991E+02  0.13909933138E+03  0.69324311261E+02  0.21453947475E+03  0.12500000000E+03 0.  0.
         25    1    1    2    0    0  0.94771196812E+02 -0.20292835737E+03  0.18793107962E+03  0.31796947755E+03  0.12500000000E+03 0.  0.
</event>
<event>
 5    0  0.5648525E-005  0.4767538E+03  0.7546771E-02  0.1020031E+00
         21   -1    0    0  502  501  0.00000000000E+00  0.00000000000E+00  0.40357123097E+03  0.40357123097E+03  0.00000000000E+00 0. -1.
         21   -1    0    0  501  502 -0.00000000000E+00 -0.00000000000E+00 -0.56320710200E+03  0.56320710200E+03  0.00000000000E+00 0. -1.
         25    1    1    2    0    0  0.20195450265E+02  0.20402680046E+03 -0.10421952780E+03  0.26176611983E+03  0.12500000000E+03 0.  0.
         25    1    1    2    0    0  0.17925436288E+03  0.15758603045E+03 -0.46749739080E+02  0.27345204645E+03  0.12500000000E+03 0.  0.
         25    1    1    2    0    0 -0.19944981315E+03 -0.36161283091E+03 -0.86666041609E+01  0.43156016669E+03  0.12500000000E+03 0.  0.
</event>
<event>
 5    0  0.5648525E-005  0.2377478E+03  0.7546771E-02  0.1121302E+00
         21   -1    0    0  502  501  0.00000000000E+00  0.00000000000E+00  0.24268247670E+03  0.24268247670E+03  0.00000000000E+00 0.  1.
         21   -1    0    0  501  502 -0.00000000000E+00 -0.00000000000E+00 -0.23291343104E+03  0.23291343104E+03  0.00000000000E+00 0.  1.
         25    1    1    2    0    0  0.11825308217E+02  0.99072361469E+02  0.65730344500E+02  0.17291804102E+03  0.12500000000E+03 0.  0.
         25    1    1    2    0    0  0.15049128614E+02 -0.12357994667E+02 -0.74924394468E+02  0.14703013701E+03  0.12500000000E+03 0.  0.
         25    1    1    2    0    0 -0.26874436831E+02 -0.86714366802E+02  0.18963095627E+02  0.15564772970E+03  0.12500000000E+03 0.  0.
</event>
<event>
 5    0  0.5888582E-005  0.2686919E+03  0.7546771E-02  0.1102031E+00
         21   -1    0    0  502  501  0.00000000000E+00  0.00000000000E+00  0.66971146435E+03  0.66971146435E+03  0.00000000000E+00 0. -1.
         21   -1    0    0  501  502 -0.00000000000E+00 -0.00000000000E+00 -0.10780065663E+03  0.10780065663E+03  0.00000000000E+00 0. -1.
         25    1    1    2    0    0  0.50113969942E+02 -0.49628975734E+02  0.11690067832E+03  0.18510865406E+03  0.12500000000E+03 0.  0.
         25    1    1    2    0    0  0.10057171311E+03 -0.55928551191E+01  0.92136739747E+02  0.18509491705E+03  0.12500000000E+03 0.  0.
         25    1    1    2    0    0 -0.15068568305E+03  0.55221830853E+02  0.35287338965E+03  0.40730854988E+03  0.12500000000E+03 0.  0.
</event>
<event>
 5    0  0.5648525E-005  0.3677465E+03  0.7546771E-02  0.1055558E+00
         21   -1    0    0  502  501  0.00000000000E+00  0.00000000000E+00  0.17298410451E+03  0.17298410451E+03  0.00000000000E+00 0.  1.
         21   -1    0    0  501  502 -0.00000000000E+00 -0.00000000000E+00 -0.78179129332E+03  0.78179129332E+03  0.00000000000E+00 0.  1.
         25    1    1    2    0    0 -0.22589523790E+02 -0.10950102734E+03 -0.25223295935E+03  0.30289804779E+03  0.12500000000E+03 0.  0.
         25    1    1    2    0    0 -0.32055266855E+02  0.28513166916E+03 -0.26961095850E+03  0.41308918871E+03  0.12500000000E+03 0.  0.
         25    1    1    2    0    0  0.54644790646E+02 -0.17563064182E+03 -0.86963270966E+02  0.23878816133E+03  0.12500000000E+03 0.  0.
</event>
<event>
 5    0  0.5648525E-005  0.2541221E+03  0.7546771E-02  0.1110727E+00
         21   -1    0    0  502  501  0.00000000000E+00  0.00000000000E+00  0.10939714355E+03  0.10939714355E+03  0.00000000000E+00 0.  1.
         21   -1    0    0  501  502 -0.00000000000E+00 -0.00000000000E+00 -0.59030815474E+03  0.59030815474E+03  0.00000000000E+00 0.  1.
         25    1    1    2    0    0 -0.46305398354E+02 -0.73487065267E+02 -0.62204028732E+02  0.16443503236E+03  0.12500000000E+03 0.  0.
         25    1    1    2    0    0 -0.68910130656E+02  0.16666837717E+02 -0.25404677727E+03  0.29187523812E+03  0.12500000000E+03 0.  0.
         25    1    1    2    0    0  0.11521552901E+03  0.56820227550E+02 -0.16466020519E+03  0.24339502780E+03  0.12500000000E+03 0.  0.
</event>
<event>
 5    0  0.5648525E-005  0.5281593E+03  0.7546771E-02  0.1006680E+00
         21   -1    0    0  502  501  0.00000000000E+00  0.00000000000E+00  0.74080379576E+03  0.74080379576E+03  0.00000000000E+00 0. -1.
         21   -1    0    0  501  502 -0.00000000000E+00 -0.00000000000E+00 -0.37655342043E+03  0.37655342043E+03  0.00000000000E+00 0. -1.
         25    1    1    2    0    0 -0.79945103278E+02 -0.85386965514E+02  0.66523543768E+03  0.68690999480E+03  0.12500000000E+03 0.  0.
         25    1    1    2    0    0 -0.97866729421E+01  0.84348511104E+02 -0.12054061975E+03  0.19330155535E+03  0.12500000000E+03 0.  0.
         25    1    1    2    0    0  0.89731776220E+02  0.10384544094E+01 -0.18044444261E+03  0.23714566603E+03  0.12500000000E+03 0.  0.
</event>
<event>
 5    0  0.5648525E-005  0.4386974E+03  0.7546771E-02  0.1031147E+00
         21   -1    0    0  502  501  0.00000000000E+00  0.00000000000E+00  0.24352972969E+03  0.24352972969E+03  0.00000000000E+00 0.  1.
         21   -1    0    0  501  502 -0.00000000000E+00 -0.00000000000E+00 -0.79027496195E+03  0.79027496195E+03  0.00000000000E+00 0.  1.
         25    1    1    2    0    0  0.74188884572E+02 -0.76642132650E+01 -0.30603774567E+03  0.33889059080E+03  0.12500000000E+03 0.  0.
         25    1    1    2    0    0 -0.18404541028E+03 -0.20547334244E+03 -0.29085180417E+03  0.41989496244E+03  0.12500000000E+03 0.  0.
         25    1    1    2    0    0  0.10985652570E+03  0.21313755571E+03  0.50144317582E+02  0.27501913838E+03  0.12500000000E+03 0.  0.
</event>
<event>
 5    0  0.5648525E-005  0.3350418E+03  0.7546771E-02  0.1068928E+00
         21   -1    0    0  502  501  0.00000000000E+00  0.00000000000E+00  0.15238834715E+03  0.15238834715E+03  0.00000000000E+00 0. -1.
         21   -1    0    0  501  502 -0.00000000000E+00 -0.00000000000E+00 -0.73662444418E+03  0.73662444418E+03  0.00000000000E+00 0. -1.
         25    1    1    2    0    0  0.24095050328E+03 -0.64977833654E+01 -0.23409249671E+03  0.35850197103E+03  0.12500000000E+03 0.  0.
         25    1    1    2    0    0 -0.90067018688E+02  0.95498540455E+02 -0.18721880575E+03  0.26059148166E+03  0.12500000000E+03 0.  0.
         25    1    1    2    0    0 -0.15088348459E+03 -0.89000757090E+02 -0.16292479457E+03  0.26991933864E+03  0.12500000000E+03 0.  0.
</event>
<event>
 5    0  0.5648525E-005  0.2754760E+03  0.7546771E-02  0.1098186E+00
         21   -1    0    0  502  501  0.00000000000E+00  0.00000000000E+00  0.11428421375E+03  0.11428421375E+03  0.00000000000E+00 0. -1.
         21   -1    0    0  501  502 -0.00000000000E+00 -0.00000000000E+00 -0.66402041727E+03  0.66402041727E+03  0.00000000000E+00 0. -1.
         25    1    1    2    0    0 -0.82999713441E+01  0.30382686004E+02 -0.40604710217E+03  0.42601789436E+03  0.12500000000E+03 0.  0.
         25    1    1    2    0    0  0.98547447141E+02 -0.39102850423E+02 -0.99185728943E+02  0.19158142153E+03  0.12500000000E+03 0.  0.
         25    1    1    2    0    0 -0.90247475797E+02  0.87201644190E+01 -0.44503372411E+02  0.16070531513E+03  0.12500000000E+03 0.  0.
</event>
<event>
 5    0  0.5648525E-005  0.2837811E+03  0.7546771E-02  0.1093642E+00
         21   -1    0    0  502  501  0.00000000000E+00  0.00000000000E+00  0.14787295064E+03  0.14787295064E+03  0.00000000000E+00 0.  1.
         21   -1    0    0  501  502 -0.00000000000E+00 -0.00000000000E+00 -0.54460064498E+03  0.54460064498E+03  0.00000000000E+00 0.  1.
         25    1    1    2    0    0 -0.65879101139E+02 -0.25715081346E+02 -0.35546989128E+02  0.14795239035E+03  0.12500000000E+03 0.  0.
         25    1    1    2    0    0  0.17241563961E+03 -0.50053299508E+01 -0.10207700140E+03  0.23621371748E+03  0.12500000000E+03 0.  0.
         25    1    1    2    0    0 -0.10653653847E+03  0.30720411297E+02 -0.25910370381E+03  0.30830748779E+03  0.12500000000E+03 0.  0.
</event>
<event>
 5    0  0.5648525E-005  0.3516920E+03  0.7546771E-02  0.1061923E+00
         21   -1    0    0  502  501  0.00000000000E+00  0.00000000000E+00  0.93808199336E+02  0.93808199336E+02  0.00000000000E+00 0.  1.
         21   -1    0    0  501  502 -0.00000000000E+00 -0.00000000000E+00 -0.13185120000E+04  0.13185120000E+04  0.00000000000E+00 0.  1.
         25    1    1    2    0    0  0.35166029823E+02 -0.15248925572E+03 -0.27582379977E+03  0.34087151726E+03  0.12500000000E+03 0.  0.
         25    1    1    2    0    0 -0.95174960987E+02  0.18645067899E+03 -0.87960454977E+03  0.91277121606E+03  0.12500000000E+03 0.  0.
         25    1    1    2    0    0  0.60008931164E+02 -0.33961423269E+02 -0.69275451125E+02  0.15867746601E+03  0.12500000000E+03 0.  0.
</event>
<event>
 5    0  0.5648525E-005  0.2610868E+03  0.7546771E-02  0.1106492E+00
         21   -1    0    0  502  501  0.00000000000E+00  0.00000000000E+00  0.98200614582E+02  0.98200614582E+02  0.00000000000E+00 0.  1.
         21   -1    0    0  501  502 -0.00000000000E+00 -0.00000000000E+00 -0.69415367980E+03  0.69415367980E+03  0.00000000000E+00 0.  1.
         25    1    1    2    0    0  0.11689626017E+03  0.13659321348E+02 -0.26991992120E+03  0.31989541504E+03  0.12500000000E+03 0.  0.
         25    1    1    2    0    0 -0.55547993511E+02 -0.57407484018E+02 -0.43727337257E+02  0.15465535499E+03  0.12500000000E+03 0.  0.
         25    1    1    2    0    0 -0.61348266659E+02  0.43748162670E+02 -0.28230580675E+03  0.31780352434E+03  0.12500000000E+03 0.  0.
</event>
<event>
 5    0  0.5648525E-005  0.4660134E+03  0.7546771E-02  0.1023051E+00
         21   -1    0    0  502  501  0.00000000000E+00  0.00000000000E+00  0.31912406046E+03  0.31912406046E+03  0.00000000000E+00 0.  1.
         21   -1    0    0  501  502 -0.00000000000E+00 -0.00000000000E+00 -0.68051417831E+03  0.68051417831E+03  0.00000000000E+00 0.  1.
         25    1    1    2    0    0  0.22506810995E+03  0.47466920257E+02  0.66725137097E+02  0.27015922445E+03  0.12500000000E+03 0.  0.
         25    1    1    2    0    0  0.69143630355E+02  0.28547205263E+02  0.45885290709E+02  0.15272931759E+03  0.12500000000E+03 0.  0.
         25    1    1    2    0    0 -0.29421174030E+03 -0.76014125519E+02 -0.47400054566E+03  0.57674969674E+03  0.12500000000E+03 0.  0.
</event>
<event>
 5    0  0.5648525E-005  0.2337601E+03  0.7546771E-02  0.1124021E+00
         21   -1    0    0  502  501  0.00000000000E+00  0.00000000000E+00  0.22830407594E+03  0.22830407594E+03  0.00000000000E+00 0.  1.
         21   -1    0    0  501  502 -0.00000000000E+00 -0.00000000000E+00 -0.23934646470E+03  0.23934646470E+03  0.00000000000E+00 0.  1.
         25    1    1    2    0    0 -0.34616288593E+02 -0.19688718369E+02  0.32962071820E+02  0.13526799786E+03  0.12500000000E+03 0.  0.
         25    1    1    2    0    0 -0.28237232397E+02  0.33586569997E+02  0.71391670222E+02  0.15048976561E+03  0.12500000000E+03 0.  0.
         25    1    1    2    0    0  0.62853520990E+02 -0.13897851629E+02 -0.11539613080E+03  0.18189277716E+03  0.12500000000E+03 0.  0.
</event>
<event>
 5    0  0.5648525E-005  0.2706790E+03  0.7546771E-02  0.1100892E+00
         21   -1    0    0  502  501  0.00000000000E+00  0.00000000000E+00  0.89777035771E+03  0.89777035771E+03  0.00000000000E+00 0.  1.
         21   -1    0    0  501  502 -0.00000000000E+00 -0.00000000000E+00 -0.81610081287E+02  0.81610081287E+02  0.00000000000E+00 0.  1.
         25    1    1    2    0    0  0.65504875949E+01  0.12793429752E+03  0.15266660861E+03  0.23524920139E+03  0.12500000000E+03 0.  0.
         25    1    1    2    0    0  0.38668265121E+02 -0.13886318199E+03  0.28629808375E+03  0.34404914009E+03  0.12500000000E+03 0.  0.
         25    1    1    2    0    0 -0.45218752716E+02  0.10928884470E+02  0.37719558406E+03  0.40008209751E+03  0.12500000000E+03 0.  0.
</event>
<event>
 5    0  0.5648525E-005  0.2558586E+03  0.7546771E-02  0.1109657E+00
         21   -1    0    0  502  501  0.00000000000E+00  0.00000000000E+00  0.20525684136E+03  0.20525684136E+03  0.00000000000E+00 0.  1.
         21   -1    0    0  501  502 -0.00000000000E+00 -0.00000000000E+00 -0.31893511888E+03  0.31893511888E+03  0.00000000000E+00 0.  1.
         25    1    1    2    0    0 -0.13324873457E+01 -0.22752264475E+02 -0.82282196700E+02  0.15137635534E+03  0.12500000000E+03 0.  0.
         25    1    1    2    0    0 -0.53908903990E+02  0.78816309281E+02 -0.12240579291E+03  0.19931472268E+03  0.12500000000E+03 0.  0.
         25    1    1    2    0    0  0.55241391336E+02 -0.56064044806E+02  0.91009712098E+02  0.17350088223E+03  0.12500000000E+03 0.  0.
</event>
<event>
 5    0  0.5648525E-005  0.3579045E+03  0.7546771E-02  0.1059417E+00
         21   -1    0    0  502  501  0.00000000000E+00  0.00000000000E+00  0.10060627141E+03  0.10060627141E+03  0.00000000000E+00 0. -1.
         21   -1    0    0  501  502 -0.00000000000E+00 -0.00000000000E+00 -0.12732372664E+04  0.12732372664E+04  0.00000000000E+00 0. -1.
         25    1    1    2    0    0  0.28369805068E+03  0.21637415797E+02 -0.61923451582E+03  0.69284135796E+03  0.12500000000E+03 0.  0.
         25    1    1    2    0    0 -0.21275042187E+03  0.18092743544E+02 -0.33140665154E+03  0.41357642348E+03  0.12500000000E+03 0.  0.
         25    1    1    2    0    0 -0.70947628811E+02 -0.39730159341E+02 -0.22198982760E+03  0.26742575634E+03  0.12500000000E+03 0.  0.
</event>
<event>
 5    0  0.5864914E-005  0.3897158E+03  0.7546771E-02  0.1047400E+00
         21   -1    0    0  502  501  0.00000000000E+00  0.00000000000E+00  0.38113030236E+03  0.38113030236E+03  0.00000000000E+00 0.  1.
         21   -1    0    0  501  502 -0.00000000000E+00 -0.00000000000E+00 -0.39849468538E+03  0.39849468538E+03  0.00000000000E+00 0.  1.
         25    1    1    2    0    0 -0.81221706593E+02 -0.39072720467E+02 -0.16514198446E+03  0.22587721917E+03  0.12500000000E+03 0.  0.
         25    1    1    2    0    0  0.27152168899E+03  0.77052606754E+01  0.46565299330E+02  0.30261646640E+03  0.12500000000E+03 0.  0.
         25    1    1    2    0    0 -0.19029998240E+03  0.31367459791E+02  0.10121230211E+03  0.25113130218E+03  0.12500000000E+03 0.  0.
</event>
<event>
 5    0  0.5648525E-005  0.3512908E+03  0.7546771E-02  0.1062087E+00
         21   -1    0    0  502  501  0.00000000000E+00  0.00000000000E+00  0.12307418276E+03  0.12307418276E+03  0.00000000000E+00 0.  1.
         21   -1    0    0  501  502 -0.00000000000E+00 -0.00000000000E+00 -0.10026895972E+04  0.10026895972E+04  0.00000000000E+00 0.  1.
         25    1    1    2    0    0 -0.10908107737E+03  0.68904699767E+02 -0.28350427957E+03  0.33562809123E+03  0.12500000000E+03 0.  0.
         25    1    1    2    0    0  0.51645533391E+02 -0.32684927176E+02  0.34765848843E+02  0.14341976792E+03  0.12500000000E+03 0.  0.
         25    1    1    2    0    0  0.57435543983E+02 -0.36219772591E+02 -0.63087698370E+03  0.64671592079E+03  0.12500000000E+03 0.  0.
</event>
<event>
 5    0  0.5648525E-005  0.4236417E+03  0.7546771E-02  0.1035888E+00
         21   -1    0    0  502  501  0.00000000000E+00  0.00000000000E+00  0.14813929411E+04  0.14813929411E+04  0.00000000000E+00 0.  1.
         21   -1    0    0  501  502 -0.00000000000E+00 -0.00000000000E+00 -0.12115102763E+03  0.12115102763E+03  0.00000000000E+00 0.  1.
         25    1    1    2    0    0  0.11206600555E+03 -0.82907389912E+02  0.36926161585E+02  0.19084277904E+03  0.12500000000E+03 0.  0.
         25    1    1    2    0    0 -0.39655275301E+02  0.12468580947E+03  0.12098772767E+04  0.12233344255E+04  0.12500000000E+03 0.  0.
         25    1    1    2    0    0 -0.72410730251E+02 -0.41778419553E+02  0.11343847514E+03  0.18836676416E+03  0.12500000000E+03 0.  0.
</event>
<event>
 5    0  0.5648525E-005  0.3721550E+03  0.7546771E-02  0.1053872E+00
         21   -1    0    0  502  501  0.00000000000E+00  0.00000000000E+00  0.10075668792E+04  0.10075668792E+04  0.00000000000E+00 0.  1.
         21   -1    0    0  501  502 -0.00000000000E+00 -0.00000000000E+00 -0.13745919286E+03  0.13745919286E+03  0.00000000000E+00 0.  1.
         25    1    1    2    0    0 -0.14135620368E+03 -0.12406898839E+03  0.46945495087E+02  0.23065899009E+03  0.12500000000E+03 0.  0.
         25    1    1    2    0    0 -0.61476337090E+02  0.41940466272E+02  0.27754102648E+03  0.31335660853E+03  0.12500000000E+03 0.  0.
         25    1    1    2    0    0  0.20283254077E+03  0.82128522121E+02  0.54562116482E+03  0.60101047349E+03  0.12500000000E+03 0.  0.
</event>
<event>
 5    0  0.5648525E-005  0.6977699E+03  0.7546771E-02  0.9721054E-01
         21   -1    0    0  502  501  0.00000000000E+00  0.00000000000E+00  0.16364304256E+04  0.16364304256E+04  0.00000000000E+00 0.  1.
         21   -1    0    0  501  502 -0.00000000000E+00 -0.00000000000E+00 -0.29752737530E+03  0.29752737530E+03  0.00000000000E+00 0.  1.
         25    1    1    2    0    0  0.48271957304E+02  0.92572022197E+02  0.43465853076E+03  0.46416893424E+03  0.12500000000E+03 0.  0.
         25    1    1    2    0    0 -0.23239204047E+03 -0.14527087013E+03 -0.18719261726E+03  0.35464878703E+03  0.12500000000E+03 0.  0.
         25    1    1    2    0    0  0.18412008317E+03  0.52698847934E+02  0.10914371368E+04  0.11151400796E+04  0.12500000000E+03 0.  0.
</event>
<event>
 5    0  0.5648525E-005  0.2874010E+03  0.7546771E-02  0.1091714E+00
         21   -1    0    0  502  501  0.00000000000E+00  0.00000000000E+00  0.22308300830E+03  0.22308300830E+03  0.00000000000E+00 0.  1.
         21   -1    0    0  501  502 -0.00000000000E+00 -0.00000000000E+00 -0.37026287301E+03  0.37026287301E+03  0.00000000000E+00 0.  1.
         25    1    1    2    0    0  0.28178299249E+02 -0.11736871312E+03 -0.11477872614E+03  0.20825126012E+03  0.12500000000E+03 0.  0.
         25    1    1    2    0    0 -0.52276823242E+02 -0.36716664864E+02 -0.10192474332E+03  0.17347804768E+03  0.12500000000E+03 0.  0.
         25    1    1    2    0    0  0.24098523993E+02  0.15408537798E+03  0.69523604747E+02  0.21161657351E+03  0.12500000000E+03 0.  0.
</event>
<event>
 5    0  0.5648525E-005  0.2756758E+03  0.7546771E-02  0.1098074E+00
         21   -1    0    0  502  501  0.00000000000E+00  0.00000000000E+00  0.45632026197E+02  0.45632026197E+02  0.00000000000E+00 0. -1.
         21   -1    0    0  501  502 -0.00000000000E+00 -0.00000000000E+00 -0.16654342309E+04  0.16654342309E+04  0.00000000000E+00 0. -1.
         25    1    1    2    0    0 -0.42289635142E+01 -0.29533515915E+02 -0.84523962948E+03  0.85495329927E+03  0.12500000000E+03 0.  0.
         25    1    1    2    0    0  0.21203986473E+02  0.12799743956E+03 -0.56118675257E+03  0.58939674654E+03  0.12500000000E+03 0.  0.
         25    1    1    2    0    0 -0.16975022959E+02 -0.98463923648E+02 -0.21337582264E+03  0.26671621126E+03  0.12500000000E+03 0.  0.
</event>
<event>
 5    0  0.5648525E-005  0.3814842E+03  0.7546771E-02  0.1050387E+00
         21   -1    0    0  502  501  0.00000000000E+00  0.00000000000E+00  0.47605134459E+03  0.47605134459E+03  0.00000000000E+00 0. -1.
         21   -1    0    0  501  502 -0.00000000000E+00 -0.00000000000E+00 -0.30570270105E+03  0.30570270105E+03  0.00000000000E+00 0. -1.
         25    1    1    2    0    0  0.20843912120E+03  0.33215199774E+02  0.14007564418E+03  0.28248239384E+03  0.12500000000E+03 0.  0.
         25    1    1    2    0    0  0.36507328148E+01 -0.15626127074E+03  0.87054108911E+02  0.21825290482E+03  0.12500000000E+03 0.  0.
         25    1    1    2    0    0 -0.21208985401E+03  0.12304607096E+03 -0.56781109545E+02  0.28101874698E+03  0.12500000000E+03 0.  0.
</event>
<event>
 5    0  0.5648525E-005  0.2594430E+03  0.7546771E-02  0.1107478E+00
         21   -1    0    0  502  501  0.00000000000E+00  0.00000000000E+00  0.32567324325E+03  0.32567324325E+03  0.00000000000E+00 0. -1.
         21   -1    0    0  501  502 -0.00000000000E+00 -0.00000000000E+00 -0.20668157292E+03  0.20668157292E+03  0.00000000000E+00 0. -1.
         25    1    1    2    0    0 -0.27091768129E+02  0.87405096766E+02  0.82229338846E+02  0.17538608556E+03  0.12500000000E+03 0.  0.
         25    1    1    2    0    0 -0.96951358786E+02 -0.20828657877E+02 -0.18835489495E+02  0.16066478962E+03  0.12500000000E+03 0.  0.
         25    1    1    2    0    0  0.12404312691E+03 -0.66576438889E+02  0.55597820983E+02  0.19630394099E+03  0.12500000000E+03 0.  0.
</event>
<event>
 5    0  0.5648525E-005  0.2557847E+03  0.7546771E-02  0.1109703E+00
         21   -1    0    0  502  501  0.00000000000E+00  0.00000000000E+00  0.91207883262E+03  0.91207883262E+03  0.00000000000E+00 0.  1.
         21   -1    0    0  501  502 -0.00000000000E+00 -0.00000000000E+00 -0.71732604545E+02  0.71732604545E+02  0.00000000000E+00 0.  1.
         25    1    1    2    0    0  0.71435346728E+01 -0.12993782274E+03  0.46667374907E+03  0.50034413751E+03  0.12500000000E+03 0.  0.
         25    1    1    2    0    0 -0.60253067394E+02  0.79105194611E+02  0.22346091905E+03  0.27467771349E+03  0.12500000000E+03 0.  0.
         25    1    1    2    0    0  0.53109532721E+02  0.50832628128E+02  0.15021155995E+03  0.20878958617E+03  0.12500000000E+03 0.  0.
</event>
<event>
 5    0  0.5648525E-005  0.2527928E+03  0.7546771E-02  0.1111552E+00
         21   -1    0    0  502  501  0.00000000000E+00  0.00000000000E+00  0.42926151123E+03  0.42926151123E+03  0.00000000000E+00 0. -1.
         21   -1    0    0  501  502 -0.00000000000E+00 -0.00000000000E+00 -0.14887006878E+03  0.14887006878E+03  0.00000000000E+00 0. -1.
         25    1    1    2    0    0 -0.98390074074E+02  0.70490851378E+02  0.14517113301E+02  0.17460043924E+03  0.12500000000E+03 0.  0.
         25    1    1    2    0    0  0.42053671969E+01 -0.62236325021E+02  0.82248291229E+02  0.16211362273E+03  0.12500000000E+03 0.  0.
         25    1    1    2    0    0  0.94184706877E+02 -0.82545263563E+01  0.18362603791E+03  0.24141751804E+03  0.12500000000E+03 0.  0.
</event>
<event>
 5    0  0.5648525E-005  0.2590837E+03  0.7546771E-02  0.1107695E+00
         21   -1    0    0  502  501  0.00000000000E+00  0.00000000000E+00  0.13976875998E+03  0.13976875998E+03  0.00000000000E+00 0.  1.
         21   -1    0    0  501  502 -0.00000000000E+00 -0.00000000000E+00 -0.48025287846E+03  0.48025287846E+03  0.00000000000E+00 0.  1.
         25    1    1    2    0    0 -0.71539167165E+01 -0.79111755074E+02 -0.68376909604E+02  0.16312648492E+03  0.12500000000E+03 0.  0.
         25    1    1    2    0    0 -0.96884482318E+02  0.10191549376E+03 -0.80776841083E+02  0.20475172487E+03  0.12500000000E+03 0.  0.
         25    1    1    2    0    0  0.10403839903E+03 -0.22803738686E+02 -0.19133036779E+03  0.25214342865E+03  0.12500000000E+03 0.  0.
</event>
<event>
 5    0  0.5648525E-005  0.4730922E+03  0.7546771E-02  0.1021051E+00
         21   -1    0    0  502  501  0.00000000000E+00  0.00000000000E+00  0.36360593889E+03  0.36360593889E+03  0.00000000000E+00 0.  1.
         21   -1    0    0  501  502 -0.00000000000E+00 -0.00000000000E+00 -0.61554624495E+03  0.61554624495E+03  0.00000000000E+00 0.  1.
         25    1    1    2    0    0  0.16879653904E+03  0.26121311626E+03 -0.12726509356E+03  0.35853307760E+03  0.12500000000E+03 0.  0.
         25    1    1    2    0    0 -0.21568521658E+03 -0.26776133133E+03 -0.24538401520E+03  0.44051624048E+03  0.12500000000E+03 0.  0.
         25    1    1    2    0    0  0.46888677542E+02  0.65482150766E+01  0.12070880271E+03  0.18010286576E+03  0.12500000000E+03 0.  0.
</event>
<event>
 5    0  0.5648525E-005  0.4015953E+03  0.7546771E-02  0.1043229E+00
         21   -1    0    0  502  501  0.00000000000E+00  0.00000000000E+00  0.15322293999E+04  0.15322293999E+04  0.00000000000E+00 0. -1.
         21   -1    0    0  501  502 -0.00000000000E+00 -0.00000000000E+00 -0.10525759858E+03  0.10525759858E+03  0.00000000000E+00 0. -1.
         25    1    1    2    0    0  0.21214039528E+03  0.25129375652E+03  0.79941426688E+03  0.87340727583E+03  0.12500000000E+03 0.  0.
         25    1    1    2    0    0 -0.58790369133E+02 -0.17116092182E+03  0.27777424698E+03  0.35431045842E+03  0.12500000000E+03 0.  0.
         25    1    1    2    0    0 -0.15335002614E+03 -0.80132834706E+02  0.34978328742E+03  0.40976926419E+03  0.12500000000E+03 0.  0.
</event>
<event>
 5    0  0.5648525E-005  0.2615352E+03  0.7546771E-02  0.1106224E+00
         21   -1    0    0  502  501  0.00000000000E+00  0.00000000000E+00  0.11068976997E+03  0.11068976997E+03  0.00000000000E+00 0. -1.
         21   -1    0    0  501  502 -0.00000000000E+00 -0.00000000000E+00 -0.61794936988E+03  0.61794936988E+03  0.00000000000E+00 0. -1.
         25    1    1    2    0    0  0.66957819889E+02 -0.43522909769E+02 -0.23806000155E+03  0.28049092259E+03  0.12500000000E+03 0.  0.
         25    1    1    2    0    0  0.36047869556E+02  0.38526144803E+02 -0.25068155826E+03  0.28504377977E+03  0.12500000000E+03 0.  0.
         25    1    1    2    0    0 -0.10300568945E+03  0.49967649666E+01 -0.18518040102E+02  0.16310443749E+03  0.12500000000E+03 0.  0.
</event>
<event>
 5    0  0.5648525E-005  0.3933784E+03  0.7546771E-02  0.1046097E+00
         21   -1    0    0  502  501  0.00000000000E+00  0.00000000000E+00  0.12796296521E+04  0.12796296521E+04  0.00000000000E+00 0.  1.
         21   -1    0    0  501  502 -0.00000000000E+00 -0.00000000000E+00 -0.12093072052E+03  0.12093072052E+03  0.00000000000E+00 0.  1.
         25    1    1    2    0    0  0.10676378385E+03 -0.24079459561E+02  0.45882161194E+02  0.17236153466E+03  0.12500000000E+03 0.  0.
         25    1    1    2    0    0  0.34436516824E+02  0.12190123765E+03  0.12420762885E+03  0.21702147473E+03  0.12500000000E+03 0.  0.
         25    1    1    2    0    0 -0.14120030068E+03 -0.97821778087E+02  0.98860914149E+03  0.10111773632E+04  0.12500000000E+03 0.  0.
</event>
<event>
 5    0  0.5648525E-005  0.3317091E+03  0.7546771E-02  0.1070383E+00
         21   -1    0    0  502  501  0.00000000000E+00  0.00000000000E+00  0.13040834058E+04  0.13040834058E+04  0.00000000000E+00 0. -1.
         21   -1    0    0  501  502 -0.00000000000E+00 -0.00000000000E+00 -0.84374153814E+02  0.84374153814E+02  0.00000000000E+00 0. -1.
         25    1    1    2    0    0  0.20674190113E+03 -0.43383804778E+02  0.26941006702E+03  0.36446008342E+03  0.12500000000E+03 0.  0.
         25    1    1    2    0    0 -0.16692688408E+03 -0.32709161062E+02  0.70195232156E+03  0.73300514022E+03  0.12500000000E+03 0.  0.
         25    1    1    2    0    0 -0.39815017042E+02  0.76092965840E+02  0.24834686346E+03  0.29099233602E+03  0.12500000000E+03 0.  0.
</event>
<event>
 5    0  0.5648525E-005  0.2484161E+03  0.7546771E-02  0.1114310E+00
         21   -1    0    0  502  501  0.00000000000E+00  0.00000000000E+00  0.31519829428E+03  0.31519829428E+03  0.00000000000E+00 0.  1.
         21   -1    0    0  501  502 -0.00000000000E+00 -0.00000000000E+00 -0.19578332206E+03  0.19578332206E+03  0.00000000000E+00 0.  1.
         25    1    1    2    0    0 -0.63133346055E+02  0.75935429153E+01  0.35116988354E+02  0.14457414758E+03  0.12500000000E+03 0.  0.
         25    1    1    2    0    0 -0.43646218493E+02 -0.64508452082E+02 -0.39975198225E+02  0.15260848355E+03  0.12500000000E+03 0.  0.
         25    1    1    2    0    0  0.10677956455E+03  0.56914909167E+02  0.12427318208E+03  0.21379898521E+03  0.12500000000E+03 0.  0.
</event>
<event>
 5    0  0.5648525E-005  0.3484555E+03  0.7546771E-02  0.1063251E+00
         21   -1    0    0  502  501  0.00000000000E+00  0.00000000000E+00  0.42823374838E+03  0.42823374838E+03  0.00000000000E+00 0. -1.
         21   -1    0    0  501  502 -0.00000000000E+00 -0.00000000000E+00 -0.28353957374E+03  0.28353957374E+03  0.00000000000E+00 0. -1.
         25    1    1    2    0    0 -0.12132236103E+03 -0.64104853592E+01  0.14427439001E+03  0.22627485327E+03  0.12500000000E+03 0.  0.
         25    1    1    2    0    0  0.87659899807E+02 -0.58914255162E+02 -0.18702675687E+03  0.24851389353E+03  0.12500000000E+03 0.  0.
         25    1    1    2    0    0  0.33662461223E+02  0.65324740521E+02  0.18744654149E+03  0.23698457531E+03  0.12500000000E+03 0.  0.
</event>
<event>
 5    0  0.5648525E-005  0.3239332E+03  0.7546771E-02  0.1073853E+00
         21   -1    0    0  502  501  0.00000000000E+00  0.00000000000E+00  0.84416241382E+03  0.84416241382E+03  0.00000000000E+00 0. -1.
         21   -1    0    0  501  502 -0.00000000000E+00 -0.00000000000E+00 -0.12430396832E+03  0.12430396832E+03  0.00000000000E+00 0. -1.
         25    1    1    2    0    0  0.11908234629E+03 -0.97061761831E+02  0.21909519588E+03  0.29534606086E+03  0.12500000000E+03 0.  0.
         25    1    1    2    0    0  0.34635798662E+02 -0.78013613908E+02  0.31655274766E+03  0.35087947297E+03  0.12500000000E+03 0.  0.
         25    1    1    2    0    0 -0.15371814496E+03  0.17507537574E+03  0.18421050196E+03  0.32224084830E+03  0.12500000000E+03 0.  0.
</event>
<event>
 5    0  0.5648525E-005  0.4719662E+03  0.7546771E-02  0.1021367E+00
         21   -1    0    0  502  501  0.00000000000E+00  0.00000000000E+00  0.95932898489E+02  0.95932898489E+02  0.00000000000E+00 0. -1.
         21   -1    0    0  501  502 -0.00000000000E+00 -0.00000000000E+00 -0.23219576726E+04  0.23219576726E+04  0.00000000000E+00 0. -1.
         25    1    1    2    0    0  0.11215908980E+03  0.42513620315E+00 -0.92944541149E+02  0.19194668503E+03  0.12500000000E+03 0.  0.
         25    1    1    2    0    0  0.15841400108E+03 -0.15788090792E+03 -0.54146701394E+03  0.59902663047E+03  0.12500000000E+03 0.  0.
         25    1    1    2    0    0 -0.27057309089E+03  0.15745577172E+03 -0.15916132190E+04  0.16269172556E+04  0.12500000000E+03 0.  0.
</event>
<event>
 5    0  0.5648525E-005  0.2495566E+03  0.7546771E-02  0.1113585E+00
         21   -1    0    0  502  501  0.00000000000E+00  0.00000000000E+00  0.28946626568E+04  0.28946626568E+04  0.00000000000E+00 0.  1.
         21   -1    0    0  501  502 -0.00000000000E+00 -0.00000000000E+00 -0.21514947998E+02  0.21514947998E+02  0.00000000000E+00 0.  1.
         25    1    1    2    0    0 -0.95394855015E+02  0.11329398498E+03  0.94699460933E+03  0.96662272655E+03  0.12500000000E+03 0.  0.
         25    1    1    2    0    0  0.14627476539E+02 -0.25780691614E+02  0.80449324726E+03  0.81468582412E+03  0.12500000000E+03 0.  0.
         25    1    1    2    0    0  0.80767378476E+02 -0.87513293371E+02  0.11216598522E+04  0.11348690541E+04  0.12500000000E+03 0.  0.
</event>
<event>
 5    0  0.5648525E-005  0.7928444E+03  0.7546771E-02  0.9570433E-01
         21   -1    0    0  502  501  0.00000000000E+00  0.00000000000E+00  0.13277674395E+04  0.13277674395E+04  0.00000000000E+00 0.  1.
         21   -1    0    0  501  502 -0.00000000000E+00 -0.00000000000E+00 -0.47342795237E+03  0.47342795237E+03  0.00000000000E+00 0.  1.
         25    1    1    2    0    0 -0.13869634337E+03  0.37818986449E+03 -0.23619350692E+03  0.48340109844E+03  0.12500000000E+03 0.  0.
         25    1    1    2    0    0  0.31405333801E+03 -0.84920433509E+02  0.35661922670E+03  0.49864140622E+03  0.12500000000E+03 0.  0.
         25    1    1    2    0    0 -0.17535699463E+03 -0.29326943098E+03  0.73391376735E+03  0.81915288720E+03  0.12500000000E+03 0.  0.
</event>
<event>
 5    0  0.5648525E-005  0.2717503E+03  0.7546771E-02  0.1100282E+00
         21   -1    0    0  502  501  0.00000000000E+00  0.00000000000E+00  0.40339050313E+02  0.40339050313E+02  0.00000000000E+00 0. -1.
         21   -1    0    0  501  502 -0.00000000000E+00 -0.00000000000E+00 -0.18306884149E+04  0.18306884149E+04  0.00000000000E+00 0. -1.
         25    1    1    2    0    0 -0.59318720195E+02 -0.43873624553E+02 -0.59296734710E+03  0.61047430759E+03  0.12500000000E+03 0.  0.
         25    1    1    2    0    0  0.86964460270E+02 -0.79671085562E+01 -0.18940591278E+03  0.24315816245E+03  0.12500000000E+03 0.  0.
         25    1    1    2    0    0 -0.27645740075E+02  0.51840733109E+02 -0.10079761048E+04  0.10173949952E+04  0.12500000000E+03 0.  0.
</event>
<event>
 5    0  0.5648525E-005  0.4062176E+03  0.7546771E-02  0.1041648E+00
         21   -1    0    0  502  501  0.00000000000E+00  0.00000000000E+00  0.27768258451E+04  0.27768258451E+04  0.00000000000E+00 0. -1.
         21   -1    0    0  501  502 -0.00000000000E+00 -0.00000000000E+00 -0.59424941566E+02  0.59424941566E+02  0.00000000000E+00 0. -1.
         25    1    1    2    0    0 -0.16759283154E+03  0.13220969272E+03  0.10901208897E+04  0.11178351015E+04  0.12500000000E+03 0.  0.
         25    1    1    2    0    0 -0.96432116901E+02 -0.14490631751E+03  0.36994157679E+03  0.42752633166E+03  0.12500000000E+03 0.  0.
         25    1    1    2    0    0  0.26402494844E+03  0.12696624789E+02  0.12573384371E+04  0.12908893535E+04  0.12500000000E+03 0.  0.
</event>
<event>
 5    0  0.8226009E-005  0.2917342E+03  0.7546771E-02  0.1089447E+00
         21   -1    0    0  502  501  0.00000000000E+00  0.00000000000E+00  0.53365664369E+03  0.53365664369E+03  0.00000000000E+00 0. -1.
         21   -1    0    0  501  502 -0.00000000000E+00 -0.00000000000E+00 -0.15948241208E+03  0.15948241208E+03  0.00000000000E+00 0. -1.
         25    1    1    2    0    0 -0.80617696592E+02 -0.35596816825E+02  0.28701921552E+03  0.32522511658E+03  0.12500000000E+03 0.  0.
         25    1    1    2    0    0 -0.68358822236E+02  0.15145802585E+02 -0.20438881832E+02  0.14472412309E+03  0.12500000000E+03 0.  0.
         25    1    1    2    0    0  0.14897651883E+03  0.20451014241E+02  0.10759389791E+03  0.22318981611E+03  0.12500000000E+03 0.  0.
</event>
<event>
 5    0  0.5648525E-005  0.2888441E+03  0.7546771E-02  0.1090954E+00
         21   -1    0    0  502  501  0.00000000000E+00  0.00000000000E+00  0.10949296502E+03  0.10949296502E+03  0.00000000000E+00 0. -1.
         21   -1    0    0  501  502 -0.00000000000E+00 -0.00000000000E+00 -0.76197496679E+03  0.76197496679E+03  0.00000000000E+00 0. -1.
         25    1    1    2    0    0 -0.19083364832E+02  0.36729043808E+02 -0.20296895638E+03  0.24193923767E+03  0.12500000000E+03 0.  0.
         25    1    1    2    0    0  0.18525750465E+02  0.12125356941E+03 -0.50049105794E+02  0.18214155077E+03  0.12500000000E+03 0.  0.
         25    1    1    2    0    0  0.55761436759E+00 -0.15798261322E+03 -0.39946393960E+03  0.44738714337E+03  0.12500000000E+03 0.  0.
</event>
<event>
 5    0  0.5648525E-005  0.2907701E+03  0.7546771E-02  0.1089948E+00
         21   -1    0    0  502  501  0.00000000000E+00  0.00000000000E+00  0.91352539359E+02  0.91352539359E+02  0.00000000000E+00 0. -1.
         21   -1    0    0  501  502 -0.00000000000E+00 -0.00000000000E+00 -0.92550495414E+03  0.92550495414E+03  0.00000000000E+00 0. -1.
         25    1    1    2    0    0  0.43624419147E+02 -0.73361895028E+02 -0.79037470263E+02  0.17075414869E+03  0.12500000000E+03 0.  0.
         25    1    1    2    0    0 -0.14126149755E+03  0.34403903125E+02 -0.24887814330E+03  0.31417156054E+03  0.12500000000E+03 0.  0.
         25    1    1    2    0    0  0.97637078401E+02  0.38957991903E+02 -0.50623680121E+03  0.53193178427E+03  0.12500000000E+03 0.  0.
</event>
<event>
 5    0  0.5648525E-005  0.2828307E+03  0.7546771E-02  0.1094153E+00
         21   -1    0    0  502  501  0.00000000000E+00  0.00000000000E+00  0.45866923887E+02  0.45866923887E+02  0.00000000000E+00 0.  1.
         21   -1    0    0  501  502 -0.00000000000E+00 -0.00000000000E+00 -0.17440279220E+04  0.17440279220E+04  0.00000000000E+00 0.  1.
         25    1    1    2    0    0 -0.48793857668E+02  0.13596674072E+03 -0.91111593306E+03  0.93092697812E+03  0.12500000000E+03 0.  0.
         25    1    1    2    0    0  0.91808185015E+02 -0.11267127396E+03 -0.32009686984E+03  0.37310932029E+03  0.12500000000E+03 0.  0.
         25    1    1    2    0    0 -0.43014327347E+02 -0.23295466753E+02 -0.46694819520E+03  0.48585854745E+03  0.12500000000E+03 0.  0.
</event>
<event>
 5    0  0.5648525E-005  0.5406476E+03  0.7546771E-02  0.1003682E+00
         21   -1    0    0  502  501  0.00000000000E+00  0.00000000000E+00  0.27732425722E+03  0.27732425722E+03  0.00000000000E+00 0. -1.
         21   -1    0    0  501  502 -0.00000000000E+00 -0.00000000000E+00 -0.10540003454E+04  0.10540003454E+04  0.00000000000E+00 0. -1.
         25    1    1    2    0    0 -0.17685423597E+03  0.16181016824E+02 -0.81604475045E+02  0.23199900093E+03  0.12500000000E+03 0.  0.
         25    1    1    2    0    0  0.34047661897E+03 -0.84582249526E+02 -0.13144216407E+01  0.37243148726E+03  0.12500000000E+03 0.  0.
         25    1    1    2    0    0 -0.16362238300E+03  0.68401232702E+02 -0.69375719152E+03  0.72689411446E+03  0.12500000000E+03 0.  0.
</event>
<event>
 5    0  0.5648525E-005  0.2573654E+03  0.7546771E-02  0.1108737E+00
         21   -1    0    0  502  501  0.00000000000E+00  0.00000000000E+00  0.22565630126E+03  0.22565630126E+03  0.00000000000E+00 0.  1.
         21   -1    0    0  501  502 -0.00000000000E+00 -0.00000000000E+00 -0.29353020939E+03  0.29353020939E+03  0.00000000000E+00 0.  1.
         25    1    1    2    0    0 -0.13178623431E+02 -0.89936244815E+02 -0.11416352836E+03  0.19214711930E+03  0.12500000000E+03 0.  0.
         25    1    1    2    0    0  0.57722402555E+00 -0.50549793263E+02  0.27754113830E+02  0.13766228830E+03  0.12500000000E+03 0.  0.
         25    1    1    2    0    0  0.12601399406E+02  0.14048603808E+03  0.18535506403E+02  0.18937710305E+03  0.12500000000E+03 0.  0.
</event>
<event>
 5    0  0.5648525E-005  0.3131212E+03  0.7546771E-02  0.1078859E+00
         21   -1    0    0  502  501  0.00000000000E+00  0.00000000000E+00  0.26896337854E+03  0.26896337854E+03  0.00000000000E+00 0.  1.
         21   -1    0    0  501  502 -0.00000000000E+00 -0.00000000000E+00 -0.36452884486E+03  0.36452884486E+03  0.00000000000E+00 0.  1.
         25    1    1    2    0    0 -0.24446950876E+02  0.69625440174E+02 -0.76280349568E+02  0.16397880063E+03  0.12500000000E+03 0.  0.
         25    1    1    2    0    0  0.11263779024E+03 -0.15968334635E+03  0.10314485287E+03  0.25386985557E+03  0.12500000000E+03 0.  0.
         25    1    1    2    0    0 -0.88190839368E+02  0.90057906179E+02 -0.12242996962E+03  0.21564356720E+03  0.12500000000E+03 0.  0.
</event>
<event>
 5    0  0.5648525E-005  0.3463903E+03  0.7546771E-02  0.1064106E+00
         21   -1    0    0  502  501  0.00000000000E+00  0.00000000000E+00  0.59087623278E+02  0.59087623278E+02  0.00000000000E+00 0.  1.
         21   -1    0    0  501  502 -0.00000000000E+00 -0.00000000000E+00 -0.20306492965E+04  0.20306492965E+04  0.00000000000E+00 0.  1.
         25    1    1    2    0    0 -0.26335892300E+03 -0.30160027943E+02 -0.10884217264E+04  0.11271887172E+04  0.12500000000E+03 0.  0.
         25    1    1    2    0    0  0.16536700763E+03 -0.16239414658E+02 -0.38380282794E+03  0.43650839228E+03  0.12500000000E+03 0.  0.
         25    1    1    2    0    0  0.97991915368E+02  0.46399442601E+02 -0.49933711887E+03  0.52603981031E+03  0.12500000000E+03 0.  0.
</event>
<event>
 5    0  0.5648525E-005  0.3231785E+03  0.7546771E-02  0.1074196E+00
         21   -1    0    0  502  501  0.00000000000E+00  0.00000000000E+00  0.16001073026E+03  0.16001073026E+03  0.00000000000E+00 0. -1.
         21   -1    0    0  501  502 -0.00000000000E+00 -0.00000000000E+00 -0.65273341782E+03  0.65273341782E+03  0.00000000000E+00 0. -1.
         25    1    1    2    0    0  0.77744816958E+02 -0.15830292465E+03 -0.29835669238E+03  0.36843695310E+03  0.12500000000E+03 0.  0.
         25    1    1    2    0    0 -0.13350478187E+03  0.51729126498E+02 -0.19293700822E+03  0.27083042379E+03  0.12500000000E+03 0.  0.
         25    1    1    2    0    0  0.55759964912E+02  0.10657379815E+03 -0.14289869629E+01  0.17347677119E+03  0.12500000000E+03 0.  0.
</event>
<event>
 5    0  0.5648525E-005  0.3314069E+03  0.7546771E-02  0.1070516E+00
         21   -1    0    0  502  501  0.00000000000E+00  0.00000000000E+00  0.44665279282E+03  0.44665279282E+03  0.00000000000E+00 0. -1.
         21   -1    0    0  501  502 -0.00000000000E+00 -0.00000000000E+00 -0.24589691607E+03  0.24589691607E+03  0.00000000000E+00 0. -1.
         25    1    1    2    0    0 -0.71123123587E+02 -0.16682459571E+03 -0.75802869405E+02  0.23293780168E+03  0.12500000000E+03 0.  0.
         25    1    1    2    0    0  0.81543387980E+02  0.18767881282E+03  0.17438550478E+03  0.29649277425E+03  0.12500000000E+03 0.  0.
         25    1    1    2    0    0 -0.10420264393E+02 -0.20854217110E+02  0.10217324138E+03  0.16311913295E+03  0.12500000000E+03 0.  0.
</event>
<event>
 5    0  0.5648525E-005  0.2728183E+03  0.7546771E-02  0.1099677E+00
         21   -1    0    0  502  501  0.00000000000E+00  0.00000000000E+00  0.11754044329E+04  0.11754044329E+04  0.00000000000E+00 0. -1.
         21   -1    0    0  501  502 -0.00000000000E+00 -0.00000000000E+00 -0.63322749690E+02  0.63322749690E+02  0.00000000000E+00 0. -1.
         25    1    1    2    0    0  0.34262712604E+02  0.82624732544E+02  0.21720982769E+03  0.26609376007E+03  0.12500000000E+03 0.  0.
         25    1    1    2    0    0 -0.12414552809E+03  0.17656959038E+02  0.59652061655E+03  0.62224249800E+03  0.12500000000E+03 0.  0.
         25    1    1    2    0    0  0.89882815487E+02 -0.10028169158E+03  0.29835123892E+03  0.35039092447E+03  0.12500000000E+03 0.  0.
</event>
<event>
 5    0  0.5648525E-005  0.2671759E+03  0.7546771E-02  0.1102907E+00
         21   -1    0    0  502  501  0.00000000000E+00  0.00000000000E+00  0.85246644781E+02  0.85246644781E+02  0.00000000000E+00 0. -1.
         21   -1    0    0  501  502 -0.00000000000E+00 -0.00000000000E+00 -0.83736990074E+03  0.83736990074E+03  0.00000000000E+00 0. -1.
         25    1    1    2    0    0 -0.55945332209E+02  0.11938248232E+01 -0.77177171572E+02  0.15720248479E+03  0.12500000000E+03 0.  0.
         25    1    1    2    0    0 -0.97346816688E+02  0.28468237078E+02 -0.30089288560E+03  0.34124532502E+03  0.12500000000E+03 0.  0.
         25    1    1    2    0    0  0.15329214890E+03 -0.29662061901E+02 -0.37405319878E+03  0.42416873571E+03  0.12500000000E+03 0.  0.
</event>
<event>
 5    0  0.5648525E-005  0.4327698E+03  0.7546771E-02  0.1032989E+00
         21   -1    0    0  502  501  0.00000000000E+00  0.00000000000E+00  0.53460901692E+03  0.53460901692E+03  0.00000000000E+00 0. -1.
         21   -1    0    0  501  502 -0.00000000000E+00 -0.00000000000E+00 -0.35033022835E+03  0.35033022835E+03  0.00000000000E+00 0. -1.
         25    1    1    2    0    0 -0.28630233755E+03 -0.18726193110E+03  0.44251947766E+01  0.36425354037E+03  0.12500000000E+03 0.  0.
         25    1    1    2    0    0  0.27185684470E+03  0.14284181013E+03  0.51512906322E+02  0.33554210801E+03  0.12500000000E+03 0.  0.
         25    1    1    2    0    0  0.14445492850E+02  0.44420120967E+02  0.12834068746E+03  0.18514359689E+03  0.12500000000E+03 0.  0.
</event>
<event>
 5    0  0.5648525E-005  0.3121987E+03  0.7546771E-02  0.1079297E+00
         21   -1    0    0  502  501  0.00000000000E+00  0.00000000000E+00  0.12341501038E+04  0.12341501038E+04  0.00000000000E+00 0.  1.
         21   -1    0    0  501  502 -0.00000000000E+00 -0.00000000000E+00 -0.78975812182E+02  0.78975812182E+02  0.00000000000E+00 0.  1.
         25    1    1    2    0    0 -0.86664909688E+01 -0.14978834974E+03  0.41844899136E+03  0.46177507096E+03  0.12500000000E+03 0.  0.
         25    1    1    2    0    0 -0.39817688626E+02 -0.25855919337E+02  0.74140027311E+02  0.15289120492E+03  0.12500000000E+03 0.  0.
         25    1    1    2    0    0  0.48484179595E+02  0.17564426908E+03  0.66258527293E+03  0.69845964009E+03  0.12500000000E+03 0.  0.
</event>
<event>
 5    0  0.5648525E-005  0.4469306E+03  0.7546771E-02  0.1028641E+00
         21   -1    0    0  502  501  0.00000000000E+00  0.00000000000E+00  0.15951074738E+04  0.15951074738E+04  0.00000000000E+00 0. -1.
         21   -1    0    0  501  502 -0.00000000000E+00 -0.00000000000E+00 -0.12522477561E+03  0.12522477561E+03  0.00000000000E+00 0. -1.
         25    1    1    2    0    0  0.80006177490E+02 -0.12080294593E+03  0.13845773368E+03  0.23619882345E+03  0.12500000000E+03 0.  0.
         25    1    1    2    0    0  0.46279394053E+02 -0.26022211725E+02  0.29817848908E+01  0.13584118984E+03  0.12500000000E+03 0.  0.
         25    1    1    2    0    0 -0.12628557154E+03  0.14682515766E+03  0.13284431796E+04  0.13482922361E+04  0.12500000000E+03 0.  0.
</event>
<event>
 5    0  0.5648525E-005  0.3976612E+03  0.7546771E-02  0.1044593E+00
         21   -1    0    0  502  501  0.00000000000E+00  0.00000000000E+00  0.73512181944E+03  0.73512181944E+03  0.00000000000E+00 0.  1.
         21   -1    0    0  501  502 -0.00000000000E+00 -0.00000000000E+00 -0.21511327886E+03  0.21511327886E+03  0.00000000000E+00 0.  1.
         25    1    1    2    0    0  0.21075189041E+03 -0.15035177010E+03  0.49315385675E+03  0.57083074594E+03  0.12500000000E+03 0.  0.
         25    1    1    2    0    0 -0.78145214954E+02  0.34146141063E+02 -0.33540193430E+02  0.15499218737E+03  0.12500000000E+03 0.  0.
         25    1    1    2    0    0 -0.13260667546E+03  0.11620562904E+03  0.60394877260E+02  0.22441216499E+03  0.12500000000E+03 0.  0.
</event>
<event>
 5    0  0.5648525E-005  0.2316671E+03  0.7546771E-02  0.1125472E+00
         21   -1    0    0  502  501  0.00000000000E+00  0.00000000000E+00  0.18940251721E+03  0.18940251721E+03  0.00000000000E+00 0.  1.
         21   -1    0    0  501  502 -0.00000000000E+00 -0.00000000000E+00 -0.28336293564E+03  0.28336293564E+03  0.00000000000E+00 0.  1.
         25    1    1    2    0    0 -0.81565564426E+01  0.32950297378E+01 -0.68627768470E+02  0.14287112108E+03  0.12500000000E+03 0.  0.
         25    1    1    2    0    0 -0.76927313272E+02 -0.71175259914E+02 -0.15488325341E+02  0.16385547709E+03  0.12500000000E+03 0.  0.
         25    1    1    2    0    0  0.85083869715E+02  0.67880230176E+02 -0.98443246219E+01  0.16603885467E+03  0.12500000000E+03 0.  0.
</event>
<event>
 5    0  0.5648525E-005  0.3832734E+03  0.7546771E-02  0.1049730E+00
         21   -1    0    0  502  501  0.00000000000E+00  0.00000000000E+00  0.53361326610E+03  0.53361326610E+03  0.00000000000E+00 0. -1.
         21   -1    0    0  501  502 -0.00000000000E+00 -0.00000000000E+00 -0.27529021711E+03  0.27529021711E+03  0.00000000000E+00 0. -1.
         25    1    1    2    0    0 -0.32422406340E+02 -0.12007493778E+03  0.32979821608E+02  0.17939306494E+03  0.12500000000E+03 0.  0.
         25    1    1    2    0    0  0.12989679181E+03  0.27281289211E+03  0.24487504649E+03  0.40852030429E+03  0.12500000000E+03 0.  0.
         25    1    1    2    0    0 -0.97474385475E+02 -0.15273795434E+03 -0.19531819102E+02  0.22099011398E+03  0.12500000000E+03 0.  0.
</event>
<event>
 5    0  0.5648525E-005  0.2791696E+03  0.7546771E-02  0.1096143E+00
         21   -1    0    0  502  501  0.00000000000E+00  0.00000000000E+00  0.30043415660E+03  0.30043415660E+03  0.00000000000E+00 0.  1.
         21   -1    0    0  501  502 -0.00000000000E+00 -0.00000000000E+00 -0.25941013411E+03  0.25941013411E+03  0.00000000000E+00 0.  1.
         25    1    1    2    0    0  0.10184493214E+03 -0.26142191005E+02 -0.11663088841E+03  0.20070766922E+03  0.12500000000E+03 0.  0.
         25    1    1    2    0    0 -0.29672269753E+02  0.93039109211E+02  0.47321843515E+02  0.16553270465E+03  0.12500000000E+03 0.  0.
         25    1    1    2    0    0 -0.72172662383E+02 -0.66896918207E+02  0.11033306738E+03  0.19360391685E+03  0.12500000000E+03 0.  0.
</event>
<event>
 5    0  0.6472791E-005  0.3466724E+03  0.7546771E-02  0.1063989E+00
         21   -1    0    0  502  501  0.00000000000E+00  0.00000000000E+00  0.18188137621E+03  0.18188137621E+03  0.00000000000E+00 0.  1.
         21   -1    0    0  501  502 -0.00000000000E+00 -0.00000000000E+00 -0.66077005345E+03  0.66077005345E+03  0.00000000000E+00 0.  1.
         25    1    1    2    0    0  0.13349541842E+03 -0.91309819631E+02  0.13953217613E+02  0.20488582719E+03  0.12500000000E+03 0.  0.
         25    1    1    2    0    0 -0.29864520000E+01 -0.24766281680E+02 -0.36774446566E+03  0.38920852974E+03  0.12500000000E+03 0.  0.
         25    1    1    2    0    0 -0.13050896642E+03  0.11607610131E+03 -0.12509742919E+03  0.24855707273E+03  0.12500000000E+03 0.  0.
</event>
<event>
 5    0  0.5648525E-005  0.3652429E+03  0.7546771E-02  0.1056527E+00
         21   -1    0    0  502  501  0.00000000000E+00  0.00000000000E+00  0.22579470712E+04  0.22579470712E+04  0.00000000000E+00 0.  1.
         21   -1    0    0  501  502 -0.00000000000E+00 -0.00000000000E+00 -0.59081279461E+02  0.59081279461E+02  0.00000000000E+00 0.  1.
         25    1    1    2    0    0 -0.27170944890E+02 -0.57539634961E+02  0.11985128538E+04  0.12066926413E+04  0.12500000000E+03 0.  0.
         25    1    1    2    0    0 -0.13577300108E+03 -0.62876862515E+02  0.70238395238E+03  0.72894171525E+03  0.12500000000E+03 0.  0.
         25    1    1    2    0    0  0.16294394597E+03  0.12041649748E+03  0.29796898554E+03  0.38139399410E+03  0.12500000000E+03 0.  0.
</event>
<event>
 5    0  0.5648525E-005  0.3298149E+03  0.7546771E-02  0.1071219E+00
         21   -1    0    0  502  501  0.00000000000E+00  0.00000000000E+00  0.22584024559E+03  0.22584024559E+03  0.00000000000E+00 0.  1.
         21   -1    0    0  501  502 -0.00000000000E+00 -0.00000000000E+00 -0.48165855355E+03  0.48165855355E+03  0.00000000000E+00 0.  1.
         25    1    1    2    0    0  0.61560957469E+02  0.63069229267E+02 -0.18512500555E+03  0.24013276920E+03  0.12500000000E+03 0.  0.
         25    1    1    2    0    0  0.13059553593E+03  0.20490375658E+02 -0.12066355206E+03  0.21831111355E+03  0.12500000000E+03 0.  0.
         25    1    1    2    0    0 -0.19215649340E+03 -0.83559604924E+02  0.49970249653E+02  0.24905491640E+03  0.12500000000E+03 0.  0.
</event>
<event>
 5    0  0.5648525E-005  0.3647510E+03  0.7546771E-02  0.1056718E+00
         21   -1    0    0  502  501  0.00000000000E+00  0.00000000000E+00  0.83707271826E+03  0.83707271826E+03  0.00000000000E+00 0. -1.
         21   -1    0    0  501  502 -0.00000000000E+00 -0.00000000000E+00 -0.15893876900E+03  0.15893876900E+03  0.00000000000E+00 0. -1.
         25    1    1    2    0    0 -0.62934581895E+02 -0.18240708176E+03  0.23703104055E+02  0.23112754534E+03  0.12500000000E+03 0.  0.
         25    1    1    2    0    0  0.12988009365E+03  0.41053627766E+02  0.22605674475E+03  0.29202892138E+03  0.12500000000E+03 0.  0.
         25    1    1    2    0    0 -0.66945511753E+02  0.14135345399E+03  0.42837410046E+03  0.47285502054E+03  0.12500000000E+03 0.  0.
</event>
<event>
 5    0  0.5648525E-005  0.2605351E+03  0.7546771E-02  0.1106822E+00
         21   -1    0    0  502  501  0.00000000000E+00  0.00000000000E+00  0.26653992523E+03  0.26653992523E+03  0.00000000000E+00 0.  1.
         21   -1    0    0  501  502 -0.00000000000E+00 -0.00000000000E+00 -0.25466559573E+03  0.25466559573E+03  0.00000000000E+00 0.  1.
         25    1    1    2    0    0  0.79993638724E+02  0.61957910174E+02  0.70139059393E+02  0.17544871764E+03  0.12500000000E+03 0.  0.
         25    1    1    2    0    0  0.68908724913E+00 -0.12618027948E+03 -0.44638122704E+02  0.18313792554E+03  0.12500000000E+03 0.  0.
         25    1    1    2    0    0 -0.80682725973E+02  0.64222369309E+02 -0.13626607188E+02  0.16261887779E+03  0.12500000000E+03 0.  0.
</event>
<event>
 5    0  0.5648525E-005  0.6235582E+03  0.7546771E-02  0.9857701E-01
         21   -1    0    0  502  501  0.00000000000E+00  0.00000000000E+00  0.14822576919E+04  0.14822576919E+04  0.00000000000E+00 0. -1.
         21   -1    0    0  501  502 -0.00000000000E+00 -0.00000000000E+00 -0.26231935563E+03  0.26231935563E+03  0.00000000000E+00 0. -1.
         25    1    1    2    0    0 -0.39283912972E+03  0.36503389223E+03  0.54312161497E+03  0.77341994606E+03  0.12500000000E+03 0.  0.
         25    1    1    2    0    0  0.24645223541E+03 -0.29434030811E+03  0.64883697736E+03  0.76419195528E+03  0.12500000000E+03 0.  0.
         25    1    1    2    0    0  0.14638689432E+03 -0.70693584120E+02  0.27979743938E+02  0.20696514618E+03  0.12500000000E+03 0.  0.
</event>
<event>
 5    0  0.6810274E-005  0.3568952E+03  0.7546771E-02  0.1059820E+00
         21   -1    0    0  502  501  0.00000000000E+00  0.00000000000E+00  0.27186806273E+03  0.27186806273E+03  0.00000000000E+00 0.  1.
         21   -1    0    0  501  502 -0.00000000000E+00 -0.00000000000E+00 -0.46851468437E+03  0.46851468437E+03  0.00000000000E+00 0.  1.
         25    1    1    2    0    0  0.22268371694E+03  0.79801651214E+02 -0.22417333845E+03  0.34904874587E+03  0.12500000000E+03 0.  0.
         25    1    1    2    0    0 -0.50828094931E+02 -0.53606650030E+02  0.86802080736E+02  0.16916491770E+03  0.12500000000E+03 0.  0.
         25    1    1    2    0    0 -0.17185562201E+03 -0.26195001184E+02 -0.59275363932E+02  0.22216908352E+03  0.12500000000E+03 0.  0.
</event>
<event>
 5    0  0.5648525E-005  0.2545937E+03  0.7546771E-02  0.1110436E+00
         21   -1    0    0  502  501  0.00000000000E+00  0.00000000000E+00  0.69990196100E+03  0.69990196100E+03  0.00000000000E+00 0. -1.
         21   -1    0    0  501  502 -0.00000000000E+00 -0.00000000000E+00 -0.92610066232E+02  0.92610066232E+02  0.00000000000E+00 0. -1.
         25    1    1    2    0    0  0.35059976036E+02  0.90903457794E+02  0.14449373704E+03  0.21446696855E+03  0.12500000000E+03 0.  0.
         25    1    1    2    0    0  0.20870253865E+02  0.61997778035E+02  0.18810745636E+03  0.23513550799E+03  0.12500000000E+03 0.  0.
         25    1    1    2    0    0 -0.55930229900E+02 -0.15290123583E+03  0.27469070137E+03  0.34290955069E+03  0.12500000000E+03 0.  0.
</event>
<event>
 5    0  0.5648525E-005  0.3908253E+03  0.7546771E-02  0.1047004E+00
         21   -1    0    0  502  501  0.00000000000E+00  0.00000000000E+00  0.64105313956E+03  0.64105313956E+03  0.00000000000E+00 0. -1.
         21   -1    0    0  501  502 -0.00000000000E+00 -0.00000000000E+00 -0.23827104077E+03  0.23827104077E+03  0.00000000000E+00 0. -1.
         25    1    1    2    0    0 -0.20022956070E+02 -0.13014658101E+03  0.13248436995E+03  0.22475800230E+03  0.12500000000E+03 0.  0.
         25    1    1    2    0    0 -0.17506001101E+03  0.18871286626E+03  0.29900167733E+03  0.41386659251E+03  0.12500000000E+03 0.  0.
         25    1    1    2    0    0  0.19508296708E+03 -0.58566285259E+02 -0.28703948492E+02  0.24069958552E+03  0.12500000000E+03 0.  0.
</event>
<event>
 5    0  0.5648525E-005  0.2436184E+03  0.7546771E-02  0.1117406E+00
         21   -1    0    0  502  501  0.00000000000E+00  0.00000000000E+00  0.24322751981E+03  0.24322751981E+03  0.00000000000E+00 0. -1.
         21   -1    0    0  501  502 -0.00000000000E+00 -0.00000000000E+00 -0.24400992061E+03  0.24400992061E+03  0.00000000000E+00 0. -1.
         25    1    1    2    0    0 -0.41487842935E+02 -0.10317305556E+03  0.12201859432E+02  0.16774923511E+03  0.12500000000E+03 0.  0.
         25    1    1    2    0    0  0.47575238810E+02  0.12204776256E+03 -0.49600220590E+02  0.18773449757E+03  0.12500000000E+03 0.  0.
         25    1    1    2    0    0 -0.60873958754E+01 -0.18874706998E+02  0.36615960355E+02  0.13175370775E+03  0.12500000000E+03 0.  0.
</event>
<event>
 5    0  0.5648525E-005  0.2490451E+03  0.7546771E-02  0.1113910E+00
         21   -1    0    0  502  501  0.00000000000E+00  0.00000000000E+00  0.38764395039E+02  0.38764395039E+02  0.00000000000E+00 0. -1.
         21   -1    0    0  501  502 -0.00000000000E+00 -0.00000000000E+00 -0.16000107462E+04  0.16000107462E+04  0.00000000000E+00 0. -1.
         25    1    1    2    0    0  0.59462764619E+02 -0.61929608258E+02 -0.32093132793E+03  0.35495494644E+03  0.12500000000E+03 0.  0.
         25    1    1    2    0    0  0.21382794981E+02 -0.57959563717E+02 -0.56786791294E+03  0.58473541153E+03  0.12500000000E+03 0.  0.
         25    1    1    2    0    0 -0.80845559600E+02  0.11988917197E+03 -0.67244711027E+03  0.69908478326E+03  0.12500000000E+03 0.  0.
</event>
<event>
 5    0  0.5648525E-005  0.3781127E+03  0.7546771E-02  0.1051634E+00
         21   -1    0    0  502  501  0.00000000000E+00  0.00000000000E+00  0.16820351704E+03  0.16820351704E+03  0.00000000000E+00 0. -1.
         21   -1    0    0  501  502 -0.00000000000E+00 -0.00000000000E+00 -0.84997750865E+03  0.84997750865E+03  0.00000000000E+00 0. -1.
         25    1    1    2    0    0 -0.70429006432E+02  0.19672834632E+02 -0.57531415205E+03  0.59326102090E+03  0.12500000000E+03 0.  0.
         25    1    1    2    0    0  0.19665400164E+03 -0.17541391786E+02 -0.57868329008E+02  0.24073686940E+03  0.12500000000E+03 0.  0.
         25    1    1    2    0    0 -0.12622499521E+03 -0.21314428453E+01 -0.48591510545E+02  0.18418313539E+03  0.12500000000E+03 0.  0.
</event>
<event>
 5    0  0.5648525E-005  0.2914877E+03  0.7546771E-02  0.1089575E+00
         21   -1    0    0  502  501  0.00000000000E+00  0.00000000000E+00  0.24229579841E+03  0.24229579841E+03  0.00000000000E+00 0. -1.
         21   -1    0    0  501  502 -0.00000000000E+00 -0.00000000000E+00 -0.35066677015E+03  0.35066677015E+03  0.00000000000E+00 0. -1.
         25    1    1    2    0    0 -0.50530803097E+01  0.19882793419E+03 -0.77577151187E+02  0.24738895574E+03  0.12500000000E+03 0.  0.
         25    1    1    2    0    0 -0.48036730173E+02 -0.11580387229E+03  0.20773741903E+02  0.17825434815E+03  0.12500000000E+03 0.  0.
         25    1    1    2    0    0  0.53089810482E+02 -0.83024061899E+02 -0.51567562449E+02  0.16731926467E+03  0.12500000000E+03 0.  0.
</event>
<event>
 5    0  0.5648525E-005  0.4639571E+03  0.7546771E-02  0.1023640E+00
         21   -1    0    0  502  501  0.00000000000E+00  0.00000000000E+00  0.16413955289E+03  0.16413955289E+03  0.00000000000E+00 0. -1.
         21   -1    0    0  501  502 -0.00000000000E+00 -0.00000000000E+00 -0.13114219068E+04  0.13114219068E+04  0.00000000000E+00 0. -1.
         25    1    1    2    0    0  0.25880615062E+03  0.14479416213E+03 -0.16389517045E+03  0.36115453740E+03  0.12500000000E+03 0.  0.
         25    1    1    2    0    0 -0.28720429384E+03 -0.18854485330E+03 -0.55063423002E+03  0.66095273914E+03  0.12500000000E+03 0.  0.
         25    1    1    2    0    0  0.28398143220E+02  0.43750691166E+02 -0.43275295345E+03  0.45345418317E+03  0.12500000000E+03 0.  0.
</event>
<event>
 5    0  0.5648525E-005  0.3575263E+03  0.7546771E-02  0.1059568E+00
         21   -1    0    0  502  501  0.00000000000E+00  0.00000000000E+00  0.15620598280E+04  0.15620598280E+04  0.00000000000E+00 0.  1.
         21   -1    0    0  501  502 -0.00000000000E+00 -0.00000000000E+00 -0.81831107179E+02  0.81831107179E+02  0.00000000000E+00 0.  1.
         25    1    1    2    0    0 -0.14636208379E+03 -0.21918423238E+02  0.89373582901E+03  0.91448947993E+03  0.12500000000E+03 0.  0.
         25    1    1    2    0    0  0.30610931057E+02  0.10667361912E+03  0.48656538384E+03  0.51447756304E+03  0.12500000000E+03 0.  0.
         25    1    1    2    0    0  0.11575115274E+03 -0.84755195879E+02  0.99927507946E+02  0.21492389219E+03  0.12500000000E+03 0.  0.
</event>
<event>
 5    0  0.5648525E-005  0.3382185E+03  0.7546771E-02  0.1067557E+00
         21   -1    0    0  502  501  0.00000000000E+00  0.00000000000E+00  0.11713082274E+04  0.11713082274E+04  0.00000000000E+00 0. -1.
         21   -1    0    0  501  502 -0.00000000000E+00 -0.00000000000E+00 -0.97661549297E+02  0.97661549297E+02  0.00000000000E+00 0. -1.
         25    1    1    2    0    0 -0.10767624782E+03 -0.14597690918E+03  0.29230205931E+03  0.36601765836E+03  0.12500000000E+03 0.  0.
         25    1    1    2    0    0 -0.65585771641E+02 -0.62213462490E+02  0.26777810777E+03  0.30903417830E+03  0.12500000000E+03 0.  0.
         25    1    1    2    0    0  0.17326201946E+03  0.20819037167E+03  0.51356651101E+03  0.59391794002E+03  0.12500000000E+03 0.  0.
</event>
<event>
 5    0  0.6493471E-005  0.2825647E+03  0.7546771E-02  0.1094296E+00
         21   -1    0    0  502  501  0.00000000000E+00  0.00000000000E+00  0.58066567497E+03  0.58066567497E+03  0.00000000000E+00 0.  1.
         21   -1    0    0  501  502 -0.00000000000E+00 -0.00000000000E+00 -0.13750216044E+03  0.13750216044E+03  0.00000000000E+00 0.  1.
         25    1    1    2    0    0  0.62006320287E+02 -0.10459809851E+03  0.20218918753E+03  0.26700377061E+03  0.12500000000E+03 0.  0.
         25    1    1    2    0    0  0.81797112462E+02  0.97624359151E+02  0.17354814760E+03  0.24892818772E+03  0.12500000000E+03 0.  0.
         25    1    1    2    0    0 -0.14380343275E+03  0.69737393613E+01  0.67426179400E+02  0.20223587708E+03  0.12500000000E+03 0.  0.
</event>
<event>
 5    0  0.5648525E-005  0.2794505E+03  0.7546771E-02  0.1095989E+00
         21   -1    0    0  502  501  0.00000000000E+00  0.00000000000E+00  0.53458948971E+03  0.53458948971E+03  0.00000000000E+00 0. -1.
         21   -1    0    0  501  502 -0.00000000000E+00 -0.00000000000E+00 -0.14607948194E+03  0.14607948194E+03  0.00000000000E+00 0. -1.
         25    1    1    2    0    0  0.80620842472E+02 -0.38718187113E+02 -0.19457420571E+02  0.15492711018E+03  0.12500000000E+03 0.  0.
         25    1    1    2    0    0  0.47487600236E+02 -0.97426053812E+01  0.10400417254E+03  0.16968163849E+03  0.12500000000E+03 0.  0.
         25    1    1    2    0    0 -0.12810844271E+03  0.48460792494E+02  0.30396325580E+03  0.35606022297E+03  0.12500000000E+03 0.  0.
</event>
<event>
 5    0  0.5648525E-005  0.3981998E+03  0.7546771E-02  0.1044405E+00
         21   -1    0    0  502  501  0.00000000000E+00  0.00000000000E+00  0.93488493083E+03  0.93488493083E+03  0.00000000000E+00 0. -1.
         21   -1    0    0  501  502 -0.00000000000E+00 -0.00000000000E+00 -0.16960709453E+03  0.16960709453E+03  0.00000000000E+00 0. -1.
         25    1    1    2    0    0 -0.17268212614E+03 -0.32880594060E+02  0.92787829497E+02  0.23480807366E+03  0.12500000000E+03 0.  0.
         25    1    1    2    0    0 -0.49767218032E+02 -0.58897245260E+02  0.24913131498E+01  0.14689066727E+03  0.12500000000E+03 0.  0.
         25    1    1    2    0    0  0.22244934417E+03  0.91777839319E+02  0.66999869365E+03  0.72279328442E+03  0.12500000000E+03 0.  0.
</event>
<event>
 5    0  0.5648525E-005  0.3420642E+03  0.7546771E-02  0.1065920E+00
         21   -1    0    0  502  501  0.00000000000E+00  0.00000000000E+00  0.21863556638E+03  0.21863556638E+03  0.00000000000E+00 0. -1.
         21   -1    0    0  501  502 -0.00000000000E+00 -0.00000000000E+00 -0.53517343098E+03  0.53517343098E+03  0.00000000000E+00 0. -1.
         25    1    1    2    0    0  0.31977132902E+02  0.10906382459E+03 -0.18041776197E+03  0.24717002993E+03  0.12500000000E+03 0.  0.
         25    1    1    2    0    0 -0.80072354228E+02  0.73115206237E+01  0.12277504023E+03  0.19277902051E+03  0.12500000000E+03 0.  0.
         25    1    1    2    0    0  0.48095221327E+02 -0.11637534521E+03 -0.25889514285E+03  0.31385994692E+03  0.12500000000E+03 0.  0.
</event>
<event>
 5    0  0.5648525E-005  0.3085009E+03  0.7546771E-02  0.1081067E+00
         21   -1    0    0  502  501  0.00000000000E+00  0.00000000000E+00  0.24575174310E+03  0.24575174310E+03  0.00000000000E+00 0. -1.
         21   -1    0    0  501  502 -0.00000000000E+00 -0.00000000000E+00 -0.38727223255E+03  0.38727223255E+03  0.00000000000E+00 0. -1.
         25    1    1    2    0    0 -0.12311347827E+03  0.32864985634E+02 -0.78898282702E+02  0.19515884511E+03  0.12500000000E+03 0.  0.
         25    1    1    2    0    0  0.44766659287E+02 -0.11333155683E+03  0.10236733842E+03  0.20236641899E+03  0.12500000000E+03 0.  0.
         25    1    1    2    0    0  0.78346818983E+02  0.80466571200E+02 -0.16498954518E+03  0.23549871155E+03  0.12500000000E+03 0.  0.
</event>
<event>
 5    0  0.5648525E-005  0.2786275E+03  0.7546771E-02  0.1096441E+00
         21   -1    0    0  502  501  0.00000000000E+00  0.00000000000E+00  0.32434491531E+03  0.32434491531E+03  0.00000000000E+00 0.  1.
         21   -1    0    0  501  502 -0.00000000000E+00 -0.00000000000E+00 -0.23935417945E+03  0.23935417945E+03  0.00000000000E+00 0.  1.
         25    1    1    2    0    0 -0.14155932280E+03 -0.53033004223E+02  0.39050844344E+02  0.20000377459E+03  0.12500000000E+03 0.  0.
         25    1    1    2    0    0  0.13345720629E+03  0.10735660114E+03  0.73478588467E+02  0.22441115989E+03  0.12500000000E+03 0.  0.
         25    1    1    2    0    0  0.81021165062E+01 -0.54323596916E+02 -0.27538696951E+02  0.13928416027E+03  0.12500000000E+03 0.  0.
</event>
<event>
 5    0  0.5648525E-005  0.4732565E+03  0.7546771E-02  0.1021005E+00
         21   -1    0    0  502  501  0.00000000000E+00  0.00000000000E+00  0.98572087083E+03  0.98572087083E+03  0.00000000000E+00 0. -1.
         21   -1    0    0  501  502 -0.00000000000E+00 -0.00000000000E+00 -0.22721617575E+03  0.22721617575E+03  0.00000000000E+00 0. -1.
         25    1    1    2    0    0 -0.24820726667E+03 -0.21179893503E+03  0.26802569256E+03  0.44037303276E+03  0.12500000000E+03 0.  0.
         25    1    1    2    0    0  0.25972072676E+03  0.28065746492E+03  0.48382613387E+03  0.62923461152E+03  0.12500000000E+03 0.  0.
         25    1    1    2    0    0 -0.11513460095E+02 -0.68858529886E+02  0.66528686404E+01  0.14332940230E+03  0.12500000000E+03 0.  0.
</event>
<event>
 5    0  0.5648525E-005  0.3613478E+03  0.7546771E-02  0.1058051E+00
         21   -1    0    0  502  501  0.00000000000E+00  0.00000000000E+00  0.63084237783E+02  0.63084237783E+02  0.00000000000E+00 0. -1.
         21   -1    0    0  501  502 -0.00000000000E+00 -0.00000000000E+00 -0.20698077804E+04  0.20698077804E+04  0.00000000000E+00 0. -1.
         25    1    1    2    0    0  0.12162363521E+03 -0.11515669647E+03 -0.16477102555E+04  0.16609116350E+04  0.12500000000E+03 0.  0.
         25    1    1    2    0    0 -0.68041596333E+02  0.69016054316E+02 -0.22862519860E+03  0.27800603594E+03  0.12500000000E+03 0.  0.
         25    1    1    2    0    0 -0.53582038881E+02  0.46140642157E+02 -0.13038808860E+03  0.19397434727E+03  0.12500000000E+03 0.  0.
</event>
<event>
 5    0  0.5648525E-005  0.3737560E+03  0.7546771E-02  0.1053266E+00
         21   -1    0    0  502  501  0.00000000000E+00  0.00000000000E+00  0.29719957725E+03  0.29719957725E+03  0.00000000000E+00 0.  1.
         21   -1    0    0  501  502 -0.00000000000E+00 -0.00000000000E+00 -0.47003285016E+03  0.47003285016E+03  0.00000000000E+00 0.  1.
         25    1    1    2    0    0  0.12293824473E+03  0.63050918029E+02 -0.83275045480E+02  0.20408077685E+03  0.12500000000E+03 0.  0.
         25    1    1    2    0    0  0.67134920121E+02 -0.23244140502E+03 -0.40968801826E+02  0.27538980916E+03  0.12500000000E+03 0.  0.
         25    1    1    2    0    0 -0.19007316485E+03  0.16939048699E+03 -0.48589425604E+02  0.28776184139E+03  0.12500000000E+03 0.  0.
</event>
<event>
 5    0  0.7171023E-005  0.2704904E+03  0.7546771E-02  0.1100999E+00
         21   -1    0    0  502  501  0.00000000000E+00  0.00000000000E+00  0.76896376848E+03  0.76896376848E+03  0.00000000000E+00 0.  1.
         21   -1    0    0  501  502 -0.00000000000E+00 -0.00000000000E+00 -0.95147584144E+02  0.95147584144E+02  0.00000000000E+00 0.  1.
         25    1    1    2    0    0 -0.84577444865E+02  0.30529431514E+02  0.32625475563E+03  0.36076662255E+03  0.12500000000E+03 0.  0.
         25    1    1    2    0    0  0.15560554968E+03 -0.70882112703E+02  0.17186290095E+03  0.27276219994E+03  0.12500000000E+03 0.  0.
         25    1    1    2    0    0 -0.71028104813E+02  0.40352681190E+02  0.17569852775E+03  0.23058253014E+03  0.12500000000E+03 0.  0.
</event>
<event>
 5    0  0.5648525E-005  0.3392018E+03  0.7546771E-02  0.1067136E+00
         21   -1    0    0  502  501  0.00000000000E+00  0.00000000000E+00  0.12331218536E+04  0.12331218536E+04  0.00000000000E+00 0. -1.
         21   -1    0    0  501  502 -0.00000000000E+00 -0.00000000000E+00 -0.93306179776E+02  0.93306179776E+02  0.00000000000E+00 0. -1.
         25    1    1    2    0    0  0.14620223731E+03 -0.13527350454E+03  0.72676528885E+03  0.76386307694E+03  0.12500000000E+03 0.  0.
         25    1    1    2    0    0 -0.10216877123E+03  0.76036438466E+02  0.37058991529E+03  0.41131725359E+03  0.12500000000E+03 0.  0.
         25    1    1    2    0    0 -0.44033466084E+02  0.59237066073E+02  0.42460469690E+02  0.15124770285E+03  0.12500000000E+03 0.  0.
</event>
<event>
 5    0  0.5648525E-005  0.2352225E+03  0.7546771E-02  0.1123017E+00
         21   -1    0    0  502  501  0.00000000000E+00  0.00000000000E+00  0.26772853686E+03  0.26772853686E+03  0.00000000000E+00 0. -1.
         21   -1    0    0  501  502 -0.00000000000E+00 -0.00000000000E+00 -0.20666307850E+03  0.20666307850E+03  0.00000000000E+00 0. -1.
         25    1    1    2    0    0 -0.46621235906E+02  0.10275121654E+03  0.89418596352E+02  0.19066210298E+03  0.12500000000E+03 0.  0.
         25    1    1    2    0    0  0.18835912172E+02 -0.54437233343E+02  0.18929510022E+02  0.13892994750E+03  0.12500000000E+03 0.  0.
         25    1    1    2    0    0  0.27785323733E+02 -0.48313983202E+02 -0.47282648010E+02  0.14479956488E+03  0.12500000000E+03 0.  0.
</event>
<event>
 5    0  0.5648525E-005  0.3438089E+03  0.7546771E-02  0.1065185E+00
         21   -1    0    0  502  501  0.00000000000E+00  0.00000000000E+00  0.17134800319E+04  0.17134800319E+04  0.00000000000E+00 0. -1.
         21   -1    0    0  501  502 -0.00000000000E+00 -0.00000000000E+00 -0.68985086234E+02  0.68985086234E+02  0.00000000000E+00 0. -1.
         25    1    1    2    0    0 -0.14716694187E+03 -0.39731294745E+02  0.41053845772E+03  0.45541575492E+03  0.12500000000E+03 0.  0.
         25    1    1    2    0    0  0.21434865275E+02 -0.14062917749E+03  0.82299676158E+03  0.84450262793E+03  0.12500000000E+03 0.  0.
         25    1    1    2    0    0  0.12573207660E+03  0.18036047223E+03  0.41095972631E+03  0.48254673523E+03  0.12500000000E+03 0.  0.
</event>
<event>
 5    0  0.5648525E-005  0.2823469E+03  0.7546771E-02  0.1094414E+00
         21   -1    0    0  502  501  0.00000000000E+00  0.00000000000E+00  0.59800969944E+02  0.59800969944E+02  0.00000000000E+00 0. -1.
         21   -1    0    0  501  502 -0.00000000000E+00 -0.00000000000E+00 -0.13330845047E+04  0.13330845047E+04  0.00000000000E+00 0. -1.
         25    1    1    2    0    0 -0.26156813349E+02  0.58961898654E+02 -0.89253725000E+03  0.90355322312E+03  0.12500000000E+03 0.  0.
         25    1    1    2    0    0  0.44625565008E+02 -0.97369738868E+02 -0.27344989158E+03  0.31917416923E+03  0.12500000000E+03 0.  0.
         25    1    1    2    0    0 -0.18468751659E+02  0.38407840215E+02 -0.10729639316E+03  0.17015808227E+03  0.12500000000E+03 0.  0.
</event>
<event>
 5    0  0.5648525E-005  0.4569956E+03  0.7546771E-02  0.1025656E+00
         21   -1    0    0  502  501  0.00000000000E+00  0.00000000000E+00  0.21044092262E+04  0.21044092262E+04  0.00000000000E+00 0. -1.
         21   -1    0    0  501  502 -0.00000000000E+00 -0.00000000000E+00 -0.99241633699E+02  0.99241633699E+02  0.00000000000E+00 0. -1.
         25    1    1    2    0    0  0.35505726242E+02 -0.21806742929E+03  0.47045099744E+03  0.53456823821E+03  0.12500000000E+03 0.  0.
         25    1    1    2    0    0 -0.30023087057E+03  0.10519727503E+03  0.83423408832E+03  0.90154121172E+03  0.12500000000E+03 0.  0.
         25    1    1    2    0    0  0.26472514433E+03  0.11287015426E+03  0.70048250675E+03  0.76754140997E+03  0.12500000000E+03 0.  0.
</event>
<event>
 5    0  0.5648525E-005  0.2564131E+03  0.7546771E-02  0.1109318E+00
         21   -1    0    0  502  501  0.00000000000E+00  0.00000000000E+00  0.10765061691E+04  0.10765061691E+04  0.00000000000E+00 0.  1.
         21   -1    0    0  501  502 -0.00000000000E+00 -0.00000000000E+00 -0.61075067122E+02  0.61075067122E+02  0.00000000000E+00 0.  1.
         25    1    1    2    0    0  0.73069469259E+02 -0.14748148752E+02  0.36046494808E+03  0.38873723005E+03  0.12500000000E+03 0.  0.
         25    1    1    2    0    0 -0.37925199019E+02  0.10900474210E+03  0.18077979038E+03  0.24824722985E+03  0.12500000000E+03 0.  0.
         25    1    1    2    0    0 -0.35144270239E+02 -0.94256593343E+02  0.47418636352E+03  0.50059677632E+03  0.12500000000E+03 0.  0.
</event>
<event>
 5    0  0.5648525E-005  0.3231829E+03  0.7546771E-02  0.1074194E+00
         21   -1    0    0  502  501  0.00000000000E+00  0.00000000000E+00  0.49451092912E+03  0.49451092912E+03  0.00000000000E+00 0.  1.
         21   -1    0    0  501  502 -0.00000000000E+00 -0.00000000000E+00 -0.21121304168E+03  0.21121304168E+03  0.00000000000E+00 0.  1.
         25    1    1    2    0    0 -0.51835888799E+01  0.13063118679E+03  0.28742513301E+03  0.33960209605E+03  0.12500000000E+03 0.  0.
         25    1    1    2    0    0  0.81704575415E+02 -0.15740721656E+03 -0.73626065324E+01  0.21709877348E+03  0.12500000000E+03 0.  0.
         25    1    1    2    0    0 -0.76520986535E+02  0.26776029773E+02  0.32353609644E+01  0.14902310127E+03  0.12500000000E+03 0.  0.
</event>
<event>
 5    0  0.5648525E-005  0.4472081E+03  0.7546771E-02  0.1028558E+00
         21   -1    0    0  502  501  0.00000000000E+00  0.00000000000E+00  0.11114908850E+04  0.11114908850E+04  0.00000000000E+00 0.  1.
         21   -1    0    0  501  502 -0.00000000000E+00 -0.00000000000E+00 -0.17993403932E+03  0.17993403932E+03  0.00000000000E+00 0.  1.
         25    1    1    2    0    0 -0.92121740752E+01  0.13397252709E+03  0.83835751704E+02  0.20171002808E+03  0.12500000000E+03 0.  0.
         25    1    1    2    0    0  0.20966401103E+03 -0.25712384823E+03  0.24561372738E+03  0.43130357514E+03  0.12500000000E+03 0.  0.
         25    1    1    2    0    0 -0.20045183695E+03  0.12315132114E+03  0.60210736662E+03  0.65841132112E+03  0.12500000000E+03 0.  0.
</event>
<event>
 5    0  0.5648525E-005  0.2594016E+03  0.7546771E-02  0.1107503E+00
         21   -1    0    0  502  501  0.00000000000E+00  0.00000000000E+00  0.18794310460E+03  0.18794310460E+03  0.00000000000E+00 0. -1.
         21   -1    0    0  501  502 -0.00000000000E+00 -0.00000000000E+00 -0.35802956841E+03  0.35802956841E+03  0.00000000000E+00 0. -1.
         25    1    1    2    0    0 -0.28192477804E+02 -0.96283180326E+02  0.74425513001E+02  0.17671848688E+03  0.12500000000E+03 0.  0.
         25    1    1    2    0    0  0.18568368050E+02  0.15741962646E+02 -0.12180810535E+03  0.17622374474E+03  0.12500000000E+03 0.  0.
         25    1    1    2    0    0  0.96241097538E+01  0.80541217679E+02 -0.12270387146E+03  0.19303044139E+03  0.12500000000E+03 0.  0.
</event>
<event>
 5    0  0.5648525E-005  0.3428687E+03  0.7546771E-02  0.1065581E+00
         21   -1    0    0  502  501  0.00000000000E+00  0.00000000000E+00  0.67991848483E+03  0.67991848483E+03  0.00000000000E+00 0.  1.
         21   -1    0    0  501  502 -0.00000000000E+00 -0.00000000000E+00 -0.17290156635E+03  0.17290156635E+03  0.00000000000E+00 0.  1.
         25    1    1    2    0    0  0.10351336898E+03 -0.53852000528E+02  0.52190667507E+03  0.54920545610E+03  0.12500000000E+03 0.  0.
         25    1    1    2    0    0 -0.78381549651E+02  0.13441233068E+02 -0.63656087735E+02  0.16124959404E+03  0.12500000000E+03 0.  0.
         25    1    1    2    0    0 -0.25131819328E+02  0.40410767461E+02  0.48766331137E+02  0.14236500104E+03  0.12500000000E+03 0.  0.
</event>
<event>
 5    0  0.5666555E-005  0.3707910E+03  0.7546771E-02  0.1054391E+00
         21   -1    0    0  502  501  0.00000000000E+00  0.00000000000E+00  0.37471522949E+03  0.37471522949E+03  0.00000000000E+00 0. -1.
         21   -1    0    0  501  502 -0.00000000000E+00 -0.00000000000E+00 -0.36690788849E+03  0.36690788849E+03  0.00000000000E+00 0. -1.
         25    1    1    2    0    0 -0.13324608407E+02  0.31203627826E+02  0.27100052063E+03  0.30036227087E+03  0.12500000000E+03 0.  0.
         25    1    1    2    0    0  0.11746500030E+03 -0.16669529570E+02 -0.64428621619E+02  0.18398898553E+03  0.12500000000E+03 0.  0.
         25    1    1    2    0    0 -0.10414039190E+03 -0.14534098255E+02 -0.19876455801E+03  0.25727186158E+03  0.12500000000E+03 0.  0.
</event>
<event>
 5    0  0.5648525E-005  0.4669824E+03  0.7546771E-02  0.1022775E+00
         21   -1    0    0  502  501  0.00000000000E+00  0.00000000000E+00  0.37030993657E+03  0.37030993657E+03  0.00000000000E+00 0.  1.
         21   -1    0    0  501  502 -0.00000000000E+00 -0.00000000000E+00 -0.58889206796E+03  0.58889206796E+03  0.00000000000E+00 0.  1.
         25    1    1    2    0    0 -0.85401756291E+02  0.21565753211E+03 -0.16329186863E+01  0.26349439758E+03  0.12500000000E+03 0.  0.
         25    1    1    2    0    0 -0.22161688498E+03 -0.16925340532E+03 -0.17551011663E+02  0.30609442486E+03  0.12500000000E+03 0.  0.
         25    1    1    2    0    0  0.30701864127E+03 -0.46404126792E+02 -0.19939820104E+03  0.38961318208E+03  0.12500000000E+03 0.  0.
</event>
<event>
 5    0  0.5648525E-005  0.2666599E+03  0.7546771E-02  0.1103207E+00
         21   -1    0    0  502  501  0.00000000000E+00  0.00000000000E+00  0.46617158245E+02  0.46617158245E+02  0.00000000000E+00 0. -1.
         21   -1    0    0  501  502 -0.00000000000E+00 -0.00000000000E+00 -0.15253501658E+04  0.15253501658E+04  0.00000000000E+00 0. -1.
         25    1    1    2    0    0  0.34257807318E+02 -0.49255366308E+02 -0.17880712431E+03  0.22626682518E+03  0.12500000000E+03 0.  0.
         25    1    1    2    0    0 -0.34643152246E+02 -0.92154889438E+02 -0.61398837534E+03  0.63427075977E+03  0.12500000000E+03 0.  0.
         25    1    1    2    0    0  0.38534492785E+00  0.14141025575E+03 -0.68593750793E+03  0.71142973912E+03  0.12500000000E+03 0.  0.
</event>
<event>
 5    0  0.5648525E-005  0.2521910E+03  0.7546771E-02  0.1111928E+00
         21   -1    0    0  502  501  0.00000000000E+00  0.00000000000E+00  0.12460260676E+03  0.12460260676E+03  0.00000000000E+00 0. -1.
         21   -1    0    0  501  502 -0.00000000000E+00 -0.00000000000E+00 -0.51042507651E+03  0.51042507651E+03  0.00000000000E+00 0. -1.
         25    1    1    2    0    0 -0.73613657401E+01 -0.13764659131E+03 -0.83645953748E+02  0.20401573317E+03  0.12500000000E+03 0.  0.
         25    1    1    2    0    0  0.30694516679E+02  0.24094000002E+02 -0.17375521002E+03  0.21757423377E+03  0.12500000000E+03 0.  0.
         25    1    1    2    0    0 -0.23333150939E+02  0.11355259130E+03 -0.12842130597E+03  0.21343771633E+03  0.12500000000E+03 0.  0.
</event>
<event>
 5    0  0.5648525E-005  0.3895666E+03  0.7546771E-02  0.1047453E+00
         21   -1    0    0  502  501  0.00000000000E+00  0.00000000000E+00  0.65024545709E+03  0.65024545709E+03  0.00000000000E+00 0. -1.
         21   -1    0    0  501  502 -0.00000000000E+00 -0.00000000000E+00 -0.23339212258E+03  0.23339212258E+03  0.00000000000E+00 0. -1.
         25    1    1    2    0    0  0.85610326966E+02 -0.29570999951E+03  0.72650395020E+02  0.34011264573E+03  0.12500000000E+03 0.  0.
         25    1    1    2    0    0 -0.54861840846E+01  0.21513198885E+03  0.17361048331E+03  0.30344269765E+03  0.12500000000E+03 0.  0.
         25    1    1    2    0    0 -0.80124142881E+02  0.80578010655E+02  0.17059245618E+03  0.24008223628E+03  0.12500000000E+03 0.  0.
</event>
<event>
 5    0  0.5648525E-005  0.2152239E+03  0.7546771E-02  0.1137495E+00
         21   -1    0    0  502  501  0.00000000000E+00  0.00000000000E+00  0.69040553860E+02  0.69040553860E+02  0.00000000000E+00 0.  1.
         21   -1    0    0  501  502 -0.00000000000E+00 -0.00000000000E+00 -0.67092943721E+03  0.67092943721E+03  0.00000000000E+00 0.  1.
         25    1    1    2    0    0 -0.51083555389E+02 -0.16217203937E+02 -0.26517444988E+03  0.29801848299E+03  0.12500000000E+03 0.  0.
         25    1    1    2    0    0 -0.21301298358E+02  0.52323623382E+02 -0.16964501663E+03  0.21816493426E+03  0.12500000000E+03 0.  0.
         25    1    1    2    0    0  0.72384853748E+02 -0.36106419446E+02 -0.16706941685E+03  0.22378657382E+03  0.12500000000E+03 0.  0.
</event>
<event>
 5    0  0.5648525E-005  0.2699102E+03  0.7546771E-02  0.1101331E+00
         21   -1    0    0  502  501  0.00000000000E+00  0.00000000000E+00  0.12757969685E+03  0.12757969685E+03  0.00000000000E+00 0. -1.
         21   -1    0    0  501  502 -0.00000000000E+00 -0.00000000000E+00 -0.57102771303E+03  0.57102771303E+03  0.00000000000E+00 0. -1.
         25    1    1    2    0    0  0.86223337503E+02  0.86769558222E+02 -0.79481843048E+02  0.19210878048E+03  0.12500000000E+03 0.  0.
         25    1    1    2    0    0  0.35854080343E+02 -0.33107896142E+02 -0.49992968539E+02  0.14319896916E+03  0.12500000000E+03 0.  0.
         25    1    1    2    0    0 -0.12207741785E+03 -0.53661662079E+02 -0.31397320460E+03  0.36329966024E+03  0.12500000000E+03 0.  0.
</event>
<event>
 5    0  0.5648525E-005  0.2540997E+03  0.7546771E-02  0.1110741E+00
         21   -1    0    0  502  501  0.00000000000E+00  0.00000000000E+00  0.17546374562E+03  0.17546374562E+03  0.00000000000E+00 0.  1.
         21   -1    0    0  501  502 -0.00000000000E+00 -0.00000000000E+00 -0.36797710234E+03  0.36797710234E+03  0.00000000000E+00 0.  1.
         25    1    1    2    0    0  0.41932104923E+02 -0.84407045618E+02 -0.13474526923E+03  0.20655299164E+03  0.12500000000E+03 0.  0.
         25    1    1    2    0    0  0.24046632689E+02  0.66678195935E+02 -0.11431591388E+03  0.18362284859E+03  0.12500000000E+03 0.  0.
         25    1    1    2    0    0 -0.65978737611E+02  0.17728849683E+02  0.56547826389E+02  0.15326500774E+03  0.12500000000E+03 0.  0.
</event>
<event>
 5    0  0.5648525E-005  0.2745861E+03  0.7546771E-02  0.1098683E+00
         21   -1    0    0  502  501  0.00000000000E+00  0.00000000000E+00  0.16796409366E+04  0.16796409366E+04  0.00000000000E+00 0. -1.
         21   -1    0    0  501  502 -0.00000000000E+00 -0.00000000000E+00 -0.44889076741E+02  0.44889076741E+02  0.00000000000E+00 0. -1.
         25    1    1    2    0    0 -0.62302416203E+02 -0.45388873071E+02  0.43444780238E+03  0.45859746385E+03  0.12500000000E+03 0.  0.
         25    1    1    2    0    0  0.59773776270E+01  0.48819216633E+02  0.10644405056E+04  0.10728828617E+04  0.12500000000E+03 0.  0.
         25    1    1    2    0    0  0.56325038576E+02 -0.34303435618E+01  0.13586355189E+03  0.19304968780E+03  0.12500000000E+03 0.  0.
</event>
<event>
 5    0  0.5770047E-005  0.2982021E+03  0.7546771E-02  0.1086143E+00
         21   -1    0    0  502  501  0.00000000000E+00  0.00000000000E+00  0.13081499685E+03  0.13081499685E+03  0.00000000000E+00 0.  1.
         21   -1    0    0  501  502 -0.00000000000E+00 -0.00000000000E+00 -0.67977292729E+03  0.67977292729E+03  0.00000000000E+00 0.  1.
         25    1    1    2    0    0 -0.13034021595E+03  0.28493397392E+02 -0.18458065949E+03  0.25979889424E+03  0.12500000000E+03 0.  0.
         25    1    1    2    0    0  0.14922543580E+03  0.10687476409E+03 -0.15262869434E+03  0.26946421697E+03  0.12500000000E+03 0.  0.
         25    1    1    2    0    0 -0.18885219850E+02 -0.13536816149E+03 -0.21174857661E+03  0.28132481293E+03  0.12500000000E+03 0.  0.
</event>
<event>
 5    0  0.5648525E-005  0.3551864E+03  0.7546771E-02  0.1060506E+00
         21   -1    0    0  502  501  0.00000000000E+00  0.00000000000E+00  0.23155174724E+03  0.23155174724E+03  0.00000000000E+00 0.  1.
         21   -1    0    0  501  502 -0.00000000000E+00 -0.00000000000E+00 -0.54483443205E+03  0.54483443205E+03  0.00000000000E+00 0.  1.
         25    1    1    2    0    0 -0.11505513220E+03 -0.17092880107E+02 -0.67642387280E+02  0.18365822212E+03  0.12500000000E+03 0.  0.
         25    1    1    2    0    0  0.28599191496E+03 -0.46683650745E+02 -0.11514022426E+03  0.33593602056E+03  0.12500000000E+03 0.  0.
         25    1    1    2    0    0 -0.17093678276E+03  0.63776530851E+02 -0.13050007327E+03  0.25679193661E+03  0.12500000000E+03 0.  0.
</event>
<event>
 5    0  0.5648525E-005  0.2803311E+03  0.7546771E-02  0.1095508E+00
         21   -1    0    0  502  501  0.00000000000E+00  0.00000000000E+00  0.55302458018E+02  0.55302458018E+02  0.00000000000E+00 0. -1.
         21   -1    0    0  501  502 -0.00000000000E+00 -0.00000000000E+00 -0.14210132178E+04  0.14210132178E+04  0.00000000000E+00 0. -1.
         25    1    1    2    0    0 -0.27576345281E+02  0.57878455895E+02 -0.29950418944E+03  0.33081434366E+03  0.12500000000E+03 0.  0.
         25    1    1    2    0    0  0.75594062426E+02 -0.15883555535E+03 -0.81775763087E+03  0.84575158218E+03  0.12500000000E+03 0.  0.
         25    1    1    2    0    0 -0.48017717145E+02  0.10095709945E+03 -0.24844893947E+03  0.29974974998E+03  0.12500000000E+03 0.  0.
</event>
<event>
 5    0  0.5648525E-005  0.3581615E+03  0.7546771E-02  0.1059314E+00
         21   -1    0    0  502  501  0.00000000000E+00  0.00000000000E+00  0.12186480612E+04  0.12186480612E+04  0.00000000000E+00 0. -1.
         21   -1    0    0  501  502 -0.00000000000E+00 -0.00000000000E+00 -0.10526389099E+03  0.10526389099E+03  0.00000000000E+00 0. -1.
         25    1    1    2    0    0 -0.43326321740E+02 -0.45490632395E+02  0.16304604909E+02  0.14084533337E+03  0.12500000000E+03 0.  0.
         25    1    1    2    0    0  0.12716305228E+03 -0.10333835216E+03  0.73806620507E+03  0.76630018920E+03  0.12500000000E+03 0.  0.
         25    1    1    2    0    0 -0.83836730544E+02  0.14882898456E+03  0.35901336024E+03  0.41676642963E+03  0.12500000000E+03 0.  0.
</event>
<event>
 5    0  0.5648525E-005  0.2429504E+03  0.7546771E-02  0.1117843E+00
         21   -1    0    0  502  501  0.00000000000E+00  0.00000000000E+00  0.35632632731E+03  0.35632632731E+03  0.00000000000E+00 0.  1.
         21   -1    0    0  501  502 -0.00000000000E+00 -0.00000000000E+00 -0.16564838503E+03  0.16564838503E+03  0.00000000000E+00 0.  1.
         25    1    1    2    0    0  0.21001261754E+02 -0.28010418060E+02  0.87736498107E+02  0.15667906566E+03  0.12500000000E+03 0.  0.
         25    1    1    2    0    0  0.15527615923E+02 -0.42843947369E+02  0.15852887342E+03  0.20696162540E+03  0.12500000000E+03 0.  0.
         25    1    1    2    0    0 -0.36528877678E+02  0.70854365429E+02 -0.55587429244E+02  0.15833402128E+03  0.12500000000E+03 0.  0.
</event>
<event>
 5    0  0.5648525E-005  0.3080690E+03  0.7546771E-02  0.1081275E+00
         21   -1    0    0  502  501  0.00000000000E+00  0.00000000000E+00  0.91403359556E+02  0.91403359556E+02  0.00000000000E+00 0.  1.
         21   -1    0    0  501  502 -0.00000000000E+00 -0.00000000000E+00 -0.10383264478E+04  0.10383264478E+04  0.00000000000E+00 0.  1.
         25    1    1    2    0    0 -0.75675932541E+02 -0.21381008993E+02 -0.16183141772E+03  0.21908537622E+03  0.12500000000E+03 0.  0.
         25    1    1    2    0    0 -0.77729976141E+02 -0.16590337429E+02 -0.65328486600E+03  0.66986812481E+03  0.12500000000E+03 0.  0.
         25    1    1    2    0    0  0.15340590868E+03  0.37971346422E+02 -0.13180680450E+03  0.24077630631E+03  0.12500000000E+03 0.  0.
</event>
<event>
 5    0  0.5648525E-005  0.2674999E+03  0.7546771E-02  0.1102719E+00
         21   -1    0    0  502  501  0.00000000000E+00  0.00000000000E+00  0.14162875959E+04  0.14162875959E+04  0.00000000000E+00 0. -1.
         21   -1    0    0  501  502 -0.00000000000E+00 -0.00000000000E+00 -0.50523784995E+02  0.50523784995E+02  0.00000000000E+00 0. -1.
         25    1    1    2    0    0  0.80026161109E+02  0.14043130441E+02  0.23100044230E+03  0.27493199216E+03  0.12500000000E+03 0.  0.
         25    1    1    2    0    0  0.70024870539E+02  0.59924734470E+02  0.51178776960E+03  0.53483284997E+03  0.12500000000E+03 0.  0.
         25    1    1    2    0    0 -0.15005103165E+03 -0.73967864911E+02  0.62297559903E+03  0.65704653878E+03  0.12500000000E+03 0.  0.
</event>
<event>
 5    0  0.5648525E-005  0.2764857E+03  0.7546771E-02  0.1097624E+00
         21   -1    0    0  502  501  0.00000000000E+00  0.00000000000E+00  0.16640308059E+03  0.16640308059E+03  0.00000000000E+00 0.  1.
         21   -1    0    0  501  502 -0.00000000000E+00 -0.00000000000E+00 -0.45939263737E+03  0.45939263737E+03  0.00000000000E+00 0.  1.
         25    1    1    2    0    0 -0.99287535094E+02 -0.90380843062E+00  0.63512104545E+02  0.17180692337E+03  0.12500000000E+03 0.  0.
         25    1    1    2    0    0  0.70509286798E+02  0.60339033060E+01 -0.13048581987E+03  0.19406060059E+03  0.12500000000E+03 0.  0.
         25    1    1    2    0    0  0.28778248295E+02 -0.51300948754E+01 -0.22601584145E+03  0.25992819400E+03  0.12500000000E+03 0.  0.
</event>
<event>
 5    0  0.5648525E-005  0.4524594E+03  0.7546771E-02  0.1026991E+00
         21   -1    0    0  502  501  0.00000000000E+00  0.00000000000E+00  0.57973212641E+03  0.57973212641E+03  0.00000000000E+00 0.  1.
         21   -1    0    0  501  502 -0.00000000000E+00 -0.00000000000E+00 -0.35312771421E+03  0.35312771421E+03  0.00000000000E+00 0.  1.
         25    1    1    2    0    0  0.26261235983E+02 -0.10291955467E+03  0.21728114838E+03  0.27224655129E+03  0.12500000000E+03 0.  0.
         25    1    1    2    0    0 -0.24600964360E+03  0.23633940493E+03  0.65793843846E+02  0.36923013007E+03  0.12500000000E+03 0.  0.
         25    1    1    2    0    0  0.21974840761E+03 -0.13341985026E+03 -0.56470580026E+02  0.29138315926E+03  0.12500000000E+03 0.  0.
</event>
<event>
 5    0  0.5648525E-005  0.2410577E+03  0.7546771E-02  0.1119090E+00
         21   -1    0    0  502  501  0.00000000000E+00  0.00000000000E+00  0.35871166720E+02  0.35871166720E+02  0.00000000000E+00 0.  1.
         21   -1    0    0  501  502 -0.00000000000E+00 -0.00000000000E+00 -0.16199316114E+04  0.16199316114E+04  0.00000000000E+00 0.  1.
         25    1    1    2    0    0  0.10426482014E+03  0.86151981112E+02 -0.47265401534E+03  0.50726732083E+03  0.12500000000E+03 0.  0.
         25    1    1    2    0    0 -0.44590045886E+02 -0.70392394556E+02 -0.58551787311E+03  0.60448287084E+03  0.12500000000E+03 0.  0.
         25    1    1    2    0    0 -0.59674774252E+02 -0.15759586555E+02 -0.52588855625E+03  0.54405258647E+03  0.12500000000E+03 0.  0.
</event>
<event>
 5    0  0.5648525E-005  0.3298235E+03  0.7546771E-02  0.1071215E+00
         21   -1    0    0  502  501  0.00000000000E+00  0.00000000000E+00  0.19834064474E+04  0.19834064474E+04  0.00000000000E+00 0. -1.
         21   -1    0    0  501  502 -0.00000000000E+00 -0.00000000000E+00 -0.54846834151E+02  0.54846834151E+02  0.00000000000E+00 0. -1.
         25    1    1    2    0    0 -0.67103562606E+02  0.70617103985E+02  0.10186752152E+04  0.10309286384E+04  0.12500000000E+03 0.  0.
         25    1    1    2    0    0 -0.10223509216E+03 -0.49498304618E+02  0.17755718765E+03  0.24505846469E+03  0.12500000000E+03 0.  0.
         25    1    1    2    0    0  0.16933865477E+03 -0.21118799367E+02  0.73232721047E+03  0.76226617849E+03  0.12500000000E+03 0.  0.
</event>
<event>
 5    0  0.5648525E-005  0.2407195E+03  0.7546771E-02  0.1119314E+00
         21   -1    0    0  502  501  0.00000000000E+00  0.00000000000E+00  0.27740040878E+03  0.27740040878E+03  0.00000000000E+00 0. -1.
         21   -1    0    0  501  502 -0.00000000000E+00 -0.00000000000E+00 -0.20888897314E+03  0.20888897314E+03  0.00000000000E+00 0. -1.
         25    1    1    2    0    0  0.13155729870E+03 -0.18363763205E+02  0.68061600764E+02  0.19468418564E+03  0.12500000000E+03 0.  0.
         25    1    1    2    0    0 -0.10089963771E+03  0.24668948567E+02  0.58893218527E+01  0.16263141771E+03  0.12500000000E+03 0.  0.
         25    1    1    2    0    0 -0.30657660993E+02 -0.63051853614E+01 -0.54394869783E+01  0.12897377857E+03  0.12500000000E+03 0.  0.
</event>
<event>
 5    0  0.5648525E-005  0.4055649E+03  0.7546771E-02  0.1041870E+00
         21   -1    0    0  502  501  0.00000000000E+00  0.00000000000E+00  0.16565498739E+03  0.16565498739E+03  0.00000000000E+00 0.  1.
         21   -1    0    0  501  502 -0.00000000000E+00 -0.00000000000E+00 -0.99292467563E+03  0.99292467563E+03  0.00000000000E+00 0.  1.
         25    1    1    2    0    0 -0.12959987558E+03  0.21870740656E+03 -0.73204289426E+03  0.78494640357E+03  0.12500000000E+03 0.  0.
         25    1    1    2    0    0  0.60681826342E+02 -0.11965534746E+03 -0.77202632294E+02  0.19895962569E+03  0.12500000000E+03 0.  0.
         25    1    1    2    0    0  0.68918049241E+02 -0.99052059108E+02 -0.18024161685E+02  0.17467363376E+03  0.12500000000E+03 0.  0.
</event>
<event>
 5    0  0.5648525E-005  0.2087107E+03  0.7546771E-02  0.1142591E+00
         21   -1    0    0  502  501  0.00000000000E+00  0.00000000000E+00  0.27895177823E+03  0.27895177823E+03  0.00000000000E+00 0.  1.
         21   -1    0    0  501  502 -0.00000000000E+00 -0.00000000000E+00 -0.15615656192E+03  0.15615656192E+03  0.00000000000E+00 0.  1.
         25    1    1    2    0    0  0.51490698357E+02  0.49285349530E+01  0.79417444778E+02  0.15686845766E+03  0.12500000000E+03 0.  0.
         25    1    1    2    0    0 -0.32627069631E+02  0.11686589279E+02  0.70861509741E+02  0.14780884819E+03  0.12500000000E+03 0.  0.
         25    1    1    2    0    0 -0.18863628725E+02 -0.16615124232E+02 -0.27483738203E+02  0.13043103430E+03  0.12500000000E+03 0.  0.
</event>
<event>
 5    0  0.5648525E-005  0.2582882E+03  0.7546771E-02  0.1108176E+00
         21   -1    0    0  502  501  0.00000000000E+00  0.00000000000E+00  0.22811784516E+03  0.22811784516E+03  0.00000000000E+00 0.  1.
         21   -1    0    0  501  502 -0.00000000000E+00 -0.00000000000E+00 -0.29244889098E+03  0.29244889098E+03  0.00000000000E+00 0.  1.
         25    1    1    2    0    0 -0.29261228151E+02  0.20979784179E+02 -0.40083479594E+02  0.13611780249E+03  0.12500000000E+03 0.  0.
         25    1    1    2    0    0  0.50933548946E+02  0.42118414203E+02 -0.14186907729E+03  0.20029983104E+03  0.12500000000E+03 0.  0.
         25    1    1    2    0    0 -0.21672320795E+02 -0.63098198382E+02  0.11762151107E+03  0.18414910261E+03  0.12500000000E+03 0.  0.
</event>
<event>
 5    0  0.5865479E-005  0.4490432E+03  0.7546771E-02  0.1028008E+00
         21   -1    0    0  502  501  0.00000000000E+00  0.00000000000E+00  0.14582638385E+04  0.14582638385E+04  0.00000000000E+00 0. -1.
         21   -1    0    0  501  502 -0.00000000000E+00 -0.00000000000E+00 -0.13827390637E+03  0.13827390637E+03  0.00000000000E+00 0. -1.
         25    1    1    2    0    0 -0.28956936673E+02  0.13329565887E+03  0.95311501101E+03  0.97090651510E+03  0.12500000000E+03 0.  0.
         25    1    1    2    0    0  0.21051475004E+03 -0.66615381048E+02  0.28411326488E+03  0.38091917287E+03  0.12500000000E+03 0.  0.
         25    1    1    2    0    0 -0.18155781337E+03 -0.66680277824E+02  0.82761656229E+02  0.24471205689E+03  0.12500000000E+03 0.  0.
</event>
<event>
 5    0  0.5648525E-005  0.2576972E+03  0.7546771E-02  0.1108535E+00
         21   -1    0    0  502  501  0.00000000000E+00  0.00000000000E+00  0.32679888899E+04  0.32679888899E+04  0.00000000000E+00 0. -1.
         21   -1    0    0  501  502 -0.00000000000E+00 -0.00000000000E+00 -0.20320709852E+02  0.20320709852E+02  0.00000000000E+00 0. -1.
         25    1    1    2    0    0 -0.54324963579E+02  0.81549337694E+02  0.75420000998E+03  0.77074259724E+03  0.12500000000E+03 0.  0.
         25    1    1    2    0    0  0.88980005271E+02 -0.12829457090E+03  0.17528408174E+04  0.17642145191E+04  0.12500000000E+03 0.  0.
         25    1    1    2    0    0 -0.34655041692E+02  0.46745233203E+02  0.74062735267E+03  0.75335248341E+03  0.12500000000E+03 0.  0.
</event>
<event>
 5    0  0.5648525E-005  0.2885431E+03  0.7546771E-02  0.1091112E+00
         21   -1    0    0  502  501  0.00000000000E+00  0.00000000000E+00  0.65394493092E+03  0.65394493092E+03  0.00000000000E+00 0. -1.
         21   -1    0    0  501  502 -0.00000000000E+00 -0.00000000000E+00 -0.12731517752E+03  0.12731517752E+03  0.00000000000E+00 0. -1.
         25    1    1    2    0    0  0.42812692717E+01  0.25915545605E+02  0.10174650730E+03  0.16330124469E+03  0.12500000000E+03 0.  0.
         25    1    1    2    0    0 -0.79033139011E+01  0.15423266437E+03  0.31561870005E+03  0.37294817462E+03  0.12500000000E+03 0.  0.
         25    1    1    2    0    0  0.36220446294E+01 -0.18014820997E+03  0.10926454605E+03  0.24501068913E+03  0.12500000000E+03 0.  0.
</event>
<event>
 5    0  0.5648525E-005  0.4163167E+03  0.7546771E-02  0.1038272E+00
         21   -1    0    0  502  501  0.00000000000E+00  0.00000000000E+00  0.78586743377E+03  0.78586743377E+03  0.00000000000E+00 0.  1.
         21   -1    0    0  501  502 -0.00000000000E+00 -0.00000000000E+00 -0.22054554901E+03  0.22054554901E+03  0.00000000000E+00 0.  1.
         25    1    1    2    0    0  0.55299535471E+02  0.23344419388E+03  0.25140351402E+03  0.36930063247E+03  0.12500000000E+03 0.  0.
         25    1    1    2    0    0  0.11938552111E+03 -0.25213713002E+03  0.73965278204E+02  0.31451851673E+03  0.12500000000E+03 0.  0.
         25    1    1    2    0    0 -0.17468505658E+03  0.18692936137E+02  0.23995309253E+03  0.32259383359E+03  0.12500000000E+03 0.  0.
</event>
<event>
 5    0  0.5648525E-005  0.3283751E+03  0.7546771E-02  0.1071858E+00
         21   -1    0    0  502  501  0.00000000000E+00  0.00000000000E+00  0.98670107583E+02  0.98670107583E+02  0.00000000000E+00 0. -1.
         21   -1    0    0  501  502 -0.00000000000E+00 -0.00000000000E+00 -0.10928357486E+04  0.10928357486E+04  0.00000000000E+00 0. -1.
         25    1    1    2    0    0  0.22530995986E+03  0.17032780061E+02 -0.30695621145E+03  0.40112567776E+03  0.12500000000E+03 0.  0.
         25    1    1    2    0    0 -0.87969103431E+02 -0.21913170097E+02 -0.51288186968E+03  0.53562259327E+03  0.12500000000E+03 0.  0.
         25    1    1    2    0    0 -0.13734085643E+03  0.48803900369E+01 -0.17432755988E+03  0.25475758514E+03  0.12500000000E+03 0.  0.
</event>
<event>
 5    0  0.5648525E-005  0.2861298E+03  0.7546771E-02  0.1092387E+00
         21   -1    0    0  502  501  0.00000000000E+00  0.00000000000E+00  0.18585442964E+03  0.18585442964E+03  0.00000000000E+00 0.  1.
         21   -1    0    0  501  502 -0.00000000000E+00 -0.00000000000E+00 -0.44050732988E+03  0.44050732988E+03  0.00000000000E+00 0.  1.
         25    1    1    2    0    0  0.34019345812E+02  0.16131560366E+03 -0.21130845270E+03  0.29573011692E+03  0.12500000000E+03 0.  0.
         25    1    1    2    0    0 -0.50280219845E+02 -0.11641681957E+03 -0.74862757239E+02  0.19315902466E+03  0.12500000000E+03 0.  0.
         25    1    1    2    0    0  0.16260874033E+02 -0.44898784091E+02  0.31518309694E+02  0.13747261794E+03  0.12500000000E+03 0.  0.
</event>
<event>
 5    0  0.5648525E-005  0.4926620E+03  0.7546771E-02  0.1015712E+00
         21   -1    0    0  502  501  0.00000000000E+00  0.00000000000E+00  0.93120705222E+03  0.93120705222E+03  0.00000000000E+00 0.  1.
         21   -1    0    0  501  502 -0.00000000000E+00 -0.00000000000E+00 -0.26064645374E+03  0.26064645374E+03  0.00000000000E+00 0.  1.
         25    1    1    2    0    0 -0.10572433446E+03  0.11132492993E+03  0.76392642132E+03  0.78916376761E+03  0.12500000000E+03 0.  0.
         25    1    1    2    0    0  0.13792534433E+02  0.24473773255E+00 -0.15709443625E+03  0.20123110049E+03  0.12500000000E+03 0.  0.
         25    1    1    2    0    0  0.91931800030E+02 -0.11156966766E+03  0.63728613411E+02  0.20145863786E+03  0.12500000000E+03 0.  0.
</event>
<event>
 5    0  0.5648525E-005  0.3933851E+03  0.7546771E-02  0.1046095E+00
         21   -1    0    0  502  501  0.00000000000E+00  0.00000000000E+00  0.75824475064E+02  0.75824475064E+02  0.00000000000E+00 0. -1.
         21   -1    0    0  501  502 -0.00000000000E+00 -0.00000000000E+00 -0.20409217157E+04  0.20409217157E+04  0.00000000000E+00 0. -1.
         25    1    1    2    0    0  0.24831930106E+03 -0.74165010386E+02 -0.62750569303E+03  0.69032696516E+03  0.12500000000E+03 0.  0.
         25    1    1    2    0    0  0.10545117740E+02  0.57640716071E+02 -0.84208433253E+03  0.85332565575E+03  0.12500000000E+03 0.  0.
         25    1    1    2    0    0 -0.25886441880E+03  0.16524294315E+02 -0.49550721506E+03  0.57309356985E+03  0.12500000000E+03 0.  0.
</event>
<event>
 5    0  0.5648525E-005  0.3122336E+03  0.7546771E-02  0.1079280E+00
         21   -1    0    0  502  501  0.00000000000E+00  0.00000000000E+00  0.71511455706E+03  0.71511455706E+03  0.00000000000E+00 0.  1.
         21   -1    0    0  501  502 -0.00000000000E+00 -0.00000000000E+00 -0.13632754873E+03  0.13632754873E+03  0.00000000000E+00 0.  1.
         25    1    1    2    0    0 -0.68140742376E+02  0.19296685482E+03  0.95021312602E+02  0.25794072513E+03  0.12500000000E+03 0.  0.
         25    1    1    2    0    0  0.72419804289E+02 -0.15771444240E+03  0.30084962157E+03  0.36912595167E+03  0.12500000000E+03 0.  0.
         25    1    1    2    0    0 -0.42790619134E+01 -0.35252412419E+02  0.18291607415E+03  0.22437542899E+03  0.12500000000E+03 0.  0.
</event>
<event>
 5    0  0.5648525E-005  0.3020043E+03  0.7546771E-02  0.1084243E+00
         21   -1    0    0  502  501  0.00000000000E+00  0.00000000000E+00  0.43702818753E+03  0.43702818753E+03  0.00000000000E+00 0. -1.
         21   -1    0    0  501  502 -0.00000000000E+00 -0.00000000000E+00 -0.20869729175E+03  0.20869729175E+03  0.00000000000E+00 0. -1.
         25    1    1    2    0    0 -0.15348915145E+03 -0.24635115416E+02  0.46489150253E+02  0.20482199495E+03  0.12500000000E+03 0.  0.
         25    1    1    2    0    0  0.28611331077E+02  0.12960171053E+03  0.14308890339E+03  0.23176420326E+03  0.12500000000E+03 0.  0.
         25    1    1    2    0    0  0.12487782038E+03 -0.10496659511E+03  0.38752842143E+02  0.20913928107E+03  0.12500000000E+03 0.  0.
</event>
<event>
 5    0  0.5648525E-005  0.4549947E+03  0.7546771E-02  0.1026243E+00
         21   -1    0    0  502  501  0.00000000000E+00  0.00000000000E+00  0.32021639945E+03  0.32021639945E+03  0.00000000000E+00 0. -1.
         21   -1    0    0  501  502 -0.00000000000E+00 -0.00000000000E+00 -0.64650089704E+03  0.64650089704E+03  0.00000000000E+00 0. -1.
         25    1    1    2    0    0  0.31304187837E+03 -0.15593469464E+02 -0.49516318541E+00  0.33743683719E+03  0.12500000000E+03 0.  0.
         25    1    1    2    0    0 -0.13642634502E+03 -0.13347371322E+03 -0.28227556975E+03  0.36294886281E+03  0.12500000000E+03 0.  0.
         25    1    1    2    0    0 -0.17661553335E+03  0.14906718269E+03 -0.43513764655E+02  0.26633159649E+03  0.12500000000E+03 0.  0.
</event>
<event>
 5    0  0.6453767E-005  0.3634206E+03  0.7546771E-02  0.1057238E+00
         21   -1    0    0  502  501  0.00000000000E+00  0.00000000000E+00  0.15666413806E+03  0.15666413806E+03  0.00000000000E+00 0. -1.
         21   -1    0    0  501  502 -0.00000000000E+00 -0.00000000000E+00 -0.84304249832E+03  0.84304249832E+03  0.00000000000E+00 0. -1.
         25    1    1    2    0    0 -0.71873896641E+02 -0.10917239982E+03 -0.47446086419E+02  0.18697754148E+03  0.12500000000E+03 0.  0.
         25    1    1    2    0    0 -0.10539630323E+03  0.74402079934E+02 -0.54494478559E+03  0.57378904623E+03  0.12500000000E+03 0.  0.
         25    1    1    2    0    0  0.17727019987E+03  0.34770319886E+02 -0.93987488253E+02  0.23894004867E+03  0.12500000000E+03 0.  0.
</event>
<event>
 5    0  0.5648525E-005  0.2899929E+03  0.7546771E-02  0.1090353E+00
         21   -1    0    0  502  501  0.00000000000E+00  0.00000000000E+00  0.14295210870E+03  0.14295210870E+03  0.00000000000E+00 0. -1.
         21   -1    0    0  501  502 -0.00000000000E+00 -0.00000000000E+00 -0.58828009637E+03  0.58828009637E+03  0.00000000000E+00 0. -1.
         25    1    1    2    0    0  0.66541391486E+01 -0.89840091342E+02 -0.11125609968E+03  0.19004851827E+03  0.12500000000E+03 0.  0.
         25    1    1    2    0    0  0.13047460272E+03 -0.45250102935E+02 -0.92530786626E+02  0.20798591357E+03  0.12500000000E+03 0.  0.
         25    1    1    2    0    0 -0.13712874187E+03  0.13509019428E+03 -0.24154110137E+03  0.33319777323E+03  0.12500000000E+03 0.  0.
</event>
<event>
 5    0  0.5648525E-005  0.2780630E+03  0.7546771E-02  0.1096752E+00
         21   -1    0    0  502  501  0.00000000000E+00  0.00000000000E+00  0.33762958460E+03  0.33762958460E+03  0.00000000000E+00 0.  1.
         21   -1    0    0  501  502 -0.00000000000E+00 -0.00000000000E+00 -0.22900555818E+03  0.22900555818E+03  0.00000000000E+00 0.  1.
         25    1    1    2    0    0 -0.77351150847E+01  0.94429488589E+02  0.20466711715E+03  0.25785730388E+03  0.12500000000E+03 0.  0.
         25    1    1    2    0    0 -0.12338085194E+02 -0.87232153011E+02 -0.98579319412E+02  0.18194658304E+03  0.12500000000E+03 0.  0.
         25    1    1    2    0    0  0.20073200279E+02 -0.71973355784E+01  0.25362286815E+01  0.12683125587E+03  0.12500000000E+03 0.  0.
</event>
<event>
 5    0  0.5648525E-005  0.2700485E+03  0.7546771E-02  0.1101252E+00
         21   -1    0    0  502  501  0.00000000000E+00  0.00000000000E+00  0.13716165677E+03  0.13716165677E+03  0.00000000000E+00 0.  1.
         21   -1    0    0  501  502 -0.00000000000E+00 -0.00000000000E+00 -0.53168070032E+03  0.53168070032E+03  0.00000000000E+00 0.  1.
         25    1    1    2    0    0  0.30396461139E+02  0.52189594959E+02 -0.85435100457E+02  0.16300875762E+03  0.12500000000E+03 0.  0.
         25    1    1    2    0    0  0.84047293063E+02  0.21930424267E+02 -0.27984049914E+03  0.31856019201E+03  0.12500000000E+03 0.  0.
         25    1    1    2    0    0 -0.11444375420E+03 -0.74120019226E+02 -0.29243443952E+02  0.18727340746E+03  0.12500000000E+03 0.  0.
</event>
<event>
 5    0  0.5648525E-005  0.5877226E+03  0.7546771E-02  0.9931210E-01
         21   -1    0    0  502  501  0.00000000000E+00  0.00000000000E+00  0.89642278711E+03  0.89642278711E+03  0.00000000000E+00 0. -1.
         21   -1    0    0  501  502 -0.00000000000E+00 -0.00000000000E+00 -0.38532924045E+03  0.38532924045E+03  0.00000000000E+00 0. -1.
         25    1    1    2    0    0  0.47619401291E+03  0.35845227116E+02  0.34906041018E+03  0.60457736328E+03  0.12500000000E+03 0.  0.
         25    1    1    2    0    0 -0.45837960150E+03  0.38234371750E+01  0.23058164788E+03  0.52812817959E+03  0.12500000000E+03 0.  0.
         25    1    1    2    0    0 -0.17814411417E+02 -0.39668664291E+02 -0.68548511397E+02  0.14904648468E+03  0.12500000000E+03 0.  0.
</event>
<event>
 5    0  0.5648525E-005  0.2479745E+03  0.7546771E-02  0.1114592E+00
         21   -1    0    0  502  501  0.00000000000E+00  0.00000000000E+00  0.90423136083E+02  0.90423136083E+02  0.00000000000E+00 0. -1.
         21   -1    0    0  501  502 -0.00000000000E+00 -0.00000000000E+00 -0.68004028872E+03  0.68004028872E+03  0.00000000000E+00 0. -1.
         25    1    1    2    0    0 -0.88708727667E+02  0.65251364466E+02 -0.39351180568E+03  0.42732133125E+03  0.12500000000E+03 0.  0.
         25    1    1    2    0    0  0.13993671176E+02 -0.23227992206E+02 -0.69003040301E+02  0.14533334795E+03  0.12500000000E+03 0.  0.
         25    1    1    2    0    0  0.74715056491E+02 -0.42023372261E+02 -0.12710230666E+03  0.19780874561E+03  0.12500000000E+03 0.  0.
</event>
<event>
 5    0  0.5648525E-005  0.3626978E+03  0.7546771E-02  0.1057521E+00
         21   -1    0    0  502  501  0.00000000000E+00  0.00000000000E+00  0.85127317475E+03  0.85127317475E+03  0.00000000000E+00 0. -1.
         21   -1    0    0  501  502 -0.00000000000E+00 -0.00000000000E+00 -0.15453288996E+03  0.15453288996E+03  0.00000000000E+00 0. -1.
         25    1    1    2    0    0  0.93916340610E+02  0.51065501365E+02  0.20559137158E+03  0.26328839042E+03  0.12500000000E+03 0.  0.
         25    1    1    2    0    0 -0.24849618152E+03 -0.51958619306E+01  0.89896367259E+02  0.29237596696E+03  0.12500000000E+03 0.  0.
         25    1    1    2    0    0  0.15457984091E+03 -0.45869639435E+02  0.40125254596E+03  0.45014170733E+03  0.12500000000E+03 0.  0.
</event>
<event>
 5    0  0.5648525E-005  0.2280301E+03  0.7546771E-02  0.1128034E+00
         21   -1    0    0  502  501  0.00000000000E+00  0.00000000000E+00  0.23472721642E+03  0.23472721642E+03  0.00000000000E+00 0.  1.
         21   -1    0    0  501  502 -0.00000000000E+00 -0.00000000000E+00 -0.22152413503E+03  0.22152413503E+03  0.00000000000E+00 0.  1.
         25    1    1    2    0    0  0.23973615919E+02 -0.97893749264E+01  0.44147774575E+02  0.13507254392E+03  0.12500000000E+03 0.  0.
         25    1    1    2    0    0 -0.47792752236E+02 -0.81433929815E+02  0.16645357594E+02  0.15753634508E+03  0.12500000000E+03 0.  0.
         25    1    1    2    0    0  0.23819136316E+02  0.91223304741E+02 -0.47590050782E+02  0.16364246245E+03  0.12500000000E+03 0.  0.
</event>
<event>
 5    0  0.5648525E-005  0.2653684E+03  0.7546771E-02  0.1103960E+00
         21   -1    0    0  502  501  0.00000000000E+00  0.00000000000E+00  0.11565391739E+03  0.11565391739E+03  0.00000000000E+00 0. -1.
         21   -1    0    0  501  502 -0.00000000000E+00 -0.00000000000E+00 -0.60888878617E+03  0.60888878617E+03  0.00000000000E+00 0. -1.
         25    1    1    2    0    0 -0.11860790190E+03  0.52103154965E+02 -0.25670120575E+03  0.31353322341E+03  0.12500000000E+03 0.  0.
         25    1    1    2    0    0  0.66466949129E+02 -0.12298766119E+02 -0.22916656160E+03  0.26965056635E+03  0.12500000000E+03 0.  0.
         25    1    1    2    0    0  0.52140952773E+02 -0.39804388846E+02 -0.73671014265E+01  0.14135891380E+03  0.12500000000E+03 0.  0.
</event>
<event>
 5    0  0.5819212E-005  0.4075944E+03  0.7546771E-02  0.1041181E+00
         21   -1    0    0  502  501  0.00000000000E+00  0.00000000000E+00  0.24114518873E+03  0.24114518873E+03  0.00000000000E+00 0. -1.
         21   -1    0    0  501  502 -0.00000000000E+00 -0.00000000000E+00 -0.68893437788E+03  0.68893437788E+03  0.00000000000E+00 0. -1.
         25    1    1    2    0    0 -0.11915704341E+03 -0.21076456030E+03 -0.20601474088E+03  0.34159504436E+03  0.12500000000E+03 0.  0.
         25    1    1    2    0    0  0.75283720792E+02  0.20813195900E+02 -0.31318770214E+03  0.34613922706E+03  0.12500000000E+03 0.  0.
         25    1    1    2    0    0  0.43873322621E+02  0.18995136440E+03  0.71413253862E+02  0.24234529519E+03  0.12500000000E+03 0.  0.
</event>
<event>
 5    0  0.5648525E-005  0.4065377E+03  0.7546771E-02  0.1041539E+00
         21   -1    0    0  502  501  0.00000000000E+00  0.00000000000E+00  0.11552168913E+04  0.11552168913E+04  0.00000000000E+00 0. -1.
         21   -1    0    0  501  502 -0.00000000000E+00 -0.00000000000E+00 -0.14306657178E+03  0.14306657178E+03  0.00000000000E+00 0. -1.
         25    1    1    2    0    0 -0.16954752750E+02  0.93295867359E+02  0.25030652536E+03  0.29541485938E+03  0.12500000000E+03 0.  0.
         25    1    1    2    0    0 -0.39799908494E+02 -0.26636918127E+03  0.11341632345E+03  0.31784404331E+03  0.12500000000E+03 0.  0.
         25    1    1    2    0    0  0.56754661245E+02  0.17307331391E+03  0.64842747074E+03  0.68502456041E+03  0.12500000000E+03 0.  0.
</event>
<event>
 5    0  0.5648525E-005  0.2747061E+03  0.7546771E-02  0.1098616E+00
         21   -1    0    0  502  501  0.00000000000E+00  0.00000000000E+00  0.19167575010E+03  0.19167575010E+03  0.00000000000E+00 0. -1.
         21   -1    0    0  501  502 -0.00000000000E+00 -0.00000000000E+00 -0.39370355967E+03  0.39370355967E+03  0.00000000000E+00 0. -1.
         25    1    1    2    0    0  0.10927044554E+03  0.10374128356E+03  0.16916530911E+02  0.19650306156E+03  0.12500000000E+03 0.  0.
         25    1    1    2    0    0 -0.47695846930E+02  0.65619583586E+01 -0.14202298009E+03  0.19522673994E+03  0.12500000000E+03 0.  0.
         25    1    1    2    0    0 -0.61574598613E+02 -0.11030324192E+03 -0.76921360388E+02  0.19364950828E+03  0.12500000000E+03 0.  0.
</event>
<event>
 5    0  0.5648525E-005  0.3958570E+03  0.7546771E-02  0.1045224E+00
         21   -1    0    0  502  501  0.00000000000E+00  0.00000000000E+00  0.10950245174E+04  0.10950245174E+04  0.00000000000E+00 0.  1.
         21   -1    0    0  501  502 -0.00000000000E+00 -0.00000000000E+00 -0.14310436700E+03  0.14310436700E+03  0.00000000000E+00 0. -1.
         25    1    1    2    0    0 -0.12852859794E+03  0.15767538223E+02  0.44859935823E+02  0.18548754565E+03  0.12500000000E+03 0.  0.
         25    1    1    2    0    0 -0.57196090427E+02 -0.17153679221E+03  0.61468694720E+03  0.65281031463E+03  0.12500000000E+03 0.  0.
         25    1    1    2    0    0  0.18572468836E+03  0.15576925399E+03  0.29237326734E+03  0.39983102407E+03  0.12500000000E+03 0.  0.
</event>
<event>
 5    0  0.5648525E-005  0.4886154E+03  0.7546771E-02  0.1016794E+00
         21   -1    0    0  502  501  0.00000000000E+00  0.00000000000E+00  0.42328040183E+03  0.42328040183E+03  0.00000000000E+00 0. -1.
         21   -1    0    0  501  502 -0.00000000000E+00 -0.00000000000E+00 -0.56403516274E+03  0.56403516274E+03  0.00000000000E+00 0.  1.
         25    1    1    2    0    0 -0.20517236281E+03 -0.22919767284E+03  0.40574552461E+02  0.33451243027E+03  0.12500000000E+03 0.  0.
         25    1    1    2    0    0  0.35791896645E+03  0.11571476910E+03 -0.83938943660E+02  0.40517482720E+03  0.12500000000E+03 0.  0.
         25    1    1    2    0    0 -0.15274660364E+03  0.11348290374E+03 -0.97390369718E+02  0.24762830710E+03  0.12500000000E+03 0.  0.
</event>
<event>
 5    0  0.5648525E-005  0.4367849E+03  0.7546771E-02  0.1031738E+00
         21   -1    0    0  502  501  0.00000000000E+00  0.00000000000E+00  0.15854512539E+03  0.15854512539E+03  0.00000000000E+00 0. -1.
         21   -1    0    0  501  502 -0.00000000000E+00 -0.00000000000E+00 -0.12033235622E+04  0.12033235622E+04  0.00000000000E+00 0. -1.
         25    1    1    2    0    0  0.10791688077E+02  0.10919611337E+03 -0.57983500419E+03  0.60321959832E+03  0.12500000000E+03 0.  0.
         25    1    1    2    0    0 -0.21681797602E+03 -0.10370687211E+03 -0.43947491858E+03  0.51626384157E+03  0.12500000000E+03 0.  0.
         25    1    1    2    0    0  0.20602628795E+03 -0.54892412606E+01 -0.25468514034E+02  0.24238524770E+03  0.12500000000E+03 0.  0.
</event>
<event>
 5    0  0.5648525E-005  0.3219065E+03  0.7546771E-02  0.1074775E+00
         21   -1    0    0  502  501  0.00000000000E+00  0.00000000000E+00  0.31993502100E+03  0.31993502100E+03  0.00000000000E+00 0.  1.
         21   -1    0    0  501  502 -0.00000000000E+00 -0.00000000000E+00 -0.32389021042E+03  0.32389021042E+03  0.00000000000E+00 0.  1.
         25    1    1    2    0    0 -0.23401766735E+02 -0.16755946864E+03 -0.98395913531E+02  0.23222957180E+03  0.12500000000E+03 0.  0.
         25    1    1    2    0    0  0.82336431764E+02  0.11666458741E+03 -0.59176855675E+02  0.19878836535E+03  0.12500000000E+03 0.  0.
         25    1    1    2    0    0 -0.58934665028E+02  0.50894881231E+02  0.15361757978E+03  0.21280729427E+03  0.12500000000E+03 0.  0.
</event>
<event>
 5    0  0.5648525E-005  0.2360677E+03  0.7546771E-02  0.1122440E+00
         21   -1    0    0  502  501  0.00000000000E+00  0.00000000000E+00  0.16787191535E+03  0.16787191535E+03  0.00000000000E+00 0.  1.
         21   -1    0    0  501  502 -0.00000000000E+00 -0.00000000000E+00 -0.33196724782E+03  0.33196724782E+03  0.00000000000E+00 0.  1.
         25    1    1    2    0    0 -0.32823448476E+02 -0.94684777504E+01 -0.92204266756E+02  0.15903979895E+03  0.12500000000E+03 0.  0.
         25    1    1    2    0    0 -0.88837219627E+02 -0.23513712902E+02 -0.42497516371E+02  0.16086014169E+03  0.12500000000E+03 0.  0.
         25    1    1    2    0    0  0.12166066810E+03  0.32982190653E+02 -0.29393549347E+02  0.17993922254E+03  0.12500000000E+03 0.  0.
</event>
<event>
 5    0  0.5648525E-005  0.3326800E+03  0.7546771E-02  0.1069957E+00
         21   -1    0    0  502  501  0.00000000000E+00  0.00000000000E+00  0.23197085776E+03  0.23197085776E+03  0.00000000000E+00 0.  1.
         21   -1    0    0  501  502 -0.00000000000E+00 -0.00000000000E+00 -0.47711144640E+03  0.47711144640E+03  0.00000000000E+00 0.  1.
         25    1    1    2    0    0  0.19960684960E+03  0.70004127016E+01 -0.89402055378E+02  0.25201116580E+03  0.12500000000E+03 0.  0.
         25    1    1    2    0    0 -0.12456252194E+02 -0.10355912817E+03 -0.13464719053E+03  0.21126882677E+03  0.12500000000E+03 0.  0.
         25    1    1    2    0    0 -0.18715059740E+03  0.96558715465E+02 -0.21091342731E+02  0.24580231158E+03  0.12500000000E+03 0.  0.
</event>
<event>
 5    0  0.5648525E-005  0.3880236E+03  0.7546771E-02  0.1048007E+00
         21   -1    0    0  502  501  0.00000000000E+00  0.00000000000E+00  0.12078112099E+03  0.12078112099E+03  0.00000000000E+00 0. -1.
         21   -1    0    0  501  502 -0.00000000000E+00 -0.00000000000E+00 -0.12465716765E+04  0.12465716765E+04  0.00000000000E+00 0. -1.
         25    1    1    2    0    0 -0.44830173455E+01  0.12072221103E+03 -0.37215232628E+02  0.17777492292E+03  0.12500000000E+03 0.  0.
         25    1    1    2    0    0 -0.79449390093E+02 -0.18928804758E+01 -0.91248874619E+02  0.17397455475E+03  0.12500000000E+03 0.  0.
         25    1    1    2    0    0  0.83932407439E+02 -0.11882933056E+03 -0.99732644827E+03  0.10156033198E+04  0.12500000000E+03 0.  0.
</event>
<event>
 5    0  0.5648525E-005  0.2585330E+03  0.7546771E-02  0.1108028E+00
         21   -1    0    0  502  501  0.00000000000E+00  0.00000000000E+00  0.22553396431E+03  0.22553396431E+03  0.00000000000E+00 0.  1.
         21   -1    0    0  501  502 -0.00000000000E+00 -0.00000000000E+00 -0.29636036970E+03  0.29636036970E+03  0.00000000000E+00 0.  1.
         25    1    1    2    0    0  0.12578416517E+03  0.34598507102E+02 -0.75265900009E+01  0.18083241540E+03  0.12500000000E+03 0.  0.
         25    1    1    2    0    0 -0.30547109255E+01 -0.66059187901E+02 -0.79698610724E+02  0.16232688045E+03  0.12500000000E+03 0.  0.
         25    1    1    2    0    0 -0.12272945425E+03  0.31460680799E+02  0.16398795336E+02  0.17873503816E+03  0.12500000000E+03 0.  0.
</event>
<event>
 5    0  0.5648525E-005  0.3436279E+03  0.7546771E-02  0.1065261E+00
         21   -1    0    0  502  501  0.00000000000E+00  0.00000000000E+00  0.76152163436E+03  0.76152163436E+03  0.00000000000E+00 0.  1.
         21   -1    0    0  501  502 -0.00000000000E+00 -0.00000000000E+00 -0.15505817222E+03  0.15505817222E+03  0.00000000000E+00 0.  1.
         25    1    1    2    0    0  0.25402959270E+02  0.13343731452E+03 -0.38140097555E+02  0.18849534288E+03  0.12500000000E+03 0.  0.
         25    1    1    2    0    0 -0.42465935334E+02 -0.79881459439E+02  0.15133392326E+03  0.21612810913E+03  0.12500000000E+03 0.  0.
         25    1    1    2    0    0  0.17062976064E+02 -0.53555855080E+02  0.49326963644E+03  0.51195635458E+03  0.12500000000E+03 0.  0.
</event>
<event>
 5    0  0.5648525E-005  0.2361344E+03  0.7546771E-02  0.1122395E+00
         21   -1    0    0  502  501  0.00000000000E+00  0.00000000000E+00  0.18118936325E+03  0.18118936325E+03  0.00000000000E+00 0.  1.
         21   -1    0    0  501  502 -0.00000000000E+00 -0.00000000000E+00 -0.30774129271E+03  0.30774129271E+03  0.00000000000E+00 0.  1.
         25    1    1    2    0    0 -0.29258923312E+02 -0.20821529126E+02  0.29002526327E+02  0.13325076811E+03  0.12500000000E+03 0.  0.
         25    1    1    2    0    0  0.29872364876E+02 -0.56300612598E+02 -0.15462798582E+03  0.20879878151E+03  0.12500000000E+03 0.  0.
         25    1    1    2    0    0 -0.61344156396E+00  0.77122141724E+02 -0.92646996587E+00  0.14688110635E+03  0.12500000000E+03 0.  0.
</event>
<event>
 5    0  0.5648525E-005  0.3524527E+03  0.7546771E-02  0.1061613E+00
         21   -1    0    0  502  501  0.00000000000E+00  0.00000000000E+00  0.57025608040E+02  0.57025608040E+02  0.00000000000E+00 0.  1.
         21   -1    0    0  501  502 -0.00000000000E+00 -0.00000000000E+00 -0.21783707203E+04  0.21783707203E+04  0.00000000000E+00 0.  1.
         25    1    1    2    0    0  0.16605527974E+03  0.14804652130E+03 -0.35252269506E+03  0.43518890028E+03  0.12500000000E+03 0.  0.
         25    1    1    2    0    0 -0.84613960598E+02 -0.75228535004E+02 -0.88168899558E+03  0.89767440631E+03  0.12500000000E+03 0.  0.
         25    1    1    2    0    0 -0.81441319145E+02 -0.72817986295E+02 -0.88713342159E+03  0.90253302172E+03  0.12500000000E+03 0.  0.
</event>
<event>
 5    0  0.5648525E-005  0.3036516E+03  0.7546771E-02  0.1083429E+00
         21   -1    0    0  502  501  0.00000000000E+00  0.00000000000E+00  0.31373427376E+03  0.31373427376E+03  0.00000000000E+00 0.  1.
         21   -1    0    0  501  502 -0.00000000000E+00 -0.00000000000E+00 -0.29389286867E+03  0.29389286867E+03  0.00000000000E+00 0.  1.
         25    1    1    2    0    0  0.11866818288E+03 -0.11533534903E+03  0.90906874579E+02  0.22643639330E+03  0.12500000000E+03 0.  0.
         25    1    1    2    0    0 -0.13323179310E+02  0.51931097919E+02 -0.13776783891E+03  0.19359577340E+03  0.12500000000E+03 0.  0.
         25    1    1    2    0    0 -0.10534500357E+03  0.63404251112E+02  0.66702369418E+02  0.18759497574E+03  0.12500000000E+03 0.  0.
</event>
<event>
 5    0  0.5648525E-005  0.2542217E+03  0.7546771E-02  0.1110665E+00
         21   -1    0    0  502  501  0.00000000000E+00  0.00000000000E+00  0.48025576391E+03  0.48025576391E+03  0.00000000000E+00 0.  1.
         21   -1    0    0  501  502 -0.00000000000E+00 -0.00000000000E+00 -0.13457141017E+03  0.13457141017E+03  0.00000000000E+00 0.  1.
         25    1    1    2    0    0 -0.23743143117E+02 -0.26855090867E+01  0.47510772171E+02  0.13584263792E+03  0.12500000000E+03 0.  0.
         25    1    1    2    0    0 -0.59433324010E+01  0.75519391444E+02  0.29731087809E+03  0.33129633248E+03  0.12500000000E+03 0.  0.
         25    1    1    2    0    0  0.29686475518E+02 -0.72833882357E+02  0.86270347519E+00  0.14768820368E+03  0.12500000000E+03 0.  0.
</event>
<event>
 5    0  0.5648525E-005  0.3512148E+03  0.7546771E-02  0.1062118E+00
         21   -1    0    0  502  501  0.00000000000E+00  0.00000000000E+00  0.35261201467E+03  0.35261201467E+03  0.00000000000E+00 0.  1.
         21   -1    0    0  501  502 -0.00000000000E+00 -0.00000000000E+00 -0.34982304193E+03  0.34982304193E+03  0.00000000000E+00 0.  1.
         25    1    1    2    0    0  0.88801570230E+01 -0.10998220900E+03 -0.87400015126E+02  0.18825170950E+03  0.12500000000E+03 0.  0.
         25    1    1    2    0    0  0.28505422323E+02 -0.23670930010E+02 -0.15718374086E+03  0.20421704243E+03  0.12500000000E+03 0.  0.
         25    1    1    2    0    0 -0.37385579346E+02  0.13365313901E+03  0.24737272873E+03  0.30996630467E+03  0.12500000000E+03 0.  0.
</event>
<event>
 5    0  0.5648525E-005  0.4835385E+03  0.7546771E-02  0.1018167E+00
         21   -1    0    0  502  501  0.00000000000E+00  0.00000000000E+00  0.59432295520E+03  0.59432295520E+03  0.00000000000E+00 0. -1.
         21   -1    0    0  501  502 -0.00000000000E+00 -0.00000000000E+00 -0.39340477809E+03  0.39340477809E+03  0.00000000000E+00 0. -1.
         25    1    1    2    0    0 -0.91548638196E+02 -0.59449838935E+02 -0.28515869544E+03  0.32993320246E+03  0.12500000000E+03 0.  0.
         25    1    1    2    0    0  0.15578245787E+03  0.13260283627E+02  0.63392831822E+02  0.20997061801E+03  0.12500000000E+03 0.  0.
         25    1    1    2    0    0 -0.64233819674E+02  0.46189555308E+02  0.42268404073E+03  0.44782391282E+03  0.12500000000E+03 0.  0.
</event>
<event>
 5    0  0.5648525E-005  0.3306278E+03  0.7546771E-02  0.1070859E+00
         21   -1    0    0  502  501  0.00000000000E+00  0.00000000000E+00  0.12903303365E+03  0.12903303365E+03  0.00000000000E+00 0.  1.
         21   -1    0    0  501  502 -0.00000000000E+00 -0.00000000000E+00 -0.84718397181E+03  0.84718397181E+03  0.00000000000E+00 0.  1.
         25    1    1    2    0    0 -0.12159913432E+02 -0.10614203614E+03 -0.38474859537E+03  0.41841424087E+03  0.12500000000E+03 0.  0.
         25    1    1    2    0    0 -0.32225059480E+02  0.23046309447E+03 -0.17685364176E+03  0.31788976545E+03  0.12500000000E+03 0.  0.
         25    1    1    2    0    0  0.44384972912E+02 -0.12432105833E+03 -0.15654870103E+03  0.23991299914E+03  0.12500000000E+03 0.  0.
</event>
<event>
 5    0  0.5648525E-005  0.3157478E+03  0.7546771E-02  0.1077623E+00
         21   -1    0    0  502  501  0.00000000000E+00  0.00000000000E+00  0.45015732148E+03  0.45015732148E+03  0.00000000000E+00 0.  1.
         21   -1    0    0  501  502 -0.00000000000E+00 -0.00000000000E+00 -0.22147070844E+03  0.22147070844E+03  0.00000000000E+00 0.  1.
         25    1    1    2    0    0 -0.55490525094E+02  0.13622279773E+03  0.16760589543E+03  0.25564151693E+03  0.12500000000E+03 0.  0.
         25    1    1    2    0    0 -0.10085459460E+03  0.13495693373E+02  0.15829075741E+02  0.16195475489E+03  0.12500000000E+03 0.  0.
         25    1    1    2    0    0  0.15634511970E+03 -0.14971849110E+03  0.45251641875E+02  0.25403175810E+03  0.12500000000E+03 0.  0.
</event>
<event>
 5    0  0.5648525E-005  0.3372107E+03  0.7546771E-02  0.1067990E+00
         21   -1    0    0  502  501  0.00000000000E+00  0.00000000000E+00  0.40479898147E+03  0.40479898147E+03  0.00000000000E+00 0. -1.
         21   -1    0    0  501  502 -0.00000000000E+00 -0.00000000000E+00 -0.28090739552E+03  0.28090739552E+03  0.00000000000E+00 0. -1.
         25    1    1    2    0    0  0.25856554436E+03  0.78909673071E+02  0.29064675833E+02  0.29925345882E+03  0.12500000000E+03 0.  0.
         25    1    1    2    0    0 -0.16303314090E+03 -0.23000310461E+02  0.66117601948E+02  0.21703768475E+03  0.12500000000E+03 0.  0.
         25    1    1    2    0    0 -0.95532403457E+02 -0.55909362610E+02  0.28709308176E+02  0.16941523342E+03  0.12500000000E+03 0.  0.
</event>
<event>
 5    0  0.5648525E-005  0.4802830E+03  0.7546771E-02  0.1019057E+00
         21   -1    0    0  502  501  0.00000000000E+00  0.00000000000E+00  0.23865411272E+03  0.23865411272E+03  0.00000000000E+00 0. -1.
         21   -1    0    0  501  502 -0.00000000000E+00 -0.00000000000E+00 -0.96655265094E+03  0.96655265094E+03  0.00000000000E+00 0. -1.
         25    1    1    2    0    0  0.92563127691E+02 -0.31400527544E+03 -0.20720533083E+03  0.40709494560E+03  0.12500000000E+03 0.  0.
         25    1    1    2    0    0 -0.22428292415E+02 -0.31095678630E+02  0.28525132820E+02  0.13382321448E+03  0.12500000000E+03 0.  0.
         25    1    1    2    0    0 -0.70134835276E+02  0.34510095407E+03 -0.54921834021E+03  0.66428860358E+03  0.12500000000E+03 0.  0.
</event>
<event>
 5    0  0.5648525E-005  0.3618085E+03  0.7546771E-02  0.1057870E+00
         21   -1    0    0  502  501  0.00000000000E+00  0.00000000000E+00  0.97287725156E+02  0.97287725156E+02  0.00000000000E+00 0. -1.
         21   -1    0    0  501  502 -0.00000000000E+00 -0.00000000000E+00 -0.13455487969E+04  0.13455487969E+04  0.00000000000E+00 0. -1.
         25    1    1    2    0    0  0.10018891571E+03 -0.15785393006E+03 -0.34659780432E+03  0.41317153826E+03  0.12500000000E+03 0.  0.
         25    1    1    2    0    0  0.18125362254E+02 -0.11435096088E+03 -0.24686907551E+03  0.29995668263E+03  0.12500000000E+03 0.  0.
         25    1    1    2    0    0 -0.11831427797E+03  0.27220489094E+03 -0.65479419188E+03  0.72970830113E+03  0.12500000000E+03 0.  0.
</event>
<event>
 5    0  0.5648525E-005  0.2646165E+03  0.7546771E-02  0.1104401E+00
         21   -1    0    0  502  501  0.00000000000E+00  0.00000000000E+00  0.75333094389E+02  0.75333094389E+02  0.00000000000E+00 0. -1.
         21   -1    0    0  501  502 -0.00000000000E+00 -0.00000000000E+00 -0.92949723124E+03  0.92949723124E+03  0.00000000000E+00 0. -1.
         25    1    1    2    0    0 -0.20439059678E+02 -0.74912648447E+02 -0.12775388233E+03  0.19487358597E+03  0.12500000000E+03 0.  0.
         25    1    1    2    0    0 -0.70419829343E+02  0.13023575799E+03 -0.41149267615E+03  0.45483131769E+03  0.12500000000E+03 0.  0.
         25    1    1    2    0    0  0.90858889021E+02 -0.55323109547E+02 -0.31491757837E+03  0.35512542198E+03  0.12500000000E+03 0.  0.
</event>
<event>
 5    0  0.5648525E-005  0.2910840E+03  0.7546771E-02  0.1089785E+00
         21   -1    0    0  502  501  0.00000000000E+00  0.00000000000E+00  0.26586487503E+03  0.26586487503E+03  0.00000000000E+00 0.  1.
         21   -1    0    0  501  502 -0.00000000000E+00 -0.00000000000E+00 -0.31869529327E+03  0.31869529327E+03  0.00000000000E+00 0.  1.
         25    1    1    2    0    0  0.35874618369E+02 -0.62530930098E+02 -0.18135110481E+03  0.23175488922E+03  0.12500000000E+03 0.  0.
         25    1    1    2    0    0  0.36762150387E+01 -0.19738648969E+01 -0.38528223429E+02  0.13086953312E+03  0.12500000000E+03 0.  0.
         25    1    1    2    0    0 -0.39550833408E+02  0.64504794995E+02  0.16704891000E+03  0.22193574595E+03  0.12500000000E+03 0.  0.
</event>
<event>
 5    0  0.5648525E-005  0.3879900E+03  0.7546771E-02  0.1048020E+00
         21   -1    0    0  502  501  0.00000000000E+00  0.00000000000E+00  0.11792926929E+04  0.11792926929E+04  0.00000000000E+00 0. -1.
         21   -1    0    0  501  502 -0.00000000000E+00 -0.00000000000E+00 -0.12764960763E+03  0.12764960763E+03  0.00000000000E+00 0. -1.
         25    1    1    2    0    0 -0.25661923630E+02 -0.26722716833E+02  0.29921406671E+03  0.32638427602E+03  0.12500000000E+03 0.  0.
         25    1    1    2    0    0 -0.94892108346E+02 -0.28827804952E+02 -0.42386547453E+02  0.16509746809E+03  0.12500000000E+03 0.  0.
         25    1    1    2    0    0  0.12055403198E+03  0.55550521785E+02  0.79481556597E+03  0.81546055638E+03  0.12500000000E+03 0.  0.
</event>
<event>
 5    0  0.5648525E-005  0.3242629E+03  0.7546771E-02  0.1073704E+00
         21   -1    0    0  502  501  0.00000000000E+00  0.00000000000E+00  0.77822964533E+03  0.77822964533E+03  0.00000000000E+00 0. -1.
         21   -1    0    0  501  502 -0.00000000000E+00 -0.00000000000E+00 -0.13510980364E+03  0.13510980364E+03  0.00000000000E+00 0. -1.
         25    1    1    2    0    0 -0.11021938704E+03  0.10090999517E+03  0.49950428514E+03  0.53615358926E+03  0.12500000000E+03 0.  0.
         25    1    1    2    0    0  0.13278218430E+03 -0.54938826560E+01  0.11527649097E+03  0.21581232723E+03  0.12500000000E+03 0.  0.
         25    1    1    2    0    0 -0.22562797259E+02 -0.95416112511E+02  0.28339065579E+02  0.16137353248E+03  0.12500000000E+03 0.  0.
</event>
<event>
 5    0  0.5648525E-005  0.2375651E+03  0.7546771E-02  0.1121426E+00
         21   -1    0    0  502  501  0.00000000000E+00  0.00000000000E+00  0.62469178001E+02  0.62469178001E+02  0.00000000000E+00 0.  1.
         21   -1    0    0  501  502 -0.00000000000E+00 -0.00000000000E+00 -0.90344018177E+03  0.90344018177E+03  0.00000000000E+00 0.  1.
         25    1    1    2    0    0 -0.68183656902E+02  0.45206654555E+02 -0.52010921374E+03  0.54113884254E+03  0.12500000000E+03 0.  0.
         25    1    1    2    0    0  0.34197552424E+02  0.58530783314E+01 -0.20978605700E+03  0.24665546990E+03  0.12500000000E+03 0.  0.
         25    1    1    2    0    0  0.33986104479E+02 -0.51059732886E+02 -0.11107573302E+03  0.17811504733E+03  0.12500000000E+03 0.  0.
</event>
<event>
 5    0  0.5648525E-005  0.3802867E+03  0.7546771E-02  0.1050828E+00
         21   -1    0    0  502  501  0.00000000000E+00  0.00000000000E+00  0.40179585692E+03  0.40179585692E+03  0.00000000000E+00 0. -1.
         21   -1    0    0  501  502 -0.00000000000E+00 -0.00000000000E+00 -0.35992904420E+03  0.35992904420E+03  0.00000000000E+00 0. -1.
         25    1    1    2    0    0  0.12229902325E+03 -0.87556361790E+01 -0.10177879394E+03  0.20252810953E+03  0.12500000000E+03 0.  0.
         25    1    1    2    0    0 -0.11935605196E+03 -0.21912132895E+03  0.94655550562E+02  0.29469424357E+03  0.12500000000E+03 0.  0.
         25    1    1    2    0    0 -0.29429712902E+01  0.22787696513E+03  0.48990056092E+02  0.26450254803E+03  0.12500000000E+03 0.  0.
</event>
<event>
 5    0  0.5648525E-005  0.2873692E+03  0.7546771E-02  0.1091731E+00
         21   -1    0    0  502  501  0.00000000000E+00  0.00000000000E+00  0.78408358290E+02  0.78408358290E+02  0.00000000000E+00 0. -1.
         21   -1    0    0  501  502 -0.00000000000E+00 -0.00000000000E+00 -0.10532177772E+04  0.10532177772E+04  0.00000000000E+00 0. -1.
         25    1    1    2    0    0  0.44082680018E+02 -0.31831011154E+02 -0.53309304596E+03  0.55024511956E+03  0.12500000000E+03 0.  0.
         25    1    1    2    0    0 -0.70706468336E+02 -0.11395457781E+03 -0.23365090321E+03  0.29698955376E+03  0.12500000000E+03 0.  0.
         25    1    1    2    0    0  0.26623788317E+02  0.14578558896E+03 -0.20806546970E+03  0.28439146213E+03  0.12500000000E+03 0.  0.
</event>
<event>
 5    0  0.5648525E-005  0.3305935E+03  0.7546771E-02  0.1070875E+00
         21   -1    0    0  502  501  0.00000000000E+00  0.00000000000E+00  0.49438227677E+03  0.49438227677E+03  0.00000000000E+00 0. -1.
         21   -1    0    0  501  502 -0.00000000000E+00 -0.00000000000E+00 -0.22106788535E+03  0.22106788535E+03  0.00000000000E+00 0. -1.
         25    1    1    2    0    0  0.25116116365E+03  0.42381340053E+02  0.85768650511E+02  0.29641081209E+03  0.12500000000E+03 0.  0.
         25    1    1    2    0    0 -0.12860207734E+03  0.12737879929E+02  0.41577013032E+02  0.18453833177E+03  0.12500000000E+03 0.  0.
         25    1    1    2    0    0 -0.12255908631E+03 -0.55119219982E+02  0.14596872787E+03  0.23450101826E+03  0.12500000000E+03 0.  0.
</event>
<event>
 5    0  0.5648525E-005  0.4337071E+03  0.7546771E-02  0.1032695E+00
         21   -1    0    0  502  501  0.00000000000E+00  0.00000000000E+00  0.20792273412E+04  0.20792273412E+04  0.00000000000E+00 0. -1.
         21   -1    0    0  501  502 -0.00000000000E+00 -0.00000000000E+00 -0.90467189520E+02  0.90467189520E+02  0.00000000000E+00 0. -1.
         25    1    1    2    0    0  0.71386484799E+02 -0.17721082138E+03  0.45055448077E+03  0.50509805540E+03  0.12500000000E+03 0.  0.
         25    1    1    2    0    0 -0.30801088178E+03  0.37967184565E+02  0.80663354518E+03  0.87326679005E+03  0.12500000000E+03 0.  0.
         25    1    1    2    0    0  0.23662439698E+03  0.13924363682E+03  0.73157212573E+03  0.79132968527E+03  0.12500000000E+03 0.  0.
</event>
<event>
 5    0  0.5648525E-005  0.4132887E+03  0.7546771E-02  0.1039273E+00
         21   -1    0    0  502  501  0.00000000000E+00  0.00000000000E+00  0.17582228700E+04  0.17582228700E+04  0.00000000000E+00 0.  1.
         21   -1    0    0  501  502 -0.00000000000E+00 -0.00000000000E+00 -0.97147860449E+02  0.97147860449E+02  0.00000000000E+00 0.  1.
         25    1    1    2    0    0  0.15114861450E+02  0.17003061505E+03  0.25860449398E+03  0.33412595439E+03  0.12500000000E+03 0.  0.
         25    1    1    2    0    0 -0.92536869860E+02 -0.30763201071E+03  0.11365678016E+04  0.11876918346E+04  0.12500000000E+03 0.  0.
         25    1    1    2    0    0  0.77422008410E+02  0.13760139567E+03  0.26590271402E+03  0.33355294152E+03  0.12500000000E+03 0.  0.
</event>
<event>
 5    0  0.5648525E-005  0.2391593E+03  0.7546771E-02  0.1120354E+00
         21   -1    0    0  502  501  0.00000000000E+00  0.00000000000E+00  0.58063742966E+02  0.58063742966E+02  0.00000000000E+00 0. -1.
         21   -1    0    0  501  502 -0.00000000000E+00 -0.00000000000E+00 -0.98507587770E+03  0.98507587770E+03  0.00000000000E+00 0. -1.
         25    1    1    2    0    0 -0.15768335861E+02  0.36433453818E+02 -0.20894945275E+03  0.24670004211E+03  0.12500000000E+03 0.  0.
         25    1    1    2    0    0 -0.10402761634E+03  0.15183978919E+02 -0.31887975102E+03  0.35827586269E+03  0.12500000000E+03 0.  0.
         25    1    1    2    0    0  0.11979595220E+03 -0.51617432736E+02 -0.39918293097E+03  0.43816371586E+03  0.12500000000E+03 0.  0.
</event>
<event>
 5    0  0.5648525E-005  0.2069356E+03  0.7546771E-02  0.1144016E+00
         21   -1    0    0  502  501  0.00000000000E+00  0.00000000000E+00  0.60014417360E+03  0.60014417360E+03  0.00000000000E+00 0. -1.
         21   -1    0    0  501  502 -0.00000000000E+00 -0.00000000000E+00 -0.71353391455E+02  0.71353391455E+02  0.00000000000E+00 0. -1.
         25    1    1    2    0    0 -0.22762337772E+02  0.48228493118E+02  0.16708344637E+03  0.21537406905E+03  0.12500000000E+03 0.  0.
         25    1    1    2    0    0  0.18901883618E+02 -0.45403060776E+02  0.10477279345E+03  0.17035567903E+03  0.12500000000E+03 0.  0.
         25    1    1    2    0    0  0.38604541542E+01 -0.28254323420E+01  0.25693454233E+03  0.28576781698E+03  0.12500000000E+03 0.  0.
</event>
<event>
 5    0  0.5648525E-005  0.2557209E+03  0.7546771E-02  0.1109742E+00
         21   -1    0    0  502  501  0.00000000000E+00  0.00000000000E+00  0.19989314370E+03  0.19989314370E+03  0.00000000000E+00 0.  1.
         21   -1    0    0  501  502 -0.00000000000E+00 -0.00000000000E+00 -0.32714068035E+03  0.32714068035E+03  0.00000000000E+00 0.  1.
         25    1    1    2    0    0 -0.86651540045E+02 -0.63320225867E+02 -0.45620366552E+02  0.17095074800E+03  0.12500000000E+03 0.  0.
         25    1    1    2    0    0 -0.47877090113E+02  0.44895149959E+02  0.24338288365E+02  0.14326598524E+03  0.12500000000E+03 0.  0.
         25    1    1    2    0    0  0.13452863016E+03  0.18425075908E+02 -0.10596545846E+03  0.21281709081E+03  0.12500000000E+03 0.  0.
</event>
<event>
 5    0  0.5648525E-005  0.2219425E+03  0.7546771E-02  0.1132443E+00
         21   -1    0    0  502  501  0.00000000000E+00  0.00000000000E+00  0.37736325005E+03  0.37736325005E+03  0.00000000000E+00 0.  1.
         21   -1    0    0  501  502 -0.00000000000E+00 -0.00000000000E+00 -0.13053334549E+03  0.13053334549E+03  0.00000000000E+00 0.  1.
         25    1    1    2    0    0 -0.38981508374E+01 -0.54063939127E+01  0.15223459882E+03  0.19709083630E+03  0.12500000000E+03 0.  0.
         25    1    1    2    0    0 -0.71241859222E+02  0.58532532847E+01  0.78691798671E+02  0.16409467468E+03  0.12500000000E+03 0.  0.
         25    1    1    2    0    0  0.75140010060E+02 -0.44685937194E+00  0.15903507066E+02  0.14671108456E+03  0.12500000000E+03 0.  0.
</event>
<event>
 5    0  0.5648525E-005  0.4368880E+03  0.7546771E-02  0.1031706E+00
         21   -1    0    0  502  501  0.00000000000E+00  0.00000000000E+00  0.98503977555E+03  0.98503977555E+03  0.00000000000E+00 0. -1.
         21   -1    0    0  501  502 -0.00000000000E+00 -0.00000000000E+00 -0.19376997424E+03  0.19376997424E+03  0.00000000000E+00 0. -1.
         25    1    1    2    0    0  0.12832723662E+03 -0.23153012481E+03  0.48946063942E+03  0.57032516680E+03  0.12500000000E+03 0.  0.
         25    1    1    2    0    0  0.12663651463E+03  0.94087243887E+02  0.18093141775E+03  0.27064810036E+03  0.12500000000E+03 0.  0.
         25    1    1    2    0    0 -0.25496375124E+03  0.13744288092E+03  0.12087774414E+03  0.33783648263E+03  0.12500000000E+03 0.  0.
</event>
<event>
 5    0  0.5648525E-005  0.3709372E+03  0.7546771E-02  0.1054335E+00
         21   -1    0    0  502  501  0.00000000000E+00  0.00000000000E+00  0.20355043862E+04  0.20355043862E+04  0.00000000000E+00 0.  1.
         21   -1    0    0  501  502 -0.00000000000E+00 -0.00000000000E+00 -0.67597199241E+02  0.67597199241E+02  0.00000000000E+00 0. -1.
         25    1    1    2    0    0 -0.82731640054E+02  0.22962296001E+02  0.20718527331E+03  0.25675382914E+03  0.12500000000E+03 0.  0.
         25    1    1    2    0    0  0.19222183441E+03 -0.18336546979E+03  0.12770212844E+04  0.13103360218E+04  0.12500000000E+03 0.  0.
         25    1    1    2    0    0 -0.10949019435E+03  0.16040317378E+03  0.48370062929E+03  0.53601173457E+03  0.12500000000E+03 0.  0.
</event>
<event>
 5    0  0.5648525E-005  0.3432488E+03  0.7546771E-02  0.1065421E+00
         21   -1    0    0  502  501  0.00000000000E+00  0.00000000000E+00  0.25056777191E+03  0.25056777191E+03  0.00000000000E+00 0.  1.
         21   -1    0    0  501  502 -0.00000000000E+00 -0.00000000000E+00 -0.47021094845E+03  0.47021094845E+03  0.00000000000E+00 0.  1.
         25    1    1    2    0    0  0.15936438521E+03  0.13401100379E+03  0.89515175228E+02  0.25883184311E+03  0.12500000000E+03 0.  0.
         25    1    1    2    0    0 -0.10157639005E+03 -0.75527280527E+02 -0.97843074118E+02  0.20302807755E+03  0.12500000000E+03 0.  0.
         25    1    1    2    0    0 -0.57787995161E+02 -0.58483723265E+02 -0.21131527765E+03  0.25891879970E+03  0.12500000000E+03 0.  0.
</event>
<event>
 5    0  0.5648525E-005  0.4068383E+03  0.7546771E-02  0.1041437E+00
         21   -1    0    0  502  501  0.00000000000E+00  0.00000000000E+00  0.67210364296E+03  0.67210364296E+03  0.00000000000E+00 0. -1.
         21   -1    0    0  501  502 -0.00000000000E+00 -0.00000000000E+00 -0.24626773256E+03  0.24626773256E+03  0.00000000000E+00 0. -1.
         25    1    1    2    0    0  0.13143830305E+03 -0.20562978375E+03 -0.40485259827E+02  0.27717087101E+03  0.12500000000E+03 0.  0.
         25    1    1    2    0    0 -0.39465005729E+01 -0.43248634860E+02  0.11729114371E+03  0.17682825475E+03  0.12500000000E+03 0.  0.
         25    1    1    2    0    0 -0.12749180248E+03  0.24887841861E+03  0.34903002651E+03  0.46437224977E+03  0.12500000000E+03 0.  0.
</event>
<event>
 5    0  0.5648525E-005  0.4112101E+03  0.7546771E-02  0.1039966E+00
         21   -1    0    0  502  501  0.00000000000E+00  0.00000000000E+00  0.57745618331E+03  0.57745618331E+03  0.00000000000E+00 0. -1.
         21   -1    0    0  501  502 -0.00000000000E+00 -0.00000000000E+00 -0.29282519774E+03  0.29282519774E+03  0.00000000000E+00 0. -1.
         25    1    1    2    0    0 -0.23244409397E+02  0.43525245254E+02  0.16057583918E+03  0.20939042402E+03  0.12500000000E+03 0.  0.
         25    1    1    2    0    0 -0.19667642489E+03  0.19203480657E+03  0.80408850788E+02  0.31248930594E+03  0.12500000000E+03 0.  0.
         25    1    1    2    0    0  0.21992083428E+03 -0.23556005183E+03  0.43646295601E+02  0.34840165110E+03  0.12500000000E+03 0.  0.
</event>
<event>
 5    0  0.6205503E-005  0.3386042E+03  0.7546771E-02  0.1067392E+00
         21   -1    0    0  502  501  0.00000000000E+00  0.00000000000E+00  0.57121237831E+03  0.57121237831E+03  0.00000000000E+00 0. -1.
         21   -1    0    0  501  502 -0.00000000000E+00 -0.00000000000E+00 -0.20071838886E+03  0.20071838886E+03  0.00000000000E+00 0. -1.
         25    1    1    2    0    0  0.21100573958E+03  0.27275475174E+01  0.28688037741E+03  0.37743371947E+03  0.12500000000E+03 0.  0.
         25    1    1    2    0    0 -0.11738855291E+03  0.40223418696E+02 -0.51568567827E+02  0.18352741744E+03  0.12500000000E+03 0.  0.
         25    1    1    2    0    0 -0.93617186673E+02 -0.42950966213E+02  0.13518217987E+03  0.21096963026E+03  0.12500000000E+03 0.  0.
</event>
<event>
 5    0  0.5648525E-005  0.2823012E+03  0.7546771E-02  0.1094439E+00
         21   -1    0    0  502  501  0.00000000000E+00  0.00000000000E+00  0.24427578459E+04  0.24427578459E+04  0.00000000000E+00 0.  1.
         21   -1    0    0  501  502 -0.00000000000E+00 -0.00000000000E+00 -0.32624594108E+02  0.32624594108E+02  0.00000000000E+00 0.  1.
         25    1    1    2    0    0  0.65112808736E+02 -0.44807804034E+02  0.13286013862E+04  0.13368074134E+04  0.12500000000E+03 0.  0.
         25    1    1    2    0    0 -0.58797171426E+02  0.10084904005E+03  0.86878933543E+03  0.88546459308E+03  0.12500000000E+03 0.  0.
         25    1    1    2    0    0 -0.63156373100E+01 -0.56041236019E+02  0.21274253017E+03  0.25311043351E+03  0.12500000000E+03 0.  0.
</event>
<event>
 5    0  0.5648525E-005  0.3449313E+03  0.7546771E-02  0.1064715E+00
         21   -1    0    0  502  501  0.00000000000E+00  0.00000000000E+00  0.24642784244E+03  0.24642784244E+03  0.00000000000E+00 0. -1.
         21   -1    0    0  501  502 -0.00000000000E+00 -0.00000000000E+00 -0.48280916444E+03  0.48280916444E+03  0.00000000000E+00 0. -1.
         25    1    1    2    0    0  0.21707868755E+02 -0.11696949227E+02 -0.85387245591E+02  0.15337546054E+03  0.12500000000E+03 0.  0.
         25    1    1    2    0    0  0.42346488180E+02  0.19059998419E+03  0.86102150823E+02  0.24730580141E+03  0.12500000000E+03 0.  0.
         25    1    1    2    0    0 -0.64054356936E+02 -0.17890303496E+03 -0.23709622723E+03  0.32855574494E+03  0.12500000000E+03 0.  0.
</event>
<event>
 5    0  0.6641061E-005  0.3012806E+03  0.7546771E-02  0.1084602E+00
         21   -1    0    0  502  501  0.00000000000E+00  0.00000000000E+00  0.44562868114E+03  0.44562868114E+03  0.00000000000E+00 0. -1.
         21   -1    0    0  501  502 -0.00000000000E+00 -0.00000000000E+00 -0.20368977348E+03  0.20368977348E+03  0.00000000000E+00 0. -1.
         25    1    1    2    0    0  0.72931804340E+02  0.11845246637E+03 -0.70304217516E+02  0.19979418879E+03  0.12500000000E+03 0.  0.
         25    1    1    2    0    0 -0.95998235770E+02 -0.91362963611E+02  0.12247319176E+03  0.21951659411E+03  0.12500000000E+03 0.  0.
         25    1    1    2    0    0  0.23066431430E+02 -0.27089502755E+02  0.18976993341E+03  0.23000767171E+03  0.12500000000E+03 0.  0.
</event>
<event>
 5    0  0.6243122E-005  0.2589121E+03  0.7546771E-02  0.1107799E+00
         21   -1    0    0  502  501  0.00000000000E+00  0.00000000000E+00  0.55611522047E+03  0.55611522047E+03  0.00000000000E+00 0.  1.
         21   -1    0    0  501  502 -0.00000000000E+00 -0.00000000000E+00 -0.12054244165E+03  0.12054244165E+03  0.00000000000E+00 0.  1.
         25    1    1    2    0    0  0.55191303966E+02 -0.42999493855E+02  0.40536644811E+02  0.14887328866E+03  0.12500000000E+03 0.  0.
         25    1    1    2    0    0 -0.14333572677E+03  0.42402823844E+02  0.25031993227E+03  0.31721948007E+03  0.12500000000E+03 0.  0.
         25    1    1    2    0    0  0.88144422809E+02  0.59667001095E+00  0.14471620174E+03  0.21056489340E+03  0.12500000000E+03 0.  0.
</event>
<event>
 5    0  0.5648525E-005  0.3079541E+03  0.7546771E-02  0.1081331E+00
         21   -1    0    0  502  501  0.00000000000E+00  0.00000000000E+00  0.94457120833E+03  0.94457120833E+03  0.00000000000E+00 0. -1.
         21   -1    0    0  501  502 -0.00000000000E+00 -0.00000000000E+00 -0.10040083561E+03  0.10040083561E+03  0.00000000000E+00 0. -1.
         25    1    1    2    0    0  0.92822413343E+02 -0.83311423908E+02  0.18243738572E+03  0.25389996747E+03  0.12500000000E+03 0.  0.
         25    1    1    2    0    0 -0.72960592487E+02 -0.57610160029E+02  0.54894182076E+03  0.57061747359E+03  0.12500000000E+03 0.  0.
         25    1    1    2    0    0 -0.19861820856E+02  0.14092158394E+03  0.11279116625E+03  0.22045460288E+03  0.12500000000E+03 0.  0.
</event>
<event>
 5    0  0.5648525E-005  0.7724181E+03  0.7546771E-02  0.9600822E-01
         21   -1    0    0  502  501  0.00000000000E+00  0.00000000000E+00  0.82216173994E+03  0.82216173994E+03  0.00000000000E+00 0.  1.
         21   -1    0    0  501  502 -0.00000000000E+00 -0.00000000000E+00 -0.72568405423E+03  0.72568405423E+03  0.00000000000E+00 0.  1.
         25    1    1    2    0    0 -0.41198522268E+02 -0.29354627365E+03  0.29237884871E+03  0.43471499190E+03  0.12500000000E+03 0.  0.
         25    1    1    2    0    0 -0.21812038560E+03 -0.11469190775E+03  0.30095983235E+03  0.40857380852E+03  0.12500000000E+03 0.  0.
         25    1    1    2    0    0  0.25931890787E+03  0.40823818140E+03 -0.49686099536E+03  0.70455699375E+03  0.12500000000E+03 0.  0.
</event>
<event>
 5    0  0.5648525E-005  0.2417788E+03  0.7546771E-02  0.1118613E+00
         21   -1    0    0  502  501  0.00000000000E+00  0.00000000000E+00  0.32990573569E+03  0.32990573569E+03  0.00000000000E+00 0.  1.
         21   -1    0    0  501  502 -0.00000000000E+00 -0.00000000000E+00 -0.17719306226E+03  0.17719306226E+03  0.00000000000E+00 0.  1.
         25    1    1    2    0    0 -0.10493595260E+03 -0.40424491635E+02  0.11429360188E+03  0.20330696275E+03  0.12500000000E+03 0.  0.
         25    1    1    2    0    0  0.69776499990E+02  0.11888099094E+02 -0.40415876674E+02  0.14922643847E+03  0.12500000000E+03 0.  0.
         25    1    1    2    0    0  0.35159452605E+02  0.28536392541E+02  0.78834948221E+02  0.15456539673E+03  0.12500000000E+03 0.  0.
</event>
<event>
 5    0  0.5648525E-005  0.4752984E+03  0.7546771E-02  0.1020435E+00
         21   -1    0    0  502  501  0.00000000000E+00  0.00000000000E+00  0.78952964679E+02  0.78952964679E+02  0.00000000000E+00 0.  1.
         21   -1    0    0  501  502 -0.00000000000E+00 -0.00000000000E+00 -0.28613059407E+04  0.28613059407E+04  0.00000000000E+00 0.  1.
         25    1    1    2    0    0  0.23045098858E+03 -0.11834294705E+03 -0.79733216987E+03  0.84762981328E+03  0.12500000000E+03 0.  0.
         25    1    1    2    0    0 -0.13533666452E+03  0.18982954068E+03 -0.30485885154E+03  0.40362753454E+03  0.12500000000E+03 0.  0.
         25    1    1    2    0    0 -0.95114324056E+02 -0.71486593630E+02 -0.16801619546E+04  0.16890015576E+04  0.12500000000E+03 0.  0.
</event>
<event>
 5    0  0.5648525E-005  0.2977326E+03  0.7546771E-02  0.1086380E+00
         21   -1    0    0  502  501  0.00000000000E+00  0.00000000000E+00  0.99036290195E+02  0.99036290195E+02  0.00000000000E+00 0.  1.
         21   -1    0    0  501  502 -0.00000000000E+00 -0.00000000000E+00 -0.89507320653E+03  0.89507320653E+03  0.00000000000E+00 0.  1.
         25    1    1    2    0    0 -0.65910017195E+02  0.70622615612E+02 -0.11025682547E+03  0.19264799964E+03  0.12500000000E+03 0.  0.
         25    1    1    2    0    0 -0.79717004128E+02 -0.14590062887E+03 -0.36640912223E+03  0.42133411814E+03  0.12500000000E+03 0.  0.
         25    1    1    2    0    0  0.14562702132E+03  0.75278013258E+02 -0.31937096864E+03  0.38012737895E+03  0.12500000000E+03 0.  0.
</event>
<event>
 5    0  0.5648525E-005  0.3797530E+03  0.7546771E-02  0.1051025E+00
         21   -1    0    0  502  501  0.00000000000E+00  0.00000000000E+00  0.26147865678E+03  0.26147865678E+03  0.00000000000E+00 0.  1.
         21   -1    0    0  501  502 -0.00000000000E+00 -0.00000000000E+00 -0.55152621910E+03  0.55152621910E+03  0.00000000000E+00 0.  1.
         25    1    1    2    0    0 -0.13101723749E+03 -0.13898485494E+03  0.29924642403E+02  0.23022334948E+03  0.12500000000E+03 0.  0.
         25    1    1    2    0    0  0.11177181365E+03  0.25030939415E+03 -0.12797608527E+03  0.32733867710E+03  0.12500000000E+03 0.  0.
         25    1    1    2    0    0  0.19245423842E+02 -0.11132453922E+03 -0.19199611945E+03  0.25544284930E+03  0.12500000000E+03 0.  0.
</event>
<event>
 5    0  0.6676765E-005  0.5430048E+03  0.7546771E-02  0.1003126E+00
         21   -1    0    0  502  501  0.00000000000E+00  0.00000000000E+00  0.43872477619E+03  0.43872477619E+03  0.00000000000E+00 0.  1.
         21   -1    0    0  501  502 -0.00000000000E+00 -0.00000000000E+00 -0.67207108077E+03  0.67207108077E+03  0.00000000000E+00 0.  1.
         25    1    1    2    0    0 -0.15630510305E+03  0.25737462182E+03 -0.44311368545E+02  0.32903112099E+03  0.12500000000E+03 0.  0.
         25    1    1    2    0    0  0.53623591233E+01  0.23690031245E+01 -0.38301968526E+03  0.40294347788E+03  0.12500000000E+03 0.  0.
         25    1    1    2    0    0  0.15094274393E+03 -0.25974362494E+03  0.19398474923E+03  0.37882125809E+03  0.12500000000E+03 0.  0.
</event>
<event>
 5    0  0.5648525E-005  0.2693255E+03  0.7546771E-02  0.1101666E+00
         21   -1    0    0  502  501  0.00000000000E+00  0.00000000000E+00  0.86095048134E+03  0.86095048134E+03  0.00000000000E+00 0. -1.
         21   -1    0    0  501  502 -0.00000000000E+00 -0.00000000000E+00 -0.84251328703E+02  0.84251328703E+02  0.00000000000E+00 0. -1.
         25    1    1    2    0    0  0.12252770301E+03 -0.11512588765E+03  0.36340961037E+03  0.41947413856E+03  0.12500000000E+03 0.  0.
         25    1    1    2    0    0 -0.34886731247E+02  0.18653979388E+02  0.10307569999E+03  0.16677726132E+03  0.12500000000E+03 0.  0.
         25    1    1    2    0    0 -0.87640971761E+02  0.96471908266E+02  0.31021384227E+03  0.35895041016E+03  0.12500000000E+03 0.  0.
</event>
<event>
 5    0  0.5648525E-005  0.4566638E+03  0.7546771E-02  0.1025753E+00
         21   -1    0    0  502  501  0.00000000000E+00  0.00000000000E+00  0.36088730436E+03  0.36088730436E+03  0.00000000000E+00 0.  1.
         21   -1    0    0  501  502 -0.00000000000E+00 -0.00000000000E+00 -0.57785857134E+03  0.57785857134E+03  0.00000000000E+00 0.  1.
         25    1    1    2    0    0 -0.21268893934E+03  0.26613095991E+02 -0.28241994412E+03  0.37593997744E+03  0.12500000000E+03 0.  0.
         25    1    1    2    0    0 -0.10429600017E+03 -0.47119820234E+02  0.13225172742E+03  0.21497314371E+03  0.12500000000E+03 0.  0.
         25    1    1    2    0    0  0.31698493951E+03  0.20506724243E+02 -0.66803050272E+02  0.34783275455E+03  0.12500000000E+03 0.  0.
</event>
<event>
 5    0  0.5648525E-005  0.3485583E+03  0.7546771E-02  0.1063208E+00
         21   -1    0    0  502  501  0.00000000000E+00  0.00000000000E+00  0.15201632231E+03  0.15201632231E+03  0.00000000000E+00 0. -1.
         21   -1    0    0  501  502 -0.00000000000E+00 -0.00000000000E+00 -0.79920952295E+03  0.79920952295E+03  0.00000000000E+00 0. -1.
         25    1    1    2    0    0 -0.15892539710E+03  0.23771570298E+02 -0.16665094847E+03  0.26309676551E+03  0.12500000000E+03 0.  0.
         25    1    1    2    0    0  0.19656749644E+03 -0.92066672203E+02 -0.47928879873E+03  0.54079368097E+03  0.12500000000E+03 0.  0.
         25    1    1    2    0    0 -0.37642099343E+02  0.68295101905E+02 -0.12534534419E+01  0.14733539878E+03  0.12500000000E+03 0.  0.
</event>
<event>
 5    0  0.5648525E-005  0.3671477E+03  0.7546771E-02  0.1055789E+00
         21   -1    0    0  502  501  0.00000000000E+00  0.00000000000E+00  0.33230542581E+03  0.33230542581E+03  0.00000000000E+00 0.  1.
         21   -1    0    0  501  502 -0.00000000000E+00 -0.00000000000E+00 -0.40564325971E+03  0.40564325971E+03  0.00000000000E+00 0.  1.
         25    1    1    2    0    0 -0.15523547032E+03  0.10647842435E+03 -0.15782673586E+03  0.27562653111E+03  0.12500000000E+03 0.  0.
         25    1    1    2    0    0  0.72373207096E+02  0.27488386192E+00  0.19872519256E+03  0.24567185191E+03  0.12500000000E+03 0.  0.
         25    1    1    2    0    0  0.82862263222E+02 -0.10675330822E+03 -0.11423629061E+03  0.21665030250E+03  0.12500000000E+03 0.  0.
</event>
<event>
 5    0  0.5648525E-005  0.4219012E+03  0.7546771E-02  0.1036449E+00
         21   -1    0    0  502  501  0.00000000000E+00  0.00000000000E+00  0.15052902138E+04  0.15052902138E+04  0.00000000000E+00 0. -1.
         21   -1    0    0  501  502 -0.00000000000E+00 -0.00000000000E+00 -0.11825003147E+03  0.11825003147E+03  0.00000000000E+00 0. -1.
         25    1    1    2    0    0 -0.49686880739E+02  0.15927000924E+03  0.59560568629E+03  0.63103633453E+03  0.12500000000E+03 0.  0.
         25    1    1    2    0    0  0.22768239974E+03 -0.23754331949E+03  0.36263636488E+03  0.50536742764E+03  0.12500000000E+03 0.  0.
         25    1    1    2    0    0 -0.17799551900E+03  0.78273310247E+02  0.42879813113E+03  0.48713648308E+03  0.12500000000E+03 0.  0.
</event>
<event>
 5    0  0.5648525E-005  0.3043890E+03  0.7546771E-02  0.1083067E+00
         21   -1    0    0  502  501  0.00000000000E+00  0.00000000000E+00  0.19509220661E+03  0.19509220661E+03  0.00000000000E+00 0. -1.
         21   -1    0    0  501  502 -0.00000000000E+00 -0.00000000000E+00 -0.47491714096E+03  0.47491714096E+03  0.00000000000E+00 0. -1.
         25    1    1    2    0    0 -0.14868772473E+03 -0.57550537492E+02 -0.20226467276E+03  0.28627976124E+03  0.12500000000E+03 0.  0.
         25    1    1    2    0    0 -0.19266245593E+02  0.73844139890E+02  0.27346066693E+02  0.14898641743E+03  0.12500000000E+03 0.  0.
         25    1    1    2    0    0  0.16795397033E+03 -0.16293602398E+02 -0.10490632829E+03  0.23474316889E+03  0.12500000000E+03 0.  0.
</event>
<event>
 5    0  0.5648525E-005  0.2646764E+03  0.7546771E-02  0.1104366E+00
         21   -1    0    0  502  501  0.00000000000E+00  0.00000000000E+00  0.63515090251E+02  0.63515090251E+02  0.00000000000E+00 0. -1.
         21   -1    0    0  501  502 -0.00000000000E+00 -0.00000000000E+00 -0.11029439649E+04  0.11029439649E+04  0.00000000000E+00 0. -1.
         25    1    1    2    0    0 -0.35187034526E+02  0.96953867699E+02 -0.21438121553E+03  0.26874241465E+03  0.12500000000E+03 0.  0.
         25    1    1    2    0    0  0.10864474257E+03 -0.10083584099E+03 -0.33949463778E+03  0.39096439224E+03  0.12500000000E+03 0.  0.
         25    1    1    2    0    0 -0.73457708046E+02  0.38819732927E+01 -0.48555302136E+03  0.50675224829E+03  0.12500000000E+03 0.  0.
</event>
<event>
 5    0  0.5648525E-005  0.2893115E+03  0.7546771E-02  0.1090709E+00
         21   -1    0    0  502  501  0.00000000000E+00  0.00000000000E+00  0.28803843876E+03  0.28803843876E+03  0.00000000000E+00 0.  1.
         21   -1    0    0  501  502 -0.00000000000E+00 -0.00000000000E+00 -0.29059026048E+03  0.29059026048E+03  0.00000000000E+00 0.  1.
         25    1    1    2    0    0 -0.32647146365E+01  0.12468832435E+03 -0.38175985892E+02  0.18066610775E+03  0.12500000000E+03 0.  0.
         25    1    1    2    0    0 -0.59557428952E+02 -0.19222415307E+03  0.49430309280E+02  0.24200323933E+03  0.12500000000E+03 0.  0.
         25    1    1    2    0    0  0.62822143589E+02  0.67535828724E+02 -0.13806145105E+02  0.15595935217E+03  0.12500000000E+03 0.  0.
</event>
<event>
 5    0  0.5648525E-005  0.2655361E+03  0.7546771E-02  0.1103862E+00
         21   -1    0    0  502  501  0.00000000000E+00  0.00000000000E+00  0.33694647949E+03  0.33694647949E+03  0.00000000000E+00 0. -1.
         21   -1    0    0  501  502 -0.00000000000E+00 -0.00000000000E+00 -0.20925997515E+03  0.20925997515E+03  0.00000000000E+00 0. -1.
         25    1    1    2    0    0  0.21969748414E+02  0.24274573156E+02  0.15180176104E+03  0.19935069451E+03  0.12500000000E+03 0.  0.
         25    1    1    2    0    0  0.31715587073E+02  0.84026315724E+02  0.44030642637E+02  0.16009371533E+03  0.12500000000E+03 0.  0.
         25    1    1    2    0    0 -0.53685335487E+02 -0.10830088888E+03 -0.68145899337E+02  0.18676204479E+03  0.12500000000E+03 0.  0.
</event>
<event>
 5    0  0.5648525E-005  0.7461670E+03  0.7546771E-02  0.9641383E-01
         21   -1    0    0  502  501  0.00000000000E+00  0.00000000000E+00  0.22997105346E+04  0.22997105346E+04  0.00000000000E+00 0.  1.
         21   -1    0    0  501  502 -0.00000000000E+00 -0.00000000000E+00 -0.24210227942E+03  0.24210227942E+03  0.00000000000E+00 0.  1.
         25    1    1    2    0    0 -0.14495488117E+03  0.34510880064E+03  0.80758321223E+03  0.89884795518E+03  0.12500000000E+03 0.  0.
         25    1    1    2    0    0 -0.41315378370E+02  0.20813715176E+03  0.93711368256E+03  0.96893502800E+03  0.12500000000E+03 0.  0.
         25    1    1    2    0    0  0.18627025954E+03 -0.55324595241E+03  0.31291136044E+03  0.67402983089E+03  0.12500000000E+03 0.  0.
</event>
<event>
 5    0  0.5648525E-005  0.2886522E+03  0.7546771E-02  0.1091055E+00
         21   -1    0    0  502  501  0.00000000000E+00  0.00000000000E+00  0.59552376770E+03  0.59552376770E+03  0.00000000000E+00 0. -1.
         21   -1    0    0  501  502 -0.00000000000E+00 -0.00000000000E+00 -0.13991061614E+03  0.13991061614E+03  0.00000000000E+00 0. -1.
         25    1    1    2    0    0 -0.63934411575E+02  0.44862725248E+02  0.32077788378E+03  0.35302085465E+03  0.12500000000E+03 0.  0.
         25    1    1    2    0    0  0.22213456246E+02 -0.14446507466E+03  0.80887528612E+02  0.20864176887E+03  0.12500000000E+03 0.  0.
         25    1    1    2    0    0  0.41720955330E+02  0.99602349410E+02  0.53947739172E+02  0.17377176032E+03  0.12500000000E+03 0.  0.
</event>
<event>
 5    0  0.5648525E-005  0.2575005E+03  0.7546771E-02  0.1108654E+00
         21   -1    0    0  502  501  0.00000000000E+00  0.00000000000E+00  0.69094768897E+02  0.69094768897E+02  0.00000000000E+00 0.  1.
         21   -1    0    0  501  502 -0.00000000000E+00 -0.00000000000E+00 -0.95964620515E+03  0.95964620515E+03  0.00000000000E+00 0.  1.
         25    1    1    2    0    0 -0.14358996469E+03  0.33797392452E+02 -0.25452061252E+03  0.31963429712E+03  0.12500000000E+03 0.  0.
         25    1    1    2    0    0  0.67260818204E+02 -0.33699151361E+02 -0.18940517148E+03  0.23907942080E+03  0.12500000000E+03 0.  0.
         25    1    1    2    0    0  0.76329146481E+02 -0.98241090269E-01 -0.44662565225E+03  0.47002725613E+03  0.12500000000E+03 0.  0.
</event>
<event>
 5    0  0.5648525E-005  0.2813716E+03  0.7546771E-02  0.1094942E+00
         21   -1    0    0  502  501  0.00000000000E+00  0.00000000000E+00  0.91129401367E+03  0.91129401367E+03  0.00000000000E+00 0. -1.
         21   -1    0    0  501  502 -0.00000000000E+00 -0.00000000000E+00 -0.86876458197E+02  0.86876458197E+02  0.00000000000E+00 0. -1.
         25    1    1    2    0    0  0.74606372726E+02 -0.61749290692E+02  0.50224082350E+03  0.52654527872E+03  0.12500000000E+03 0.  0.
         25    1    1    2    0    0 -0.44984668516E+02 -0.61063271449E+02  0.22702691183E+03  0.27003437229E+03  0.12500000000E+03 0.  0.
         25    1    1    2    0    0 -0.29621704210E+02  0.12281256214E+03  0.95149820134E+02  0.20159082085E+03  0.12500000000E+03 0.  0.
</event>
<event>
 5    0  0.5648525E-005  0.5469640E+03  0.7546771E-02  0.1002199E+00
         21   -1    0    0  502  501  0.00000000000E+00  0.00000000000E+00  0.15900464129E+03  0.15900464129E+03  0.00000000000E+00 0.  1.
         21   -1    0    0  501  502 -0.00000000000E+00 -0.00000000000E+00 -0.18815152342E+04  0.18815152342E+04  0.00000000000E+00 0.  1.
         25    1    1    2    0    0 -0.15280357209E+03  0.14521650339E+03 -0.24692688769E+03  0.34790034832E+03  0.12500000000E+03 0.  0.
         25    1    1    2    0    0  0.13723882810E+03 -0.29435874539E+03 -0.14553214634E+04  0.14963512719E+04  0.12500000000E+03 0.  0.
         25    1    1    2    0    0  0.15564743989E+02  0.14914224201E+03 -0.20262241826E+02  0.19626825533E+03  0.12500000000E+03 0.  0.
</event>
<event>
 5    0  0.5648525E-005  0.2794592E+03  0.7546771E-02  0.1095985E+00
         21   -1    0    0  502  501  0.00000000000E+00  0.00000000000E+00  0.20704803759E+03  0.20704803759E+03  0.00000000000E+00 0.  1.
         21   -1    0    0  501  502 -0.00000000000E+00 -0.00000000000E+00 -0.37719469101E+03  0.37719469101E+03  0.00000000000E+00 0.  1.
         25    1    1    2    0    0 -0.88187498789E+02  0.59540647243E+02 -0.46655613821E+01  0.16422207854E+03  0.12500000000E+03 0.  0.
         25    1    1    2    0    0 -0.71617755072E+02  0.26449274101E+02 -0.13192464630E+03  0.19712376631E+03  0.12500000000E+03 0.  0.
         25    1    1    2    0    0  0.15980525386E+03 -0.85989921343E+02 -0.33556445737E+02  0.22289688375E+03  0.12500000000E+03 0.  0.
</event>
<event>
 5    0  0.5648525E-005  0.2646132E+03  0.7546771E-02  0.1104403E+00
         21   -1    0    0  502  501  0.00000000000E+00  0.00000000000E+00  0.17517103082E+03  0.17517103082E+03  0.00000000000E+00 0.  1.
         21   -1    0    0  501  502 -0.00000000000E+00 -0.00000000000E+00 -0.39972449838E+03  0.39972449838E+03  0.00000000000E+00 0.  1.
         25    1    1    2    0    0  0.88694506693E+02  0.11464283455E+03 -0.12923992636E+03  0.23094946113E+03  0.12500000000E+03 0.  0.
         25    1    1    2    0    0 -0.66768400709E+02  0.20408672448E+02 -0.60240155342E+02  0.15533322104E+03  0.12500000000E+03 0.  0.
         25    1    1    2    0    0 -0.21926105984E+02 -0.13505150700E+03 -0.35073385850E+02  0.18861284702E+03  0.12500000000E+03 0.  0.
</event>
<event>
 5    0  0.5648525E-005  0.2753948E+03  0.7546771E-02  0.1098231E+00
         21   -1    0    0  502  501  0.00000000000E+00  0.00000000000E+00  0.23996838855E+03  0.23996838855E+03  0.00000000000E+00 0. -1.
         21   -1    0    0  501  502 -0.00000000000E+00 -0.00000000000E+00 -0.31605112409E+03  0.31605112409E+03  0.00000000000E+00 0. -1.
         25    1    1    2    0    0  0.23956988011E+02  0.14517239310E+02  0.14342213697E+03  0.19230079793E+03  0.12500000000E+03 0.  0.
         25    1    1    2    0    0 -0.66529870359E+02 -0.54644818677E+02 -0.10785699441E+03  0.18619992240E+03  0.12500000000E+03 0.  0.
         25    1    1    2    0    0  0.42572882348E+02  0.40127579367E+02 -0.11164787810E+03  0.17751879231E+03  0.12500000000E+03 0.  0.
</event>
<event>
 5    0  0.5648525E-005  0.2132240E+03  0.7546771E-02  0.1139038E+00
         21   -1    0    0  502  501  0.00000000000E+00  0.00000000000E+00  0.29918465454E+03  0.29918465454E+03  0.00000000000E+00 0.  1.
         21   -1    0    0  501  502 -0.00000000000E+00 -0.00000000000E+00 -0.15196128542E+03  0.15196128542E+03  0.00000000000E+00 0.  1.
         25    1    1    2    0    0  0.34132837160E+01 -0.81817444293E+01 -0.97274857230E+01  0.12569095205E+03  0.12500000000E+03 0.  0.
         25    1    1    2    0    0  0.33441739817E+02  0.54058182666E+02  0.11414419071E+03  0.18081629724E+03  0.12500000000E+03 0.  0.
         25    1    1    2    0    0 -0.36855023533E+02 -0.45876438237E+02  0.42806664126E+02  0.14463869067E+03  0.12500000000E+03 0.  0.
</event>
<event>
 5    0  0.5648525E-005  0.3597799E+03  0.7546771E-02  0.1058671E+00
         21   -1    0    0  502  501  0.00000000000E+00  0.00000000000E+00  0.41785116529E+02  0.41785116529E+02  0.00000000000E+00 0.  1.
         21   -1    0    0  501  502 -0.00000000000E+00 -0.00000000000E+00 -0.30977917987E+04  0.30977917987E+04  0.00000000000E+00 0.  1.
         25    1    1    2    0    0 -0.51950378104E+02 -0.21945766378E+02 -0.18618616383E+03  0.23123742354E+03  0.12500000000E+03 0.  0.
         25    1    1    2    0    0 -0.78052193238E+02 -0.13221932615E+03 -0.76563354164E+03  0.79081844639E+03  0.12500000000E+03 0.  0.
         25    1    1    2    0    0  0.13000257134E+03  0.15416509253E+03 -0.21041869768E+04  0.21175210453E+04  0.12500000000E+03 0.  0.
</event>
<event>
 5    0  0.5648525E-005  0.2901834E+03  0.7546771E-02  0.1090253E+00
         21   -1    0    0  502  501  0.00000000000E+00  0.00000000000E+00  0.27563471577E+03  0.27563471577E+03  0.00000000000E+00 0.  1.
         21   -1    0    0  501  502 -0.00000000000E+00 -0.00000000000E+00 -0.30549998508E+03  0.30549998508E+03  0.00000000000E+00 0.  1.
         25    1    1    2    0    0 -0.13042953446E+03  0.34158823702E+01  0.24913116698E+02  0.18239845146E+03  0.12500000000E+03 0.  0.
         25    1    1    2    0    0 -0.35541891429E+02 -0.45826084372E+02 -0.11368972017E+03  0.17864380350E+03  0.12500000000E+03 0.  0.
         25    1    1    2    0    0  0.16597142589E+03  0.42410202002E+02  0.58911334166E+02  0.22009244589E+03  0.12500000000E+03 0.  0.
</event>
<event>
 5    0  0.5648525E-005  0.2665536E+03  0.7546771E-02  0.1103268E+00
         21   -1    0    0  502  501  0.00000000000E+00  0.00000000000E+00  0.41687307981E+02  0.41687307981E+02  0.00000000000E+00 0. -1.
         21   -1    0    0  501  502 -0.00000000000E+00 -0.00000000000E+00 -0.17043753046E+04  0.17043753046E+04  0.00000000000E+00 0. -1.
         25    1    1    2    0    0 -0.15367851698E+01  0.36774728931E+02 -0.39852136850E+03  0.41928394144E+03  0.12500000000E+03 0.  0.
         25    1    1    2    0    0 -0.95623951756E+02  0.64660696029E+02 -0.30401327927E+03  0.34838774338E+03  0.12500000000E+03 0.  0.
         25    1    1    2    0    0  0.97160736926E+02 -0.10143542496E+03 -0.96015334881E+03  0.97839092774E+03  0.12500000000E+03 0.  0.
</event>
<event>
 5    0  0.5648525E-005  0.2703351E+03  0.7546771E-02  0.1101088E+00
         21   -1    0    0  502  501  0.00000000000E+00  0.00000000000E+00  0.94493555853E+02  0.94493555853E+02  0.00000000000E+00 0.  1.
         21   -1    0    0  501  502 -0.00000000000E+00 -0.00000000000E+00 -0.77339744282E+03  0.77339744282E+03  0.00000000000E+00 0.  1.
         25    1    1    2    0    0  0.96631258970E+02  0.82160424942E+02 -0.12324969727E+03  0.21657198229E+03  0.12500000000E+03 0.  0.
         25    1    1    2    0    0  0.51448733535E+02 -0.27168015251E+02 -0.24305995322E+03  0.27944268481E+03  0.12500000000E+03 0.  0.
         25    1    1    2    0    0 -0.14807999251E+03 -0.54992409691E+02 -0.31259423648E+03  0.37187633157E+03  0.12500000000E+03 0.  0.
</event>
<event>
 5    0  0.5648525E-005  0.3522222E+03  0.7546771E-02  0.1061707E+00
         21   -1    0    0  502  501  0.00000000000E+00  0.00000000000E+00  0.20980870306E+03  0.20980870306E+03  0.00000000000E+00 0.  1.
         21   -1    0    0  501  502 -0.00000000000E+00 -0.00000000000E+00 -0.59130285746E+03  0.59130285746E+03  0.00000000000E+00 0.  1.
         25    1    1    2    0    0 -0.59290222755E+02 -0.21749624071E+03 -0.28782738173E+03  0.38638005501E+03  0.12500000000E+03 0.  0.
         25    1    1    2    0    0  0.10832403915E+03  0.39936765638E+02 -0.89091526466E+02  0.19207119200E+03  0.12500000000E+03 0.  0.
         25    1    1    2    0    0 -0.49033816394E+02  0.17755947507E+03 -0.45752462182E+01  0.22266031352E+03  0.12500000000E+03 0.  0.
</event>
<event>
 5    0  0.5648525E-005  0.2894350E+03  0.7546771E-02  0.1090644E+00
         21   -1    0    0  502  501  0.00000000000E+00  0.00000000000E+00  0.19901380293E+03  0.19901380293E+03  0.00000000000E+00 0. -1.
         21   -1    0    0  501  502 -0.00000000000E+00 -0.00000000000E+00 -0.42093884513E+03  0.42093884513E+03  0.00000000000E+00 0. -1.
         25    1    1    2    0    0 -0.61555923287E+02  0.15722239208E+02  0.68637439596E+02  0.15611668268E+03  0.12500000000E+03 0.  0.
         25    1    1    2    0    0  0.13095440523E+03 -0.68504928712E+02 -0.22801686456E+03  0.29909642597E+03  0.12500000000E+03 0.  0.
         25    1    1    2    0    0 -0.69398481941E+02  0.52782689504E+02 -0.62545617242E+02  0.16473953940E+03  0.12500000000E+03 0.  0.
</event>
