<event>
 5    0  0.5481966E-005  0.2338661E+03  0.7546771E-02  0.1123948E+00
         21   -1    0    0  502  501  0.00000000000E+00  0.00000000000E+00  0.17634934417E+03  0.17634934417E+03  0.00000000000E+00 0.  1.
         21   -1    0    0  501  502 -0.00000000000E+00 -0.00000000000E+00 -0.31014197024E+03  0.31014197024E+03  0.00000000000E+00 0.  1.
         25    1    1    2    0    0  0.25253725877E+02  0.63722612286E+02  0.26117194367E+02  0.14493250094E+03  0.12500000000E+03 0.  0.
         25    1    1    2    0    0  0.63606409401E+02 -0.34715061273E+02 -0.61421138305E+02  0.15699830262E+03  0.12500000000E+03 0.  0.
         25    1    1    2    0    0 -0.88860135278E+02 -0.29007551012E+02 -0.98488682132E+02  0.18456051085E+03  0.12500000000E+03 0.  0.
</event>
<event>
 5    0  0.5481966E-005  0.3796807E+03  0.7546771E-02  0.1051052E+00
         21   -1    0    0  502  501  0.00000000000E+00  0.00000000000E+00  0.17022055945E+04  0.17022055945E+04  0.00000000000E+00 0.  1.
         21   -1    0    0  501  502 -0.00000000000E+00 -0.00000000000E+00 -0.84688632827E+02  0.84688632827E+02  0.00000000000E+00 0.  1.
         25    1    1    2    0    0 -0.13382321784E+03  0.21441909630E+03  0.48284842168E+03  0.55915275266E+03  0.12500000000E+03 0.  0.
         25    1    1    2    0    0  0.20381823871E+03 -0.19570737657E+03  0.90615516246E+03  0.95738468241E+03  0.12500000000E+03 0.  0.
         25    1    1    2    0    0 -0.69995020867E+02 -0.18711719734E+02  0.22851337752E+03  0.27035679223E+03  0.12500000000E+03 0.  0.
</event>
<event>
 5    0  0.5481966E-005  0.2768394E+03  0.7546771E-02  0.1097428E+00
         21   -1    0    0  502  501  0.00000000000E+00  0.00000000000E+00  0.98545511428E+03  0.98545511428E+03  0.00000000000E+00 0.  1.
         21   -1    0    0  501  502 -0.00000000000E+00 -0.00000000000E+00 -0.77771206034E+02  0.77771206034E+02  0.00000000000E+00 0.  1.
         25    1    1    2    0    0 -0.53096736130E+02 -0.12441430632E+03  0.57930047096E+03  0.60787516701E+03  0.12500000000E+03 0.  0.
         25    1    1    2    0    0  0.68337992046E+02  0.11793684316E+03  0.15710549191E+03  0.24266502780E+03  0.12500000000E+03 0.  0.
         25    1    1    2    0    0 -0.15241255916E+02  0.64774631628E+01  0.17127794538E+03  0.21268612551E+03  0.12500000000E+03 0.  0.
</event>
<event>
 5    0  0.5481966E-005  0.2764919E+03  0.7546771E-02  0.1097621E+00
         21   -1    0    0  502  501  0.00000000000E+00  0.00000000000E+00  0.49444148224E+02  0.49444148224E+02  0.00000000000E+00 0. -1.
         21   -1    0    0  501  502 -0.00000000000E+00 -0.00000000000E+00 -0.15461443509E+04  0.15461443509E+04  0.00000000000E+00 0. -1.
         25    1    1    2    0    0  0.16173656966E+02 -0.76241836353E+02 -0.71689069586E+03  0.73186861841E+03  0.12500000000E+03 0.  0.
         25    1    1    2    0    0 -0.40417909183E+02  0.16882267601E+03 -0.44515817708E+03  0.49388815124E+03  0.12500000000E+03 0.  0.
         25    1    1    2    0    0  0.24244252217E+02 -0.92580839658E+02 -0.33465132978E+03  0.36983172952E+03  0.12500000000E+03 0.  0.
</event>
<event>
 5    0  0.5481966E-005  0.2295724E+03  0.7546771E-02  0.1126941E+00
         21   -1    0    0  502  501  0.00000000000E+00  0.00000000000E+00  0.16127458851E+03  0.16127458851E+03  0.00000000000E+00 0.  1.
         21   -1    0    0  501  502 -0.00000000000E+00 -0.00000000000E+00 -0.32679351914E+03  0.32679351914E+03  0.00000000000E+00 0.  1.
         25    1    1    2    0    0  0.12556212640E+02  0.34137981857E+02  0.32593462022E+01  0.13022551063E+03  0.12500000000E+03 0.  0.
         25    1    1    2    0    0 -0.19065450748E+02 -0.77076950806E+02 -0.17007032514E+03  0.22550668116E+03  0.12500000000E+03 0.  0.
         25    1    1    2    0    0  0.65092381079E+01  0.42938968949E+02  0.12920483027E+01  0.13233591585E+03  0.12500000000E+03 0.  0.
</event>
<event>
 5    0  0.5481966E-005  0.3089201E+03  0.7546771E-02  0.1080865E+00
         21   -1    0    0  502  501  0.00000000000E+00  0.00000000000E+00  0.15423535916E+04  0.15423535916E+04  0.00000000000E+00 0. -1.
         21   -1    0    0  501  502 -0.00000000000E+00 -0.00000000000E+00 -0.61874025083E+02  0.61874025083E+02  0.00000000000E+00 0. -1.
         25    1    1    2    0    0  0.74761157941E+02  0.59170766260E+02  0.19009661483E+03  0.24668225167E+03  0.12500000000E+03 0.  0.
         25    1    1    2    0    0  0.24180759126E+02 -0.41761422740E+02  0.13191421307E+03  0.18802947947E+03  0.12500000000E+03 0.  0.
         25    1    1    2    0    0 -0.98941917067E+02 -0.17409343520E+02  0.11584687387E+04  0.11695158856E+04  0.12500000000E+03 0.  0.
</event>
<event>
 5    0  0.5481966E-005  0.2805901E+03  0.7546771E-02  0.1095367E+00
         21   -1    0    0  502  501  0.00000000000E+00  0.00000000000E+00  0.65241501352E+03  0.65241501352E+03  0.00000000000E+00 0.  1.
         21   -1    0    0  501  502 -0.00000000000E+00 -0.00000000000E+00 -0.12067592661E+03  0.12067592661E+03  0.00000000000E+00 0.  1.
         25    1    1    2    0    0  0.13221878869E+03 -0.75062144419E+01  0.19989229496E+03  0.27040725013E+03  0.12500000000E+03 0.  0.
         25    1    1    2    0    0 -0.94219747374E+02  0.12619578028E+03  0.17541581958E+03  0.26683036842E+03  0.12500000000E+03 0.  0.
         25    1    1    2    0    0 -0.37999041316E+02 -0.11868956584E+03  0.15643097238E+03  0.23585332158E+03  0.12500000000E+03 0.  0.
</event>
<event>
 5    0  0.5481966E-005  0.4232552E+03  0.7546771E-02  0.1036012E+00
         21   -1    0    0  502  501  0.00000000000E+00  0.00000000000E+00  0.51275090231E+03  0.51275090231E+03  0.00000000000E+00 0. -1.
         21   -1    0    0  501  502 -0.00000000000E+00 -0.00000000000E+00 -0.34938008923E+03  0.34938008923E+03  0.00000000000E+00 0. -1.
         25    1    1    2    0    0  0.27798146917E+03  0.13032955381E+03  0.36107756511E+02  0.33344903640E+03  0.12500000000E+03 0.  0.
         25    1    1    2    0    0  0.58950866757E+01  0.62074235090E+02  0.79048614630E+02  0.16050434942E+03  0.12500000000E+03 0.  0.
         25    1    1    2    0    0 -0.28387655584E+03 -0.19240378890E+03  0.48214441938E+02  0.36817760572E+03  0.12500000000E+03 0.  0.
</event>
<event>
 5    0  0.5481966E-005  0.2127432E+03  0.7546771E-02  0.1139412E+00
         21   -1    0    0  502  501  0.00000000000E+00  0.00000000000E+00  0.49662802967E+02  0.49662802967E+02  0.00000000000E+00 0.  1.
         21   -1    0    0  501  502 -0.00000000000E+00 -0.00000000000E+00 -0.91133966702E+03  0.91133966702E+03  0.00000000000E+00 0.  1.
         25    1    1    2    0    0  0.40865360914E+02 -0.37445934659E+02 -0.14993944651E+03  0.20292612785E+03  0.12500000000E+03 0.  0.
         25    1    1    2    0    0 -0.15406903727E+02  0.33411206083E+02 -0.30173243402E+03  0.32866570116E+03  0.12500000000E+03 0.  0.
         25    1    1    2    0    0 -0.25458457187E+02  0.40347285758E+01 -0.41000498351E+03  0.42941064098E+03  0.12500000000E+03 0.  0.
</event>
<event>
 5    0  0.5481966E-005  0.4054615E+03  0.7546771E-02  0.1041905E+00
         21   -1    0    0  502  501  0.00000000000E+00  0.00000000000E+00  0.17410194699E+03  0.17410194699E+03  0.00000000000E+00 0.  1.
         21   -1    0    0  501  502 -0.00000000000E+00 -0.00000000000E+00 -0.94426860302E+03  0.94426860302E+03  0.00000000000E+00 0.  1.
         25    1    1    2    0    0  0.15042609829E+03  0.15521813760E+03 -0.57054742524E+03  0.62279213686E+03  0.12500000000E+03 0.  0.
         25    1    1    2    0    0 -0.23330806136E+03 -0.13303149850E+03 -0.16850092982E+03  0.34080433453E+03  0.12500000000E+03 0.  0.
         25    1    1    2    0    0  0.82881963068E+02 -0.22186639101E+02 -0.31118300981E+02  0.15477407862E+03  0.12500000000E+03 0.  0.
</event>
<event>
 5    0  0.5481966E-005  0.2775171E+03  0.7546771E-02  0.1097053E+00
         21   -1    0    0  502  501  0.00000000000E+00  0.00000000000E+00  0.25512613659E+03  0.25512613659E+03  0.00000000000E+00 0. -1.
         21   -1    0    0  501  502 -0.00000000000E+00 -0.00000000000E+00 -0.30187308969E+03  0.30187308969E+03  0.00000000000E+00 0. -1.
         25    1    1    2    0    0  0.51532164298E+02 -0.68211004366E+02 -0.82104833056E+02  0.17226290571E+03  0.12500000000E+03 0.  0.
         25    1    1    2    0    0  0.89206212340E+02  0.51904220842E+02 -0.60309922809E+02  0.17295688263E+03  0.12500000000E+03 0.  0.
         25    1    1    2    0    0 -0.14073837664E+03  0.16306783524E+02  0.95667802759E+02  0.21177943794E+03  0.12500000000E+03 0.  0.
</event>
<event>
 5    0  0.5481966E-005  0.3468972E+03  0.7546771E-02  0.1063896E+00
         21   -1    0    0  502  501  0.00000000000E+00  0.00000000000E+00  0.10790211166E+03  0.10790211166E+03  0.00000000000E+00 0.  1.
         21   -1    0    0  501  502 -0.00000000000E+00 -0.00000000000E+00 -0.11152487228E+04  0.11152487228E+04  0.00000000000E+00 0.  1.
         25    1    1    2    0    0  0.44011113958E+02 -0.13951619995E+03 -0.33338242747E+02  0.19529000647E+03  0.12500000000E+03 0.  0.
         25    1    1    2    0    0 -0.63617340902E+02  0.13094602263E+03 -0.70182492420E+03  0.72758315754E+03  0.12500000000E+03 0.  0.
         25    1    1    2    0    0  0.19606226945E+02  0.85701773152E+01 -0.27218344415E+03  0.30027767041E+03  0.12500000000E+03 0.  0.
</event>
<event>
 5    0  0.5481966E-005  0.2840246E+03  0.7546771E-02  0.1093511E+00
         21   -1    0    0  502  501  0.00000000000E+00  0.00000000000E+00  0.14114743952E+03  0.14114743952E+03  0.00000000000E+00 0. -1.
         21   -1    0    0  501  502 -0.00000000000E+00 -0.00000000000E+00 -0.57152972217E+03  0.57152972217E+03  0.00000000000E+00 0. -1.
         25    1    1    2    0    0  0.32666476015E+02  0.79586444651E+02 -0.10857466637E+03  0.18658659921E+03  0.12500000000E+03 0.  0.
         25    1    1    2    0    0  0.13939571094E+02 -0.19922513156E+03 -0.20389815617E+03  0.31158373317E+03  0.12500000000E+03 0.  0.
         25    1    1    2    0    0 -0.46606047110E+02  0.11963868691E+03 -0.11790946012E+03  0.21450682930E+03  0.12500000000E+03 0.  0.
</event>
<event>
 5    0  0.5486258E-005  0.2790002E+03  0.7546771E-02  0.1096236E+00
         21   -1    0    0  502  501  0.00000000000E+00  0.00000000000E+00  0.90702200125E+03  0.90702200125E+03  0.00000000000E+00 0.  1.
         21   -1    0    0  501  502 -0.00000000000E+00 -0.00000000000E+00 -0.85820560019E+02  0.85820560019E+02  0.00000000000E+00 0.  1.
         25    1    1    2    0    0  0.84487881669E+02  0.44745495628E+02  0.21669167519E+03  0.26780710152E+03  0.12500000000E+03 0.  0.
         25    1    1    2    0    0 -0.16081653811E+03 -0.27523906849E+02  0.51005277981E+03  0.54990759457E+03  0.12500000000E+03 0.  0.
         25    1    1    2    0    0  0.76328656439E+02 -0.17221588779E+02  0.94456986238E+02  0.17512786518E+03  0.12500000000E+03 0.  0.
</event>
<event>
 5    0  0.5481966E-005  0.2433186E+03  0.7546771E-02  0.1117602E+00
         21   -1    0    0  502  501  0.00000000000E+00  0.00000000000E+00  0.29169424659E+02  0.29169424659E+02  0.00000000000E+00 0. -1.
         21   -1    0    0  501  502 -0.00000000000E+00 -0.00000000000E+00 -0.20296580684E+04  0.20296580684E+04  0.00000000000E+00 0. -1.
         25    1    1    2    0    0  0.32895405114E+01 -0.93437070403E+02 -0.40905597474E+03  0.43782770318E+03  0.12500000000E+03 0.  0.
         25    1    1    2    0    0 -0.70192016351E+02  0.13760550243E+02 -0.66708408638E+03  0.68245325862E+03  0.12500000000E+03 0.  0.
         25    1    1    2    0    0  0.66902475840E+02  0.79676520160E+02 -0.92434858264E+03  0.93854653127E+03  0.12500000000E+03 0.  0.
</event>
<event>
 5    0  0.5481966E-005  0.3386929E+03  0.7546771E-02  0.1067354E+00
         21   -1    0    0  502  501  0.00000000000E+00  0.00000000000E+00  0.22910254681E+03  0.22910254681E+03  0.00000000000E+00 0. -1.
         21   -1    0    0  501  502 -0.00000000000E+00 -0.00000000000E+00 -0.50070549814E+03  0.50070549814E+03  0.00000000000E+00 0. -1.
         25    1    1    2    0    0 -0.92346367966E+02  0.10174245663E+03 -0.13302451634E+03  0.22847297675E+03  0.12500000000E+03 0.  0.
         25    1    1    2    0    0 -0.20276293940E+02  0.17010226753E+02 -0.23991205538E+03  0.27181477191E+03  0.12500000000E+03 0.  0.
         25    1    1    2    0    0  0.11262266191E+03 -0.11875268339E+03  0.10133362039E+03  0.22952029629E+03  0.12500000000E+03 0.  0.
</event>
<event>
 5    0  0.5481966E-005  0.2905214E+03  0.7546771E-02  0.1090077E+00
         21   -1    0    0  502  501  0.00000000000E+00  0.00000000000E+00  0.77699059739E+02  0.77699059739E+02  0.00000000000E+00 0. -1.
         21   -1    0    0  501  502 -0.00000000000E+00 -0.00000000000E+00 -0.10862764389E+04  0.10862764389E+04  0.00000000000E+00 0. -1.
         25    1    1    2    0    0 -0.66636506851E+02  0.10170591037E+03 -0.23366921758E+03  0.29156614944E+03  0.12500000000E+03 0.  0.
         25    1    1    2    0    0 -0.38517463919E+01  0.42975418803E+02 -0.95547903157E+02  0.16314448924E+03  0.12500000000E+03 0.  0.
         25    1    1    2    0    0  0.70488253243E+02 -0.14468132918E+03 -0.67936025839E+03  0.70926485993E+03  0.12500000000E+03 0.  0.
</event>
<event>
 5    0  0.5481966E-005  0.4277242E+03  0.7546771E-02  0.1034581E+00
         21   -1    0    0  502  501  0.00000000000E+00  0.00000000000E+00  0.27036119663E+03  0.27036119663E+03  0.00000000000E+00 0. -1.
         21   -1    0    0  501  502 -0.00000000000E+00 -0.00000000000E+00 -0.67667999724E+03  0.67667999724E+03  0.00000000000E+00 0. -1.
         25    1    1    2    0    0  0.18611158364E+03 -0.24242148941E+03  0.85392449781E+01  0.33030836925E+03  0.12500000000E+03 0.  0.
         25    1    1    2    0    0  0.67615355130E+01  0.43488116235E+01 -0.10636390185E+03  0.16432562229E+03  0.12500000000E+03 0.  0.
         25    1    1    2    0    0 -0.19287311915E+03  0.23807267779E+03 -0.30849414374E+03  0.45240720233E+03  0.12500000000E+03 0.  0.
</event>
<event>
 5    0  0.5481966E-005  0.3630350E+03  0.7546771E-02  0.1057389E+00
         21   -1    0    0  502  501  0.00000000000E+00  0.00000000000E+00  0.18621784055E+04  0.18621784055E+04  0.00000000000E+00 0. -1.
         21   -1    0    0  501  502 -0.00000000000E+00 -0.00000000000E+00 -0.70774315896E+02  0.70774315896E+02  0.00000000000E+00 0. -1.
         25    1    1    2    0    0  0.16973980844E+03  0.18856038803E+03  0.12426066287E+04  0.12743872473E+04  0.12500000000E+03 0.  0.
         25    1    1    2    0    0 -0.96233793464E+02 -0.10076744004E+03  0.22173794024E+03  0.29018568903E+03  0.12500000000E+03 0.  0.
         25    1    1    2    0    0 -0.73506014973E+02 -0.87792947986E+02  0.32705952065E+03  0.36837978501E+03  0.12500000000E+03 0.  0.
</event>
<event>
 5    0  0.5481966E-005  0.1999627E+03  0.7546771E-02  0.1149770E+00
         21   -1    0    0  502  501  0.00000000000E+00  0.00000000000E+00  0.17218670781E+03  0.17218670781E+03  0.00000000000E+00 0. -1.
         21   -1    0    0  501  502 -0.00000000000E+00 -0.00000000000E+00 -0.23221934802E+03  0.23221934802E+03  0.00000000000E+00 0. -1.
         25    1    1    2    0    0 -0.54362156085E+02  0.26197894242E+01 -0.40262706671E+02  0.14215552349E+03  0.12500000000E+03 0.  0.
         25    1    1    2    0    0  0.11958699117E+02  0.19508000535E+02 -0.18422407240E+02  0.12840544248E+03  0.12500000000E+03 0.  0.
         25    1    1    2    0    0  0.42403456968E+02 -0.22127789959E+02 -0.13475263029E+01  0.13384508986E+03  0.12500000000E+03 0.  0.
</event>
<event>
 5    0  0.5481966E-005  0.2602580E+03  0.7546771E-02  0.1106988E+00
         21   -1    0    0  502  501  0.00000000000E+00  0.00000000000E+00  0.19844983069E+03  0.19844983069E+03  0.00000000000E+00 0. -1.
         21   -1    0    0  501  502 -0.00000000000E+00 -0.00000000000E+00 -0.34131663450E+03  0.34131663450E+03  0.00000000000E+00 0. -1.
         25    1    1    2    0    0 -0.56462589581E+02  0.98659641543E+02 -0.10326652572E+03  0.19801697964E+03  0.12500000000E+03 0.  0.
         25    1    1    2    0    0 -0.17429189565E+02 -0.13988488256E+03 -0.26037671965E+02  0.19019599727E+03  0.12500000000E+03 0.  0.
         25    1    1    2    0    0  0.73891779146E+02  0.41225241017E+02 -0.13562606129E+02  0.15155348827E+03  0.12500000000E+03 0.  0.
</event>
<event>
 5    0  0.5481966E-005  0.3306761E+03  0.7546771E-02  0.1070838E+00
         21   -1    0    0  502  501  0.00000000000E+00  0.00000000000E+00  0.23151402018E+04  0.23151402018E+04  0.00000000000E+00 0. -1.
         21   -1    0    0  501  502 -0.00000000000E+00 -0.00000000000E+00 -0.47231136773E+02  0.47231136773E+02  0.00000000000E+00 0. -1.
         25    1    1    2    0    0 -0.10558094378E+03 -0.20928563318E+03  0.96680239897E+03  0.10026363701E+04  0.12500000000E+03 0.  0.
         25    1    1    2    0    0  0.17505218901E+02  0.29152299113E+02  0.24094432879E+03  0.27356070407E+03  0.12500000000E+03 0.  0.
         25    1    1    2    0    0  0.88075724879E+02  0.18013333407E+03  0.10601623373E+04  0.10861742645E+04  0.12500000000E+03 0.  0.
</event>
<event>
 5    0  0.5481966E-005  0.3447218E+03  0.7546771E-02  0.1064803E+00
         21   -1    0    0  502  501  0.00000000000E+00  0.00000000000E+00  0.13257990753E+04  0.13257990753E+04  0.00000000000E+00 0. -1.
         21   -1    0    0  501  502 -0.00000000000E+00 -0.00000000000E+00 -0.89631325483E+02  0.89631325483E+02  0.00000000000E+00 0. -1.
         25    1    1    2    0    0  0.34743482700E+02 -0.12624113278E+03  0.78024736596E+03  0.80097121377E+03  0.12500000000E+03 0.  0.
         25    1    1    2    0    0 -0.45830520410E+02 -0.85843552737E+02  0.23557519764E+03  0.28388417690E+03  0.12500000000E+03 0.  0.
         25    1    1    2    0    0  0.11087037710E+02  0.21208468552E+03  0.22034518626E+03  0.33057501016E+03  0.12500000000E+03 0.  0.
</event>
<event>
 5    0  0.5481966E-005  0.2572878E+03  0.7546771E-02  0.1108784E+00
         21   -1    0    0  502  501  0.00000000000E+00  0.00000000000E+00  0.17303395248E+03  0.17303395248E+03  0.00000000000E+00 0.  1.
         21   -1    0    0  501  502 -0.00000000000E+00 -0.00000000000E+00 -0.38256671978E+03  0.38256671978E+03  0.00000000000E+00 0.  1.
         25    1    1    2    0    0 -0.68430605220E+02 -0.17330700601E+02 -0.21583632232E+03  0.25921693414E+03  0.12500000000E+03 0.  0.
         25    1    1    2    0    0  0.10745992315E+03  0.81980696020E+01  0.29460197777E+01  0.16507126479E+03  0.12500000000E+03 0.  0.
         25    1    1    2    0    0 -0.39029317928E+02  0.91326309989E+01  0.33575352471E+01  0.13131247332E+03  0.12500000000E+03 0.  0.
</event>
<event>
 5    0  0.5481966E-005  0.2832293E+03  0.7546771E-02  0.1093938E+00
         21   -1    0    0  502  501  0.00000000000E+00  0.00000000000E+00  0.31958895802E+03  0.31958895802E+03  0.00000000000E+00 0. -1.
         21   -1    0    0  501  502 -0.00000000000E+00 -0.00000000000E+00 -0.25100629532E+03  0.25100629532E+03  0.00000000000E+00 0. -1.
         25    1    1    2    0    0  0.15664148993E+03 -0.89598824017E+02  0.96986880415E+02  0.23999158445E+03  0.12500000000E+03 0.  0.
         25    1    1    2    0    0 -0.68889635005E+02  0.67231673858E+02  0.38459131170E+02  0.16238837567E+03  0.12500000000E+03 0.  0.
         25    1    1    2    0    0 -0.87751854927E+02  0.22367150159E+02 -0.66863348889E+02  0.16821529322E+03  0.12500000000E+03 0.  0.
</event>
<event>
 5    0  0.5481966E-005  0.2148176E+03  0.7546771E-02  0.1137807E+00
         21   -1    0    0  502  501  0.00000000000E+00  0.00000000000E+00  0.55180685089E+03  0.55180685089E+03  0.00000000000E+00 0.  1.
         21   -1    0    0  501  502 -0.00000000000E+00 -0.00000000000E+00 -0.83628195442E+02  0.83628195442E+02  0.00000000000E+00 0.  1.
         25    1    1    2    0    0 -0.45513860248E+02 -0.78031316583E+01  0.20616446010E+03  0.24548153688E+03  0.12500000000E+03 0.  0.
         25    1    1    2    0    0 -0.12812285633E+02 -0.30361041862E+01  0.46846190541E+02  0.13413775814E+03  0.12500000000E+03 0.  0.
         25    1    1    2    0    0  0.58326145881E+02  0.10839235844E+02  0.21516800481E+03  0.25581575131E+03  0.12500000000E+03 0.  0.
</event>
<event>
 5    0  0.5481966E-005  0.2148409E+03  0.7546771E-02  0.1137789E+00
         21   -1    0    0  502  501  0.00000000000E+00  0.00000000000E+00  0.12325426135E+04  0.12325426135E+04  0.00000000000E+00 0.  1.
         21   -1    0    0  501  502 -0.00000000000E+00 -0.00000000000E+00 -0.37448288063E+02  0.37448288063E+02  0.00000000000E+00 0.  1.
         25    1    1    2    0    0  0.55797188305E+02 -0.17548968128E+02  0.35146509673E+03  0.37758973334E+03  0.12500000000E+03 0.  0.
         25    1    1    2    0    0  0.90788512207E+01 -0.48130872289E+02  0.34878402324E+03  0.37373025202E+03  0.12500000000E+03 0.  0.
         25    1    1    2    0    0 -0.64876039526E+02  0.65679840417E+02  0.49484520547E+03  0.51867091621E+03  0.12500000000E+03 0.  0.
</event>
<event>
 5    0  0.6148485E-005  0.2849529E+03  0.7546771E-02  0.1093014E+00
         21   -1    0    0  502  501  0.00000000000E+00  0.00000000000E+00  0.17491550454E+03  0.17491550454E+03  0.00000000000E+00 0. -1.
         21   -1    0    0  501  502 -0.00000000000E+00 -0.00000000000E+00 -0.46421358241E+03  0.46421358241E+03  0.00000000000E+00 0. -1.
         25    1    1    2    0    0  0.90556525443E+02 -0.53915295602E+02 -0.46541922928E+01  0.16356651523E+03  0.12500000000E+03 0.  0.
         25    1    1    2    0    0 -0.26072383134E+02  0.10928978912E+03 -0.17978003061E+02  0.16903323863E+03  0.12500000000E+03 0.  0.
         25    1    1    2    0    0 -0.64484142309E+02 -0.55374493522E+02 -0.26666588252E+03  0.30652933308E+03  0.12500000000E+03 0.  0.
</event>
<event>
 5    0  0.5481966E-005  0.8291374E+03  0.7546771E-02  0.9518774E-01
         21   -1    0    0  502  501  0.00000000000E+00  0.00000000000E+00  0.55322583762E+03  0.55322583762E+03  0.00000000000E+00 0. -1.
         21   -1    0    0  501  502 -0.00000000000E+00 -0.00000000000E+00 -0.12426550729E+04  0.12426550729E+04  0.00000000000E+00 0. -1.
         25    1    1    2    0    0 -0.14404793405E+03  0.43594406971E+03  0.31501213474E+03  0.57066161975E+03  0.12500000000E+03 0.  0.
         25    1    1    2    0    0  0.12382623740E+02 -0.36324855170E+03 -0.94601596719E+03  0.10211141219E+04  0.12500000000E+03 0.  0.
         25    1    1    2    0    0  0.13166531031E+03 -0.72695518011E+02 -0.58425402828E+02  0.20410516891E+03  0.12500000000E+03 0.  0.
</event>
<event>
 5    0  0.5481966E-005  0.3086363E+03  0.7546771E-02  0.1081001E+00
         21   -1    0    0  502  501  0.00000000000E+00  0.00000000000E+00  0.47071590183E+02  0.47071590183E+02  0.00000000000E+00 0. -1.
         21   -1    0    0  501  502 -0.00000000000E+00 -0.00000000000E+00 -0.20236490862E+04  0.20236490862E+04  0.00000000000E+00 0. -1.
         25    1    1    2    0    0 -0.13531525822E+03  0.15965115136E+03 -0.80501166961E+03  0.84111087108E+03  0.12500000000E+03 0.  0.
         25    1    1    2    0    0 -0.15812072595E+02 -0.96362829826E+01 -0.40568318990E+03  0.42490790786E+03  0.12500000000E+03 0.  0.
         25    1    1    2    0    0  0.15112733082E+03 -0.15001486838E+03 -0.76588263646E+03  0.80470189740E+03  0.12500000000E+03 0.  0.
</event>
<event>
 5    0  0.5515280E-005  0.2932716E+03  0.7546771E-02  0.1088653E+00
         21   -1    0    0  502  501  0.00000000000E+00  0.00000000000E+00  0.42597277414E+03  0.42597277414E+03  0.00000000000E+00 0.  1.
         21   -1    0    0  501  502 -0.00000000000E+00 -0.00000000000E+00 -0.20191010469E+03  0.20191010469E+03  0.00000000000E+00 0.  1.
         25    1    1    2    0    0 -0.29934273990E+02  0.15673288408E+03  0.15442753534E+03  0.25482174433E+03  0.12500000000E+03 0.  0.
         25    1    1    2    0    0 -0.79804956849E+02 -0.68149389006E+02 -0.19897991060E+02  0.16442049875E+03  0.12500000000E+03 0.  0.
         25    1    1    2    0    0  0.10973923084E+03 -0.88583495079E+02  0.89533125161E+02  0.20864063575E+03  0.12500000000E+03 0.  0.
</event>
<event>
 5    0  0.5481966E-005  0.2610764E+03  0.7546771E-02  0.1106498E+00
         21   -1    0    0  502  501  0.00000000000E+00  0.00000000000E+00  0.19280156148E+03  0.19280156148E+03  0.00000000000E+00 0.  1.
         21   -1    0    0  501  502 -0.00000000000E+00 -0.00000000000E+00 -0.35352869000E+03  0.35352869000E+03  0.00000000000E+00 0.  1.
         25    1    1    2    0    0 -0.10056131827E+03 -0.45230931412E+01  0.73956544448E+01  0.16066341466E+03  0.12500000000E+03 0.  0.
         25    1    1    2    0    0  0.15580745039E+03 -0.19795665228E+02 -0.59368527202E+02  0.20932618561E+03  0.12500000000E+03 0.  0.
         25    1    1    2    0    0 -0.55246132120E+02  0.24318758369E+02 -0.10875425576E+03  0.17634065121E+03  0.12500000000E+03 0.  0.
</event>
<event>
 5    0  0.6252050E-005  0.7989077E+03  0.7546771E-02  0.9561600E-01
         21   -1    0    0  502  501  0.00000000000E+00  0.00000000000E+00  0.11555175906E+04  0.11555175906E+04  0.00000000000E+00 0.  1.
         21   -1    0    0  501  502 -0.00000000000E+00 -0.00000000000E+00 -0.55235290536E+03  0.55235290536E+03  0.00000000000E+00 0.  1.
         25    1    1    2    0    0  0.10741944674E+03 -0.28002462276E+03  0.41190232367E+03  0.52463439758E+03  0.12500000000E+03 0.  0.
         25    1    1    2    0    0  0.40658683378E+03  0.29707335461E+03  0.35565440638E+03  0.62903138888E+03  0.12500000000E+03 0.  0.
         25    1    1    2    0    0 -0.51400628052E+03 -0.17048731853E+02 -0.16439204478E+03  0.55420470952E+03  0.12500000000E+03 0.  0.
</event>
<event>
 5    0  0.5481966E-005  0.3452327E+03  0.7546771E-02  0.1064589E+00
         21   -1    0    0  502  501  0.00000000000E+00  0.00000000000E+00  0.10625365443E+04  0.10625365443E+04  0.00000000000E+00 0.  1.
         21   -1    0    0  501  502 -0.00000000000E+00 -0.00000000000E+00 -0.11217084702E+03  0.11217084702E+03  0.00000000000E+00 0.  1.
         25    1    1    2    0    0  0.90179174716E+02  0.85337288242E+02  0.27518014421E+03  0.32674737655E+03  0.12500000000E+03 0.  0.
         25    1    1    2    0    0 -0.24748803370E+03  0.27589770407E+02  0.42080978900E+03  0.50469535442E+03  0.12500000000E+03 0.  0.
         25    1    1    2    0    0  0.15730885898E+03 -0.11292705865E+03  0.25437576404E+03  0.34326466031E+03  0.12500000000E+03 0.  0.
</event>
<event>
 5    0  0.5481966E-005  0.3546671E+03  0.7546771E-02  0.1060716E+00
         21   -1    0    0  502  501  0.00000000000E+00  0.00000000000E+00  0.11824972474E+03  0.11824972474E+03  0.00000000000E+00 0.  1.
         21   -1    0    0  501  502 -0.00000000000E+00 -0.00000000000E+00 -0.10637552382E+04  0.10637552382E+04  0.00000000000E+00 0.  1.
         25    1    1    2    0    0  0.85311372524E+02  0.17577276872E+03 -0.12354454613E+03  0.26279716777E+03  0.12500000000E+03 0.  0.
         25    1    1    2    0    0  0.85959096219E+01 -0.10268129320E+03 -0.66983845171E+03  0.68914866976E+03  0.12500000000E+03 0.  0.
         25    1    1    2    0    0 -0.93907282146E+02 -0.73091475523E+02 -0.15212251564E+03  0.23005912544E+03  0.12500000000E+03 0.  0.
</event>
<event>
 5    0  0.5481966E-005  0.2260654E+03  0.7546771E-02  0.1129440E+00
         21   -1    0    0  502  501  0.00000000000E+00  0.00000000000E+00  0.12819924044E+03  0.12819924044E+03  0.00000000000E+00 0. -1.
         21   -1    0    0  501  502 -0.00000000000E+00 -0.00000000000E+00 -0.39864167659E+03  0.39864167659E+03  0.00000000000E+00 0. -1.
         25    1    1    2    0    0 -0.14909501384E+02  0.62186215769E+02 -0.10053002507E+03  0.17268672388E+03  0.12500000000E+03 0.  0.
         25    1    1    2    0    0 -0.16468450983E+02  0.87352921150E+01 -0.16384666540E+03  0.20692569915E+03  0.12500000000E+03 0.  0.
         25    1    1    2    0    0  0.31377952367E+02 -0.70921507884E+02 -0.60657456867E+01  0.14722849400E+03  0.12500000000E+03 0.  0.
</event>
<event>
 5    0  0.5481966E-005  0.2345322E+03  0.7546771E-02  0.1123490E+00
         21   -1    0    0  502  501  0.00000000000E+00  0.00000000000E+00  0.60626116971E+02  0.60626116971E+02  0.00000000000E+00 0. -1.
         21   -1    0    0  501  502 -0.00000000000E+00 -0.00000000000E+00 -0.90728797154E+03  0.90728797154E+03  0.00000000000E+00 0. -1.
         25    1    1    2    0    0 -0.36898212817E+02  0.42721252476E+01 -0.12135261470E+03  0.17813249635E+03  0.12500000000E+03 0.  0.
         25    1    1    2    0    0 -0.79508486969E+01  0.34037627325E+02 -0.55734578848E+03  0.57225964737E+03  0.12500000000E+03 0.  0.
         25    1    1    2    0    0  0.44849061514E+02 -0.38309752573E+02 -0.16796345138E+03  0.21752194478E+03  0.12500000000E+03 0.  0.
</event>
<event>
 5    0  0.5481966E-005  0.4817636E+03  0.7546771E-02  0.1018652E+00
         21   -1    0    0  502  501  0.00000000000E+00  0.00000000000E+00  0.73587187359E+03  0.73587187359E+03  0.00000000000E+00 0. -1.
         21   -1    0    0  501  502 -0.00000000000E+00 -0.00000000000E+00 -0.31540299599E+03  0.31540299599E+03  0.00000000000E+00 0. -1.
         25    1    1    2    0    0 -0.16750359685E+03  0.69245344996E+01 -0.11525597435E+03  0.23877676554E+03  0.12500000000E+03 0.  0.
         25    1    1    2    0    0 -0.46615474006E+02 -0.12755868308E+03 -0.26337484232E+02  0.18644807084E+03  0.12500000000E+03 0.  0.
         25    1    1    2    0    0  0.21411907086E+03  0.12063414858E+03  0.56206233618E+03  0.62605003320E+03  0.12500000000E+03 0.  0.
</event>
<event>
 5    0  0.5481966E-005  0.4227113E+03  0.7546771E-02  0.1036187E+00
         21   -1    0    0  502  501  0.00000000000E+00  0.00000000000E+00  0.19450036100E+03  0.19450036100E+03  0.00000000000E+00 0.  1.
         21   -1    0    0  501  502 -0.00000000000E+00 -0.00000000000E+00 -0.91868635484E+03  0.91868635484E+03  0.00000000000E+00 0.  1.
         25    1    1    2    0    0 -0.59674316224E+01 -0.25501014196E+03 -0.80345820463E+02  0.29520540918E+03  0.12500000000E+03 0.  0.
         25    1    1    2    0    0  0.31267796033E+02  0.32392722990E+03 -0.52661984639E+03  0.63155363030E+03  0.12500000000E+03 0.  0.
         25    1    1    2    0    0 -0.25300364410E+02 -0.68917087941E+02 -0.11722032699E+03  0.18642767635E+03  0.12500000000E+03 0.  0.
</event>
<event>
 5    0  0.5481966E-005  0.2683099E+03  0.7546771E-02  0.1102251E+00
         21   -1    0    0  502  501  0.00000000000E+00  0.00000000000E+00  0.21735535751E+03  0.21735535751E+03  0.00000000000E+00 0. -1.
         21   -1    0    0  501  502 -0.00000000000E+00 -0.00000000000E+00 -0.33120981465E+03  0.33120981465E+03  0.00000000000E+00 0. -1.
         25    1    1    2    0    0  0.35322304638E+02  0.86753588817E+02 -0.84873997694E+02  0.17777076774E+03  0.12500000000E+03 0.  0.
         25    1    1    2    0    0  0.38292599170E+02 -0.15438476517E+03  0.20313389653E+02  0.20331899239E+03  0.12500000000E+03 0.  0.
         25    1    1    2    0    0 -0.73614903808E+02  0.67631176350E+02 -0.49293849094E+02  0.16747541203E+03  0.12500000000E+03 0.  0.
</event>
<event>
 5    0  0.5481966E-005  0.2504121E+03  0.7546771E-02  0.1113045E+00
         21   -1    0    0  502  501  0.00000000000E+00  0.00000000000E+00  0.60602543780E+03  0.60602543780E+03  0.00000000000E+00 0. -1.
         21   -1    0    0  501  502 -0.00000000000E+00 -0.00000000000E+00 -0.10347129189E+03  0.10347129189E+03  0.00000000000E+00 0. -1.
         25    1    1    2    0    0  0.73192736145E+02  0.63819986363E+02  0.12085465627E+03  0.19915073493E+03  0.12500000000E+03 0.  0.
         25    1    1    2    0    0 -0.11534607172E+03  0.32380795578E+02  0.16638315124E+03  0.24012826822E+03  0.12500000000E+03 0.  0.
         25    1    1    2    0    0  0.42153335571E+02 -0.96200781941E+02  0.21531633841E+03  0.27021772653E+03  0.12500000000E+03 0.  0.
</event>
<event>
 5    0  0.5481966E-005  0.3284833E+03  0.7546771E-02  0.1071810E+00
         21   -1    0    0  502  501  0.00000000000E+00  0.00000000000E+00  0.82676461919E+03  0.82676461919E+03  0.00000000000E+00 0. -1.
         21   -1    0    0  501  502 -0.00000000000E+00 -0.00000000000E+00 -0.13051023885E+03  0.13051023885E+03  0.00000000000E+00 0. -1.
         25    1    1    2    0    0 -0.68946522336E+02 -0.83455372345E+02  0.36148114807E+02  0.16926342877E+03  0.12500000000E+03 0.  0.
         25    1    1    2    0    0 -0.91366718867E+02  0.13417090652E+03  0.22026594586E+03  0.30081854394E+03  0.12500000000E+03 0.  0.
         25    1    1    2    0    0  0.16031324120E+03 -0.50715534179E+02  0.43984031966E+03  0.48719288533E+03  0.12500000000E+03 0.  0.
</event>
<event>
 5    0  0.5481966E-005  0.3367003E+03  0.7546771E-02  0.1068210E+00
         21   -1    0    0  502  501  0.00000000000E+00  0.00000000000E+00  0.50876778244E+03  0.50876778244E+03  0.00000000000E+00 0. -1.
         21   -1    0    0  501  502 -0.00000000000E+00 -0.00000000000E+00 -0.22282683976E+03  0.22282683976E+03  0.00000000000E+00 0. -1.
         25    1    1    2    0    0 -0.18022035249E+02  0.16691766238E+02 -0.88586966959E+02  0.15516462074E+03  0.12500000000E+03 0.  0.
         25    1    1    2    0    0 -0.15407733260E+03 -0.65639330516E+02  0.24736272702E+03  0.32382350880E+03  0.12500000000E+03 0.  0.
         25    1    1    2    0    0  0.17209936785E+03  0.48947564279E+02  0.12716518261E+03  0.25260649266E+03  0.12500000000E+03 0.  0.
</event>
<event>
 5    0  0.5481966E-005  0.3472370E+03  0.7546771E-02  0.1063755E+00
         21   -1    0    0  502  501  0.00000000000E+00  0.00000000000E+00  0.10232220121E+04  0.10232220121E+04  0.00000000000E+00 0. -1.
         21   -1    0    0  501  502 -0.00000000000E+00 -0.00000000000E+00 -0.11783711599E+03  0.11783711599E+03  0.00000000000E+00 0. -1.
         25    1    1    2    0    0 -0.26175317916E+01  0.77992689834E+02  0.36729151929E+03  0.39574963207E+03  0.12500000000E+03 0.  0.
         25    1    1    2    0    0  0.47057524008E+02 -0.12360722134E+03  0.57261419395E+03  0.60083705848E+03  0.12500000000E+03 0.  0.
         25    1    1    2    0    0 -0.44439992216E+02  0.45614531503E+02 -0.34520817133E+02  0.14447243754E+03  0.12500000000E+03 0.  0.
</event>
<event>
 5    0  0.5481966E-005  0.2201776E+03  0.7546771E-02  0.1133751E+00
         21   -1    0    0  502  501  0.00000000000E+00  0.00000000000E+00  0.31629247155E+02  0.31629247155E+02  0.00000000000E+00 0.  1.
         21   -1    0    0  501  502 -0.00000000000E+00 -0.00000000000E+00 -0.15327013220E+04  0.15327013220E+04  0.00000000000E+00 0.  1.
         25    1    1    2    0    0  0.39919886940E+02  0.21300495636E+02 -0.47184252155E+03  0.49021186606E+03  0.12500000000E+03 0.  0.
         25    1    1    2    0    0  0.27551587661E+01 -0.33165452825E+02 -0.22929150712E+03  0.26326248004E+03  0.12500000000E+03 0.  0.
         25    1    1    2    0    0 -0.42675045706E+02  0.11864957190E+02 -0.79993804619E+03  0.81085622306E+03  0.12500000000E+03 0.  0.
</event>
<event>
 5    0  0.5481966E-005  0.2720972E+03  0.7546771E-02  0.1100085E+00
         21   -1    0    0  502  501  0.00000000000E+00  0.00000000000E+00  0.17504663434E+04  0.17504663434E+04  0.00000000000E+00 0.  1.
         21   -1    0    0  501  502 -0.00000000000E+00 -0.00000000000E+00 -0.42295529955E+02  0.42295529955E+02  0.00000000000E+00 0.  1.
         25    1    1    2    0    0  0.16138186086E+03  0.93114106594E+01  0.91455833399E+03  0.93710872029E+03  0.12500000000E+03 0.  0.
         25    1    1    2    0    0 -0.12251939607E+03 -0.51318635523E+02  0.45151380943E+03  0.48696439795E+03  0.12500000000E+03 0.  0.
         25    1    1    2    0    0 -0.38862464797E+02  0.42007224863E+02  0.34209867002E+03  0.36868875510E+03  0.12500000000E+03 0.  0.
</event>
<event>
 5    0  0.5481966E-005  0.4076488E+03  0.7546771E-02  0.1041163E+00
         21   -1    0    0  502  501  0.00000000000E+00  0.00000000000E+00  0.20764505073E+03  0.20764505073E+03  0.00000000000E+00 0. -1.
         21   -1    0    0  501  502 -0.00000000000E+00 -0.00000000000E+00 -0.80029606343E+03  0.80029606343E+03  0.00000000000E+00 0. -1.
         25    1    1    2    0    0 -0.20703886845E+03 -0.26273853495E+03 -0.21211887005E+03  0.41535050961E+03  0.12500000000E+03 0.  0.
         25    1    1    2    0    0  0.59585375942E+02  0.14198072426E+02 -0.12485638556E+03  0.18699229744E+03  0.12500000000E+03 0.  0.
         25    1    1    2    0    0  0.14745349251E+03  0.24854046253E+03 -0.25567575710E+03  0.40559830712E+03  0.12500000000E+03 0.  0.
</event>
<event>
 5    0  0.5481966E-005  0.2923021E+03  0.7546771E-02  0.1089153E+00
         21   -1    0    0  502  501  0.00000000000E+00  0.00000000000E+00  0.11705450755E+03  0.11705450755E+03  0.00000000000E+00 0. -1.
         21   -1    0    0  501  502 -0.00000000000E+00 -0.00000000000E+00 -0.72992089364E+03  0.72992089364E+03  0.00000000000E+00 0. -1.
         25    1    1    2    0    0  0.27244954865E+02  0.31161155889E+02 -0.18429030644E+03  0.22649773122E+03  0.12500000000E+03 0.  0.
         25    1    1    2    0    0 -0.78809308721E+02  0.40636788833E+02  0.12326911151E+02  0.15375047475E+03  0.12500000000E+03 0.  0.
         25    1    1    2    0    0  0.51564353856E+02 -0.71797944722E+02 -0.44090299080E+03  0.46672719521E+03  0.12500000000E+03 0.  0.
</event>
<event>
 5    0  0.5481966E-005  0.2446944E+03  0.7546771E-02  0.1116704E+00
         21   -1    0    0  502  501  0.00000000000E+00  0.00000000000E+00  0.22533712639E+03  0.22533712639E+03  0.00000000000E+00 0. -1.
         21   -1    0    0  501  502 -0.00000000000E+00 -0.00000000000E+00 -0.26571454772E+03  0.26571454772E+03  0.00000000000E+00 0. -1.
         25    1    1    2    0    0  0.10905271452E+03 -0.11010331359E+02 -0.54632960187E+02  0.17499566360E+03  0.12500000000E+03 0.  0.
         25    1    1    2    0    0  0.25280539278E+02  0.27013014524E+02 -0.75472643405E+01  0.13057859633E+03  0.12500000000E+03 0.  0.
         25    1    1    2    0    0 -0.13433325380E+03 -0.16002683165E+02  0.21802803204E+02  0.18547741418E+03  0.12500000000E+03 0.  0.
</event>
<event>
 5    0  0.5481966E-005  0.2508259E+03  0.7546771E-02  0.1112784E+00
         21   -1    0    0  502  501  0.00000000000E+00  0.00000000000E+00  0.40442999584E+03  0.40442999584E+03  0.00000000000E+00 0.  1.
         21   -1    0    0  501  502 -0.00000000000E+00 -0.00000000000E+00 -0.15556129602E+03  0.15556129602E+03  0.00000000000E+00 0.  1.
         25    1    1    2    0    0 -0.88217914163E+01  0.43185794565E+02  0.20617177528E+02  0.13413763404E+03  0.12500000000E+03 0.  0.
         25    1    1    2    0    0  0.33990061475E+02  0.50008768955E+02  0.22912348132E+03  0.26791560414E+03  0.12500000000E+03 0.  0.
         25    1    1    2    0    0 -0.25168270059E+02 -0.93194563520E+02 -0.87195902289E+00  0.15793805368E+03  0.12500000000E+03 0.  0.
</event>
<event>
 5    0  0.5481966E-005  0.3309769E+03  0.7546771E-02  0.1070705E+00
         21   -1    0    0  502  501  0.00000000000E+00  0.00000000000E+00  0.13121934039E+03  0.13121934039E+03  0.00000000000E+00 0.  1.
         21   -1    0    0  501  502 -0.00000000000E+00 -0.00000000000E+00 -0.83482874871E+03  0.83482874871E+03  0.00000000000E+00 0.  1.
         25    1    1    2    0    0  0.37827299915E+02  0.76235100011E+02 -0.32647516727E+03  0.35979678978E+03  0.12500000000E+03 0.  0.
         25    1    1    2    0    0  0.16868087655E+03 -0.96477857922E+02 -0.16109711667E+03  0.28167090049E+03  0.12500000000E+03 0.  0.
         25    1    1    2    0    0 -0.20650817647E+03  0.20242757911E+02 -0.21603712438E+03  0.32458039883E+03  0.12500000000E+03 0.  0.
</event>
<event>
 5    0  0.5481966E-005  0.3859638E+03  0.7546771E-02  0.1048751E+00
         21   -1    0    0  502  501  0.00000000000E+00  0.00000000000E+00  0.31818643234E+03  0.31818643234E+03  0.00000000000E+00 0.  1.
         21   -1    0    0  501  502 -0.00000000000E+00 -0.00000000000E+00 -0.46817862383E+03  0.46817862383E+03  0.00000000000E+00 0.  1.
         25    1    1    2    0    0 -0.11310342322E+03 -0.19374314792E+03  0.41982516939E+02  0.26022360277E+03  0.12500000000E+03 0.  0.
         25    1    1    2    0    0 -0.73711559930E+02  0.22000794697E+03 -0.10447619485E+03  0.28350867021E+03  0.12500000000E+03 0.  0.
         25    1    1    2    0    0  0.18681498315E+03 -0.26264799045E+02 -0.87498513588E+02  0.24263278319E+03  0.12500000000E+03 0.  0.
</event>
<event>
 5    0  0.5481966E-005  0.3312618E+03  0.7546771E-02  0.1070580E+00
         21   -1    0    0  502  501  0.00000000000E+00  0.00000000000E+00  0.27727316937E+03  0.27727316937E+03  0.00000000000E+00 0. -1.
         21   -1    0    0  501  502 -0.00000000000E+00 -0.00000000000E+00 -0.39576270594E+03  0.39576270594E+03  0.00000000000E+00 0. -1.
         25    1    1    2    0    0  0.14512397646E+03  0.10673046659E+03 -0.12509040965E+03  0.25243805503E+03  0.12500000000E+03 0.  0.
         25    1    1    2    0    0  0.28799349032E+02  0.20899983875E+02  0.89555040335E+02  0.15783319385E+03  0.12500000000E+03 0.  0.
         25    1    1    2    0    0 -0.17392332549E+03 -0.12763045046E+03 -0.82954167255E+02  0.26276462642E+03  0.12500000000E+03 0.  0.
</event>
<event>
 5    0  0.5481966E-005  0.3121753E+03  0.7546771E-02  0.1079308E+00
         21   -1    0    0  502  501  0.00000000000E+00  0.00000000000E+00  0.44790869087E+02  0.44790869087E+02  0.00000000000E+00 0. -1.
         21   -1    0    0  501  502 -0.00000000000E+00 -0.00000000000E+00 -0.21757429106E+04  0.21757429106E+04  0.00000000000E+00 0. -1.
         25    1    1    2    0    0 -0.98248456803E+02  0.29108069504E+02 -0.52147521748E+03  0.54595003564E+03  0.12500000000E+03 0.  0.
         25    1    1    2    0    0 -0.62380800359E+02 -0.57741726857E+02 -0.12608355017E+04  0.12698648092E+04  0.12500000000E+03 0.  0.
         25    1    1    2    0    0  0.16062925716E+03  0.28633657354E+02 -0.34864132234E+03  0.40471893485E+03  0.12500000000E+03 0.  0.
</event>
<event>
 5    0  0.5481966E-005  0.6121385E+03  0.7546771E-02  0.9880538E-01
         21   -1    0    0  502  501  0.00000000000E+00  0.00000000000E+00  0.20951830097E+03  0.20951830097E+03  0.00000000000E+00 0.  1.
         21   -1    0    0  501  502 -0.00000000000E+00 -0.00000000000E+00 -0.17884524592E+04  0.17884524592E+04  0.00000000000E+00 0.  1.
         25    1    1    2    0    0 -0.15647786973E+03 -0.15236330783E+03 -0.17301551897E+03  0.30538380948E+03  0.12500000000E+03 0.  0.
         25    1    1    2    0    0  0.40396185160E+03  0.36446813497E+03 -0.62997189090E+03  0.84173141933E+03  0.12500000000E+03 0.  0.
         25    1    1    2    0    0 -0.24748398187E+03 -0.21210482715E+03 -0.77594674839E+03  0.85085553140E+03  0.12500000000E+03 0.  0.
</event>
<event>
 5    0  0.5481966E-005  0.3060426E+03  0.7546771E-02  0.1082258E+00
         21   -1    0    0  502  501  0.00000000000E+00  0.00000000000E+00  0.56156717484E+03  0.56156717484E+03  0.00000000000E+00 0. -1.
         21   -1    0    0  501  502 -0.00000000000E+00 -0.00000000000E+00 -0.16678696146E+03  0.16678696146E+03  0.00000000000E+00 0. -1.
         25    1    1    2    0    0 -0.98757649517E+02  0.83867516168E+02 -0.72765744593E+01  0.18017986053E+03  0.12500000000E+03 0.  0.
         25    1    1    2    0    0  0.39960504295E+02 -0.14932964191E+03  0.13448590572E+03  0.24001592175E+03  0.12500000000E+03 0.  0.
         25    1    1    2    0    0  0.58797145222E+02  0.65462125737E+02  0.26757088212E+03  0.30815835401E+03  0.12500000000E+03 0.  0.
</event>
<event>
 5    0  0.5481966E-005  0.3111372E+03  0.7546771E-02  0.1079802E+00
         21   -1    0    0  502  501  0.00000000000E+00  0.00000000000E+00  0.62708125676E+02  0.62708125676E+02  0.00000000000E+00 0.  1.
         21   -1    0    0  501  502 -0.00000000000E+00 -0.00000000000E+00 -0.15437605996E+04  0.15437605996E+04  0.00000000000E+00 0. -1.
         25    1    1    2    0    0 -0.17290800874E+01 -0.48925993253E+02 -0.12672706587E+03  0.18461173245E+03  0.12500000000E+03 0.  0.
         25    1    1    2    0    0  0.14948484726E+03  0.22292103495E+02 -0.37455274431E+03  0.42279713304E+03  0.12500000000E+03 0.  0.
         25    1    1    2    0    0 -0.14775576717E+03  0.26633889758E+02 -0.97977266379E+03  0.99905985983E+03  0.12500000000E+03 0.  0.
</event>
<event>
 5    0  0.5596193E-005  0.2896978E+03  0.7546771E-02  0.1090507E+00
         21   -1    0    0  502  501  0.00000000000E+00  0.00000000000E+00  0.91216489030E+03  0.91216489030E+03  0.00000000000E+00 0.  1.
         21   -1    0    0  501  502 -0.00000000000E+00 -0.00000000000E+00 -0.92006161703E+02  0.92006161703E+02  0.00000000000E+00 0.  1.
         25    1    1    2    0    0  0.60410448031E+02  0.12025679679E+03  0.24174005769E+03  0.30360233019E+03  0.12500000000E+03 0.  0.
         25    1    1    2    0    0 -0.56269091650E+02  0.75616751223E+02  0.17343709900E+03  0.23364402635E+03  0.12500000000E+03 0.  0.
         25    1    1    2    0    0 -0.41413563813E+01 -0.19587354801E+03  0.40498157191E+03  0.46692469546E+03  0.12500000000E+03 0.  0.
</event>
<event>
 5    0  0.5481966E-005  0.2963448E+03  0.7546771E-02  0.1087082E+00
         21   -1    0    0  502  501  0.00000000000E+00  0.00000000000E+00  0.20509497738E+03  0.20509497738E+03  0.00000000000E+00 0. -1.
         21   -1    0    0  501  502 -0.00000000000E+00 -0.00000000000E+00 -0.42819288931E+03  0.42819288931E+03  0.00000000000E+00 0. -1.
         25    1    1    2    0    0 -0.10864547171E+03 -0.13616364572E+03 -0.35591677465E+02  0.21733877805E+03  0.12500000000E+03 0.  0.
         25    1    1    2    0    0  0.40780729897E+02 -0.20783421008E+02 -0.15051418904E+03  0.20093416738E+03  0.12500000000E+03 0.  0.
         25    1    1    2    0    0  0.67864741814E+02  0.15694706673E+03 -0.36992045427E+02  0.21501492126E+03  0.12500000000E+03 0.  0.
</event>
<event>
 5    0  0.5862283E-005  0.3552168E+03  0.7546771E-02  0.1060494E+00
         21   -1    0    0  502  501  0.00000000000E+00  0.00000000000E+00  0.27087329180E+03  0.27087329180E+03  0.00000000000E+00 0. -1.
         21   -1    0    0  501  502 -0.00000000000E+00 -0.00000000000E+00 -0.46582284248E+03  0.46582284248E+03  0.00000000000E+00 0. -1.
         25    1    1    2    0    0  0.14745790415E+03 -0.96304754899E+02  0.17637674885E+02  0.21668993259E+03  0.12500000000E+03 0.  0.
         25    1    1    2    0    0 -0.13614181229E+03 -0.10108972147E+03 -0.19226059954E+03  0.28520670220E+03  0.12500000000E+03 0.  0.
         25    1    1    2    0    0 -0.11316091856E+02  0.19739447637E+03 -0.20326626016E+02  0.23479949949E+03  0.12500000000E+03 0.  0.
</event>
<event>
 5    0  0.5481966E-005  0.2697265E+03  0.7546771E-02  0.1101436E+00
         21   -1    0    0  502  501  0.00000000000E+00  0.00000000000E+00  0.15678427569E+03  0.15678427569E+03  0.00000000000E+00 0.  1.
         21   -1    0    0  501  502 -0.00000000000E+00 -0.00000000000E+00 -0.46402854947E+03  0.46402854947E+03  0.00000000000E+00 0.  1.
         25    1    1    2    0    0  0.97047144015E+01 -0.58144103925E+02 -0.39440817494E+02  0.14372020174E+03  0.12500000000E+03 0.  0.
         25    1    1    2    0    0 -0.14271799315E+03  0.10180369970E+02 -0.66847417641E+02  0.20140914266E+03  0.12500000000E+03 0.  0.
         25    1    1    2    0    0  0.13301327875E+03  0.47963733955E+02 -0.20095603865E+03  0.27568348077E+03  0.12500000000E+03 0.  0.
</event>
<event>
 5    0  0.5481966E-005  0.3797161E+03  0.7546771E-02  0.1051039E+00
         21   -1    0    0  502  501  0.00000000000E+00  0.00000000000E+00  0.24423085518E+03  0.24423085518E+03  0.00000000000E+00 0. -1.
         21   -1    0    0  501  502 -0.00000000000E+00 -0.00000000000E+00 -0.59036088623E+03  0.59036088623E+03  0.00000000000E+00 0. -1.
         25    1    1    2    0    0 -0.62586705305E+02 -0.26664204154E+03 -0.33450523651E+03  0.45003758426E+03  0.12500000000E+03 0.  0.
         25    1    1    2    0    0 -0.84243582346E+01  0.16948638790E+03 -0.10762038284E+02  0.21103892286E+03  0.12500000000E+03 0.  0.
         25    1    1    2    0    0  0.71011063539E+02  0.97155653640E+02 -0.86275625468E+00  0.17351523428E+03  0.12500000000E+03 0.  0.
</event>
<event>
 5    0  0.5481966E-005  0.2669122E+03  0.7546771E-02  0.1103060E+00
         21   -1    0    0  502  501  0.00000000000E+00  0.00000000000E+00  0.19399812556E+03  0.19399812556E+03  0.00000000000E+00 0. -1.
         21   -1    0    0  501  502 -0.00000000000E+00 -0.00000000000E+00 -0.36723090377E+03  0.36723090377E+03  0.00000000000E+00 0. -1.
         25    1    1    2    0    0  0.66628277518E+02  0.73947590945E+02  0.13518387377E+01  0.15979487176E+03  0.12500000000E+03 0.  0.
         25    1    1    2    0    0  0.62184199722E+02 -0.97452136842E+02 -0.13208148594E+03  0.21548622369E+03  0.12500000000E+03 0.  0.
         25    1    1    2    0    0 -0.12881247724E+03  0.23504545897E+02 -0.42503131004E+02  0.18594793388E+03  0.12500000000E+03 0.  0.
</event>
<event>
 5    0  0.5481966E-005  0.3273290E+03  0.7546771E-02  0.1072325E+00
         21   -1    0    0  502  501  0.00000000000E+00  0.00000000000E+00  0.50839439033E+03  0.50839439033E+03  0.00000000000E+00 0. -1.
         21   -1    0    0  501  502 -0.00000000000E+00 -0.00000000000E+00 -0.21075032302E+03  0.21075032302E+03  0.00000000000E+00 0. -1.
         25    1    1    2    0    0 -0.42280376144E+02 -0.70102985644E+02  0.77277666381E+02  0.16822275864E+03  0.12500000000E+03 0.  0.
         25    1    1    2    0    0 -0.11082453640E+01 -0.18133113491E+03  0.10914061360E+03  0.24580252690E+03  0.12500000000E+03 0.  0.
         25    1    1    2    0    0  0.43388621508E+02  0.25143412055E+03  0.11122578733E+03  0.30511942780E+03  0.12500000000E+03 0.  0.
</event>
<event>
 5    0  0.5481966E-005  0.3271022E+03  0.7546771E-02  0.1072426E+00
         21   -1    0    0  502  501  0.00000000000E+00  0.00000000000E+00  0.75301254272E+02  0.75301254272E+02  0.00000000000E+00 0.  1.
         21   -1    0    0  501  502 -0.00000000000E+00 -0.00000000000E+00 -0.14209040952E+04  0.14209040952E+04  0.00000000000E+00 0.  1.
         25    1    1    2    0    0 -0.13335553345E+03  0.76465722511E+02 -0.12473181692E+03  0.23412332471E+03  0.12500000000E+03 0.  0.
         25    1    1    2    0    0  0.12184336198E+03 -0.56565294466E+02 -0.86355467919E+03  0.88283470783E+03  0.12500000000E+03 0.  0.
         25    1    1    2    0    0  0.11512171471E+02 -0.19900428045E+02 -0.35731634486E+03  0.37924731698E+03  0.12500000000E+03 0.  0.
</event>
<event>
 5    0  0.5481966E-005  0.2636116E+03  0.7546771E-02  0.1104993E+00
         21   -1    0    0  502  501  0.00000000000E+00  0.00000000000E+00  0.34311934137E+02  0.34311934137E+02  0.00000000000E+00 0. -1.
         21   -1    0    0  501  502 -0.00000000000E+00 -0.00000000000E+00 -0.20252741319E+04  0.20252741319E+04  0.00000000000E+00 0. -1.
         25    1    1    2    0    0 -0.99328690586E+02 -0.98050642815E+02 -0.79628940491E+03  0.81803541103E+03  0.12500000000E+03 0.  0.
         25    1    1    2    0    0  0.47661293779E+02 -0.40899432230E+02 -0.40739218682E+03  0.43074093880E+03  0.12500000000E+03 0.  0.
         25    1    1    2    0    0  0.51667396807E+02  0.13895007504E+03 -0.78728060607E+03  0.81080971623E+03  0.12500000000E+03 0.  0.
</event>
<event>
 5    0  0.5481966E-005  0.2660932E+03  0.7546771E-02  0.1103537E+00
         21   -1    0    0  502  501  0.00000000000E+00  0.00000000000E+00  0.27054117171E+03  0.27054117171E+03  0.00000000000E+00 0. -1.
         21   -1    0    0  501  502 -0.00000000000E+00 -0.00000000000E+00 -0.26171836023E+03  0.26171836023E+03  0.00000000000E+00 0. -1.
         25    1    1    2    0    0  0.64010479847E+02 -0.83931058305E+02  0.22442707141E+02  0.16513763709E+03  0.12500000000E+03 0.  0.
         25    1    1    2    0    0 -0.35332688835E+02  0.16017760088E+01  0.11052085283E+03  0.17056032216E+03  0.12500000000E+03 0.  0.
         25    1    1    2    0    0 -0.28677791012E+02  0.82329282297E+02 -0.12414074849E+03  0.19656157269E+03  0.12500000000E+03 0.  0.
</event>
<event>
 5    0  0.5481966E-005  0.4120718E+03  0.7546771E-02  0.1039678E+00
         21   -1    0    0  502  501  0.00000000000E+00  0.00000000000E+00  0.32413371665E+03  0.32413371665E+03  0.00000000000E+00 0.  1.
         21   -1    0    0  501  502 -0.00000000000E+00 -0.00000000000E+00 -0.52386758702E+03  0.52386758702E+03  0.00000000000E+00 0. -1.
         25    1    1    2    0    0  0.16804465207E+02  0.89357042124E+02 -0.32914562451E+03  0.36363293740E+03  0.12500000000E+03 0.  0.
         25    1    1    2    0    0 -0.12040267561E+03  0.11204671159E+03  0.38309454639E+02  0.21010446018E+03  0.12500000000E+03 0.  0.
         25    1    1    2    0    0  0.10359821041E+03 -0.20140375371E+03  0.91102299498E+02  0.27426390609E+03  0.12500000000E+03 0.  0.
</event>
<event>
 5    0  0.5481966E-005  0.2819647E+03  0.7546771E-02  0.1094621E+00
         21   -1    0    0  502  501  0.00000000000E+00  0.00000000000E+00  0.79034407767E+02  0.79034407767E+02  0.00000000000E+00 0.  1.
         21   -1    0    0  501  502 -0.00000000000E+00 -0.00000000000E+00 -0.10059431277E+04  0.10059431277E+04  0.00000000000E+00 0.  1.
         25    1    1    2    0    0 -0.63668779192E+02 -0.53511758486E+02 -0.50994970286E+03  0.53159281521E+03  0.12500000000E+03 0.  0.
         25    1    1    2    0    0  0.50296427035E+02  0.12174625196E+03 -0.10395225347E+03  0.20924376081E+03  0.12500000000E+03 0.  0.
         25    1    1    2    0    0  0.13372352157E+02 -0.68234493471E+02 -0.31300676359E+03  0.34414095943E+03  0.12500000000E+03 0.  0.
</event>
<event>
 5    0  0.5481966E-005  0.2347561E+03  0.7546771E-02  0.1123336E+00
         21   -1    0    0  502  501  0.00000000000E+00  0.00000000000E+00  0.23783533075E+03  0.23783533075E+03  0.00000000000E+00 0. -1.
         21   -1    0    0  501  502 -0.00000000000E+00 -0.00000000000E+00 -0.23171675297E+03  0.23171675297E+03  0.00000000000E+00 0. -1.
         25    1    1    2    0    0 -0.19815457591E+02  0.10764075991E+03  0.74773138001E+02  0.18219552058E+03  0.12500000000E+03 0.  0.
         25    1    1    2    0    0 -0.69628273725E+01 -0.36992451274E+02 -0.51329845549E+02  0.14027357364E+03  0.12500000000E+03 0.  0.
         25    1    1    2    0    0  0.26778284963E+02 -0.70648308641E+02 -0.17324714671E+02  0.14708298949E+03  0.12500000000E+03 0.  0.
</event>
<event>
 5    0  0.5481966E-005  0.5080972E+03  0.7546771E-02  0.1011687E+00
         21   -1    0    0  502  501  0.00000000000E+00  0.00000000000E+00  0.13986207813E+04  0.13986207813E+04  0.00000000000E+00 0.  1.
         21   -1    0    0  501  502 -0.00000000000E+00 -0.00000000000E+00 -0.18458382800E+03  0.18458382800E+03  0.00000000000E+00 0.  1.
         25    1    1    2    0    0 -0.17082628170E+03 -0.18657955121E+03  0.82300251520E+03  0.87002970493E+03  0.12500000000E+03 0.  0.
         25    1    1    2    0    0  0.10909469975E+03  0.34512919369E+03  0.28191843927E+03  0.47551952668E+03  0.12500000000E+03 0.  0.
         25    1    1    2    0    0  0.61731581946E+02 -0.15854964249E+03  0.10911599883E+03  0.23765537769E+03  0.12500000000E+03 0.  0.
</event>
<event>
 5    0  0.5481966E-005  0.2523811E+03  0.7546771E-02  0.1111809E+00
         21   -1    0    0  502  501  0.00000000000E+00  0.00000000000E+00  0.56533782571E+03  0.56533782571E+03  0.00000000000E+00 0. -1.
         21   -1    0    0  501  502 -0.00000000000E+00 -0.00000000000E+00 -0.11266930492E+03  0.11266930492E+03  0.00000000000E+00 0. -1.
         25    1    1    2    0    0 -0.17009657385E+02  0.70009012315E+02  0.24233121217E+02  0.14629707589E+03  0.12500000000E+03 0.  0.
         25    1    1    2    0    0 -0.71428711733E+02 -0.53643377280E+02  0.15721334687E+03  0.21981971982E+03  0.12500000000E+03 0.  0.
         25    1    1    2    0    0  0.88438369118E+02 -0.16365635034E+02  0.27122205271E+03  0.31189033492E+03  0.12500000000E+03 0.  0.
</event>
<event>
 5    0  0.5481966E-005  0.4822121E+03  0.7546771E-02  0.1018529E+00
         21   -1    0    0  502  501  0.00000000000E+00  0.00000000000E+00  0.14988209593E+03  0.14988209593E+03  0.00000000000E+00 0.  1.
         21   -1    0    0  501  502 -0.00000000000E+00 -0.00000000000E+00 -0.15514093892E+04  0.15514093892E+04  0.00000000000E+00 0.  1.
         25    1    1    2    0    0 -0.29595979150E+02 -0.28988029615E+03 -0.11126125222E+04  0.11569088696E+04  0.12500000000E+03 0.  0.
         25    1    1    2    0    0  0.87827694306E+02  0.18363902712E+02 -0.68339949906E+02  0.16836355177E+03  0.12500000000E+03 0.  0.
         25    1    1    2    0    0 -0.58231715156E+02  0.27151639343E+03 -0.22057482114E+03  0.37601906371E+03  0.12500000000E+03 0.  0.
</event>
<event>
 5    0  0.5481966E-005  0.3333375E+03  0.7546771E-02  0.1069670E+00
         21   -1    0    0  502  501  0.00000000000E+00  0.00000000000E+00  0.11285400004E+04  0.11285400004E+04  0.00000000000E+00 0.  1.
         21   -1    0    0  501  502 -0.00000000000E+00 -0.00000000000E+00 -0.98458075324E+02  0.98458075324E+02  0.00000000000E+00 0.  1.
         25    1    1    2    0    0  0.11701764484E+03  0.14003250443E+02  0.49196896406E+03  0.52110237173E+03  0.12500000000E+03 0.  0.
         25    1    1    2    0    0 -0.67141264272E+02 -0.16792169010E+03  0.40825447995E+03  0.46368347369E+03  0.12500000000E+03 0.  0.
         25    1    1    2    0    0 -0.49876380571E+02  0.15391843966E+03  0.12985848108E+03  0.24221223031E+03  0.12500000000E+03 0.  0.
</event>
<event>
 5    0  0.5481966E-005  0.2638951E+03  0.7546771E-02  0.1104825E+00
         21   -1    0    0  502  501  0.00000000000E+00  0.00000000000E+00  0.42637996406E+03  0.42637996406E+03  0.00000000000E+00 0.  1.
         21   -1    0    0  501  502 -0.00000000000E+00 -0.00000000000E+00 -0.16333002110E+03  0.16333002110E+03  0.00000000000E+00 0.  1.
         25    1    1    2    0    0 -0.29674542028E+02  0.12925379661E+03  0.53002685661E+02  0.18979306381E+03  0.12500000000E+03 0.  0.
         25    1    1    2    0    0  0.23869647311E+02 -0.61347730109E+02 -0.57441526233E+01  0.14139059142E+03  0.12500000000E+03 0.  0.
         25    1    1    2    0    0  0.58048947178E+01 -0.67906066504E+02  0.21579140992E+03  0.25852632993E+03  0.12500000000E+03 0.  0.
</event>
<event>
 5    0  0.5481966E-005  0.2386057E+03  0.7546771E-02  0.1120725E+00
         21   -1    0    0  502  501  0.00000000000E+00  0.00000000000E+00  0.11630234168E+03  0.11630234168E+03  0.00000000000E+00 0. -1.
         21   -1    0    0  501  502 -0.00000000000E+00 -0.00000000000E+00 -0.48952323759E+03  0.48952323759E+03  0.00000000000E+00 0. -1.
         25    1    1    2    0    0  0.69800261621E+02  0.35765699894E+02 -0.19190592371E+03  0.24208293076E+03  0.12500000000E+03 0.  0.
         25    1    1    2    0    0 -0.12316917606E+03 -0.36213149852E+02 -0.96215466996E+02  0.20338253181E+03  0.12500000000E+03 0.  0.
         25    1    1    2    0    0  0.53368914444E+02  0.44744995850E+00 -0.85099505208E+02  0.16036011670E+03  0.12500000000E+03 0.  0.
</event>
<event>
 5    0  0.5481966E-005  0.2293226E+03  0.7546771E-02  0.1127117E+00
         21   -1    0    0  502  501  0.00000000000E+00  0.00000000000E+00  0.19509612415E+03  0.19509612415E+03  0.00000000000E+00 0. -1.
         21   -1    0    0  501  502 -0.00000000000E+00 -0.00000000000E+00 -0.26955359185E+03  0.26955359185E+03  0.00000000000E+00 0. -1.
         25    1    1    2    0    0 -0.63663504695E+02 -0.70403070830E+02 -0.19249270865E+00  0.15695436045E+03  0.12500000000E+03 0.  0.
         25    1    1    2    0    0 -0.25118688477E+02 -0.41696012985E+01 -0.22675338033E+02  0.12956660465E+03  0.12500000000E+03 0.  0.
         25    1    1    2    0    0  0.88782193172E+02  0.74572672129E+02 -0.51589636963E+02  0.17812875089E+03  0.12500000000E+03 0.  0.
</event>
<event>
 5    0  0.5481966E-005  0.2216819E+03  0.7546771E-02  0.1132635E+00
         21   -1    0    0  502  501  0.00000000000E+00  0.00000000000E+00  0.32105908925E+03  0.32105908925E+03  0.00000000000E+00 0.  1.
         21   -1    0    0  501  502 -0.00000000000E+00 -0.00000000000E+00 -0.15306485283E+03  0.15306485283E+03  0.00000000000E+00 0.  1.
         25    1    1    2    0    0 -0.92773909489E+01  0.42916826657E+02  0.14058690279E+03  0.19317764164E+03  0.12500000000E+03 0.  0.
         25    1    1    2    0    0 -0.46265112462E+02 -0.36702051328E+02 -0.11146372839E+02  0.13869658550E+03  0.12500000000E+03 0.  0.
         25    1    1    2    0    0  0.55542503411E+02 -0.62147753293E+01  0.38553706458E+02  0.14224971494E+03  0.12500000000E+03 0.  0.
</event>
<event>
 5    0  0.5481966E-005  0.4013490E+03  0.7546771E-02  0.1043314E+00
         21   -1    0    0  502  501  0.00000000000E+00  0.00000000000E+00  0.12445942275E+03  0.12445942275E+03  0.00000000000E+00 0.  1.
         21   -1    0    0  501  502 -0.00000000000E+00 -0.00000000000E+00 -0.12942451501E+04  0.12942451501E+04  0.00000000000E+00 0.  1.
         25    1    1    2    0    0 -0.19473695563E+03 -0.19574162973E+03 -0.56655090406E+03  0.64252797168E+03  0.12500000000E+03 0.  0.
         25    1    1    2    0    0  0.10946780161E+03  0.59569986725E+02 -0.45252279349E+02  0.18222116149E+03  0.12500000000E+03 0.  0.
         25    1    1    2    0    0  0.85269154019E+02  0.13617164301E+03 -0.55798254397E+03  0.59395543971E+03  0.12500000000E+03 0.  0.
</event>
<event>
 5    0  0.5481966E-005  0.3964948E+03  0.7546771E-02  0.1045000E+00
         21   -1    0    0  502  501  0.00000000000E+00  0.00000000000E+00  0.43733304366E+03  0.43733304366E+03  0.00000000000E+00 0. -1.
         21   -1    0    0  501  502 -0.00000000000E+00 -0.00000000000E+00 -0.35947000986E+03  0.35947000986E+03  0.00000000000E+00 0. -1.
         25    1    1    2    0    0 -0.19077290852E+03 -0.29472798823E+02  0.27689383400E+03  0.35994186169E+03  0.12500000000E+03 0.  0.
         25    1    1    2    0    0  0.16275175982E+03 -0.32319515078E+02 -0.20848688327E+03  0.29432034737E+03  0.12500000000E+03 0.  0.
         25    1    1    2    0    0  0.28021148696E+02  0.61792313901E+02  0.94560830654E+01  0.14254084446E+03  0.12500000000E+03 0.  0.
</event>
<event>
 5    0  0.5481966E-005  0.3151064E+03  0.7546771E-02  0.1077924E+00
         21   -1    0    0  502  501  0.00000000000E+00  0.00000000000E+00  0.73132587854E+03  0.73132587854E+03  0.00000000000E+00 0. -1.
         21   -1    0    0  501  502 -0.00000000000E+00 -0.00000000000E+00 -0.13576990052E+03  0.13576990052E+03  0.00000000000E+00 0. -1.
         25    1    1    2    0    0  0.57882906785E+02  0.60347002868E+02  0.16429669865E+03  0.22273436385E+03  0.12500000000E+03 0.  0.
         25    1    1    2    0    0 -0.64169428635E+02 -0.14987318324E+03  0.44473445143E+03  0.48989123171E+03  0.12500000000E+03 0.  0.
         25    1    1    2    0    0  0.62865218492E+01  0.89526180369E+02 -0.13475172056E+02  0.15447018350E+03  0.12500000000E+03 0.  0.
</event>
<event>
 5    0  0.5481966E-005  0.3506401E+03  0.7546771E-02  0.1062353E+00
         21   -1    0    0  502  501  0.00000000000E+00  0.00000000000E+00  0.28130349654E+03  0.28130349654E+03  0.00000000000E+00 0. -1.
         21   -1    0    0  501  502 -0.00000000000E+00 -0.00000000000E+00 -0.43706713726E+03  0.43706713726E+03  0.00000000000E+00 0. -1.
         25    1    1    2    0    0 -0.93842080466E-01 -0.20567957127E+02  0.37072290323E+02  0.13199395583E+03  0.12500000000E+03 0.  0.
         25    1    1    2    0    0  0.56285555177E+02  0.22462357712E+03  0.16277234724E+02  0.26365462919E+03  0.12500000000E+03 0.  0.
         25    1    1    2    0    0 -0.56191713097E+02 -0.20405562000E+03 -0.20911316577E+03  0.32272204878E+03  0.12500000000E+03 0.  0.
</event>
<event>
 5    0  0.5481966E-005  0.2160738E+03  0.7546771E-02  0.1136844E+00
         21   -1    0    0  502  501  0.00000000000E+00  0.00000000000E+00  0.10337332556E+03  0.10337332556E+03  0.00000000000E+00 0.  1.
         21   -1    0    0  501  502 -0.00000000000E+00 -0.00000000000E+00 -0.45164358381E+03  0.45164358381E+03  0.00000000000E+00 0.  1.
         25    1    1    2    0    0 -0.50047124935E+02 -0.55290432271E+02 -0.12804631070E+03  0.19386233337E+03  0.12500000000E+03 0.  0.
         25    1    1    2    0    0  0.19572218373E+02  0.34670806697E+02 -0.36970177331E+02  0.13629721414E+03  0.12500000000E+03 0.  0.
         25    1    1    2    0    0  0.30474906562E+02  0.20619625574E+02 -0.18325377022E+03  0.22485736187E+03  0.12500000000E+03 0.  0.
</event>
<event>
 5    0  0.5481966E-005  0.2125091E+03  0.7546771E-02  0.1139594E+00
         21   -1    0    0  502  501  0.00000000000E+00  0.00000000000E+00  0.38523033380E+02  0.38523033380E+02  0.00000000000E+00 0. -1.
         21   -1    0    0  501  502 -0.00000000000E+00 -0.00000000000E+00 -0.11722885342E+04  0.11722885342E+04  0.00000000000E+00 0. -1.
         25    1    1    2    0    0 -0.30008088877E+02 -0.65802744791E+01 -0.32150666704E+03  0.34631679480E+03  0.12500000000E+03 0.  0.
         25    1    1    2    0    0  0.52591111520E+02  0.62528281190E+01 -0.61551556610E+03  0.63030892028E+03  0.12500000000E+03 0.  0.
         25    1    1    2    0    0 -0.22583022643E+02  0.32744636003E+00 -0.19674326766E+03  0.23418585248E+03  0.12500000000E+03 0.  0.
</event>
<event>
 5    0  0.5481966E-005  0.3422076E+03  0.7546771E-02  0.1065860E+00
         21   -1    0    0  502  501  0.00000000000E+00  0.00000000000E+00  0.53348619418E+03  0.53348619418E+03  0.00000000000E+00 0.  1.
         21   -1    0    0  501  502 -0.00000000000E+00 -0.00000000000E+00 -0.21951096341E+03  0.21951096341E+03  0.00000000000E+00 0.  1.
         25    1    1    2    0    0 -0.21648935630E+02  0.13221137794E+03 -0.50737995394E+02  0.19012592944E+03  0.12500000000E+03 0.  0.
         25    1    1    2    0    0  0.12982646768E+03 -0.51377715940E+02  0.32417361110E+03  0.37444373614E+03  0.12500000000E+03 0.  0.
         25    1    1    2    0    0 -0.10817753205E+03 -0.80833661997E+02  0.40539615061E+02  0.18842749200E+03  0.12500000000E+03 0.  0.
</event>
<event>
 5    0  0.5481966E-005  0.2216929E+03  0.7546771E-02  0.1132627E+00
         21   -1    0    0  502  501  0.00000000000E+00  0.00000000000E+00  0.33376122606E+03  0.33376122606E+03  0.00000000000E+00 0. -1.
         21   -1    0    0  501  502 -0.00000000000E+00 -0.00000000000E+00 -0.14725414658E+03  0.14725414658E+03  0.00000000000E+00 0. -1.
         25    1    1    2    0    0  0.41550254965E+02  0.38373647434E+02  0.96486851803E+01  0.13753929486E+03  0.12500000000E+03 0.  0.
         25    1    1    2    0    0  0.42072854801E+02 -0.53567031349E+02  0.99441270567E+02  0.17364653250E+03  0.12500000000E+03 0.  0.
         25    1    1    2    0    0 -0.83623109766E+02  0.15193383915E+02  0.77417123738E+02  0.16982954528E+03  0.12500000000E+03 0.  0.
</event>
<event>
 5    0  0.5481966E-005  0.4275148E+03  0.7546771E-02  0.1034648E+00
         21   -1    0    0  502  501  0.00000000000E+00  0.00000000000E+00  0.50957403641E+03  0.50957403641E+03  0.00000000000E+00 0. -1.
         21   -1    0    0  501  502 -0.00000000000E+00 -0.00000000000E+00 -0.35866999540E+03  0.35866999540E+03  0.00000000000E+00 0. -1.
         25    1    1    2    0    0 -0.79613847018E+02  0.11230422081E+03  0.66565410190E+01  0.18606426897E+03  0.12500000000E+03 0.  0.
         25    1    1    2    0    0 -0.21731793432E+03  0.10848357608E+03  0.91414117022E+02  0.28805782691E+03  0.12500000000E+03 0.  0.
         25    1    1    2    0    0  0.29693178134E+03 -0.22078779689E+03  0.52833382963E+02  0.39412193593E+03  0.12500000000E+03 0.  0.
</event>
<event>
 5    0  0.5481966E-005  0.4269748E+03  0.7546771E-02  0.1034820E+00
         21   -1    0    0  502  501  0.00000000000E+00  0.00000000000E+00  0.70516600907E+03  0.70516600907E+03  0.00000000000E+00 0.  1.
         21   -1    0    0  501  502 -0.00000000000E+00 -0.00000000000E+00 -0.25853123527E+03  0.25853123527E+03  0.00000000000E+00 0.  1.
         25    1    1    2    0    0 -0.14888171447E+03 -0.20768244807E+02 -0.15344174406E+03  0.24852857726E+03  0.12500000000E+03 0.  0.
         25    1    1    2    0    0 -0.27885580296E+02  0.86925562585E+02  0.31642297804E+03  0.35225297735E+03  0.12500000000E+03 0.  0.
         25    1    1    2    0    0  0.17676729477E+03 -0.66157317778E+02  0.28365353983E+03  0.36291568973E+03  0.12500000000E+03 0.  0.
</event>
<event>
 5    0  0.5481966E-005  0.3174129E+03  0.7546771E-02  0.1076846E+00
         21   -1    0    0  502  501  0.00000000000E+00  0.00000000000E+00  0.22176069304E+03  0.22176069304E+03  0.00000000000E+00 0. -1.
         21   -1    0    0  501  502 -0.00000000000E+00 -0.00000000000E+00 -0.45432294488E+03  0.45432294488E+03  0.00000000000E+00 0. -1.
         25    1    1    2    0    0 -0.83806987270E+02 -0.86304108433E+02  0.20740102182E+02  0.17472023949E+03  0.12500000000E+03 0.  0.
         25    1    1    2    0    0  0.11225195492E+03  0.18443581170E+03 -0.22795353818E+03  0.33794213349E+03  0.12500000000E+03 0.  0.
         25    1    1    2    0    0 -0.28444967650E+02 -0.98131703267E+02 -0.25348815837E+02  0.16342126494E+03  0.12500000000E+03 0.  0.
</event>
<event>
 5    0  0.5481966E-005  0.3694693E+03  0.7546771E-02  0.1054896E+00
         21   -1    0    0  502  501  0.00000000000E+00  0.00000000000E+00  0.57900304367E+03  0.57900304367E+03  0.00000000000E+00 0. -1.
         21   -1    0    0  501  502 -0.00000000000E+00 -0.00000000000E+00 -0.23576315047E+03  0.23576315047E+03  0.00000000000E+00 0. -1.
         25    1    1    2    0    0 -0.23461589596E+01 -0.27630564776E+03  0.15530672117E+03  0.34072788716E+03  0.12500000000E+03 0.  0.
         25    1    1    2    0    0  0.12135438296E+02  0.25510205582E+03  0.19798517595E+03  0.34647865395E+03  0.12500000000E+03 0.  0.
         25    1    1    2    0    0 -0.97892793366E+01  0.21203591941E+02 -0.10052003913E+02  0.12755965304E+03  0.12500000000E+03 0.  0.
</event>
<event>
 5    0  0.5481966E-005  0.2845175E+03  0.7546771E-02  0.1093247E+00
         21   -1    0    0  502  501  0.00000000000E+00  0.00000000000E+00  0.56939550631E+03  0.56939550631E+03  0.00000000000E+00 0.  1.
         21   -1    0    0  501  502 -0.00000000000E+00 -0.00000000000E+00 -0.14216872129E+03  0.14216872129E+03  0.00000000000E+00 0.  1.
         25    1    1    2    0    0  0.13437916180E+03 -0.10699131084E+03  0.10488635137E+03  0.23691991563E+03  0.12500000000E+03 0.  0.
         25    1    1    2    0    0 -0.46845687315E+02 -0.36142778207E+02  0.11191744753E+03  0.17790821762E+03  0.12500000000E+03 0.  0.
         25    1    1    2    0    0 -0.87533474482E+02  0.14313408905E+03  0.21042298612E+03  0.29673609435E+03  0.12500000000E+03 0.  0.
</event>
<event>
 5    0  0.5481966E-005  0.2912292E+03  0.7546771E-02  0.1089709E+00
         21   -1    0    0  502  501  0.00000000000E+00  0.00000000000E+00  0.93255366395E+02  0.93255366395E+02  0.00000000000E+00 0.  1.
         21   -1    0    0  501  502 -0.00000000000E+00 -0.00000000000E+00 -0.90948584785E+03  0.90948584785E+03  0.00000000000E+00 0.  1.
         25    1    1    2    0    0  0.23921400822E+02  0.66708270647E+02 -0.15697969580E+03  0.21281412473E+03  0.12500000000E+03 0.  0.
         25    1    1    2    0    0  0.47113132637E+02 -0.16854800969E+02 -0.61767246126E+03  0.63217719112E+03  0.12500000000E+03 0.  0.
         25    1    1    2    0    0 -0.71034533459E+02 -0.49853469678E+02 -0.41578324397E+02  0.15774989839E+03  0.12500000000E+03 0.  0.
</event>
<event>
 5    0  0.5481966E-005  0.2629473E+03  0.7546771E-02  0.1105385E+00
         21   -1    0    0  502  501  0.00000000000E+00  0.00000000000E+00  0.10493915569E+04  0.10493915569E+04  0.00000000000E+00 0.  1.
         21   -1    0    0  501  502 -0.00000000000E+00 -0.00000000000E+00 -0.65887024811E+02  0.65887024811E+02  0.00000000000E+00 0.  1.
         25    1    1    2    0    0 -0.63003156045E+02 -0.13430981125E+02  0.13708752574E+03  0.19638680872E+03  0.12500000000E+03 0.  0.
         25    1    1    2    0    0  0.59467675328E+02 -0.10043761479E+03  0.56744267479E+03  0.59265530289E+03  0.12500000000E+03 0.  0.
         25    1    1    2    0    0  0.35354807174E+01  0.11386859591E+03  0.27897433161E+03  0.32623647015E+03  0.12500000000E+03 0.  0.
</event>
<event>
 5    0  0.5481966E-005  0.3364227E+03  0.7546771E-02  0.1068330E+00
         21   -1    0    0  502  501  0.00000000000E+00  0.00000000000E+00  0.10529083756E+04  0.10529083756E+04  0.00000000000E+00 0. -1.
         21   -1    0    0  501  502 -0.00000000000E+00 -0.00000000000E+00 -0.10749297270E+03  0.10749297270E+03  0.00000000000E+00 0. -1.
         25    1    1    2    0    0  0.16197654688E+02 -0.15508922964E+03  0.64770914109E+03  0.67784007304E+03  0.12500000000E+03 0.  0.
         25    1    1    2    0    0  0.68730611178E+01  0.16306763204E+03  0.62134819029E+02  0.21476505145E+03  0.12500000000E+03 0.  0.
         25    1    1    2    0    0 -0.23070715805E+02 -0.79784023957E+01  0.23557144283E+03  0.26779622385E+03  0.12500000000E+03 0.  0.
</event>
<event>
 5    0  0.6658341E-005  0.5758032E+03  0.7546771E-02  0.9956919E-01
         21   -1    0    0  502  501  0.00000000000E+00  0.00000000000E+00  0.95234368279E+03  0.95234368279E+03  0.00000000000E+00 0. -1.
         21   -1    0    0  501  502 -0.00000000000E+00 -0.00000000000E+00 -0.34814036938E+03  0.34814036938E+03  0.00000000000E+00 0. -1.
         25    1    1    2    0    0 -0.56597575750E+02 -0.82098983413E+02 -0.19197430684E+03  0.24984527841E+03  0.12500000000E+03 0.  0.
         25    1    1    2    0    0 -0.28743567269E+03  0.22950837808E+02  0.38445539700E+03  0.49656516106E+03  0.12500000000E+03 0.  0.
         25    1    1    2    0    0  0.34403324844E+03  0.59148145605E+02  0.41172222325E+03  0.55407361269E+03  0.12500000000E+03 0.  0.
</event>
<event>
 5    0  0.5481966E-005  0.3324454E+03  0.7546771E-02  0.1070060E+00
         21   -1    0    0  502  501  0.00000000000E+00  0.00000000000E+00  0.12964246773E+03  0.12964246773E+03  0.00000000000E+00 0. -1.
         21   -1    0    0  501  502 -0.00000000000E+00 -0.00000000000E+00 -0.85249777304E+03  0.85249777304E+03  0.00000000000E+00 0. -1.
         25    1    1    2    0    0  0.79541514477E+02 -0.91140143989E+02 -0.46995363044E+03  0.50111355313E+03  0.12500000000E+03 0.  0.
         25    1    1    2    0    0 -0.18551383741E+03  0.37980509531E+02 -0.90545616992E+02  0.24429779313E+03  0.12500000000E+03 0.  0.
         25    1    1    2    0    0  0.10597232293E+03  0.53159634458E+02 -0.16235605788E+03  0.23672889451E+03  0.12500000000E+03 0.  0.
</event>
<event>
 5    0  0.5481966E-005  0.3595157E+03  0.7546771E-02  0.1058776E+00
         21   -1    0    0  502  501  0.00000000000E+00  0.00000000000E+00  0.24283708540E+03  0.24283708540E+03  0.00000000000E+00 0.  1.
         21   -1    0    0  501  502 -0.00000000000E+00 -0.00000000000E+00 -0.53225613470E+03  0.53225613470E+03  0.00000000000E+00 0.  1.
         25    1    1    2    0    0 -0.92868221913E+01 -0.17703940409E+03 -0.11153088515E+03  0.24391255402E+03  0.12500000000E+03 0.  0.
         25    1    1    2    0    0 -0.14452357622E+03  0.13065102691E+03  0.37871664552E+02  0.23455493577E+03  0.12500000000E+03 0.  0.
         25    1    1    2    0    0  0.15381039842E+03  0.46388377179E+02 -0.21575982870E+03  0.29662573031E+03  0.12500000000E+03 0.  0.
</event>
<event>
 5    0  0.5481966E-005  0.3445726E+03  0.7546771E-02  0.1064865E+00
         21   -1    0    0  502  501  0.00000000000E+00  0.00000000000E+00  0.85788115312E+02  0.85788115312E+02  0.00000000000E+00 0.  1.
         21   -1    0    0  501  502 -0.00000000000E+00 -0.00000000000E+00 -0.13839943024E+04  0.13839943024E+04  0.00000000000E+00 0.  1.
         25    1    1    2    0    0 -0.22884765395E+03 -0.63938265258E+02 -0.38989761914E+03  0.47339677216E+03  0.12500000000E+03 0.  0.
         25    1    1    2    0    0  0.61234541403E+02  0.11647748111E+03 -0.53919927130E+03  0.56892664451E+03  0.12500000000E+03 0.  0.
         25    1    1    2    0    0  0.16761311255E+03 -0.52539215849E+02 -0.36910929669E+03  0.42745900108E+03  0.12500000000E+03 0.  0.
</event>
<event>
 5    0  0.5481966E-005  0.3948890E+03  0.7546771E-02  0.1045564E+00
         21   -1    0    0  502  501  0.00000000000E+00  0.00000000000E+00  0.10406933195E+04  0.10406933195E+04  0.00000000000E+00 0.  1.
         21   -1    0    0  501  502 -0.00000000000E+00 -0.00000000000E+00 -0.14983981871E+03  0.14983981871E+03  0.00000000000E+00 0.  1.
         25    1    1    2    0    0 -0.56674370180E+02 -0.14833396371E+03  0.41412180071E+03  0.46080018972E+03  0.12500000000E+03 0.  0.
         25    1    1    2    0    0 -0.11653951351E+03 -0.91787273685E+02  0.59165601186E+02  0.20281008403E+03  0.12500000000E+03 0.  0.
         25    1    1    2    0    0  0.17321388369E+03  0.24012123739E+03  0.41756609887E+03  0.52692286444E+03  0.12500000000E+03 0.  0.
</event>
<event>
 5    0  0.5684530E-005  0.2703703E+03  0.7546771E-02  0.1101068E+00
         21   -1    0    0  502  501  0.00000000000E+00  0.00000000000E+00  0.52705420171E+03  0.52705420171E+03  0.00000000000E+00 0. -1.
         21   -1    0    0  501  502 -0.00000000000E+00 -0.00000000000E+00 -0.13869558151E+03  0.13869558151E+03  0.00000000000E+00 0. -1.
         25    1    1    2    0    0  0.82217947241E+02  0.59188717661E+02  0.71825152246E+02  0.17620144052E+03  0.12500000000E+03 0.  0.
         25    1    1    2    0    0 -0.15109973947E+03 -0.32877913707E+02  0.27356509553E+03  0.33819365749E+03  0.12500000000E+03 0.  0.
         25    1    1    2    0    0  0.68881792233E+02 -0.26310803954E+02  0.42968372424E+02  0.15135468521E+03  0.12500000000E+03 0.  0.
</event>
<event>
 5    0  0.5734558E-005  0.2936231E+03  0.7546771E-02  0.1088473E+00
         21   -1    0    0  502  501  0.00000000000E+00  0.00000000000E+00  0.11359654524E+04  0.11359654524E+04  0.00000000000E+00 0.  1.
         21   -1    0    0  501  502 -0.00000000000E+00 -0.00000000000E+00 -0.75895388570E+02  0.75895388570E+02  0.00000000000E+00 0.  1.
         25    1    1    2    0    0  0.93587478267E+02  0.97297465287E+02  0.15384917725E+03  0.23983323827E+03  0.12500000000E+03 0.  0.
         25    1    1    2    0    0  0.33729293094E+02 -0.16307818515E+02  0.55208932738E+03  0.56730171476E+03  0.12500000000E+03 0.  0.
         25    1    1    2    0    0 -0.12731677136E+03 -0.80989646773E+02  0.35413155923E+03  0.40472588797E+03  0.12500000000E+03 0.  0.
</event>
<event>
 5    0  0.5481966E-005  0.3960146E+03  0.7546771E-02  0.1045168E+00
         21   -1    0    0  502  501  0.00000000000E+00  0.00000000000E+00  0.64499783448E+03  0.64499783448E+03  0.00000000000E+00 0.  1.
         21   -1    0    0  501  502 -0.00000000000E+00 -0.00000000000E+00 -0.24314427283E+03  0.24314427283E+03  0.00000000000E+00 0.  1.
         25    1    1    2    0    0 -0.11954549810E+02 -0.15802077006E+01  0.38480733551E+03  0.40478030311E+03  0.12500000000E+03 0.  0.
         25    1    1    2    0    0 -0.14624448477E+03 -0.32997982543E+02 -0.12726210632E+03  0.23301708067E+03  0.12500000000E+03 0.  0.
         25    1    1    2    0    0  0.15819903458E+03  0.34578190243E+02  0.14430833246E+03  0.25034472353E+03  0.12500000000E+03 0.  0.
</event>
<event>
 5    0  0.5481966E-005  0.4208163E+03  0.7546771E-02  0.1036801E+00
         21   -1    0    0  502  501  0.00000000000E+00  0.00000000000E+00  0.51747626456E+03  0.51747626456E+03  0.00000000000E+00 0. -1.
         21   -1    0    0  501  502 -0.00000000000E+00 -0.00000000000E+00 -0.34221151432E+03  0.34221151432E+03  0.00000000000E+00 0. -1.
         25    1    1    2    0    0 -0.14445262644E+03 -0.16423964154E+03  0.17065606930E+03  0.30428558153E+03  0.12500000000E+03 0.  0.
         25    1    1    2    0    0  0.15522393511E+03 -0.12336110499E+03  0.46153112734E+02  0.23888813715E+03  0.12500000000E+03 0.  0.
         25    1    1    2    0    0 -0.10771308671E+02  0.28760074653E+03 -0.41544431789E+02  0.31651406020E+03  0.12500000000E+03 0.  0.
</event>
<event>
 5    0  0.5481966E-005  0.3297789E+03  0.7546771E-02  0.1071235E+00
         21   -1    0    0  502  501  0.00000000000E+00  0.00000000000E+00  0.50269069102E+03  0.50269069102E+03  0.00000000000E+00 0.  1.
         21   -1    0    0  501  502 -0.00000000000E+00 -0.00000000000E+00 -0.21634398890E+03  0.21634398890E+03  0.00000000000E+00 0.  1.
         25    1    1    2    0    0 -0.11572324937E+03 -0.17752483580E+03  0.42362717668E+01  0.24606885981E+03  0.12500000000E+03 0.  0.
         25    1    1    2    0    0  0.20872388975E+01  0.62467628865E+02  0.20926564994E+02  0.14131341884E+03  0.12500000000E+03 0.  0.
         25    1    1    2    0    0  0.11363601047E+03  0.11505720693E+03  0.26118386536E+03  0.33165240127E+03  0.12500000000E+03 0.  0.
</event>
<event>
 5    0  0.5481966E-005  0.3342559E+03  0.7546771E-02  0.1069269E+00
         21   -1    0    0  502  501  0.00000000000E+00  0.00000000000E+00  0.21162501640E+03  0.21162501640E+03  0.00000000000E+00 0. -1.
         21   -1    0    0  501  502 -0.00000000000E+00 -0.00000000000E+00 -0.52794786668E+03  0.52794786668E+03  0.00000000000E+00 0. -1.
         25    1    1    2    0    0  0.17215330890E+03 -0.28644709086E+02 -0.10649283413E+03  0.23963097639E+03  0.12500000000E+03 0.  0.
         25    1    1    2    0    0 -0.89126821174E+02  0.98570871379E+02 -0.26822528280E+03  0.32439113624E+03  0.12500000000E+03 0.  0.
         25    1    1    2    0    0 -0.83026487731E+02 -0.69926162293E+02  0.58395266656E+02  0.17555077045E+03  0.12500000000E+03 0.  0.
</event>
<event>
 5    0  0.5481966E-005  0.2239690E+03  0.7546771E-02  0.1130958E+00
         21   -1    0    0  502  501  0.00000000000E+00  0.00000000000E+00  0.35214674674E+03  0.35214674674E+03  0.00000000000E+00 0. -1.
         21   -1    0    0  501  502 -0.00000000000E+00 -0.00000000000E+00 -0.14244667660E+03  0.14244667660E+03  0.00000000000E+00 0. -1.
         25    1    1    2    0    0 -0.16537161476E+02  0.71128527043E+02  0.12909598104E+03  0.19396782566E+03  0.12500000000E+03 0.  0.
         25    1    1    2    0    0 -0.14427466983E+02 -0.28534101010E+02  0.10048377788E+03  0.16353695711E+03  0.12500000000E+03 0.  0.
         25    1    1    2    0    0  0.30964628459E+02 -0.42594426033E+02 -0.19879688791E+02  0.13708864056E+03  0.12500000000E+03 0.  0.
</event>
<event>
 5    0  0.5481966E-005  0.3159611E+03  0.7546771E-02  0.1077523E+00
         21   -1    0    0  502  501  0.00000000000E+00  0.00000000000E+00  0.17388832067E+03  0.17388832067E+03  0.00000000000E+00 0. -1.
         21   -1    0    0  501  502 -0.00000000000E+00 -0.00000000000E+00 -0.57411208377E+03  0.57411208377E+03  0.00000000000E+00 0. -1.
         25    1    1    2    0    0 -0.29082479721E+02  0.12319063177E+03 -0.24672533720E+03  0.30417119258E+03  0.12500000000E+03 0.  0.
         25    1    1    2    0    0 -0.13319861039E+03 -0.12745257411E+02 -0.55689958412E+02  0.19139143885E+03  0.12500000000E+03 0.  0.
         25    1    1    2    0    0  0.16228109011E+03 -0.11044537436E+03 -0.97808467494E+02  0.25243777300E+03  0.12500000000E+03 0.  0.
</event>
<event>
 5    0  0.5481966E-005  0.3309978E+03  0.7546771E-02  0.1070696E+00
         21   -1    0    0  502  501  0.00000000000E+00  0.00000000000E+00  0.31321473210E+04  0.31321473210E+04  0.00000000000E+00 0.  1.
         21   -1    0    0  501  502 -0.00000000000E+00 -0.00000000000E+00 -0.34979048810E+02  0.34979048810E+02  0.00000000000E+00 0.  1.
         25    1    1    2    0    0  0.22379388184E+03  0.10142005173E+03  0.15795123419E+04  0.16033882769E+04  0.12500000000E+03 0.  0.
         25    1    1    2    0    0 -0.60344924481E+02 -0.38964420293E+02  0.39072653881E+03  0.41647564645E+03  0.12500000000E+03 0.  0.
         25    1    1    2    0    0 -0.16344895735E+03 -0.62455631436E+02  0.11269293915E+04  0.11472624465E+04  0.12500000000E+03 0.  0.
</event>
<event>
 5    0  0.5481966E-005  0.3981545E+03  0.7546771E-02  0.1044421E+00
         21   -1    0    0  502  501  0.00000000000E+00  0.00000000000E+00  0.48659710522E+03  0.48659710522E+03  0.00000000000E+00 0. -1.
         21   -1    0    0  501  502 -0.00000000000E+00 -0.00000000000E+00 -0.32578696708E+03  0.32578696708E+03  0.00000000000E+00 0. -1.
         25    1    1    2    0    0  0.12558395186E+03 -0.27060585563E+03  0.87093582201E+02  0.33497634264E+03  0.12500000000E+03 0.  0.
         25    1    1    2    0    0 -0.11320752600E+03  0.15655931984E+03 -0.84777863909E+02  0.24523264623E+03  0.12500000000E+03 0.  0.
         25    1    1    2    0    0 -0.12376425862E+02  0.11404653579E+03  0.15849441984E+03  0.23217508343E+03  0.12500000000E+03 0.  0.
</event>
<event>
 5    0  0.5481966E-005  0.3116612E+03  0.7546771E-02  0.1079552E+00
         21   -1    0    0  502  501  0.00000000000E+00  0.00000000000E+00  0.47234685432E+03  0.47234685432E+03  0.00000000000E+00 0. -1.
         21   -1    0    0  501  502 -0.00000000000E+00 -0.00000000000E+00 -0.20563849649E+03  0.20563849649E+03  0.00000000000E+00 0. -1.
         25    1    1    2    0    0 -0.11759759485E+03  0.15315078821E+03  0.25503835901E+03  0.34344420626E+03  0.12500000000E+03 0.  0.
         25    1    1    2    0    0  0.59884896645E+00 -0.55998632966E+02  0.13878351847E+02  0.13767285195E+03  0.12500000000E+03 0.  0.
         25    1    1    2    0    0  0.11699874589E+03 -0.97152155248E+02 -0.22083530297E+01  0.19686829260E+03  0.12500000000E+03 0.  0.
</event>
<event>
 5    0  0.5481966E-005  0.2896940E+03  0.7546771E-02  0.1090509E+00
         21   -1    0    0  502  501  0.00000000000E+00  0.00000000000E+00  0.81288568564E+03  0.81288568564E+03  0.00000000000E+00 0.  1.
         21   -1    0    0  501  502 -0.00000000000E+00 -0.00000000000E+00 -0.10324033758E+03  0.10324033758E+03  0.00000000000E+00 0.  1.
         25    1    1    2    0    0  0.73175230486E+02  0.30662313727E+02  0.19115196706E+02  0.14928222461E+03  0.12500000000E+03 0.  0.
         25    1    1    2    0    0 -0.19230390553E+02 -0.11686512484E+03  0.34502738588E+03  0.38561141364E+03  0.12500000000E+03 0.  0.
         25    1    1    2    0    0 -0.53944839933E+02  0.86202811110E+02  0.34550276547E+03  0.38123238497E+03  0.12500000000E+03 0.  0.
</event>
<event>
 5    0  0.5523695E-005  0.3746367E+03  0.7546771E-02  0.1052934E+00
         21   -1    0    0  502  501  0.00000000000E+00  0.00000000000E+00  0.16670891260E+03  0.16670891260E+03  0.00000000000E+00 0. -1.
         21   -1    0    0  501  502 -0.00000000000E+00 -0.00000000000E+00 -0.84190243248E+03  0.84190243248E+03  0.00000000000E+00 0. -1.
         25    1    1    2    0    0  0.18324689625E+03  0.57578483367E+02 -0.21201891354E+03  0.31220462269E+03  0.12500000000E+03 0.  0.
         25    1    1    2    0    0 -0.15695533384E+03  0.75738068924E+02 -0.18905408331E+02  0.21529896973E+03  0.12500000000E+03 0.  0.
         25    1    1    2    0    0 -0.26291562413E+02 -0.13331655229E+03 -0.44426919801E+03  0.48110775266E+03  0.12500000000E+03 0.  0.
</event>
<event>
 5    0  0.5481966E-005  0.4360681E+03  0.7546771E-02  0.1031960E+00
         21   -1    0    0  502  501  0.00000000000E+00  0.00000000000E+00  0.74004514960E+03  0.74004514960E+03  0.00000000000E+00 0. -1.
         21   -1    0    0  501  502 -0.00000000000E+00 -0.00000000000E+00 -0.25695103943E+03  0.25695103943E+03  0.00000000000E+00 0. -1.
         25    1    1    2    0    0  0.21325593726E+02  0.14376077903E+03 -0.86382183469E+02  0.21025894548E+03  0.12500000000E+03 0.  0.
         25    1    1    2    0    0 -0.80285925870E+02 -0.24042078085E+03  0.54817761870E+03  0.61674280166E+03  0.12500000000E+03 0.  0.
         25    1    1    2    0    0  0.58960332144E+02  0.96660001824E+02  0.21298674938E+02  0.16999444189E+03  0.12500000000E+03 0.  0.
</event>
<event>
 5    0  0.5481966E-005  0.3035139E+03  0.7546771E-02  0.1083497E+00
         21   -1    0    0  502  501  0.00000000000E+00  0.00000000000E+00  0.44885814739E+03  0.44885814739E+03  0.00000000000E+00 0.  1.
         21   -1    0    0  501  502 -0.00000000000E+00 -0.00000000000E+00 -0.20523336223E+03  0.20523336223E+03  0.00000000000E+00 0.  1.
         25    1    1    2    0    0 -0.96280090209E+02  0.70913448917E+02  0.10687446036E+03  0.20333647800E+03  0.12500000000E+03 0.  0.
         25    1    1    2    0    0  0.21468166877E+03 -0.29464145463E+02  0.10267396432E+03  0.27041319813E+03  0.12500000000E+03 0.  0.
         25    1    1    2    0    0 -0.11840157856E+03 -0.41449303454E+02  0.34076360473E+02  0.18034183349E+03  0.12500000000E+03 0.  0.
</event>
<event>
 5    0  0.5481966E-005  0.4398684E+03  0.7546771E-02  0.1030787E+00
         21   -1    0    0  502  501  0.00000000000E+00  0.00000000000E+00  0.59859526791E+03  0.59859526791E+03  0.00000000000E+00 0.  1.
         21   -1    0    0  501  502 -0.00000000000E+00 -0.00000000000E+00 -0.32323047093E+03  0.32323047093E+03  0.00000000000E+00 0.  1.
         25    1    1    2    0    0 -0.19694670372E+03 -0.71440193857E+02 -0.14432174914E+03  0.28345276975E+03  0.12500000000E+03 0.  0.
         25    1    1    2    0    0  0.21653515032E+03  0.44308778473E+02  0.43938644995E+03  0.50748023762E+03  0.12500000000E+03 0.  0.
         25    1    1    2    0    0 -0.19588446599E+02  0.27131415384E+02 -0.19699903829E+02  0.13089273147E+03  0.12500000000E+03 0.  0.
</event>
<event>
 5    0  0.5481966E-005  0.3818273E+03  0.7546771E-02  0.1050260E+00
         21   -1    0    0  502  501  0.00000000000E+00  0.00000000000E+00  0.43819619302E+03  0.43819619302E+03  0.00000000000E+00 0.  1.
         21   -1    0    0  501  502 -0.00000000000E+00 -0.00000000000E+00 -0.33270956656E+03  0.33270956656E+03  0.00000000000E+00 0.  1.
         25    1    1    2    0    0  0.74940788948E+02  0.10983713237E+01  0.82699137034E+02  0.16757528318E+03  0.12500000000E+03 0.  0.
         25    1    1    2    0    0 -0.19844632579E+03  0.75586971553E+02  0.21851435704E+03  0.32934458963E+03  0.12500000000E+03 0.  0.
         25    1    1    2    0    0  0.12350553684E+03 -0.76685342876E+02 -0.19572686762E+03  0.27398588677E+03  0.12500000000E+03 0.  0.
</event>
<event>
 5    0  0.5481966E-005  0.2158713E+03  0.7546771E-02  0.1136999E+00
         21   -1    0    0  502  501  0.00000000000E+00  0.00000000000E+00  0.19164437530E+03  0.19164437530E+03  0.00000000000E+00 0.  1.
         21   -1    0    0  501  502 -0.00000000000E+00 -0.00000000000E+00 -0.24316090549E+03  0.24316090549E+03  0.00000000000E+00 0.  1.
         25    1    1    2    0    0  0.76252241102E+02 -0.26550852445E+02 -0.17577339219E+02  0.14984430217E+03  0.12500000000E+03 0.  0.
         25    1    1    2    0    0 -0.81802288449E+02 -0.16890794927E+02 -0.13515039239E+02  0.15094558501E+03  0.12500000000E+03 0.  0.
         25    1    1    2    0    0  0.55500473471E+01  0.43441647373E+02 -0.20424151731E+02  0.13401539362E+03  0.12500000000E+03 0.  0.
</event>
<event>
 5    0  0.5481966E-005  0.2191164E+03  0.7546771E-02  0.1134544E+00
         21   -1    0    0  502  501  0.00000000000E+00  0.00000000000E+00  0.37347759204E+02  0.37347759204E+02  0.00000000000E+00 0.  1.
         21   -1    0    0  501  502 -0.00000000000E+00 -0.00000000000E+00 -0.12855391093E+04  0.12855391093E+04  0.00000000000E+00 0.  1.
         25    1    1    2    0    0  0.12655238428E+02 -0.22084874842E+02 -0.34689379748E+03  0.36960547005E+03  0.12500000000E+03 0.  0.
         25    1    1    2    0    0 -0.95965888848E+02  0.13066985718E+02 -0.40935573180E+03  0.43883631698E+03  0.12500000000E+03 0.  0.
         25    1    1    2    0    0  0.83310650420E+02  0.90178891242E+01 -0.49194182083E+03  0.51444508150E+03  0.12500000000E+03 0.  0.
</event>
<event>
 5    0  0.5481966E-005  0.2272431E+03  0.7546771E-02  0.1128595E+00
         21   -1    0    0  502  501  0.00000000000E+00  0.00000000000E+00  0.61323005484E+03  0.61323005484E+03  0.00000000000E+00 0. -1.
         21   -1    0    0  501  502 -0.00000000000E+00 -0.00000000000E+00 -0.84208921431E+02  0.84208921431E+02  0.00000000000E+00 0. -1.
         25    1    1    2    0    0 -0.26979609643E+02 -0.13923504847E+01  0.13025670837E+03  0.18254218157E+03  0.12500000000E+03 0.  0.
         25    1    1    2    0    0 -0.46498574807E+02  0.79529593403E+02  0.14558269458E+03  0.21285298834E+03  0.12500000000E+03 0.  0.
         25    1    1    2    0    0  0.73478184450E+02 -0.78137242919E+02  0.25318173047E+03  0.30204380636E+03  0.12500000000E+03 0.  0.
</event>
<event>
 5    0  0.5481966E-005  0.3359578E+03  0.7546771E-02  0.1068531E+00
         21   -1    0    0  502  501  0.00000000000E+00  0.00000000000E+00  0.44797476902E+02  0.44797476902E+02  0.00000000000E+00 0. -1.
         21   -1    0    0  501  502 -0.00000000000E+00 -0.00000000000E+00 -0.25195096193E+04  0.25195096193E+04  0.00000000000E+00 0. -1.
         25    1    1    2    0    0  0.34674545095E+01 -0.19504054915E+03 -0.50009596306E+03  0.55115679377E+03  0.12500000000E+03 0.  0.
         25    1    1    2    0    0 -0.11648551610E+02 -0.34627330392E+02 -0.68387972102E+03  0.69616895477E+03  0.12500000000E+03 0.  0.
         25    1    1    2    0    0  0.81810971008E+01  0.22966787954E+03 -0.12907364583E+04  0.13169813476E+04  0.12500000000E+03 0.  0.
</event>
<event>
 5    0  0.5481966E-005  0.3231808E+03  0.7546771E-02  0.1074195E+00
         21   -1    0    0  502  501  0.00000000000E+00  0.00000000000E+00  0.10938176871E+04  0.10938176871E+04  0.00000000000E+00 0.  1.
         21   -1    0    0  501  502 -0.00000000000E+00 -0.00000000000E+00 -0.95487406349E+02  0.95487406349E+02  0.00000000000E+00 0.  1.
         25    1    1    2    0    0 -0.14466212245E+03 -0.40599820858E+02  0.11251988606E+03  0.22552427781E+03  0.12500000000E+03 0.  0.
         25    1    1    2    0    0  0.17483264838E+03  0.67849354014E+02  0.38604667374E+03  0.44702016071E+03  0.12500000000E+03 0.  0.
         25    1    1    2    0    0 -0.30170525935E+02 -0.27249533156E+02  0.49976372095E+03  0.51676065492E+03  0.12500000000E+03 0.  0.
</event>
<event>
 5    0  0.5481966E-005  0.3416192E+03  0.7546771E-02  0.1066108E+00
         21   -1    0    0  502  501  0.00000000000E+00  0.00000000000E+00  0.51034763535E+03  0.51034763535E+03  0.00000000000E+00 0. -1.
         21   -1    0    0  501  502 -0.00000000000E+00 -0.00000000000E+00 -0.22867483745E+03  0.22867483745E+03  0.00000000000E+00 0. -1.
         25    1    1    2    0    0 -0.61692381139E+02 -0.43392924135E+02  0.34801647502E+02  0.15008347819E+03  0.12500000000E+03 0.  0.
         25    1    1    2    0    0  0.19549067071E+03  0.97627194205E+02 -0.29016531263E+02  0.25340605847E+03  0.12500000000E+03 0.  0.
         25    1    1    2    0    0 -0.13379828957E+03 -0.54234270070E+02  0.27588768166E+03  0.33553293614E+03  0.12500000000E+03 0.  0.
</event>
<event>
 5    0  0.5481966E-005  0.4138877E+03  0.7546771E-02  0.1039074E+00
         21   -1    0    0  502  501  0.00000000000E+00  0.00000000000E+00  0.12101864139E+04  0.12101864139E+04  0.00000000000E+00 0.  1.
         21   -1    0    0  501  502 -0.00000000000E+00 -0.00000000000E+00 -0.14155091147E+03  0.14155091147E+03  0.00000000000E+00 0.  1.
         25    1    1    2    0    0  0.27821138485E+03  0.14718243678E+03  0.40704203426E+03  0.52950208877E+03  0.12500000000E+03 0.  0.
         25    1    1    2    0    0 -0.14787104605E+03 -0.16448998054E+03  0.55849490401E+03  0.61356691385E+03  0.12500000000E+03 0.  0.
         25    1    1    2    0    0 -0.13034033880E+03  0.17307543759E+02  0.10309856417E+03  0.20866832276E+03  0.12500000000E+03 0.  0.
</event>
<event>
 5    0  0.5481966E-005  0.2733969E+03  0.7546771E-02  0.1099351E+00
         21   -1    0    0  502  501  0.00000000000E+00  0.00000000000E+00  0.43251030499E+02  0.43251030499E+02  0.00000000000E+00 0.  1.
         21   -1    0    0  501  502 -0.00000000000E+00 -0.00000000000E+00 -0.17281868085E+04  0.17281868085E+04  0.00000000000E+00 0.  1.
         25    1    1    2    0    0  0.13350813100E+03  0.28126912834E+00 -0.37145571693E+03  0.41403967177E+03  0.12500000000E+03 0.  0.
         25    1    1    2    0    0 -0.87142029251E+02  0.84682518796E+02 -0.85013682790E+03  0.86782630083E+03  0.12500000000E+03 0.  0.
         25    1    1    2    0    0 -0.46366101753E+02 -0.84963787924E+02 -0.46334323314E+03  0.48957186638E+03  0.12500000000E+03 0.  0.
</event>
<event>
 5    0  0.5481966E-005  0.3584632E+03  0.7546771E-02  0.1059194E+00
         21   -1    0    0  502  501  0.00000000000E+00  0.00000000000E+00  0.21839074755E+03  0.21839074755E+03  0.00000000000E+00 0.  1.
         21   -1    0    0  501  502 -0.00000000000E+00 -0.00000000000E+00 -0.58837605279E+03  0.58837605279E+03  0.00000000000E+00 0.  1.
         25    1    1    2    0    0 -0.99714319141E+01  0.22048169395E+03 -0.86966912050E+02  0.26814147500E+03  0.12500000000E+03 0.  0.
         25    1    1    2    0    0 -0.36996829976E+01 -0.10254570453E+03  0.45169431318E+02  0.16791243759E+03  0.12500000000E+03 0.  0.
         25    1    1    2    0    0  0.13671114912E+02 -0.11793598942E+03 -0.32818782451E+03  0.37071288774E+03  0.12500000000E+03 0.  0.
</event>
<event>
 5    0  0.5481966E-005  0.2721095E+03  0.7546771E-02  0.1100078E+00
         21   -1    0    0  502  501  0.00000000000E+00  0.00000000000E+00  0.15267053264E+03  0.15267053264E+03  0.00000000000E+00 0.  1.
         21   -1    0    0  501  502 -0.00000000000E+00 -0.00000000000E+00 -0.48498938192E+03  0.48498938192E+03  0.00000000000E+00 0.  1.
         25    1    1    2    0    0  0.95394077178E+02 -0.60074701332E+02 -0.16531084021E+03  0.23592726335E+03  0.12500000000E+03 0.  0.
         25    1    1    2    0    0 -0.14306298567E+03  0.91512969371E+02 -0.15895682401E+03  0.26407179579E+03  0.12500000000E+03 0.  0.
         25    1    1    2    0    0  0.47668908489E+02 -0.31438268039E+02 -0.80511850597E+01  0.13766085542E+03  0.12500000000E+03 0.  0.
</event>
<event>
 5    0  0.5481966E-005  0.6710562E+03  0.7546771E-02  0.9768052E-01
         21   -1    0    0  502  501  0.00000000000E+00  0.00000000000E+00  0.61049771172E+03  0.61049771172E+03  0.00000000000E+00 0. -1.
         21   -1    0    0  501  502 -0.00000000000E+00 -0.00000000000E+00 -0.73762173350E+03  0.73762173350E+03  0.00000000000E+00 0. -1.
         25    1    1    2    0    0  0.36857721099E+02 -0.50186094428E+03 -0.38063527682E+03  0.64321933503E+03  0.12500000000E+03 0.  0.
         25    1    1    2    0    0  0.90651899012E+02  0.41580641318E+02  0.28885391579E+02  0.16249948423E+03  0.12500000000E+03 0.  0.
         25    1    1    2    0    0 -0.12750962011E+03  0.46028030296E+03  0.22462586346E+03  0.54240062597E+03  0.12500000000E+03 0.  0.
</event>
<event>
 5    0  0.6014314E-005  0.4316193E+03  0.7546771E-02  0.1033350E+00
         21   -1    0    0  502  501  0.00000000000E+00  0.00000000000E+00  0.81958272780E+03  0.81958272780E+03  0.00000000000E+00 0.  1.
         21   -1    0    0  501  502 -0.00000000000E+00 -0.00000000000E+00 -0.22730493748E+03  0.22730493748E+03  0.00000000000E+00 0.  1.
         25    1    1    2    0    0  0.39763785905E+02  0.10407858426E+03 -0.67621281287E+02  0.18058556989E+03  0.12500000000E+03 0.  0.
         25    1    1    2    0    0  0.75121991665E+02  0.12808807094E+03  0.50193857399E+03  0.53816094211E+03  0.12500000000E+03 0.  0.
         25    1    1    2    0    0 -0.11488577757E+03 -0.23216665519E+03  0.15796049762E+03  0.32814115328E+03  0.12500000000E+03 0.  0.
</event>
<event>
 5    0  0.5481966E-005  0.5321577E+03  0.7546771E-02  0.1005710E+00
         21   -1    0    0  502  501  0.00000000000E+00  0.00000000000E+00  0.12537653336E+03  0.12537653336E+03  0.00000000000E+00 0. -1.
         21   -1    0    0  501  502 -0.00000000000E+00 -0.00000000000E+00 -0.22587305438E+04  0.22587305438E+04  0.00000000000E+00 0. -1.
         25    1    1    2    0    0 -0.48219392496E+02 -0.10289598283E+02  0.41692252451E+02  0.14069196693E+03  0.12500000000E+03 0.  0.
         25    1    1    2    0    0 -0.17273271573E+03  0.32965312738E+02 -0.44330467118E+03  0.49301859439E+03  0.12500000000E+03 0.  0.
         25    1    1    2    0    0  0.22095210823E+03 -0.22675714456E+02 -0.17317415917E+04  0.17503965158E+04  0.12500000000E+03 0.  0.
</event>
<event>
 5    0  0.5481966E-005  0.2279601E+03  0.7546771E-02  0.1128084E+00
         21   -1    0    0  502  501  0.00000000000E+00  0.00000000000E+00  0.11235940391E+03  0.11235940391E+03  0.00000000000E+00 0.  1.
         21   -1    0    0  501  502 -0.00000000000E+00 -0.00000000000E+00 -0.46249644047E+03  0.46249644047E+03  0.00000000000E+00 0.  1.
         25    1    1    2    0    0 -0.11473572462E+03 -0.26859410053E+02 -0.13924243380E+03  0.22113156668E+03  0.12500000000E+03 0.  0.
         25    1    1    2    0    0  0.65572211283E+02 -0.15428437667E+02 -0.89887173550E+02  0.16805491826E+03  0.12500000000E+03 0.  0.
         25    1    1    2    0    0  0.49163513342E+02  0.42287847720E+02 -0.12100742922E+03  0.18566935944E+03  0.12500000000E+03 0.  0.
</event>
<event>
 5    0  0.5481966E-005  0.3012308E+03  0.7546771E-02  0.1084627E+00
         21   -1    0    0  502  501  0.00000000000E+00  0.00000000000E+00  0.69984672775E+03  0.69984672775E+03  0.00000000000E+00 0. -1.
         21   -1    0    0  501  502 -0.00000000000E+00 -0.00000000000E+00 -0.12965696878E+03  0.12965696878E+03  0.00000000000E+00 0. -1.
         25    1    1    2    0    0 -0.88959978354E+02 -0.36778708263E+02  0.44246399532E+01  0.15783259666E+03  0.12500000000E+03 0.  0.
         25    1    1    2    0    0  0.57731684792E+02  0.10691979188E+03  0.45679702226E+03  0.48893078127E+03  0.12500000000E+03 0.  0.
         25    1    1    2    0    0  0.31228293561E+02 -0.70141083616E+02  0.10896809676E+03  0.18274031860E+03  0.12500000000E+03 0.  0.
</event>
<event>
 5    0  0.5481966E-005  0.2956159E+03  0.7546771E-02  0.1087453E+00
         21   -1    0    0  502  501  0.00000000000E+00  0.00000000000E+00  0.71434313033E+02  0.71434313033E+02  0.00000000000E+00 0. -1.
         21   -1    0    0  501  502 -0.00000000000E+00 -0.00000000000E+00 -0.12233446229E+04  0.12233446229E+04  0.00000000000E+00 0. -1.
         25    1    1    2    0    0  0.13674739733E+03 -0.41786781228E+02 -0.31648059631E+03  0.36909477590E+03  0.12500000000E+03 0.  0.
         25    1    1    2    0    0  0.47274978156E+02  0.71054253734E+02 -0.49775617609E+03  0.52025939816E+03  0.12500000000E+03 0.  0.
         25    1    1    2    0    0 -0.18402237548E+03 -0.29267472506E+02 -0.33767353742E+03  0.40542476182E+03  0.12500000000E+03 0.  0.
</event>
<event>
 5    0  0.5481966E-005  0.2640644E+03  0.7546771E-02  0.1104726E+00
         21   -1    0    0  502  501  0.00000000000E+00  0.00000000000E+00  0.66512051301E+03  0.66512051301E+03  0.00000000000E+00 0.  1.
         21   -1    0    0  501  502 -0.00000000000E+00 -0.00000000000E+00 -0.10483818895E+03  0.10483818895E+03  0.00000000000E+00 0.  1.
         25    1    1    2    0    0  0.40390124475E+02  0.95926140617E+02  0.12741818761E+03  0.20662425110E+03  0.12500000000E+03 0.  0.
         25    1    1    2    0    0 -0.13298781981E+03 -0.92570054968E+02  0.25677237398E+03  0.32834741865E+03  0.12500000000E+03 0.  0.
         25    1    1    2    0    0  0.92597695340E+02 -0.33560856485E+01  0.17609176248E+03  0.23498703221E+03  0.12500000000E+03 0.  0.
</event>
<event>
 5    0  0.5481966E-005  0.2954761E+03  0.7546771E-02  0.1087524E+00
         21   -1    0    0  502  501  0.00000000000E+00  0.00000000000E+00  0.39151550593E+03  0.39151550593E+03  0.00000000000E+00 0.  1.
         21   -1    0    0  501  502 -0.00000000000E+00 -0.00000000000E+00 -0.22299535001E+03  0.22299535001E+03  0.00000000000E+00 0.  1.
         25    1    1    2    0    0 -0.32981631886E+02  0.72053076604E+02 -0.14225379586E+03  0.20528169993E+03  0.12500000000E+03 0.  0.
         25    1    1    2    0    0  0.90991263768E+01 -0.37486970889E+02  0.12143444670E+03  0.17849199403E+03  0.12500000000E+03 0.  0.
         25    1    1    2    0    0  0.23882505510E+02 -0.34566105715E+02  0.18933950508E+03  0.23073716198E+03  0.12500000000E+03 0.  0.
</event>
<event>
 5    0  0.5481966E-005  0.2991953E+03  0.7546771E-02  0.1085644E+00
         21   -1    0    0  502  501  0.00000000000E+00  0.00000000000E+00  0.25286453450E+03  0.25286453450E+03  0.00000000000E+00 0.  1.
         21   -1    0    0  501  502 -0.00000000000E+00 -0.00000000000E+00 -0.35401504156E+03  0.35401504156E+03  0.00000000000E+00 0.  1.
         25    1    1    2    0    0 -0.70330417269E+02  0.77458956334E+02  0.98114120626E+01  0.16330193298E+03  0.12500000000E+03 0.  0.
         25    1    1    2    0    0  0.13766287442E+02 -0.13330662417E+03  0.81618018912E+02  0.20061572154E+03  0.12500000000E+03 0.  0.
         25    1    1    2    0    0  0.56564129826E+02  0.55847667834E+02 -0.19257993803E+03  0.24296192154E+03  0.12500000000E+03 0.  0.
</event>
<event>
 5    0  0.5481966E-005  0.4379187E+03  0.7546771E-02  0.1031387E+00
         21   -1    0    0  502  501  0.00000000000E+00  0.00000000000E+00  0.23816100994E+03  0.23816100994E+03  0.00000000000E+00 0.  1.
         21   -1    0    0  501  502 -0.00000000000E+00 -0.00000000000E+00 -0.80522312205E+03  0.80522312205E+03  0.00000000000E+00 0.  1.
         25    1    1    2    0    0  0.35823453193E+03 -0.41452444569E+02 -0.16639948005E+03  0.41637011419E+03  0.12500000000E+03 0.  0.
         25    1    1    2    0    0 -0.18989106979E+03  0.56377628649E+02 -0.87904183594E+02  0.25017833817E+03  0.12500000000E+03 0.  0.
         25    1    1    2    0    0 -0.16834346214E+03 -0.14925184081E+02 -0.31275844846E+03  0.37683567964E+03  0.12500000000E+03 0.  0.
</event>
<event>
 5    0  0.5481966E-005  0.2422214E+03  0.7546771E-02  0.1118322E+00
         21   -1    0    0  502  501  0.00000000000E+00  0.00000000000E+00  0.15631559217E+03  0.15631559217E+03  0.00000000000E+00 0. -1.
         21   -1    0    0  501  502 -0.00000000000E+00 -0.00000000000E+00 -0.37533808792E+03  0.37533808792E+03  0.00000000000E+00 0. -1.
         25    1    1    2    0    0  0.85046557134E+02  0.60957386024E+02 -0.16675155762E+03  0.23319477215E+03  0.12500000000E+03 0.  0.
         25    1    1    2    0    0 -0.59733036967E+02  0.10511299772E+02  0.10548224873E+02  0.13933695912E+03  0.12500000000E+03 0.  0.
         25    1    1    2    0    0 -0.25313520167E+02 -0.71468685796E+02 -0.62819163002E+02  0.15912194881E+03  0.12500000000E+03 0.  0.
</event>
<event>
 5    0  0.5481966E-005  0.2547855E+03  0.7546771E-02  0.1110317E+00
         21   -1    0    0  502  501  0.00000000000E+00  0.00000000000E+00  0.17115225545E+03  0.17115225545E+03  0.00000000000E+00 0.  1.
         21   -1    0    0  501  502 -0.00000000000E+00 -0.00000000000E+00 -0.37928608836E+03  0.37928608836E+03  0.00000000000E+00 0.  1.
         25    1    1    2    0    0 -0.47199515090E+02 -0.41692895596E+02 -0.11167134100E+03  0.17905747728E+03  0.12500000000E+03 0.  0.
         25    1    1    2    0    0 -0.38795514566E+02 -0.74358180506E+02 -0.99316309256E+02  0.18034123279E+03  0.12500000000E+03 0.  0.
         25    1    1    2    0    0  0.85995029656E+02  0.11605107610E+03  0.28538173451E+01  0.19103963375E+03  0.12500000000E+03 0.  0.
</event>
<event>
 5    0  0.5481966E-005  0.2745789E+03  0.7546771E-02  0.1098687E+00
         21   -1    0    0  502  501  0.00000000000E+00  0.00000000000E+00  0.67290604487E+03  0.67290604487E+03  0.00000000000E+00 0. -1.
         21   -1    0    0  501  502 -0.00000000000E+00 -0.00000000000E+00 -0.11204174601E+03  0.11204174601E+03  0.00000000000E+00 0. -1.
         25    1    1    2    0    0 -0.52639111797E+02 -0.58266689944E+02  0.19417158228E+03  0.24391286684E+03  0.12500000000E+03 0.  0.
         25    1    1    2    0    0  0.37101586301E+02 -0.92298454501E+02  0.48129711778E+02  0.16684424343E+03  0.12500000000E+03 0.  0.
         25    1    1    2    0    0  0.15537525496E+02  0.15056514445E+03  0.31856300481E+03  0.37419068061E+03  0.12500000000E+03 0.  0.
</event>
<event>
 5    0  0.5481966E-005  0.2557368E+03  0.7546771E-02  0.1109732E+00
         21   -1    0    0  502  501  0.00000000000E+00  0.00000000000E+00  0.14703336980E+04  0.14703336980E+04  0.00000000000E+00 0. -1.
         21   -1    0    0  501  502 -0.00000000000E+00 -0.00000000000E+00 -0.44480574911E+02  0.44480574911E+02  0.00000000000E+00 0. -1.
         25    1    1    2    0    0 -0.51515898450E+02  0.90300467979E+02  0.32742029527E+03  0.36556410117E+03  0.12500000000E+03 0.  0.
         25    1    1    2    0    0  0.12439145498E+03 -0.58305474487E+02  0.69757406604E+03  0.72187764894E+03  0.12500000000E+03 0.  0.
         25    1    1    2    0    0 -0.72875556530E+02 -0.31994993493E+02  0.40085876177E+03  0.42737252279E+03  0.12500000000E+03 0.  0.
</event>
<event>
 5    0  0.5481966E-005  0.3178047E+03  0.7546771E-02  0.1076664E+00
         21   -1    0    0  502  501  0.00000000000E+00  0.00000000000E+00  0.13810251112E+04  0.13810251112E+04  0.00000000000E+00 0. -1.
         21   -1    0    0  501  502 -0.00000000000E+00 -0.00000000000E+00 -0.73133947344E+02  0.73133947344E+02  0.00000000000E+00 0. -1.
         25    1    1    2    0    0  0.50737083575E+02 -0.80187103314E+02  0.14106634975E+03  0.21101881011E+03  0.12500000000E+03 0.  0.
         25    1    1    2    0    0 -0.13168838755E+02  0.12716109873E+03  0.10397640400E+04  0.10550249392E+04  0.12500000000E+03 0.  0.
         25    1    1    2    0    0 -0.37568244820E+02 -0.46973995416E+02  0.12706077404E+03  0.18811530922E+03  0.12500000000E+03 0.  0.
</event>
<event>
 5    0  0.5481966E-005  0.2553185E+03  0.7546771E-02  0.1109989E+00
         21   -1    0    0  502  501  0.00000000000E+00  0.00000000000E+00  0.36269313104E+03  0.36269313104E+03  0.00000000000E+00 0. -1.
         21   -1    0    0  501  502 -0.00000000000E+00 -0.00000000000E+00 -0.17973193101E+03  0.17973193101E+03  0.00000000000E+00 0. -1.
         25    1    1    2    0    0 -0.11987246953E+02 -0.50878200245E+02  0.91565328223E+02  0.16352826876E+03  0.12500000000E+03 0.  0.
         25    1    1    2    0    0  0.92250254837E+02 -0.15284696510E+02 -0.49464432169E+02  0.16375427175E+03  0.12500000000E+03 0.  0.
         25    1    1    2    0    0 -0.80263007885E+02  0.66162896755E+02  0.14086030398E+03  0.21514252155E+03  0.12500000000E+03 0.  0.
</event>
<event>
 5    0  0.5481966E-005  0.2375009E+03  0.7546771E-02  0.1121469E+00
         21   -1    0    0  502  501  0.00000000000E+00  0.00000000000E+00  0.39432022884E+03  0.39432022884E+03  0.00000000000E+00 0.  1.
         21   -1    0    0  501  502 -0.00000000000E+00 -0.00000000000E+00 -0.14304783359E+03  0.14304783359E+03  0.00000000000E+00 0.  1.
         25    1    1    2    0    0  0.27695027406E+01  0.12161524853E+03  0.16310508922E+03  0.23880161003E+03  0.12500000000E+03 0.  0.
         25    1    1    2    0    0 -0.98434433846E+00 -0.88967867808E+02  0.67886216253E+02  0.16777898794E+03  0.12500000000E+03 0.  0.
         25    1    1    2    0    0 -0.17851584021E+01 -0.32647380724E+02  0.20281089782E+02  0.13078746447E+03  0.12500000000E+03 0.  0.
</event>
<event>
 5    0  0.5481966E-005  0.2457652E+03  0.7546771E-02  0.1116011E+00
         21   -1    0    0  502  501  0.00000000000E+00  0.00000000000E+00  0.69423223989E+02  0.69423223989E+02  0.00000000000E+00 0. -1.
         21   -1    0    0  501  502 -0.00000000000E+00 -0.00000000000E+00 -0.87003358306E+03  0.87003358306E+03  0.00000000000E+00 0. -1.
         25    1    1    2    0    0  0.55209397586E+02 -0.66368352770E+02 -0.21565687843E+03  0.26379106324E+03  0.12500000000E+03 0.  0.
         25    1    1    2    0    0  0.11133810837E+02 -0.49618792799E+02 -0.36738185982E+03  0.39138269924E+03  0.12500000000E+03 0.  0.
         25    1    1    2    0    0 -0.66343208423E+02  0.11598714557E+03 -0.21757162083E+03  0.28428304457E+03  0.12500000000E+03 0.  0.
</event>
<event>
 5    0  0.5481966E-005  0.1973001E+03  0.7546771E-02  0.1152037E+00
         21   -1    0    0  502  501  0.00000000000E+00  0.00000000000E+00  0.27297766945E+03  0.27297766945E+03  0.00000000000E+00 0.  1.
         21   -1    0    0  501  502 -0.00000000000E+00 -0.00000000000E+00 -0.14260263034E+03  0.14260263034E+03  0.00000000000E+00 0.  1.
         25    1    1    2    0    0  0.34155806223E+02 -0.10840599828E+01  0.49121467245E+02  0.13858467747E+03  0.12500000000E+03 0.  0.
         25    1    1    2    0    0 -0.41344333320E+02  0.32562883247E+02  0.38221971610E+02  0.14090995131E+03  0.12500000000E+03 0.  0.
         25    1    1    2    0    0  0.71885270969E+01 -0.31478823264E+02  0.43031600247E+02  0.13608567102E+03  0.12500000000E+03 0.  0.
</event>
<event>
 5    0  0.5481966E-005  0.6343227E+03  0.7546771E-02  0.9836649E-01
         21   -1    0    0  502  501  0.00000000000E+00  0.00000000000E+00  0.87975176393E+03  0.87975176393E+03  0.00000000000E+00 0. -1.
         21   -1    0    0  501  502 -0.00000000000E+00 -0.00000000000E+00 -0.45736233839E+03  0.45736233839E+03  0.00000000000E+00 0. -1.
         25    1    1    2    0    0 -0.15668129818E+03 -0.10229254073E+03 -0.41086306352E+02  0.22874850308E+03  0.12500000000E+03 0.  0.
         25    1    1    2    0    0  0.54530552836E+03  0.10497884682E+03  0.13657315749E+03  0.58536817892E+03  0.12500000000E+03 0.  0.
         25    1    1    2    0    0 -0.38862423018E+03 -0.26863060941E+01  0.32690257440E+03  0.52299742033E+03  0.12500000000E+03 0.  0.
</event>
<event>
 5    0  0.5481966E-005  0.2412931E+03  0.7546771E-02  0.1118934E+00
         21   -1    0    0  502  501  0.00000000000E+00  0.00000000000E+00  0.46928337764E+03  0.46928337764E+03  0.00000000000E+00 0.  1.
         21   -1    0    0  501  502 -0.00000000000E+00 -0.00000000000E+00 -0.12406653705E+03  0.12406653705E+03  0.00000000000E+00 0.  1.
         25    1    1    2    0    0  0.12963362549E+02 -0.61012671034E+02  0.12338775047E+03  0.18638704826E+03  0.12500000000E+03 0.  0.
         25    1    1    2    0    0  0.44755414241E+02  0.59976510710E+02  0.22637196934E+03  0.26920159257E+03  0.12500000000E+03 0.  0.
         25    1    1    2    0    0 -0.57718776790E+02  0.10361603238E+01 -0.45428792219E+01  0.13776127385E+03  0.12500000000E+03 0.  0.
</event>
<event>
 5    0  0.5481966E-005  0.2934251E+03  0.7546771E-02  0.1088574E+00
         21   -1    0    0  502  501  0.00000000000E+00  0.00000000000E+00  0.23377180182E+04  0.23377180182E+04  0.00000000000E+00 0.  1.
         21   -1    0    0  501  502 -0.00000000000E+00 -0.00000000000E+00 -0.36830050617E+02  0.36830050617E+02  0.00000000000E+00 0.  1.
         25    1    1    2    0    0  0.74691273676E+02 -0.26038823233E+02  0.21470533931E+03  0.26073010836E+03  0.12500000000E+03 0.  0.
         25    1    1    2    0    0  0.61812276932E+02 -0.12102287581E+02  0.62604486271E+03  0.64150167036E+03  0.12500000000E+03 0.  0.
         25    1    1    2    0    0 -0.13650355061E+03  0.38141110813E+02  0.14601377655E+04  0.14723162901E+04  0.12500000000E+03 0.  0.
</event>
<event>
 5    0  0.5481966E-005  0.3158522E+03  0.7546771E-02  0.1077574E+00
         21   -1    0    0  502  501  0.00000000000E+00  0.00000000000E+00  0.16949393388E+04  0.16949393388E+04  0.00000000000E+00 0.  1.
         21   -1    0    0  501  502 -0.00000000000E+00 -0.00000000000E+00 -0.58859109661E+02  0.58859109661E+02  0.00000000000E+00 0.  1.
         25    1    1    2    0    0 -0.10313447997E+03  0.19235948683E+02  0.85323386179E+03  0.86870004350E+03  0.12500000000E+03 0.  0.
         25    1    1    2    0    0  0.16286941298E+03  0.96630293725E+02  0.50601193445E+03  0.55456012943E+03  0.12500000000E+03 0.  0.
         25    1    1    2    0    0 -0.59734933003E+02 -0.11586624241E+03  0.27683443292E+03  0.33053827554E+03  0.12500000000E+03 0.  0.
</event>
<event>
 5    0  0.5481966E-005  0.2869316E+03  0.7546771E-02  0.1091962E+00
         21   -1    0    0  502  501  0.00000000000E+00  0.00000000000E+00  0.13095504717E+03  0.13095504717E+03  0.00000000000E+00 0.  1.
         21   -1    0    0  501  502 -0.00000000000E+00 -0.00000000000E+00 -0.62868695849E+03  0.62868695849E+03  0.00000000000E+00 0.  1.
         25    1    1    2    0    0  0.68917526534E+02 -0.79301314047E+02 -0.17704016281E+03  0.24084547561E+03  0.12500000000E+03 0.  0.
         25    1    1    2    0    0 -0.17192293343E+03  0.10080696412E+03 -0.24177746060E+03  0.33734385945E+03  0.12500000000E+03 0.  0.
         25    1    1    2    0    0  0.10300540689E+03 -0.21505650078E+02 -0.78914287903E+02  0.18145267061E+03  0.12500000000E+03 0.  0.
</event>
<event>
 5    0  0.5481966E-005  0.3314137E+03  0.7546771E-02  0.1070513E+00
         21   -1    0    0  502  501  0.00000000000E+00  0.00000000000E+00  0.74462104539E+03  0.74462104539E+03  0.00000000000E+00 0. -1.
         21   -1    0    0  501  502 -0.00000000000E+00 -0.00000000000E+00 -0.14750463308E+03  0.14750463308E+03  0.00000000000E+00 0. -1.
         25    1    1    2    0    0  0.85075873836E+02 -0.45370193523E+02  0.65200681620E+02  0.17079955402E+03  0.12500000000E+03 0.  0.
         25    1    1    2    0    0  0.12221240433E+02 -0.12326955692E+02 -0.34110243986E+02  0.13072804328E+03  0.12500000000E+03 0.  0.
         25    1    1    2    0    0 -0.97297114269E+02  0.57697149215E+02  0.56602597468E+03  0.59059808117E+03  0.12500000000E+03 0.  0.
</event>
<event>
 5    0  0.5481966E-005  0.3582130E+03  0.7546771E-02  0.1059294E+00
         21   -1    0    0  502  501  0.00000000000E+00  0.00000000000E+00  0.96992341439E+02  0.96992341439E+02  0.00000000000E+00 0.  1.
         21   -1    0    0  501  502 -0.00000000000E+00 -0.00000000000E+00 -0.13229552083E+04  0.13229552083E+04  0.00000000000E+00 0.  1.
         25    1    1    2    0    0 -0.64498587368E+02  0.15222908324E+03 -0.79268479501E+03  0.81933384270E+03  0.12500000000E+03 0.  0.
         25    1    1    2    0    0  0.16472780176E+03 -0.13407244189E+03 -0.20188789958E+03  0.31858184560E+03  0.12500000000E+03 0.  0.
         25    1    1    2    0    0 -0.10022921439E+03 -0.18156641353E+02 -0.23139017226E+03  0.28203186143E+03  0.12500000000E+03 0.  0.
</event>
<event>
 5    0  0.5481966E-005  0.3224201E+03  0.7546771E-02  0.1074541E+00
         21   -1    0    0  502  501  0.00000000000E+00  0.00000000000E+00  0.32336991511E+03  0.32336991511E+03  0.00000000000E+00 0.  1.
         21   -1    0    0  501  502 -0.00000000000E+00 -0.00000000000E+00 -0.32147308316E+03  0.32147308316E+03  0.00000000000E+00 0.  1.
         25    1    1    2    0    0 -0.59031042170E+02  0.11212893580E+03 -0.12005333917E+03  0.21469831492E+03  0.12500000000E+03 0.  0.
         25    1    1    2    0    0 -0.73805397361E+02  0.51368791713E+02 -0.53726512949E+01  0.15407743126E+03  0.12500000000E+03 0.  0.
         25    1    1    2    0    0  0.13283643953E+03 -0.16349772752E+03  0.12732282242E+03  0.27606725209E+03  0.12500000000E+03 0.  0.
</event>
<event>
 5    0  0.5481966E-005  0.3523947E+03  0.7546771E-02  0.1061636E+00
         21   -1    0    0  502  501  0.00000000000E+00  0.00000000000E+00  0.24244400716E+03  0.24244400716E+03  0.00000000000E+00 0.  1.
         21   -1    0    0  501  502 -0.00000000000E+00 -0.00000000000E+00 -0.51220895977E+03  0.51220895977E+03  0.00000000000E+00 0.  1.
         25    1    1    2    0    0  0.99511055693E+02  0.90737819229E+02 -0.21677643136E+03  0.28417041232E+03  0.12500000000E+03 0.  0.
         25    1    1    2    0    0 -0.62057894090E+02  0.87396804081E+02  0.10825421165E+03  0.19706181244E+03  0.12500000000E+03 0.  0.
         25    1    1    2    0    0 -0.37453161604E+02 -0.17813462331E+03 -0.16124273289E+03  0.27342074217E+03  0.12500000000E+03 0.  0.
</event>
<event>
 5    0  0.5481966E-005  0.3038255E+03  0.7546771E-02  0.1083344E+00
         21   -1    0    0  502  501  0.00000000000E+00  0.00000000000E+00  0.14826303990E+03  0.14826303990E+03  0.00000000000E+00 0.  1.
         21   -1    0    0  501  502 -0.00000000000E+00 -0.00000000000E+00 -0.62260915763E+03  0.62260915763E+03  0.00000000000E+00 0.  1.
         25    1    1    2    0    0 -0.44880998548E+02 -0.94435794756E+02 -0.94239522435E+01  0.16323674292E+03  0.12500000000E+03 0.  0.
         25    1    1    2    0    0 -0.68762465412E+02  0.78353179665E+02 -0.38908888216E+03  0.42176137285E+03  0.12500000000E+03 0.  0.
         25    1    1    2    0    0  0.11364346396E+03  0.16082615091E+02 -0.75833283333E+02  0.18587408176E+03  0.12500000000E+03 0.  0.
</event>
<event>
 5    0  0.5481966E-005  0.3049607E+03  0.7546771E-02  0.1082787E+00
         21   -1    0    0  502  501  0.00000000000E+00  0.00000000000E+00  0.48783681147E+02  0.48783681147E+02  0.00000000000E+00 0.  1.
         21   -1    0    0  501  502 -0.00000000000E+00 -0.00000000000E+00 -0.19063964667E+04  0.19063964667E+04  0.00000000000E+00 0.  1.
         25    1    1    2    0    0  0.20812512025E+02  0.81007434763E+02 -0.22748781889E+03  0.27271060282E+03  0.12500000000E+03 0.  0.
         25    1    1    2    0    0 -0.22547635386E+02  0.12305803532E+03 -0.72132799380E+03  0.74269155815E+03  0.12500000000E+03 0.  0.
         25    1    1    2    0    0  0.17351233608E+01 -0.20406547008E+03 -0.90879697288E+03  0.93977798690E+03  0.12500000000E+03 0.  0.
</event>
<event>
 5    0  0.5481966E-005  0.4736332E+03  0.7546771E-02  0.1020900E+00
         21   -1    0    0  502  501  0.00000000000E+00  0.00000000000E+00  0.36361703696E+03  0.36361703696E+03  0.00000000000E+00 0. -1.
         21   -1    0    0  501  502 -0.00000000000E+00 -0.00000000000E+00 -0.61693581379E+03  0.61693581379E+03  0.00000000000E+00 0. -1.
         25    1    1    2    0    0  0.28242580909E+03  0.25657600666E+02 -0.15001960515E+03  0.34431603512E+03  0.12500000000E+03 0.  0.
         25    1    1    2    0    0 -0.14230387631E+03  0.21643225749E+03  0.52754792114E+02  0.29240619587E+03  0.12500000000E+03 0.  0.
         25    1    1    2    0    0 -0.14012193278E+03 -0.24208985815E+03 -0.15605396379E+03  0.34383061976E+03  0.12500000000E+03 0.  0.
</event>
<event>
 5    0  0.5481966E-005  0.2855501E+03  0.7546771E-02  0.1092696E+00
         21   -1    0    0  502  501  0.00000000000E+00  0.00000000000E+00  0.67287173535E+02  0.67287173535E+02  0.00000000000E+00 0. -1.
         21   -1    0    0  501  502 -0.00000000000E+00 -0.00000000000E+00 -0.12118035543E+04  0.12118035543E+04  0.00000000000E+00 0. -1.
         25    1    1    2    0    0  0.90897299284E+02 -0.15684912278E+02 -0.17752365163E+03  0.23589824582E+03  0.12500000000E+03 0.  0.
         25    1    1    2    0    0  0.66729263924E+00  0.51266198380E+02 -0.11781158566E+03  0.17925746314E+03  0.12500000000E+03 0.  0.
         25    1    1    2    0    0 -0.91564591923E+02 -0.35581286102E+02 -0.84918114351E+03  0.86393501891E+03  0.12500000000E+03 0.  0.
</event>
<event>
 5    0  0.5481966E-005  0.3711676E+03  0.7546771E-02  0.1054247E+00
         21   -1    0    0  502  501  0.00000000000E+00  0.00000000000E+00  0.20040126019E+04  0.20040126019E+04  0.00000000000E+00 0.  1.
         21   -1    0    0  501  502 -0.00000000000E+00 -0.00000000000E+00 -0.68744753805E+02  0.68744753805E+02  0.00000000000E+00 0.  1.
         25    1    1    2    0    0 -0.14080217537E+02  0.16572770650E+03  0.64060934715E+03  0.67354974640E+03  0.12500000000E+03 0.  0.
         25    1    1    2    0    0  0.32899000939E+02 -0.30217147778E+03  0.65164492437E+03  0.72983289437E+03  0.12500000000E+03 0.  0.
         25    1    1    2    0    0 -0.18818783402E+02  0.13644377128E+03  0.64301357658E+03  0.66937471494E+03  0.12500000000E+03 0.  0.
</event>
<event>
 5    0  0.5481966E-005  0.5008963E+03  0.7546771E-02  0.1013545E+00
         21   -1    0    0  502  501  0.00000000000E+00  0.00000000000E+00  0.44376855864E+03  0.44376855864E+03  0.00000000000E+00 0.  1.
         21   -1    0    0  501  502 -0.00000000000E+00 -0.00000000000E+00 -0.56537838396E+03  0.56537838396E+03  0.00000000000E+00 0.  1.
         25    1    1    2    0    0 -0.88296436452E+02  0.46475889976E+02  0.20191567002E+03  0.25758728004E+03  0.12500000000E+03 0.  0.
         25    1    1    2    0    0 -0.20907209103E+03  0.50641238983E+02  0.44375753750E+02  0.25272491340E+03  0.12500000000E+03 0.  0.
         25    1    1    2    0    0  0.29736852749E+03 -0.97117128959E+02 -0.36790124909E+03  0.49883474915E+03  0.12500000000E+03 0.  0.
</event>
<event>
 5    0  0.5481966E-005  0.3611451E+03  0.7546771E-02  0.1058131E+00
         21   -1    0    0  502  501  0.00000000000E+00  0.00000000000E+00  0.10756136351E+04  0.10756136351E+04  0.00000000000E+00 0.  1.
         21   -1    0    0  501  502 -0.00000000000E+00 -0.00000000000E+00 -0.12125710772E+03  0.12125710772E+03  0.00000000000E+00 0. -1.
         25    1    1    2    0    0 -0.87363023988E+01  0.23392216248E+02  0.28642922157E+02  0.13064813719E+03  0.12500000000E+03 0.  0.
         25    1    1    2    0    0 -0.16693556818E+03 -0.60119924987E+02  0.76396802555E+03  0.79420024765E+03  0.12500000000E+03 0.  0.
         25    1    1    2    0    0  0.17567187058E+03  0.36727708739E+02  0.16174557966E+03  0.27202235798E+03  0.12500000000E+03 0.  0.
</event>
<event>
 5    0  0.5481966E-005  0.4257776E+03  0.7546771E-02  0.1035202E+00
         21   -1    0    0  502  501  0.00000000000E+00  0.00000000000E+00  0.26230027084E+03  0.26230027084E+03  0.00000000000E+00 0.  1.
         21   -1    0    0  501  502 -0.00000000000E+00 -0.00000000000E+00 -0.69114126610E+03  0.69114126610E+03  0.00000000000E+00 0.  1.
         25    1    1    2    0    0 -0.19164459491E+03  0.23541048263E+03 -0.18099153055E+03  0.37487155163E+03  0.12500000000E+03 0.  0.
         25    1    1    2    0    0 -0.64925538744E+02 -0.39552459436E+02  0.10449962143E+02  0.14667625690E+03  0.12500000000E+03 0.  0.
         25    1    1    2    0    0  0.25657013365E+03 -0.19585802320E+03 -0.25829942685E+03  0.43189372841E+03  0.12500000000E+03 0.  0.
</event>
<event>
 5    0  0.5481966E-005  0.3383458E+03  0.7546771E-02  0.1067503E+00
         21   -1    0    0  502  501  0.00000000000E+00  0.00000000000E+00  0.12710952400E+03  0.12710952400E+03  0.00000000000E+00 0.  1.
         21   -1    0    0  501  502 -0.00000000000E+00 -0.00000000000E+00 -0.90062385924E+03  0.90062385924E+03  0.00000000000E+00 0.  1.
         25    1    1    2    0    0 -0.59909077709E+02 -0.42002375202E+02 -0.14558012277E+03  0.20535790528E+03  0.12500000000E+03 0.  0.
         25    1    1    2    0    0  0.22446837791E+03  0.14647102277E+03 -0.30332038738E+03  0.42363672007E+03  0.12500000000E+03 0.  0.
         25    1    1    2    0    0 -0.16455930020E+03 -0.10446864757E+03 -0.32461382510E+03  0.39873875790E+03  0.12500000000E+03 0.  0.
</event>
<event>
 5    0  0.5481966E-005  0.2713283E+03  0.7546771E-02  0.1100522E+00
         21   -1    0    0  502  501  0.00000000000E+00  0.00000000000E+00  0.64430853748E+03  0.64430853748E+03  0.00000000000E+00 0. -1.
         21   -1    0    0  501  502 -0.00000000000E+00 -0.00000000000E+00 -0.11426054779E+03  0.11426054779E+03  0.00000000000E+00 0. -1.
         25    1    1    2    0    0  0.22620900289E+02  0.11041636740E+03  0.84527204159E+02  0.18834364222E+03  0.12500000000E+03 0.  0.
         25    1    1    2    0    0 -0.92194235594E+02 -0.95099647399E+02  0.35842644681E+03  0.40204258205E+03  0.12500000000E+03 0.  0.
         25    1    1    2    0    0  0.69573335305E+02 -0.15316720003E+02  0.87094338727E+02  0.16818286100E+03  0.12500000000E+03 0.  0.
</event>
<event>
 5    0  0.5922102E-005  0.3635933E+03  0.7546771E-02  0.1057170E+00
         21   -1    0    0  502  501  0.00000000000E+00  0.00000000000E+00  0.35336701350E+03  0.35336701350E+03  0.00000000000E+00 0. -1.
         21   -1    0    0  501  502 -0.00000000000E+00 -0.00000000000E+00 -0.37411553388E+03  0.37411553388E+03  0.00000000000E+00 0. -1.
         25    1    1    2    0    0  0.16726043076E+03 -0.11076515406E+03 -0.65794596132E+02  0.24535464115E+03  0.12500000000E+03 0.  0.
         25    1    1    2    0    0 -0.71818224550E+02  0.16797536502E+03 -0.11596743371E+03  0.24989403016E+03  0.12500000000E+03 0.  0.
         25    1    1    2    0    0 -0.95442206210E+02 -0.57210210958E+02  0.16101350946E+03  0.23223387607E+03  0.12500000000E+03 0.  0.
</event>
<event>
 5    0  0.5481966E-005  0.3200222E+03  0.7546771E-02  0.1075639E+00
         21   -1    0    0  502  501  0.00000000000E+00  0.00000000000E+00  0.75084290700E+03  0.75084290700E+03  0.00000000000E+00 0. -1.
         21   -1    0    0  501  502 -0.00000000000E+00 -0.00000000000E+00 -0.13639896265E+03  0.13639896265E+03  0.00000000000E+00 0. -1.
         25    1    1    2    0    0  0.48849989605E+02  0.10167731028E+03  0.25533725528E+03  0.30585406788E+03  0.12500000000E+03 0.  0.
         25    1    1    2    0    0  0.26676233567E+02 -0.47521688185E+02 -0.48737704890E+02  0.14481124322E+03  0.12500000000E+03 0.  0.
         25    1    1    2    0    0 -0.75526223171E+02 -0.54155622092E+02  0.40784439396E+03  0.43657655855E+03  0.12500000000E+03 0.  0.
</event>
<event>
 5    0  0.5481966E-005  0.2583629E+03  0.7546771E-02  0.1108131E+00
         21   -1    0    0  502  501  0.00000000000E+00  0.00000000000E+00  0.13136707176E+03  0.13136707176E+03  0.00000000000E+00 0. -1.
         21   -1    0    0  501  502 -0.00000000000E+00 -0.00000000000E+00 -0.50812878363E+03  0.50812878363E+03  0.00000000000E+00 0. -1.
         25    1    1    2    0    0 -0.42360029890E+02 -0.91699993792E+02 -0.76262723378E+02  0.17788834692E+03  0.12500000000E+03 0.  0.
         25    1    1    2    0    0  0.72045861042E+01 -0.49476549971E+02 -0.44646386809E+02  0.14183841128E+03  0.12500000000E+03 0.  0.
         25    1    1    2    0    0  0.35155443786E+02  0.14117654376E+03 -0.25585260168E+03  0.31976909720E+03  0.12500000000E+03 0.  0.
</event>
<event>
 5    0  0.5481966E-005  0.3071845E+03  0.7546771E-02  0.1081703E+00
         21   -1    0    0  502  501  0.00000000000E+00  0.00000000000E+00  0.97921635608E+02  0.97921635608E+02  0.00000000000E+00 0.  1.
         21   -1    0    0  501  502 -0.00000000000E+00 -0.00000000000E+00 -0.96365127081E+03  0.96365127081E+03  0.00000000000E+00 0.  1.
         25    1    1    2    0    0  0.84987101874E+01  0.85819747058E+02 -0.47552135065E+03  0.49918214309E+03  0.12500000000E+03 0.  0.
         25    1    1    2    0    0  0.78171334608E+02 -0.33448749582E+02 -0.12311854759E+02  0.15167781041E+03  0.12500000000E+03 0.  0.
         25    1    1    2    0    0 -0.86670044795E+02 -0.52370997476E+02 -0.37789642979E+03  0.41071295291E+03  0.12500000000E+03 0.  0.
</event>
<event>
 5    0  0.5481966E-005  0.2186821E+03  0.7546771E-02  0.1134869E+00
         21   -1    0    0  502  501  0.00000000000E+00  0.00000000000E+00  0.12147923420E+03  0.12147923420E+03  0.00000000000E+00 0. -1.
         21   -1    0    0  501  502 -0.00000000000E+00 -0.00000000000E+00 -0.39366283741E+03  0.39366283741E+03  0.00000000000E+00 0. -1.
         25    1    1    2    0    0  0.77079375843E+02 -0.57598760129E+02 -0.52765593255E+02  0.16633717318E+03  0.12500000000E+03 0.  0.
         25    1    1    2    0    0 -0.59455334145E+02  0.35332218305E+02 -0.11081736870E+03  0.18080041929E+03  0.12500000000E+03 0.  0.
         25    1    1    2    0    0 -0.17624041698E+02  0.22266541824E+02 -0.10860064126E+03  0.16800447914E+03  0.12500000000E+03 0.  0.
</event>
<event>
 5    0  0.5481966E-005  0.4143672E+03  0.7546771E-02  0.1038915E+00
         21   -1    0    0  502  501  0.00000000000E+00  0.00000000000E+00  0.17879803030E+03  0.17879803030E+03  0.00000000000E+00 0. -1.
         21   -1    0    0  501  502 -0.00000000000E+00 -0.00000000000E+00 -0.96030235293E+03  0.96030235293E+03  0.00000000000E+00 0. -1.
         25    1    1    2    0    0  0.97858652069E+02 -0.22833892439E+02 -0.65211326206E+03  0.67154628208E+03  0.12500000000E+03 0.  0.
         25    1    1    2    0    0 -0.10920800134E+02  0.14395921188E+03  0.55793235303E+02  0.19895075689E+03  0.12500000000E+03 0.  0.
         25    1    1    2    0    0 -0.86937851935E+02 -0.12112531944E+03 -0.18518429588E+03  0.26860334426E+03  0.12500000000E+03 0.  0.
</event>
<event>
 5    0  0.5481966E-005  0.5296819E+03  0.7546771E-02  0.1006309E+00
         21   -1    0    0  502  501  0.00000000000E+00  0.00000000000E+00  0.26064098714E+03  0.26064098714E+03  0.00000000000E+00 0.  1.
         21   -1    0    0  501  502 -0.00000000000E+00 -0.00000000000E+00 -0.10764344248E+04  0.10764344248E+04  0.00000000000E+00 0.  1.
         25    1    1    2    0    0  0.32020616134E+03 -0.25690630512E+03 -0.29388673198E+03  0.52012233811E+03  0.12500000000E+03 0.  0.
         25    1    1    2    0    0 -0.30496836205E+03  0.16047684607E+03 -0.12136404879E+03  0.38615120395E+03  0.12500000000E+03 0.  0.
         25    1    1    2    0    0 -0.15237799289E+02  0.96429459049E+02 -0.40054265692E+03  0.43080186990E+03  0.12500000000E+03 0.  0.
</event>
<event>
 5    0  0.5481966E-005  0.2301206E+03  0.7546771E-02  0.1126555E+00
         21   -1    0    0  502  501  0.00000000000E+00  0.00000000000E+00  0.25017289580E+03  0.25017289580E+03  0.00000000000E+00 0. -1.
         21   -1    0    0  501  502 -0.00000000000E+00 -0.00000000000E+00 -0.21167561329E+03  0.21167561329E+03  0.00000000000E+00 0. -1.
         25    1    1    2    0    0  0.79604152942E+02 -0.71174683345E+02  0.32304525250E+02  0.16754473751E+03  0.12500000000E+03 0.  0.
         25    1    1    2    0    0 -0.91549316889E+02  0.24662036909E+02  0.25707071717E+02  0.15898222235E+03  0.12500000000E+03 0.  0.
         25    1    1    2    0    0  0.11945163947E+02  0.46512646437E+02 -0.19514314457E+02  0.13532154924E+03  0.12500000000E+03 0.  0.
</event>
<event>
 5    0  0.5481966E-005  0.3990132E+03  0.7546771E-02  0.1044122E+00
         21   -1    0    0  502  501  0.00000000000E+00  0.00000000000E+00  0.90716218186E+03  0.90716218186E+03  0.00000000000E+00 0.  1.
         21   -1    0    0  501  502 -0.00000000000E+00 -0.00000000000E+00 -0.17550507768E+03  0.17550507768E+03  0.00000000000E+00 0.  1.
         25    1    1    2    0    0  0.34864542441E+02 -0.10324468284E+03  0.73170229217E+03  0.75025878550E+03  0.12500000000E+03 0.  0.
         25    1    1    2    0    0 -0.33808823269E+02 -0.42661356018E+02 -0.25166433268E+02  0.13864118144E+03  0.12500000000E+03 0.  0.
         25    1    1    2    0    0 -0.10557191718E+01  0.14590603885E+03  0.25121245273E+02  0.19376729260E+03  0.12500000000E+03 0.  0.
</event>
<event>
 5    0  0.5481966E-005  0.2387664E+03  0.7546771E-02  0.1120617E+00
         21   -1    0    0  502  501  0.00000000000E+00  0.00000000000E+00  0.10898825204E+04  0.10898825204E+04  0.00000000000E+00 0.  1.
         21   -1    0    0  501  502 -0.00000000000E+00 -0.00000000000E+00 -0.52307820513E+02  0.52307820513E+02  0.00000000000E+00 0.  1.
         25    1    1    2    0    0 -0.65168637692E+02  0.19539086051E+02  0.46327073216E+03  0.48463749184E+03  0.12500000000E+03 0.  0.
         25    1    1    2    0    0  0.12234452061E+03  0.10656497583E+02  0.37086705312E+03  0.41018180574E+03  0.12500000000E+03 0.  0.
         25    1    1    2    0    0 -0.57175882923E+02 -0.30195583634E+02  0.20343691463E+03  0.24737104336E+03  0.12500000000E+03 0.  0.
</event>
<event>
 5    0  0.5481966E-005  0.3273255E+03  0.7546771E-02  0.1072326E+00
         21   -1    0    0  502  501  0.00000000000E+00  0.00000000000E+00  0.11964413934E+04  0.11964413934E+04  0.00000000000E+00 0. -1.
         21   -1    0    0  501  502 -0.00000000000E+00 -0.00000000000E+00 -0.89550539302E+02  0.89550539302E+02  0.00000000000E+00 0. -1.
         25    1    1    2    0    0 -0.99583193037E+02 -0.18286047918E+02  0.36443124204E+03  0.39835451806E+03  0.12500000000E+03 0.  0.
         25    1    1    2    0    0  0.20486013389E+03  0.12253064128E+03  0.29248292584E+03  0.39768416416E+03  0.12500000000E+03 0.  0.
         25    1    1    2    0    0 -0.10527694086E+03 -0.10424459337E+03  0.44997668623E+03  0.48995325049E+03  0.12500000000E+03 0.  0.
</event>
<event>
 5    0  0.5481966E-005  0.4764046E+03  0.7546771E-02  0.1020128E+00
         21   -1    0    0  502  501  0.00000000000E+00  0.00000000000E+00  0.62676066306E+03  0.62676066306E+03  0.00000000000E+00 0. -1.
         21   -1    0    0  501  502 -0.00000000000E+00 -0.00000000000E+00 -0.36211806382E+03  0.36211806382E+03  0.00000000000E+00 0. -1.
         25    1    1    2    0    0 -0.24478728724E+02  0.16093779380E+03 -0.12935386759E+03  0.24260586286E+03  0.12500000000E+03 0.  0.
         25    1    1    2    0    0 -0.10445668386E+03 -0.11796876708E+03 -0.95834688637E+02  0.22279388761E+03  0.12500000000E+03 0.  0.
         25    1    1    2    0    0  0.12893541259E+03 -0.42969026720E+02  0.48983115547E+03  0.52347897641E+03  0.12500000000E+03 0.  0.
</event>
<event>
 5    0  0.5481966E-005  0.3101683E+03  0.7546771E-02  0.1080265E+00
         21   -1    0    0  502  501  0.00000000000E+00  0.00000000000E+00  0.20930078909E+03  0.20930078909E+03  0.00000000000E+00 0.  1.
         21   -1    0    0  501  502 -0.00000000000E+00 -0.00000000000E+00 -0.45964656916E+03  0.45964656916E+03  0.00000000000E+00 0.  1.
         25    1    1    2    0    0  0.11599417118E+03 -0.92153715714E+02 -0.11601069422E+03  0.22589917273E+03  0.12500000000E+03 0.  0.
         25    1    1    2    0    0 -0.10930064904E+03  0.97742521760E+02  0.68615527371E+02  0.20453196092E+03  0.12500000000E+03 0.  0.
         25    1    1    2    0    0 -0.66935221406E+01 -0.55888060465E+01 -0.20295061322E+03  0.23851622460E+03  0.12500000000E+03 0.  0.
</event>
<event>
 5    0  0.5481966E-005  0.2490677E+03  0.7546771E-02  0.1113895E+00
         21   -1    0    0  502  501  0.00000000000E+00  0.00000000000E+00  0.49963600710E+02  0.49963600710E+02  0.00000000000E+00 0.  1.
         21   -1    0    0  501  502 -0.00000000000E+00 -0.00000000000E+00 -0.12415979086E+04  0.12415979086E+04  0.00000000000E+00 0.  1.
         25    1    1    2    0    0 -0.28882799656E+02  0.56878622148E+02 -0.45732826795E+03  0.47837593840E+03  0.12500000000E+03 0.  0.
         25    1    1    2    0    0  0.95062855593E+02 -0.66978884908E+02 -0.21321490649E+03  0.27314595711E+03  0.12500000000E+03 0.  0.
         25    1    1    2    0    0 -0.66180055937E+02  0.10100262760E+02 -0.52109113346E+03  0.54003961380E+03  0.12500000000E+03 0.  0.
</event>
<event>
 5    0  0.5481966E-005  0.4634116E+03  0.7546771E-02  0.1023796E+00
         21   -1    0    0  502  501  0.00000000000E+00  0.00000000000E+00  0.13987147518E+03  0.13987147518E+03  0.00000000000E+00 0. -1.
         21   -1    0    0  501  502 -0.00000000000E+00 -0.00000000000E+00 -0.15353402527E+04  0.15353402527E+04  0.00000000000E+00 0. -1.
         25    1    1    2    0    0  0.19093998662E+03  0.12336077449E+03 -0.53713192681E+03  0.59649951046E+03  0.12500000000E+03 0.  0.
         25    1    1    2    0    0  0.84141097951E+02 -0.27211953736E+03 -0.48232848514E+03  0.57392903269E+03  0.12500000000E+03 0.  0.
         25    1    1    2    0    0 -0.27508108457E+03  0.14875876288E+03 -0.37600836556E+03  0.50478318474E+03  0.12500000000E+03 0.  0.
</event>
<event>
 5    0  0.5481966E-005  0.2095242E+03  0.7546771E-02  0.1141943E+00
         21   -1    0    0  502  501  0.00000000000E+00  0.00000000000E+00  0.33184131185E+02  0.33184131185E+02  0.00000000000E+00 0.  1.
         21   -1    0    0  501  502 -0.00000000000E+00 -0.00000000000E+00 -0.13229336431E+04  0.13229336431E+04  0.00000000000E+00 0.  1.
         25    1    1    2    0    0  0.10677235189E+02  0.18814108048E+02 -0.32801146929E+03  0.35168806917E+03  0.12500000000E+03 0.  0.
         25    1    1    2    0    0  0.20519478962E+02  0.50268331024E+02 -0.57644422003E+03  0.59233511877E+03  0.12500000000E+03 0.  0.
         25    1    1    2    0    0 -0.31196714150E+02 -0.69082439072E+02 -0.38529382255E+03  0.41209458630E+03  0.12500000000E+03 0.  0.
</event>
<event>
 5    0  0.5481966E-005  0.2862894E+03  0.7546771E-02  0.1092303E+00
         21   -1    0    0  502  501  0.00000000000E+00  0.00000000000E+00  0.12515710811E+03  0.12515710811E+03  0.00000000000E+00 0.  1.
         21   -1    0    0  501  502 -0.00000000000E+00 -0.00000000000E+00 -0.65487003762E+03  0.65487003762E+03  0.00000000000E+00 0.  1.
         25    1    1    2    0    0  0.40034865069E+02 -0.14622963811E+02 -0.30836394274E+02  0.13561896882E+03  0.12500000000E+03 0.  0.
         25    1    1    2    0    0 -0.17570778437E+03  0.33473171455E+02 -0.31549522226E+03  0.38360906397E+03  0.12500000000E+03 0.  0.
         25    1    1    2    0    0  0.13567291930E+03 -0.18850207644E+02 -0.18338131298E+03  0.26079911294E+03  0.12500000000E+03 0.  0.
</event>
<event>
 5    0  0.5481966E-005  0.2505074E+03  0.7546771E-02  0.1112985E+00
         21   -1    0    0  502  501  0.00000000000E+00  0.00000000000E+00  0.84979951424E+03  0.84979951424E+03  0.00000000000E+00 0. -1.
         21   -1    0    0  501  502 -0.00000000000E+00 -0.00000000000E+00 -0.73845579507E+02  0.73845579507E+02  0.00000000000E+00 0. -1.
         25    1    1    2    0    0 -0.65608121180E+02  0.60682920113E+02  0.25857731662E+03  0.30078908063E+03  0.12500000000E+03 0.  0.
         25    1    1    2    0    0  0.39603468641E+02  0.76851028985E+02  0.17002772210E+03  0.22805469008E+03  0.12500000000E+03 0.  0.
         25    1    1    2    0    0  0.26004652538E+02 -0.13753394910E+03  0.34734889601E+03  0.39480132303E+03  0.12500000000E+03 0.  0.
</event>
<event>
 5    0  0.5481966E-005  0.2534729E+03  0.7546771E-02  0.1111129E+00
         21   -1    0    0  502  501  0.00000000000E+00  0.00000000000E+00  0.56483341294E+02  0.56483341294E+02  0.00000000000E+00 0.  1.
         21   -1    0    0  501  502 -0.00000000000E+00 -0.00000000000E+00 -0.11374774498E+04  0.11374774498E+04  0.00000000000E+00 0.  1.
         25    1    1    2    0    0  0.62586481501E+02 -0.25806671839E+02 -0.12622622380E+03  0.19010815752E+03  0.12500000000E+03 0.  0.
         25    1    1    2    0    0 -0.10504915317E+03 -0.28893678126E+02 -0.55910454915E+03  0.58317498754E+03  0.12500000000E+03 0.  0.
         25    1    1    2    0    0  0.42462671666E+02  0.54700349966E+02 -0.39566333551E+03  0.42067764600E+03  0.12500000000E+03 0.  0.
</event>
<event>
 5    0  0.5481966E-005  0.2201927E+03  0.7546771E-02  0.1133739E+00
         21   -1    0    0  502  501  0.00000000000E+00  0.00000000000E+00  0.17509804018E+03  0.17509804018E+03  0.00000000000E+00 0.  1.
         21   -1    0    0  501  502 -0.00000000000E+00 -0.00000000000E+00 -0.27690109593E+03  0.27690109593E+03  0.00000000000E+00 0.  1.
         25    1    1    2    0    0  0.82756163031E+02 -0.43653538845E+02  0.46754179421E+01  0.15620842969E+03  0.12500000000E+03 0.  0.
         25    1    1    2    0    0 -0.62694715915E+02  0.36826734270E+02 -0.29878554260E+02  0.14766368465E+03  0.12500000000E+03 0.  0.
         25    1    1    2    0    0 -0.20061447117E+02  0.68268045751E+01 -0.76599919428E+02  0.14812702177E+03  0.12500000000E+03 0.  0.
</event>
<event>
 5    0  0.5481966E-005  0.5488015E+03  0.7546771E-02  0.1001772E+00
         21   -1    0    0  502  501  0.00000000000E+00  0.00000000000E+00  0.37598441621E+03  0.37598441621E+03  0.00000000000E+00 0.  1.
         21   -1    0    0  501  502 -0.00000000000E+00 -0.00000000000E+00 -0.80105214080E+03  0.80105214080E+03  0.00000000000E+00 0.  1.
         25    1    1    2    0    0  0.35659566640E+03  0.20647070564E+03  0.72620249299E+02  0.43667988526E+03  0.12500000000E+03 0.  0.
         25    1    1    2    0    0 -0.16423789341E+03  0.41038636354E+02 -0.20119011842E+03  0.29113694210E+03  0.12500000000E+03 0.  0.
         25    1    1    2    0    0 -0.19235777299E+03 -0.24750934200E+03 -0.29649785547E+03  0.44921972965E+03  0.12500000000E+03 0.  0.
</event>
<event>
 5    0  0.5481966E-005  0.3274135E+03  0.7546771E-02  0.1072287E+00
         21   -1    0    0  502  501  0.00000000000E+00  0.00000000000E+00  0.19540634970E+04  0.19540634970E+04  0.00000000000E+00 0. -1.
         21   -1    0    0  501  502 -0.00000000000E+00 -0.00000000000E+00 -0.54859818664E+02  0.54859818664E+02  0.00000000000E+00 0. -1.
         25    1    1    2    0    0 -0.86410898707E+02 -0.70691916694E+02  0.70642502367E+03  0.72603409325E+03  0.12500000000E+03 0.  0.
         25    1    1    2    0    0  0.74759185403E+02  0.17955469005E+03  0.32204999251E+03  0.39644674321E+03  0.12500000000E+03 0.  0.
         25    1    1    2    0    0  0.11651713304E+02 -0.10886277335E+03  0.87072866212E+03  0.88644247917E+03  0.12500000000E+03 0.  0.
</event>
<event>
 5    0  0.5481966E-005  0.3890423E+03  0.7546771E-02  0.1047641E+00
         21   -1    0    0  502  501  0.00000000000E+00  0.00000000000E+00  0.32872336947E+03  0.32872336947E+03  0.00000000000E+00 0.  1.
         21   -1    0    0  501  502 -0.00000000000E+00 -0.00000000000E+00 -0.46042951763E+03  0.46042951763E+03  0.00000000000E+00 0.  1.
         25    1    1    2    0    0 -0.14446004427E+03  0.11162502556E+03 -0.48974100535E+02  0.22661048794E+03  0.12500000000E+03 0.  0.
         25    1    1    2    0    0  0.26470570926E+03 -0.35359602423E+02 -0.18414007579E+03  0.34763771589E+03  0.12500000000E+03 0.  0.
         25    1    1    2    0    0 -0.12024566499E+03 -0.76265423135E+02  0.10140802817E+03  0.21490468327E+03  0.12500000000E+03 0.  0.
</event>
<event>
 5    0  0.5481966E-005  0.2672214E+03  0.7546771E-02  0.1102880E+00
         21   -1    0    0  502  501  0.00000000000E+00  0.00000000000E+00  0.13616940615E+03  0.13616940615E+03  0.00000000000E+00 0. -1.
         21   -1    0    0  501  502 -0.00000000000E+00 -0.00000000000E+00 -0.52440046246E+03  0.52440046246E+03  0.00000000000E+00 0. -1.
         25    1    1    2    0    0  0.54961469309E+02 -0.53019958260E+02  0.16108546442E+02  0.14736473239E+03  0.12500000000E+03 0.  0.
         25    1    1    2    0    0 -0.20278623612E+02  0.11501857679E+03 -0.19727062048E+03  0.26111528734E+03  0.12500000000E+03 0.  0.
         25    1    1    2    0    0 -0.34682845698E+02 -0.61998618526E+02 -0.20706898228E+03  0.25208984888E+03  0.12500000000E+03 0.  0.
</event>
<event>
 5    0  0.5481966E-005  0.3339633E+03  0.7546771E-02  0.1069397E+00
         21   -1    0    0  502  501  0.00000000000E+00  0.00000000000E+00  0.14879177789E+03  0.14879177789E+03  0.00000000000E+00 0.  1.
         21   -1    0    0  501  502 -0.00000000000E+00 -0.00000000000E+00 -0.74958084349E+03  0.74958084349E+03  0.00000000000E+00 0.  1.
         25    1    1    2    0    0  0.15197604118E+03  0.10064951224E+02 -0.53432756853E+03  0.56949887694E+03  0.12500000000E+03 0.  0.
         25    1    1    2    0    0 -0.12084278601E+03 -0.10057235523E+02  0.17621631440E+02  0.17504184874E+03  0.12500000000E+03 0.  0.
         25    1    1    2    0    0 -0.31133255173E+02 -0.77157005136E-02 -0.84083128503E+02  0.15383189570E+03  0.12500000000E+03 0.  0.
</event>
<event>
 5    0  0.5481966E-005  0.2774900E+03  0.7546771E-02  0.1097068E+00
         21   -1    0    0  502  501  0.00000000000E+00  0.00000000000E+00  0.27662984344E+04  0.27662984344E+04  0.00000000000E+00 0. -1.
         21   -1    0    0  501  502 -0.00000000000E+00 -0.00000000000E+00 -0.27835285809E+02  0.27835285809E+02  0.00000000000E+00 0. -1.
         25    1    1    2    0    0 -0.86027826518E+01  0.14746378475E+03  0.13142393658E+04  0.13284087045E+04  0.12500000000E+03 0.  0.
         25    1    1    2    0    0  0.39475154489E+02 -0.15795857987E+03  0.10487685652E+04  0.10686672560E+04  0.12500000000E+03 0.  0.
         25    1    1    2    0    0 -0.30872371837E+02  0.10494795128E+02  0.37545521764E+03  0.39705775968E+03  0.12500000000E+03 0.  0.
</event>
<event>
 5    0  0.5481966E-005  0.2613847E+03  0.7546771E-02  0.1106314E+00
         21   -1    0    0  502  501  0.00000000000E+00  0.00000000000E+00  0.57386273877E+02  0.57386273877E+02  0.00000000000E+00 0. -1.
         21   -1    0    0  501  502 -0.00000000000E+00 -0.00000000000E+00 -0.11905625971E+04  0.11905625971E+04  0.00000000000E+00 0. -1.
         25    1    1    2    0    0 -0.24993004599E+02 -0.11413441289E+03 -0.18940286564E+03  0.25524451022E+03  0.12500000000E+03 0.  0.
         25    1    1    2    0    0  0.40799637278E+02  0.10104934678E+03 -0.37557729880E+03  0.41055923843E+03  0.12500000000E+03 0.  0.
         25    1    1    2    0    0 -0.15806632679E+02  0.13085066108E+02 -0.56819615879E+03  0.58214512233E+03  0.12500000000E+03 0.  0.
</event>
<event>
 5    0  0.5481966E-005  0.3233253E+03  0.7546771E-02  0.1074129E+00
         21   -1    0    0  502  501  0.00000000000E+00  0.00000000000E+00  0.41335615945E+03  0.41335615945E+03  0.00000000000E+00 0. -1.
         21   -1    0    0  501  502 -0.00000000000E+00 -0.00000000000E+00 -0.25290355785E+03  0.25290355785E+03  0.00000000000E+00 0. -1.
         25    1    1    2    0    0  0.12549066461E+03  0.21713479094E+02  0.21391995780E+02  0.17972757040E+03  0.12500000000E+03 0.  0.
         25    1    1    2    0    0 -0.31293894645E+02 -0.12025060970E+03 -0.85265092703E+02  0.19579237219E+03  0.12500000000E+03 0.  0.
         25    1    1    2    0    0 -0.94196769968E+02  0.98537130603E+02  0.22432569852E+03  0.29073977471E+03  0.12500000000E+03 0.  0.
</event>
<event>
 5    0  0.5481966E-005  0.3158287E+03  0.7546771E-02  0.1077585E+00
         21   -1    0    0  502  501  0.00000000000E+00  0.00000000000E+00  0.12679022594E+03  0.12679022594E+03  0.00000000000E+00 0.  1.
         21   -1    0    0  501  502 -0.00000000000E+00 -0.00000000000E+00 -0.78671515991E+03  0.78671515991E+03  0.00000000000E+00 0.  1.
         25    1    1    2    0    0 -0.31824965838E+02  0.85810337900E+02 -0.11535373638E+03  0.19315208267E+03  0.12500000000E+03 0.  0.
         25    1    1    2    0    0  0.13599908535E+03 -0.16442397934E+03 -0.45681883087E+03  0.51946072078E+03  0.12500000000E+03 0.  0.
         25    1    1    2    0    0 -0.10417411951E+03  0.78613641442E+02 -0.87752366725E+02  0.20089258240E+03  0.12500000000E+03 0.  0.
</event>
<event>
 5    0  0.5481966E-005  0.4513018E+03  0.7546771E-02  0.1027335E+00
         21   -1    0    0  502  501  0.00000000000E+00  0.00000000000E+00  0.45213639900E+03  0.45213639900E+03  0.00000000000E+00 0.  1.
         21   -1    0    0  501  502 -0.00000000000E+00 -0.00000000000E+00 -0.45046864411E+03  0.45046864411E+03  0.00000000000E+00 0.  1.
         25    1    1    2    0    0 -0.30533888348E+03 -0.51630004156E+02 -0.12865508463E+03  0.35787514848E+03  0.12500000000E+03 0.  0.
         25    1    1    2    0    0  0.56879437860E+00 -0.15931639224E+02 -0.78912692483E+02  0.14868205571E+03  0.12500000000E+03 0.  0.
         25    1    1    2    0    0  0.30477008910E+03  0.67561643380E+02  0.20923553199E+03  0.39604783893E+03  0.12500000000E+03 0.  0.
</event>
<event>
 5    0  0.5481966E-005  0.3536142E+03  0.7546771E-02  0.1061141E+00
         21   -1    0    0  502  501  0.00000000000E+00  0.00000000000E+00  0.75060098067E+03  0.75060098067E+03  0.00000000000E+00 0.  1.
         21   -1    0    0  501  502 -0.00000000000E+00 -0.00000000000E+00 -0.16659048326E+03  0.16659048326E+03  0.00000000000E+00 0.  1.
         25    1    1    2    0    0 -0.84984613508E+02  0.15368971332E+02 -0.96525243502E+02  0.18000197901E+03  0.12500000000E+03 0.  0.
         25    1    1    2    0    0  0.67221946486E+02 -0.40448856659E+02  0.28051169253E+03  0.31696483991E+03  0.12500000000E+03 0.  0.
         25    1    1    2    0    0  0.17762667023E+02  0.25079885328E+02  0.40002404838E+03  0.42022464501E+03  0.12500000000E+03 0.  0.
</event>
<event>
 5    0  0.5481966E-005  0.2507918E+03  0.7546771E-02  0.1112805E+00
         21   -1    0    0  502  501  0.00000000000E+00  0.00000000000E+00  0.50165048258E+02  0.50165048258E+02  0.00000000000E+00 0. -1.
         21   -1    0    0  501  502 -0.00000000000E+00 -0.00000000000E+00 -0.12537920174E+04  0.12537920174E+04  0.00000000000E+00 0. -1.
         25    1    1    2    0    0 -0.24142534252E+02  0.39407994907E+02 -0.32357852850E+03  0.34994844781E+03  0.12500000000E+03 0.  0.
         25    1    1    2    0    0  0.74145018968E+02 -0.11263526954E+03 -0.66490394440E+03  0.68985972708E+03  0.12500000000E+03 0.  0.
         25    1    1    2    0    0 -0.50002484716E+02  0.73227274628E+02 -0.21514449629E+03  0.26414889080E+03  0.12500000000E+03 0.  0.
</event>
<event>
 5    0  0.5481966E-005  0.2372335E+03  0.7546771E-02  0.1121650E+00
         21   -1    0    0  502  501  0.00000000000E+00  0.00000000000E+00  0.10313530787E+04  0.10313530787E+04  0.00000000000E+00 0.  1.
         21   -1    0    0  501  502 -0.00000000000E+00 -0.00000000000E+00 -0.54568819090E+02  0.54568819090E+02  0.00000000000E+00 0.  1.
         25    1    1    2    0    0  0.29127586461E+02  0.91563100539E+02  0.58126519713E+03  0.60226775364E+03  0.12500000000E+03 0.  0.
         25    1    1    2    0    0 -0.16146686542E+02 -0.80219219333E+02  0.18012737481E+03  0.23402288305E+03  0.12500000000E+03 0.  0.
         25    1    1    2    0    0 -0.12980899919E+02 -0.11343881206E+02  0.21539168770E+03  0.24963126113E+03  0.12500000000E+03 0.  0.
</event>
<event>
 5    0  0.5481966E-005  0.2566495E+03  0.7546771E-02  0.1109173E+00
         21   -1    0    0  502  501  0.00000000000E+00  0.00000000000E+00  0.37723973572E+02  0.37723973572E+02  0.00000000000E+00 0. -1.
         21   -1    0    0  501  502 -0.00000000000E+00 -0.00000000000E+00 -0.17460773715E+04  0.17460773715E+04  0.00000000000E+00 0. -1.
         25    1    1    2    0    0  0.64282267335E+02  0.11661149072E+03 -0.70130792125E+03  0.72469873055E+03  0.12500000000E+03 0.  0.
         25    1    1    2    0    0 -0.29047385618E+02  0.28019925432E+02 -0.46781461436E+03  0.48590573185E+03  0.12500000000E+03 0.  0.
         25    1    1    2    0    0 -0.35234881717E+02 -0.14463141615E+03 -0.53923086234E+03  0.57319688269E+03  0.12500000000E+03 0.  0.
</event>
<event>
 5    0  0.5481966E-005  0.3634261E+03  0.7546771E-02  0.1057235E+00
         21   -1    0    0  502  501  0.00000000000E+00  0.00000000000E+00  0.14606500282E+03  0.14606500282E+03  0.00000000000E+00 0. -1.
         21   -1    0    0  501  502 -0.00000000000E+00 -0.00000000000E+00 -0.90424507618E+03  0.90424507618E+03  0.00000000000E+00 0. -1.
         25    1    1    2    0    0 -0.11462952929E+03  0.24941356360E+03 -0.17808984370E+03  0.35026853573E+03  0.12500000000E+03 0.  0.
         25    1    1    2    0    0  0.50136077367E+02 -0.20324648619E+03 -0.36106418202E+03  0.43567775241E+03  0.12500000000E+03 0.  0.
         25    1    1    2    0    0  0.64493451928E+02 -0.46167077403E+02 -0.21902604763E+03  0.26436379086E+03  0.12500000000E+03 0.  0.
</event>
<event>
 5    0  0.5481966E-005  0.4686664E+03  0.7546771E-02  0.1022297E+00
         21   -1    0    0  502  501  0.00000000000E+00  0.00000000000E+00  0.21580460094E+03  0.21580460094E+03  0.00000000000E+00 0. -1.
         21   -1    0    0  501  502 -0.00000000000E+00 -0.00000000000E+00 -0.10178104001E+04  0.10178104001E+04  0.00000000000E+00 0. -1.
         25    1    1    2    0    0  0.18594027526E+03 -0.20235669438E+03 -0.52894078443E+03  0.60903642844E+03  0.12500000000E+03 0.  0.
         25    1    1    2    0    0 -0.14727703455E+03  0.26987096540E+03 -0.20854101114E+02  0.33253684969E+03  0.12500000000E+03 0.  0.
         25    1    1    2    0    0 -0.38663240708E+02 -0.67514271019E+02 -0.25221091359E+03  0.29204172289E+03  0.12500000000E+03 0.  0.
</event>
<event>
 5    0  0.5481966E-005  0.2965084E+03  0.7546771E-02  0.1086999E+00
         21   -1    0    0  502  501  0.00000000000E+00  0.00000000000E+00  0.11330276606E+03  0.11330276606E+03  0.00000000000E+00 0. -1.
         21   -1    0    0  501  502 -0.00000000000E+00 -0.00000000000E+00 -0.77594962091E+03  0.77594962091E+03  0.00000000000E+00 0. -1.
         25    1    1    2    0    0  0.19143223747E+03 -0.98745125150E+02 -0.20894863068E+03  0.32508680617E+03  0.12500000000E+03 0.  0.
         25    1    1    2    0    0 -0.13157106403E+03  0.57097342409E+02 -0.27043537959E+03  0.33065290855E+03  0.12500000000E+03 0.  0.
         25    1    1    2    0    0 -0.59861173441E+02  0.41647782741E+02 -0.18326284459E+03  0.23351267225E+03  0.12500000000E+03 0.  0.
</event>
<event>
 5    0  0.5481966E-005  0.2569054E+03  0.7546771E-02  0.1109017E+00
         21   -1    0    0  502  501  0.00000000000E+00  0.00000000000E+00  0.99866486843E+03  0.99866486843E+03  0.00000000000E+00 0.  1.
         21   -1    0    0  501  502 -0.00000000000E+00 -0.00000000000E+00 -0.66088634956E+02  0.66088634956E+02  0.00000000000E+00 0.  1.
         25    1    1    2    0    0 -0.40607150796E+02  0.86509844482E+02  0.98110007981E+02  0.18542779607E+03  0.12500000000E+03 0.  0.
         25    1    1    2    0    0  0.38526673912E+02 -0.14581764031E+02  0.44284234426E+03  0.46198622741E+03  0.12500000000E+03 0.  0.
         25    1    1    2    0    0  0.20804768840E+01 -0.71928080451E+02  0.39162388123E+03  0.41733947991E+03  0.12500000000E+03 0.  0.
</event>
<event>
 5    0  0.5481966E-005  0.3400384E+03  0.7546771E-02  0.1066780E+00
         21   -1    0    0  502  501  0.00000000000E+00  0.00000000000E+00  0.10706440107E+04  0.10706440107E+04  0.00000000000E+00 0.  1.
         21   -1    0    0  501  502 -0.00000000000E+00 -0.00000000000E+00 -0.10799676251E+03  0.10799676251E+03  0.00000000000E+00 0.  1.
         25    1    1    2    0    0  0.33247634570E+02  0.10882767641E+03  0.31277265868E+03  0.35552862666E+03  0.12500000000E+03 0.  0.
         25    1    1    2    0    0 -0.18961854464E+03 -0.53486888866E+02  0.13890705255E+03  0.27154411980E+03  0.12500000000E+03 0.  0.
         25    1    1    2    0    0  0.15637091007E+03 -0.55340787547E+02  0.51096753692E+03  0.55156802669E+03  0.12500000000E+03 0.  0.
</event>
<event>
 5    0  0.5481966E-005  0.3663459E+03  0.7546771E-02  0.1056099E+00
         21   -1    0    0  502  501  0.00000000000E+00  0.00000000000E+00  0.62132893231E+03  0.62132893231E+03  0.00000000000E+00 0.  1.
         21   -1    0    0  501  502 -0.00000000000E+00 -0.00000000000E+00 -0.21600362982E+03  0.21600362982E+03  0.00000000000E+00 0.  1.
         25    1    1    2    0    0  0.80449996520E+02 -0.20472875860E+03  0.26837141130E+03  0.36882825399E+03  0.12500000000E+03 0.  0.
         25    1    1    2    0    0  0.80873422892E+02  0.18747378521E+03  0.43249464472E+02  0.24327442703E+03  0.12500000000E+03 0.  0.
         25    1    1    2    0    0 -0.16132341941E+03  0.17254973397E+02  0.93704426722E+02  0.22522988111E+03  0.12500000000E+03 0.  0.
</event>
<event>
 5    0  0.5481966E-005  0.4603301E+03  0.7546771E-02  0.1024686E+00
         21   -1    0    0  502  501  0.00000000000E+00  0.00000000000E+00  0.27391770159E+03  0.27391770159E+03  0.00000000000E+00 0.  1.
         21   -1    0    0  501  502 -0.00000000000E+00 -0.00000000000E+00 -0.77360395968E+03  0.77360395968E+03  0.00000000000E+00 0.  1.
         25    1    1    2    0    0 -0.51244875269E+02  0.21586534540E+03 -0.13098743292E+03  0.28636793146E+03  0.12500000000E+03 0.  0.
         25    1    1    2    0    0 -0.19819273420E+03 -0.23656193999E+03 -0.49376784558E+02  0.33660804832E+03  0.12500000000E+03 0.  0.
         25    1    1    2    0    0  0.24943760947E+03  0.20696594593E+02 -0.31932204061E+03  0.42454568148E+03  0.12500000000E+03 0.  0.
</event>
<event>
 5    0  0.5481966E-005  0.2740612E+03  0.7546771E-02  0.1098978E+00
         21   -1    0    0  502  501  0.00000000000E+00  0.00000000000E+00  0.13458806378E+04  0.13458806378E+04  0.00000000000E+00 0. -1.
         21   -1    0    0  501  502 -0.00000000000E+00 -0.00000000000E+00 -0.55806991236E+02  0.55806991236E+02  0.00000000000E+00 0. -1.
         25    1    1    2    0    0 -0.43110194759E+02 -0.48676391384E+02  0.93917210239E+03  0.94968264061E+03  0.12500000000E+03 0.  0.
         25    1    1    2    0    0  0.32382134791E+02  0.48743541182E+02  0.96684687488E+02  0.16851547186E+03  0.12500000000E+03 0.  0.
         25    1    1    2    0    0  0.10728059968E+02 -0.67149797586E-01  0.25421685666E+03  0.28348951655E+03  0.12500000000E+03 0.  0.
</event>
<event>
 5    0  0.5481966E-005  0.2241107E+03  0.7546771E-02  0.1130855E+00
         21   -1    0    0  502  501  0.00000000000E+00  0.00000000000E+00  0.58482618541E+02  0.58482618541E+02  0.00000000000E+00 0. -1.
         21   -1    0    0  501  502 -0.00000000000E+00 -0.00000000000E+00 -0.85881222916E+03  0.85881222916E+03  0.00000000000E+00 0. -1.
         25    1    1    2    0    0 -0.21254865774E+02  0.70854124952E+02 -0.23197205235E+03  0.27369345884E+03  0.12500000000E+03 0.  0.
         25    1    1    2    0    0  0.42908562009E+02  0.20205280930E+01 -0.39624857292E+03  0.41771181306E+03  0.12500000000E+03 0.  0.
         25    1    1    2    0    0 -0.21653696235E+02 -0.72874653045E+02 -0.17210898535E+03  0.22588957580E+03  0.12500000000E+03 0.  0.
</event>
<event>
 5    0  0.5481966E-005  0.3110739E+03  0.7546771E-02  0.1079832E+00
         21   -1    0    0  502  501  0.00000000000E+00  0.00000000000E+00  0.29722408147E+03  0.29722408147E+03  0.00000000000E+00 0. -1.
         21   -1    0    0  501  502 -0.00000000000E+00 -0.00000000000E+00 -0.32556912345E+03  0.32556912345E+03  0.00000000000E+00 0. -1.
         25    1    1    2    0    0 -0.19023993640E+02  0.54714536439E+02  0.55904796928E+02  0.14868066166E+03  0.12500000000E+03 0.  0.
         25    1    1    2    0    0  0.25188927033E+01 -0.20439236212E+03 -0.13075759760E+03  0.27295628192E+03  0.12500000000E+03 0.  0.
         25    1    1    2    0    0  0.16505100937E+02  0.14967782568E+03  0.46507758685E+02  0.20115626133E+03  0.12500000000E+03 0.  0.
</event>
<event>
 5    0  0.5481966E-005  0.6699432E+03  0.7546771E-02  0.9770060E-01
         21   -1    0    0  502  501  0.00000000000E+00  0.00000000000E+00  0.43309550248E+03  0.43309550248E+03  0.00000000000E+00 0. -1.
         21   -1    0    0  501  502 -0.00000000000E+00 -0.00000000000E+00 -0.10363162799E+04  0.10363162799E+04  0.00000000000E+00 0. -1.
         25    1    1    2    0    0  0.36129598896E+03  0.20958944115E+03 -0.39062943332E+03  0.58538780279E+03  0.12500000000E+03 0.  0.
         25    1    1    2    0    0 -0.21472413844E+02 -0.13095502876E+03 -0.42109391125E+03  0.45886312361E+03  0.12500000000E+03 0.  0.
         25    1    1    2    0    0 -0.33982357511E+03 -0.78634412394E+02  0.20850256710E+03  0.42516085603E+03  0.12500000000E+03 0.  0.
</event>
<event>
 5    0  0.5481966E-005  0.2293602E+03  0.7546771E-02  0.1127091E+00
         21   -1    0    0  502  501  0.00000000000E+00  0.00000000000E+00  0.53198476739E+03  0.53198476739E+03  0.00000000000E+00 0. -1.
         21   -1    0    0  501  502 -0.00000000000E+00 -0.00000000000E+00 -0.98886503789E+02  0.98886503789E+02  0.00000000000E+00 0. -1.
         25    1    1    2    0    0  0.25902545759E+02  0.32067853650E+02  0.95925283177E+02  0.16286788839E+03  0.12500000000E+03 0.  0.
         25    1    1    2    0    0  0.66031830816E+02  0.25735730318E+02  0.86943770351E+02  0.16794865197E+03  0.12500000000E+03 0.  0.
         25    1    1    2    0    0 -0.91934376575E+02 -0.57803583968E+02  0.25022921007E+03  0.30005473082E+03  0.12500000000E+03 0.  0.
</event>
<event>
 5    0  0.5481966E-005  0.2538298E+03  0.7546771E-02  0.1110908E+00
         21   -1    0    0  502  501  0.00000000000E+00  0.00000000000E+00  0.10930877882E+03  0.10930877882E+03  0.00000000000E+00 0.  1.
         21   -1    0    0  501  502 -0.00000000000E+00 -0.00000000000E+00 -0.58942732198E+03  0.58942732198E+03  0.00000000000E+00 0.  1.
         25    1    1    2    0    0 -0.17291891706E+02 -0.41660504166E+02 -0.19153368788E+02  0.13426264805E+03  0.12500000000E+03 0.  0.
         25    1    1    2    0    0 -0.92513400059E+02  0.20456865913E+02 -0.24717881762E+03  0.29274490676E+03  0.12500000000E+03 0.  0.
         25    1    1    2    0    0  0.10980529177E+03  0.21203638253E+02 -0.21378635675E+03  0.27172854599E+03  0.12500000000E+03 0.  0.
</event>
<event>
 5    0  0.5481966E-005  0.2168510E+03  0.7546771E-02  0.1136253E+00
         21   -1    0    0  502  501  0.00000000000E+00  0.00000000000E+00  0.78806276369E+02  0.78806276369E+02  0.00000000000E+00 0. -1.
         21   -1    0    0  501  502 -0.00000000000E+00 -0.00000000000E+00 -0.59670799812E+03  0.59670799812E+03  0.00000000000E+00 0. -1.
         25    1    1    2    0    0 -0.89816288308E+02 -0.31353465963E+02 -0.22199963369E+03  0.27195375127E+03  0.12500000000E+03 0.  0.
         25    1    1    2    0    0  0.25413532897E+02  0.27887072504E+02 -0.11193860932E+03  0.17198485028E+03  0.12500000000E+03 0.  0.
         25    1    1    2    0    0  0.64402755411E+02  0.34663934585E+01 -0.18396347873E+03  0.23157567294E+03  0.12500000000E+03 0.  0.
</event>
<event>
 5    0  0.5647417E-005  0.3149826E+03  0.7546771E-02  0.1077982E+00
         21   -1    0    0  502  501  0.00000000000E+00  0.00000000000E+00  0.45452479392E+03  0.45452479392E+03  0.00000000000E+00 0. -1.
         21   -1    0    0  501  502 -0.00000000000E+00 -0.00000000000E+00 -0.21828085315E+03  0.21828085315E+03  0.00000000000E+00 0. -1.
         25    1    1    2    0    0  0.10085203412E+03  0.18415777263E+03  0.15812655230E+03  0.29105708126E+03  0.12500000000E+03 0.  0.
         25    1    1    2    0    0 -0.88054101392E+02 -0.78837975569E+02  0.12333502543E+03  0.21167304897E+03  0.12500000000E+03 0.  0.
         25    1    1    2    0    0 -0.12797932730E+02 -0.10531979706E+03 -0.45217636959E+02  0.17007551684E+03  0.12500000000E+03 0.  0.
</event>
<event>
 5    0  0.5481966E-005  0.2771975E+03  0.7546771E-02  0.1097230E+00
         21   -1    0    0  502  501  0.00000000000E+00  0.00000000000E+00  0.11941609003E+03  0.11941609003E+03  0.00000000000E+00 0. -1.
         21   -1    0    0  501  502 -0.00000000000E+00 -0.00000000000E+00 -0.64345127604E+03  0.64345127604E+03  0.00000000000E+00 0. -1.
         25    1    1    2    0    0 -0.59389902285E+02 -0.73012684664E+02 -0.25884605323E+03  0.30246370342E+03  0.12500000000E+03 0.  0.
         25    1    1    2    0    0  0.83268022554E+02 -0.39811220339E+02 -0.12596053600E+02  0.15589149243E+03  0.12500000000E+03 0.  0.
         25    1    1    2    0    0 -0.23878120269E+02  0.11282390500E+03 -0.25259307918E+03  0.30451217023E+03  0.12500000000E+03 0.  0.
</event>
<event>
 5    0  0.5481966E-005  0.3017859E+03  0.7546771E-02  0.1084351E+00
         21   -1    0    0  502  501  0.00000000000E+00  0.00000000000E+00  0.86954847565E+03  0.86954847565E+03  0.00000000000E+00 0. -1.
         21   -1    0    0  501  502 -0.00000000000E+00 -0.00000000000E+00 -0.10473796084E+03  0.10473796084E+03  0.00000000000E+00 0. -1.
         25    1    1    2    0    0  0.31581179740E+02  0.92719464795E+02  0.29060728031E+03  0.33116742206E+03  0.12500000000E+03 0.  0.
         25    1    1    2    0    0  0.78844017972E+02 -0.18786437077E+03  0.22271485172E+03  0.32670522823E+03  0.12500000000E+03 0.  0.
         25    1    1    2    0    0 -0.11042519771E+03  0.95144905977E+02  0.25148838278E+03  0.31641378620E+03  0.12500000000E+03 0.  0.
</event>
<event>
 5    0  0.5481966E-005  0.3238486E+03  0.7546771E-02  0.1073892E+00
         21   -1    0    0  502  501  0.00000000000E+00  0.00000000000E+00  0.98031420290E+03  0.98031420290E+03  0.00000000000E+00 0. -1.
         21   -1    0    0  501  502 -0.00000000000E+00 -0.00000000000E+00 -0.10698396657E+03  0.10698396657E+03  0.00000000000E+00 0.  1.
         25    1    1    2    0    0 -0.15585009148E+03 -0.32012955095E+02  0.46372234168E+03  0.50594218097E+03  0.12500000000E+03 0.  0.
         25    1    1    2    0    0 -0.55605668684E+02  0.32971109649E+02  0.25457654303E+03  0.29088365496E+03  0.12500000000E+03 0.  0.
         25    1    1    2    0    0  0.21145576017E+03 -0.95815455375E+00  0.15503135162E+03  0.29047233354E+03  0.12500000000E+03 0.  0.
</event>
<event>
 5    0  0.5481966E-005  0.4439411E+03  0.7546771E-02  0.1029544E+00
         21   -1    0    0  502  501  0.00000000000E+00  0.00000000000E+00  0.13126196276E+03  0.13126196276E+03  0.00000000000E+00 0.  1.
         21   -1    0    0  501  502 -0.00000000000E+00 -0.00000000000E+00 -0.15014534218E+04  0.15014534218E+04  0.00000000000E+00 0.  1.
         25    1    1    2    0    0 -0.26394892087E+02  0.12831551631E+03 -0.12972857787E+02  0.18153472696E+03  0.12500000000E+03 0.  0.
         25    1    1    2    0    0  0.31925420038E+01  0.10790734100E+03 -0.18215925218E+03  0.24588855142E+03  0.12500000000E+03 0.  0.
         25    1    1    2    0    0  0.23202350084E+02 -0.23622285732E+03 -0.11750593491E+04  0.12052921062E+04  0.12500000000E+03 0.  0.
</event>
<event>
 5    0  0.5785645E-005  0.2899170E+03  0.7546771E-02  0.1090392E+00
         21   -1    0    0  502  501  0.00000000000E+00  0.00000000000E+00  0.13260119977E+03  0.13260119977E+03  0.00000000000E+00 0.  1.
         21   -1    0    0  501  502 -0.00000000000E+00 -0.00000000000E+00 -0.63386956595E+03  0.63386956595E+03  0.00000000000E+00 0.  1.
         25    1    1    2    0    0 -0.22558851725E+02  0.19528617245E+01 -0.27701900162E+03  0.30475767869E+03  0.12500000000E+03 0.  0.
         25    1    1    2    0    0  0.23917770960E+02  0.12297966035E+03 -0.10057501111E+01  0.17698041745E+03  0.12500000000E+03 0.  0.
         25    1    1    2    0    0 -0.13589192344E+01 -0.12493252207E+03 -0.22324361446E+03  0.28473266959E+03  0.12500000000E+03 0.  0.
</event>
<event>
 5    0  0.5481966E-005  0.4881668E+03  0.7546771E-02  0.1016915E+00
         21   -1    0    0  502  501  0.00000000000E+00  0.00000000000E+00  0.94849616556E+02  0.94849616556E+02  0.00000000000E+00 0.  1.
         21   -1    0    0  501  502 -0.00000000000E+00 -0.00000000000E+00 -0.25124705835E+04  0.25124705835E+04  0.00000000000E+00 0.  1.
         25    1    1    2    0    0  0.12946498523E+02 -0.67321144853E+02 -0.14964896968E+03  0.20668711255E+03  0.12500000000E+03 0.  0.
         25    1    1    2    0    0  0.13525779427E+03  0.26815249424E+03 -0.19523989753E+04  0.19793148283E+04  0.12500000000E+03 0.  0.
         25    1    1    2    0    0 -0.14820429279E+03 -0.20083134939E+03 -0.31557302203E+03  0.42131825920E+03  0.12500000000E+03 0.  0.
</event>
<event>
 5    0  0.5481966E-005  0.2812670E+03  0.7546771E-02  0.1094999E+00
         21   -1    0    0  502  501  0.00000000000E+00  0.00000000000E+00  0.97536719011E+03  0.97536719011E+03  0.00000000000E+00 0.  1.
         21   -1    0    0  501  502 -0.00000000000E+00 -0.00000000000E+00 -0.81109060584E+02  0.81109060584E+02  0.00000000000E+00 0.  1.
         25    1    1    2    0    0  0.14118322127E+03  0.75910995553E+02  0.17747422472E+03  0.26984677440E+03  0.12500000000E+03 0.  0.
         25    1    1    2    0    0 -0.73003766760E+02 -0.10383918511E+03  0.42233777479E+03  0.45837356200E+03  0.12500000000E+03 0.  0.
         25    1    1    2    0    0 -0.68179454509E+02  0.27928189552E+02  0.29444613002E+03  0.32825591430E+03  0.12500000000E+03 0.  0.
</event>
<event>
 5    0  0.5481966E-005  0.2596983E+03  0.7546771E-02  0.1107325E+00
         21   -1    0    0  502  501  0.00000000000E+00  0.00000000000E+00  0.31057026123E+03  0.31057026123E+03  0.00000000000E+00 0. -1.
         21   -1    0    0  501  502 -0.00000000000E+00 -0.00000000000E+00 -0.21715931126E+03  0.21715931126E+03  0.00000000000E+00 0. -1.
         25    1    1    2    0    0 -0.73362785733E+02  0.83167707224E+02 -0.74080201044E+02  0.18278906434E+03  0.12500000000E+03 0.  0.
         25    1    1    2    0    0  0.59767374021E+02  0.77586311261E+01  0.40867838385E+02  0.14466345623E+03  0.12500000000E+03 0.  0.
         25    1    1    2    0    0  0.13595411713E+02 -0.90926338351E+02  0.12662331262E+03  0.20027705192E+03  0.12500000000E+03 0.  0.
</event>
<event>
 5    0  0.5863911E-005  0.4833572E+03  0.7546771E-02  0.1018217E+00
         21   -1    0    0  502  501  0.00000000000E+00  0.00000000000E+00  0.95299849448E+03  0.95299849448E+03  0.00000000000E+00 0.  1.
         21   -1    0    0  501  502 -0.00000000000E+00 -0.00000000000E+00 -0.24515696190E+03  0.24515696190E+03  0.00000000000E+00 0.  1.
         25    1    1    2    0    0 -0.15617175865E+03  0.30817125428E+03  0.14129354479E+03  0.39363435567E+03  0.12500000000E+03 0.  0.
         25    1    1    2    0    0  0.28473302204E+02 -0.15456812707E+03  0.52909670336E+03  0.56592433800E+03  0.12500000000E+03 0.  0.
         25    1    1    2    0    0  0.12769845644E+03 -0.15360312721E+03  0.37451284434E+02  0.23859676270E+03  0.12500000000E+03 0.  0.
</event>
<event>
 5    0  0.5481966E-005  0.2934452E+03  0.7546771E-02  0.1088564E+00
         21   -1    0    0  502  501  0.00000000000E+00  0.00000000000E+00  0.77667568497E+02  0.77667568497E+02  0.00000000000E+00 0. -1.
         21   -1    0    0  501  502 -0.00000000000E+00 -0.00000000000E+00 -0.11087003063E+04  0.11087003063E+04  0.00000000000E+00 0. -1.
         25    1    1    2    0    0 -0.28203280311E+02 -0.85476686357E+02 -0.86946233794E+02  0.17687944059E+03  0.12500000000E+03 0.  0.
         25    1    1    2    0    0  0.26199821725E+02  0.96578035791E+02 -0.20653295320E+03  0.26133237154E+03  0.12500000000E+03 0.  0.
         25    1    1    2    0    0  0.20034585861E+01 -0.11101349433E+02 -0.73755355077E+03  0.74815606263E+03  0.12500000000E+03 0.  0.
</event>
<event>
 5    0  0.5481966E-005  0.3562643E+03  0.7546771E-02  0.1060073E+00
         21   -1    0    0  502  501  0.00000000000E+00  0.00000000000E+00  0.27472790859E+03  0.27472790859E+03  0.00000000000E+00 0.  1.
         21   -1    0    0  501  502 -0.00000000000E+00 -0.00000000000E+00 -0.46199996080E+03  0.46199996080E+03  0.00000000000E+00 0.  1.
         25    1    1    2    0    0 -0.29655357872E+02 -0.89303992598E+02  0.14592254052E+02  0.15713871968E+03  0.12500000000E+03 0.  0.
         25    1    1    2    0    0  0.13064955738E+03  0.84449828531E+02  0.11061850806E+03  0.22817216024E+03  0.12500000000E+03 0.  0.
         25    1    1    2    0    0 -0.10099419951E+03  0.48541640676E+01 -0.31248281432E+03  0.35141698947E+03  0.12500000000E+03 0.  0.
</event>
<event>
 5    0  0.5481966E-005  0.2581478E+03  0.7546771E-02  0.1108261E+00
         21   -1    0    0  502  501  0.00000000000E+00  0.00000000000E+00  0.59800825083E+03  0.59800825083E+03  0.00000000000E+00 0. -1.
         21   -1    0    0  501  502 -0.00000000000E+00 -0.00000000000E+00 -0.11143702838E+03  0.11143702838E+03  0.00000000000E+00 0. -1.
         25    1    1    2    0    0 -0.10710877862E+03 -0.33123564046E+02  0.43644881393E+02  0.17349160390E+03  0.12500000000E+03 0.  0.
         25    1    1    2    0    0 -0.13000370539E+02  0.25556638173E+02  0.18742052461E+03  0.22709822640E+03  0.12500000000E+03 0.  0.
         25    1    1    2    0    0  0.12010914916E+03  0.75669258727E+01  0.25550581645E+03  0.30885544890E+03  0.12500000000E+03 0.  0.
</event>
<event>
 5    0  0.5481966E-005  0.3405209E+03  0.7546771E-02  0.1066574E+00
         21   -1    0    0  502  501  0.00000000000E+00  0.00000000000E+00  0.14363414332E+03  0.14363414332E+03  0.00000000000E+00 0.  1.
         21   -1    0    0  501  502 -0.00000000000E+00 -0.00000000000E+00 -0.80729043412E+03  0.80729043412E+03  0.00000000000E+00 0.  1.
         25    1    1    2    0    0  0.57929085440E+02 -0.69041130116E+02 -0.27619868906E+03  0.31628021188E+03  0.12500000000E+03 0.  0.
         25    1    1    2    0    0 -0.56271215262E+02  0.38593455730E+02 -0.46370689661E+03  0.48508245738E+03  0.12500000000E+03 0.  0.
         25    1    1    2    0    0 -0.16578701779E+01  0.30447674386E+02  0.76249294882E+02  0.14956190818E+03  0.12500000000E+03 0.  0.
</event>
<event>
 5    0  0.5481966E-005  0.3859900E+03  0.7546771E-02  0.1048742E+00
         21   -1    0    0  502  501  0.00000000000E+00  0.00000000000E+00  0.48242749469E+03  0.48242749469E+03  0.00000000000E+00 0. -1.
         21   -1    0    0  501  502 -0.00000000000E+00 -0.00000000000E+00 -0.30883047738E+03  0.30883047738E+03  0.00000000000E+00 0. -1.
         25    1    1    2    0    0  0.17011486443E+03 -0.26186313175E+03  0.17815886140E+03  0.38062704418E+03  0.12500000000E+03 0.  0.
         25    1    1    2    0    0 -0.67465533885E+02  0.67328523968E+02 -0.10766656252E+02  0.15756157301E+03  0.12500000000E+03 0.  0.
         25    1    1    2    0    0 -0.10264933054E+03  0.19453460778E+03  0.62048121522E+01  0.25306935488E+03  0.12500000000E+03 0.  0.
</event>
<event>
 5    0  0.5481966E-005  0.3101132E+03  0.7546771E-02  0.1080292E+00
         21   -1    0    0  502  501  0.00000000000E+00  0.00000000000E+00  0.13855998167E+03  0.13855998167E+03  0.00000000000E+00 0.  1.
         21   -1    0    0  501  502 -0.00000000000E+00 -0.00000000000E+00 -0.69406920944E+03  0.69406920944E+03  0.00000000000E+00 0.  1.
         25    1    1    2    0    0  0.69056534784E+00  0.55107507793E+02 -0.67545734040E+02  0.15239665509E+03  0.12500000000E+03 0.  0.
         25    1    1    2    0    0  0.10052849665E+03  0.13845440005E+03 -0.29444272078E+03  0.36276316703E+03  0.12500000000E+03 0.  0.
         25    1    1    2    0    0 -0.10121906200E+03 -0.19356190785E+03 -0.19352077295E+03  0.31746936899E+03  0.12500000000E+03 0.  0.
</event>
<event>
 5    0  0.5481966E-005  0.4718310E+03  0.7546771E-02  0.1021405E+00
         21   -1    0    0  502  501  0.00000000000E+00  0.00000000000E+00  0.40423995649E+03  0.40423995649E+03  0.00000000000E+00 0. -1.
         21   -1    0    0  501  502 -0.00000000000E+00 -0.00000000000E+00 -0.55072364921E+03  0.55072364921E+03  0.00000000000E+00 0. -1.
         25    1    1    2    0    0  0.59344343930E+02 -0.77101518365E+02 -0.29645166708E+02  0.16115281940E+03  0.12500000000E+03 0.  0.
         25    1    1    2    0    0  0.19120098655E+03 -0.54965612058E+02  0.23007886393E+03  0.32884695436E+03  0.12500000000E+03 0.  0.
         25    1    1    2    0    0 -0.25054533048E+03  0.13206713042E+03 -0.34691738995E+03  0.46496383194E+03  0.12500000000E+03 0.  0.
</event>
<event>
 5    0  0.5481966E-005  0.3008520E+03  0.7546771E-02  0.1084815E+00
         21   -1    0    0  502  501  0.00000000000E+00  0.00000000000E+00  0.11805140275E+03  0.11805140275E+03  0.00000000000E+00 0. -1.
         21   -1    0    0  501  502 -0.00000000000E+00 -0.00000000000E+00 -0.76671623977E+03  0.76671623977E+03  0.00000000000E+00 0. -1.
         25    1    1    2    0    0  0.19937698374E+02 -0.54442911223E+02 -0.42889417901E+03  0.45048502659E+03  0.12500000000E+03 0.  0.
         25    1    1    2    0    0  0.76787473513E+02  0.12454402495E+03 -0.67634776893E+02  0.20397792352E+03  0.12500000000E+03 0.  0.
         25    1    1    2    0    0 -0.96725171887E+02 -0.70101113723E+02 -0.15213588111E+03  0.23030469241E+03  0.12500000000E+03 0.  0.
</event>
<event>
 5    0  0.5481966E-005  0.3114076E+03  0.7546771E-02  0.1079673E+00
         21   -1    0    0  502  501  0.00000000000E+00  0.00000000000E+00  0.24967373898E+03  0.24967373898E+03  0.00000000000E+00 0. -1.
         21   -1    0    0  501  502 -0.00000000000E+00 -0.00000000000E+00 -0.38840564348E+03  0.38840564348E+03  0.00000000000E+00 0. -1.
         25    1    1    2    0    0  0.17133101170E+03 -0.13009776864E+02 -0.11422098674E+03  0.24123640620E+03  0.12500000000E+03 0.  0.
         25    1    1    2    0    0 -0.12024491698E+03  0.88240500821E+02  0.79835020849E+02  0.21034223684E+03  0.12500000000E+03 0.  0.
         25    1    1    2    0    0 -0.51086094719E+02 -0.75230723957E+02 -0.10434593860E+03  0.18650073942E+03  0.12500000000E+03 0.  0.
</event>
<event>
 5    0  0.5481966E-005  0.3449975E+03  0.7546771E-02  0.1064687E+00
         21   -1    0    0  502  501  0.00000000000E+00  0.00000000000E+00  0.19822257150E+03  0.19822257150E+03  0.00000000000E+00 0.  1.
         21   -1    0    0  501  502 -0.00000000000E+00 -0.00000000000E+00 -0.60045254957E+03  0.60045254957E+03  0.00000000000E+00 0. -1.
         25    1    1    2    0    0  0.36212376099E+02  0.64713928049E+02 -0.15855842432E+03  0.21509300916E+03  0.12500000000E+03 0.  0.
         25    1    1    2    0    0  0.20000298070E+03 -0.56511342196E+02 -0.19635913512E+03  0.31205229374E+03  0.12500000000E+03 0.  0.
         25    1    1    2    0    0 -0.23621535680E+03 -0.82025858529E+01 -0.47312418629E+02  0.27152981818E+03  0.12500000000E+03 0.  0.
</event>
<event>
 5    0  0.5481966E-005  0.3336828E+03  0.7546771E-02  0.1069519E+00
         21   -1    0    0  502  501  0.00000000000E+00  0.00000000000E+00  0.78659938646E+03  0.78659938646E+03  0.00000000000E+00 0.  1.
         21   -1    0    0  501  502 -0.00000000000E+00 -0.00000000000E+00 -0.14155133516E+03  0.14155133516E+03  0.00000000000E+00 0.  1.
         25    1    1    2    0    0  0.65972930177E+02 -0.11906144916E+03 -0.13599719684E+02  0.18530517685E+03  0.12500000000E+03 0.  0.
         25    1    1    2    0    0 -0.23106596392E+02  0.77677165556E+02  0.13447141817E+03  0.20068686841E+03  0.12500000000E+03 0.  0.
         25    1    1    2    0    0 -0.42866333785E+02  0.41384283606E+02  0.52417635281E+03  0.54215867635E+03  0.12500000000E+03 0.  0.
</event>
<event>
 5    0  0.5481966E-005  0.2974749E+03  0.7546771E-02  0.1086510E+00
         21   -1    0    0  502  501  0.00000000000E+00  0.00000000000E+00  0.95353394454E+03  0.95353394454E+03  0.00000000000E+00 0.  1.
         21   -1    0    0  501  502 -0.00000000000E+00 -0.00000000000E+00 -0.92803528452E+02  0.92803528452E+02  0.00000000000E+00 0.  1.
         25    1    1    2    0    0  0.79665769719E+02 -0.56240336085E+02  0.28119475270E+03  0.32280814614E+03  0.12500000000E+03 0.  0.
         25    1    1    2    0    0 -0.86940232008E+02 -0.12032214121E+03  0.16028218219E+03  0.25169703919E+03  0.12500000000E+03 0.  0.
         25    1    1    2    0    0  0.72744622891E+01  0.17656247730E+03  0.41925348120E+03  0.47183228767E+03  0.12500000000E+03 0.  0.
</event>
<event>
 5    0  0.5481966E-005  0.3542668E+03  0.7546771E-02  0.1060877E+00
         21   -1    0    0  502  501  0.00000000000E+00  0.00000000000E+00  0.29893041285E+03  0.29893041285E+03  0.00000000000E+00 0.  1.
         21   -1    0    0  501  502 -0.00000000000E+00 -0.00000000000E+00 -0.41984666374E+03  0.41984666374E+03  0.00000000000E+00 0.  1.
         25    1    1    2    0    0 -0.56595267795E+02  0.12196061680E+03  0.13137450247E+03  0.22574692974E+03  0.12500000000E+03 0.  0.
         25    1    1    2    0    0  0.10189875738E+03  0.78568993881E+02 -0.13978500571E+03  0.22742315488E+03  0.12500000000E+03 0.  0.
         25    1    1    2    0    0 -0.45303489585E+02 -0.20052961068E+03 -0.11250574766E+03  0.26560699197E+03  0.12500000000E+03 0.  0.
</event>
<event>
 5    0  0.5481966E-005  0.2539435E+03  0.7546771E-02  0.1110838E+00
         21   -1    0    0  502  501  0.00000000000E+00  0.00000000000E+00  0.53700490419E+03  0.53700490419E+03  0.00000000000E+00 0.  1.
         21   -1    0    0  501  502 -0.00000000000E+00 -0.00000000000E+00 -0.12008700757E+03  0.12008700757E+03  0.00000000000E+00 0.  1.
         25    1    1    2    0    0 -0.42028044611E+02 -0.77660167152E+01  0.45508928222E+02  0.13972376354E+03  0.12500000000E+03 0.  0.
         25    1    1    2    0    0 -0.20674039692E+02  0.10573093247E+03  0.89354007900E+02  0.18765815923E+03  0.12500000000E+03 0.  0.
         25    1    1    2    0    0  0.62702084303E+02 -0.97964915758E+02  0.28205496050E+03  0.32970998898E+03  0.12500000000E+03 0.  0.
</event>
<event>
 5    0  0.5481966E-005  0.3761982E+03  0.7546771E-02  0.1052348E+00
         21   -1    0    0  502  501  0.00000000000E+00  0.00000000000E+00  0.15079826051E+04  0.15079826051E+04  0.00000000000E+00 0. -1.
         21   -1    0    0  501  502 -0.00000000000E+00 -0.00000000000E+00 -0.93850608460E+02  0.93850608460E+02  0.00000000000E+00 0. -1.
         25    1    1    2    0    0 -0.76439764900E+02 -0.15611135411E+02  0.39195813829E+03  0.41873968928E+03  0.12500000000E+03 0.  0.
         25    1    1    2    0    0  0.19170463687E+03 -0.38926179890E+02  0.11603557312E+03  0.25952874505E+03  0.12500000000E+03 0.  0.
         25    1    1    2    0    0 -0.11526487197E+03  0.54537315301E+02  0.90613828518E+03  0.92356477918E+03  0.12500000000E+03 0.  0.
</event>
<event>
 5    0  0.5481966E-005  0.3477172E+03  0.7546771E-02  0.1063556E+00
         21   -1    0    0  502  501  0.00000000000E+00  0.00000000000E+00  0.98092327451E+02  0.98092327451E+02  0.00000000000E+00 0.  1.
         21   -1    0    0  501  502 -0.00000000000E+00 -0.00000000000E+00 -0.12325859027E+04  0.12325859027E+04  0.00000000000E+00 0.  1.
         25    1    1    2    0    0 -0.76856135118E+02  0.15325395372E+02 -0.17344051508E+02  0.14855150410E+03  0.12500000000E+03 0.  0.
         25    1    1    2    0    0  0.11777440067E+02 -0.14153797572E+03 -0.67927393598E+03  0.70513104226E+03  0.12500000000E+03 0.  0.
         25    1    1    2    0    0  0.65078695051E+02  0.12621258035E+03 -0.43787558776E+03  0.47699568378E+03  0.12500000000E+03 0.  0.
</event>
<event>
 5    0  0.5481966E-005  0.3625116E+03  0.7546771E-02  0.1057594E+00
         21   -1    0    0  502  501  0.00000000000E+00  0.00000000000E+00  0.81937123465E+03  0.81937123465E+03  0.00000000000E+00 0. -1.
         21   -1    0    0  501  502 -0.00000000000E+00 -0.00000000000E+00 -0.16038474336E+03  0.16038474336E+03  0.00000000000E+00 0. -1.
         25    1    1    2    0    0 -0.19033103382E+03  0.52311263015E+02  0.25699823284E+02  0.23504861538E+03  0.12500000000E+03 0.  0.
         25    1    1    2    0    0  0.31264180541E+02 -0.81567831781E+02  0.12610843367E+03  0.19788657663E+03  0.12500000000E+03 0.  0.
         25    1    1    2    0    0  0.15906685328E+03  0.29256568767E+02  0.50717823434E+03  0.54682078601E+03  0.12500000000E+03 0.  0.
</event>
<event>
 5    0  0.5481966E-005  0.2349918E+03  0.7546771E-02  0.1123175E+00
         21   -1    0    0  502  501  0.00000000000E+00  0.00000000000E+00  0.11762895430E+04  0.11762895430E+04  0.00000000000E+00 0.  1.
         21   -1    0    0  501  502 -0.00000000000E+00 -0.00000000000E+00 -0.46945214411E+02  0.46945214411E+02  0.00000000000E+00 0.  1.
         25    1    1    2    0    0 -0.99661391201E+02  0.13728496071E+02  0.32988690581E+03  0.36683952230E+03  0.12500000000E+03 0.  0.
         25    1    1    2    0    0 -0.24161534390E+02 -0.28490403251E+02  0.33437847060E+03  0.35892818839E+03  0.12500000000E+03 0.  0.
         25    1    1    2    0    0  0.12382292559E+03  0.14761907180E+02  0.46507895217E+03  0.49746704670E+03  0.12500000000E+03 0.  0.
</event>
<event>
 5    0  0.5481966E-005  0.4134653E+03  0.7546771E-02  0.1039214E+00
         21   -1    0    0  502  501  0.00000000000E+00  0.00000000000E+00  0.11006324048E+04  0.11006324048E+04  0.00000000000E+00 0. -1.
         21   -1    0    0  501  502 -0.00000000000E+00 -0.00000000000E+00 -0.15532303150E+03  0.15532303150E+03  0.00000000000E+00 0. -1.
         25    1    1    2    0    0 -0.25495047580E+03 -0.17283506865E+02  0.10401725619E+03  0.30289115918E+03  0.12500000000E+03 0.  0.
         25    1    1    2    0    0  0.61636987007E+02  0.21256474628E+02  0.89943087539E+02  0.16722952753E+03  0.12500000000E+03 0.  0.
         25    1    1    2    0    0  0.19331348880E+03 -0.39729677633E+01  0.75134902962E+03  0.78583474964E+03  0.12500000000E+03 0.  0.
</event>
<event>
 5    0  0.5481966E-005  0.2705664E+03  0.7546771E-02  0.1100956E+00
         21   -1    0    0  502  501  0.00000000000E+00  0.00000000000E+00  0.30559094179E+03  0.30559094179E+03  0.00000000000E+00 0.  1.
         21   -1    0    0  501  502 -0.00000000000E+00 -0.00000000000E+00 -0.23955611815E+03  0.23955611815E+03  0.00000000000E+00 0.  1.
         25    1    1    2    0    0  0.77510085292E+02 -0.14368176334E+03  0.66298188793E+02  0.21603868236E+03  0.12500000000E+03 0.  0.
         25    1    1    2    0    0 -0.36170727376E+02  0.12376046035E+03  0.50587725966E+02  0.18657194613E+03  0.12500000000E+03 0.  0.
         25    1    1    2    0    0 -0.41339357917E+02  0.19921302988E+02 -0.50851091119E+02  0.14253643146E+03  0.12500000000E+03 0.  0.
</event>
<event>
 5    0  0.5481966E-005  0.2960633E+03  0.7546771E-02  0.1087225E+00
         21   -1    0    0  502  501  0.00000000000E+00  0.00000000000E+00  0.11545063515E+03  0.11545063515E+03  0.00000000000E+00 0. -1.
         21   -1    0    0  501  502 -0.00000000000E+00 -0.00000000000E+00 -0.75922905857E+03  0.75922905857E+03  0.00000000000E+00 0. -1.
         25    1    1    2    0    0 -0.47869948017E+02  0.13188223864E+03 -0.14845648774E+03  0.23947606465E+03  0.12500000000E+03 0.  0.
         25    1    1    2    0    0 -0.29003603483E+02 -0.65913845899E+02 -0.44318789672E+03  0.46607548304E+03  0.12500000000E+03 0.  0.
         25    1    1    2    0    0  0.76873551499E+02 -0.65968392738E+02 -0.52134038969E+02  0.16912814603E+03  0.12500000000E+03 0.  0.
</event>
<event>
 5    0  0.5481966E-005  0.2133668E+03  0.7546771E-02  0.1138927E+00
         21   -1    0    0  502  501  0.00000000000E+00  0.00000000000E+00  0.41881700415E+03  0.41881700415E+03  0.00000000000E+00 0. -1.
         21   -1    0    0  501  502 -0.00000000000E+00 -0.00000000000E+00 -0.10869993432E+03  0.10869993432E+03  0.00000000000E+00 0. -1.
         25    1    1    2    0    0 -0.21258370938E+02 -0.45101644746E+02  0.15311751627E+03  0.20385301196E+03  0.12500000000E+03 0.  0.
         25    1    1    2    0    0  0.58255803362E+02 -0.75004453668E+01  0.10609303833E+03  0.17415719362E+03  0.12500000000E+03 0.  0.
         25    1    1    2    0    0 -0.36997432423E+02  0.52602090113E+02  0.50906515220E+02  0.14950673290E+03  0.12500000000E+03 0.  0.
</event>
<event>
 5    0  0.5481966E-005  0.2169213E+03  0.7546771E-02  0.1136199E+00
         21   -1    0    0  502  501  0.00000000000E+00  0.00000000000E+00  0.20502524358E+03  0.20502524358E+03  0.00000000000E+00 0.  1.
         21   -1    0    0  501  502 -0.00000000000E+00 -0.00000000000E+00 -0.22950754417E+03  0.22950754417E+03  0.00000000000E+00 0.  1.
         25    1    1    2    0    0  0.15401282964E+00  0.19264072898E+02  0.11822674630E+02  0.12702717764E+03  0.12500000000E+03 0.  0.
         25    1    1    2    0    0 -0.47168816866E+02  0.63809824981E+02 -0.16001959845E+02  0.14892163633E+03  0.12500000000E+03 0.  0.
         25    1    1    2    0    0  0.47014804036E+02 -0.83073897879E+02 -0.20303015374E+02  0.15858397378E+03  0.12500000000E+03 0.  0.
</event>
<event>
 5    0  0.5481966E-005  0.2439712E+03  0.7546771E-02  0.1117175E+00
         21   -1    0    0  502  501  0.00000000000E+00  0.00000000000E+00  0.21651844847E+03  0.21651844847E+03  0.00000000000E+00 0.  1.
         21   -1    0    0  501  502 -0.00000000000E+00 -0.00000000000E+00 -0.27490473711E+03  0.27490473711E+03  0.00000000000E+00 0.  1.
         25    1    1    2    0    0  0.18336970861E+02 -0.35107025736E+02 -0.32890918751E+02  0.13518713065E+03  0.12500000000E+03 0.  0.
         25    1    1    2    0    0 -0.10495986267E+03  0.89203408609E+02  0.23649580969E+02  0.18750499609E+03  0.12500000000E+03 0.  0.
         25    1    1    2    0    0  0.86622891805E+02 -0.54096382873E+02 -0.49144950863E+02  0.16873105885E+03  0.12500000000E+03 0.  0.
</event>
<event>
 5    0  0.6454357E-005  0.3533801E+03  0.7546771E-02  0.1061236E+00
         21   -1    0    0  502  501  0.00000000000E+00  0.00000000000E+00  0.29747794283E+03  0.29747794283E+03  0.00000000000E+00 0. -1.
         21   -1    0    0  501  502 -0.00000000000E+00 -0.00000000000E+00 -0.41978743189E+03  0.41978743189E+03  0.00000000000E+00 0. -1.
         25    1    1    2    0    0 -0.15335964192E+03 -0.15192880689E+02 -0.66390876327E+02  0.20924328389E+03  0.12500000000E+03 0.  0.
         25    1    1    2    0    0  0.67298677747E+02 -0.10265334269E+03 -0.20146015955E+03  0.26697943119E+03  0.12500000000E+03 0.  0.
         25    1    1    2    0    0  0.86060964174E+02  0.11784622337E+03  0.14554154682E+03  0.24104265964E+03  0.12500000000E+03 0.  0.
</event>
<event>
 5    0  0.5948075E-005  0.3428442E+03  0.7546771E-02  0.1065591E+00
         21   -1    0    0  502  501  0.00000000000E+00  0.00000000000E+00  0.81029255424E+03  0.81029255424E+03  0.00000000000E+00 0. -1.
         21   -1    0    0  501  502 -0.00000000000E+00 -0.00000000000E+00 -0.14506132738E+03  0.14506132738E+03  0.00000000000E+00 0. -1.
         25    1    1    2    0    0 -0.35196913377E+02 -0.12446558836E+03  0.39301182253E+03  0.43221961784E+03  0.12500000000E+03 0.  0.
         25    1    1    2    0    0 -0.11274192128E+03 -0.15393174706E+02  0.22198072575E+03  0.27901278330E+03  0.12500000000E+03 0.  0.
         25    1    1    2    0    0  0.14793883466E+03  0.13985876306E+03  0.50238678581E+02  0.24412148048E+03  0.12500000000E+03 0.  0.
</event>
<event>
 5    0  0.5481966E-005  0.4795557E+03  0.7546771E-02  0.1019257E+00
         21   -1    0    0  502  501  0.00000000000E+00  0.00000000000E+00  0.43767715192E+03  0.43767715192E+03  0.00000000000E+00 0.  1.
         21   -1    0    0  501  502 -0.00000000000E+00 -0.00000000000E+00 -0.52544144473E+03  0.52544144473E+03  0.00000000000E+00 0.  1.
         25    1    1    2    0    0 -0.11614879449E+03  0.18503082799E+03 -0.35967523425E+03  0.43899683815E+03  0.12500000000E+03 0.  0.
         25    1    1    2    0    0  0.18137376571E+03 -0.20914606130E+03  0.16609424417E+03  0.34619476569E+03  0.12500000000E+03 0.  0.
         25    1    1    2    0    0 -0.65224971218E+02  0.24115233312E+02  0.10581669727E+03  0.17792699281E+03  0.12500000000E+03 0.  0.
</event>
<event>
 5    0  0.5481966E-005  0.2113247E+03  0.7546771E-02  0.1140521E+00
         21   -1    0    0  502  501  0.00000000000E+00  0.00000000000E+00  0.47682315736E+03  0.47682315736E+03  0.00000000000E+00 0.  1.
         21   -1    0    0  501  502 -0.00000000000E+00 -0.00000000000E+00 -0.93657620771E+02  0.93657620771E+02  0.00000000000E+00 0.  1.
         25    1    1    2    0    0  0.53421201824E+02  0.64897617347E+02  0.12556578148E+03  0.19610530594E+03  0.12500000000E+03 0.  0.
         25    1    1    2    0    0 -0.28976408772E+02 -0.52925095405E+02  0.98388920145E+02  0.17013546837E+03  0.12500000000E+03 0.  0.
         25    1    1    2    0    0 -0.24444793052E+02 -0.11972521942E+02  0.15921083496E+03  0.20424000382E+03  0.12500000000E+03 0.  0.
</event>
<event>
 5    0  0.5481966E-005  0.4533230E+03  0.7546771E-02  0.1026736E+00
         21   -1    0    0  502  501  0.00000000000E+00  0.00000000000E+00  0.89808623776E+03  0.89808623776E+03  0.00000000000E+00 0.  1.
         21   -1    0    0  501  502 -0.00000000000E+00 -0.00000000000E+00 -0.22882180261E+03  0.22882180261E+03  0.00000000000E+00 0. -1.
         25    1    1    2    0    0 -0.95844095088E+02  0.32106274045E+03  0.13489977447E+03  0.38221763829E+03  0.12500000000E+03 0.  0.
         25    1    1    2    0    0  0.50974678210E+02 -0.24774762298E+02  0.33906106016E+03  0.36578628894E+03  0.12500000000E+03 0.  0.
         25    1    1    2    0    0  0.44869416878E+02 -0.29628797815E+03  0.19530360053E+03  0.37890411313E+03  0.12500000000E+03 0.  0.
</event>
<event>
 5    0  0.5481966E-005  0.3279642E+03  0.7546771E-02  0.1072041E+00
         21   -1    0    0  502  501  0.00000000000E+00  0.00000000000E+00  0.11125643680E+04  0.11125643680E+04  0.00000000000E+00 0.  1.
         21   -1    0    0  501  502 -0.00000000000E+00 -0.00000000000E+00 -0.96678020303E+02  0.96678020303E+02  0.00000000000E+00 0.  1.
         25    1    1    2    0    0 -0.15099835617E+03 -0.48532220870E+02  0.19170567557E+03  0.27844558907E+03  0.12500000000E+03 0.  0.
         25    1    1    2    0    0  0.23730554659E+03  0.20728681913E+02  0.42727747244E+03  0.50491052589E+03  0.12500000000E+03 0.  0.
         25    1    1    2    0    0 -0.86307190427E+02  0.27803538956E+02  0.39690319966E+03  0.42588627332E+03  0.12500000000E+03 0.  0.
</event>
<event>
 5    0  0.5481966E-005  0.3325437E+03  0.7546771E-02  0.1070017E+00
         21   -1    0    0  502  501  0.00000000000E+00  0.00000000000E+00  0.60836853884E+03  0.60836853884E+03  0.00000000000E+00 0.  1.
         21   -1    0    0  501  502 -0.00000000000E+00 -0.00000000000E+00 -0.18177350555E+03  0.18177350555E+03  0.00000000000E+00 0.  1.
         25    1    1    2    0    0  0.62320512685E+02  0.14034519364E+03  0.13703957909E+03  0.24080171494E+03  0.12500000000E+03 0.  0.
         25    1    1    2    0    0 -0.12734640584E+02 -0.13472354945E+03  0.35479331438E+03  0.39976981098E+03  0.12500000000E+03 0.  0.
         25    1    1    2    0    0 -0.49585872102E+02 -0.56216441891E+01 -0.65237860175E+02  0.14957051847E+03  0.12500000000E+03 0.  0.
</event>
<event>
 5    0  0.5481966E-005  0.3625501E+03  0.7546771E-02  0.1057579E+00
         21   -1    0    0  502  501  0.00000000000E+00  0.00000000000E+00  0.19651786665E+03  0.19651786665E+03  0.00000000000E+00 0.  1.
         21   -1    0    0  501  502 -0.00000000000E+00 -0.00000000000E+00 -0.66885803494E+03  0.66885803494E+03  0.00000000000E+00 0.  1.
         25    1    1    2    0    0 -0.60063702999E+02 -0.22991375162E+03 -0.12352764139E+02  0.26878536490E+03  0.12500000000E+03 0.  0.
         25    1    1    2    0    0  0.27033478649E+02  0.12613162509E+03 -0.11349444552E+03  0.21247584564E+03  0.12500000000E+03 0.  0.
         25    1    1    2    0    0  0.33030224351E+02  0.10378212652E+03 -0.34649295863E+03  0.38411469106E+03  0.12500000000E+03 0.  0.
</event>
<event>
 5    0  0.5481966E-005  0.3456077E+03  0.7546771E-02  0.1064432E+00
         21   -1    0    0  502  501  0.00000000000E+00  0.00000000000E+00  0.14757242277E+03  0.14757242277E+03  0.00000000000E+00 0.  1.
         21   -1    0    0  501  502 -0.00000000000E+00 -0.00000000000E+00 -0.80939686014E+03  0.80939686014E+03  0.00000000000E+00 0.  1.
         25    1    1    2    0    0  0.45092904313E+02  0.12043608169E+03 -0.29800049099E+03  0.34780384188E+03  0.12500000000E+03 0.  0.
         25    1    1    2    0    0 -0.32207254747E+02 -0.26165000477E+03 -0.16656912541E+03  0.33595878586E+03  0.12500000000E+03 0.  0.
         25    1    1    2    0    0 -0.12885649566E+02  0.14121392309E+03 -0.19725482096E+03  0.27320665518E+03  0.12500000000E+03 0.  0.
</event>
<event>
 5    0  0.5481966E-005  0.4234439E+03  0.7546771E-02  0.1035951E+00
         21   -1    0    0  502  501  0.00000000000E+00  0.00000000000E+00  0.27765652742E+04  0.27765652742E+04  0.00000000000E+00 0.  1.
         21   -1    0    0  501  502 -0.00000000000E+00 -0.00000000000E+00 -0.64577898345E+02  0.64577898345E+02  0.00000000000E+00 0.  1.
         25    1    1    2    0    0 -0.23930679371E+02 -0.52145674990E+02  0.64698382440E+03  0.66144154532E+03  0.12500000000E+03 0.  0.
         25    1    1    2    0    0  0.15088360072E+03  0.13977146165E+03  0.22646756600E+03  0.33047614272E+03  0.12500000000E+03 0.  0.
         25    1    1    2    0    0 -0.12695292135E+03 -0.87625786660E+02  0.18385359854E+04  0.18492254845E+04  0.12500000000E+03 0.  0.
</event>
<event>
 5    0  0.5481966E-005  0.4464815E+03  0.7546771E-02  0.1028777E+00
         21   -1    0    0  502  501  0.00000000000E+00  0.00000000000E+00  0.91434397055E+03  0.91434397055E+03  0.00000000000E+00 0.  1.
         21   -1    0    0  501  502 -0.00000000000E+00 -0.00000000000E+00 -0.21802050510E+03  0.21802050510E+03  0.00000000000E+00 0.  1.
         25    1    1    2    0    0 -0.25513908818E+03 -0.29606793090E+03  0.26289120565E+03  0.48732839034E+03  0.12500000000E+03 0.  0.
         25    1    1    2    0    0  0.19526134174E+03  0.15522600524E+03  0.23203096724E+03  0.36288493223E+03  0.12500000000E+03 0.  0.
         25    1    1    2    0    0  0.59877746436E+02  0.14084192566E+03  0.20140129255E+03  0.28215115308E+03  0.12500000000E+03 0.  0.
</event>
<event>
 5    0  0.5481966E-005  0.3105883E+03  0.7546771E-02  0.1080064E+00
         21   -1    0    0  502  501  0.00000000000E+00  0.00000000000E+00  0.57893845466E+03  0.57893845466E+03  0.00000000000E+00 0.  1.
         21   -1    0    0  501  502 -0.00000000000E+00 -0.00000000000E+00 -0.16662407920E+03  0.16662407920E+03  0.00000000000E+00 0.  1.
         25    1    1    2    0    0  0.38480718933E+02  0.85825802520E+02  0.65984052790E+01  0.15657385816E+03  0.12500000000E+03 0.  0.
         25    1    1    2    0    0 -0.17847911508E+02  0.11097106255E+03  0.27109575447E+03  0.31898437699E+03  0.12500000000E+03 0.  0.
         25    1    1    2    0    0 -0.20632807425E+02 -0.19679686507E+03  0.13462021570E+03  0.27000429871E+03  0.12500000000E+03 0.  0.
</event>
<event>
 5    0  0.5481966E-005  0.3542528E+03  0.7546771E-02  0.1060883E+00
         21   -1    0    0  502  501  0.00000000000E+00  0.00000000000E+00  0.24943589947E+03  0.24943589947E+03  0.00000000000E+00 0.  1.
         21   -1    0    0  501  502 -0.00000000000E+00 -0.00000000000E+00 -0.50311537496E+03  0.50311537496E+03  0.00000000000E+00 0.  1.
         25    1    1    2    0    0 -0.62394081582E+02  0.17458906512E+03 -0.33263325938E+03  0.40080450137E+03  0.12500000000E+03 0.  0.
         25    1    1    2    0    0  0.19101593567E+02 -0.24484993197E+02  0.80085063131E+02  0.15166740950E+03  0.12500000000E+03 0.  0.
         25    1    1    2    0    0  0.43292488016E+02 -0.15010407192E+03 -0.11312792376E+01  0.20007936355E+03  0.12500000000E+03 0.  0.
</event>
<event>
 5    0  0.5481966E-005  0.2828348E+03  0.7546771E-02  0.1094151E+00
         21   -1    0    0  502  501  0.00000000000E+00  0.00000000000E+00  0.21846497091E+03  0.21846497091E+03  0.00000000000E+00 0.  1.
         21   -1    0    0  501  502 -0.00000000000E+00 -0.00000000000E+00 -0.36617083300E+03  0.36617083300E+03  0.00000000000E+00 0.  1.
         25    1    1    2    0    0 -0.22346155905E+02  0.25408662315E+02  0.79350845223E-01  0.12949886911E+03  0.12500000000E+03 0.  0.
         25    1    1    2    0    0 -0.10646801728E+03 -0.59051153582E+02  0.54315330010E+02  0.18275019157E+03  0.12500000000E+03 0.  0.
         25    1    1    2    0    0  0.12881417319E+03  0.33642491268E+02 -0.20210054294E+03  0.27238674323E+03  0.12500000000E+03 0.  0.
</event>
<event>
 5    0  0.5481966E-005  0.4276074E+03  0.7546771E-02  0.1034618E+00
         21   -1    0    0  502  501  0.00000000000E+00  0.00000000000E+00  0.22203136562E+03  0.22203136562E+03  0.00000000000E+00 0. -1.
         21   -1    0    0  501  502 -0.00000000000E+00 -0.00000000000E+00 -0.82352353297E+03  0.82352353297E+03  0.00000000000E+00 0. -1.
         25    1    1    2    0    0 -0.23503794299E+02  0.26850116952E+02 -0.71733752253E+02  0.14847251712E+03  0.12500000000E+03 0.  0.
         25    1    1    2    0    0 -0.29792250074E+03 -0.61988476507E+02 -0.41991082751E+03  0.53343274246E+03  0.12500000000E+03 0.  0.
         25    1    1    2    0    0  0.32142629504E+03  0.35138359555E+02 -0.10984758758E+03  0.36364963901E+03  0.12500000000E+03 0.  0.
</event>
<event>
 5    0  0.5481966E-005  0.3352250E+03  0.7546771E-02  0.1068848E+00
         21   -1    0    0  502  501  0.00000000000E+00  0.00000000000E+00  0.68063447586E+02  0.68063447586E+02  0.00000000000E+00 0.  1.
         21   -1    0    0  501  502 -0.00000000000E+00 -0.00000000000E+00 -0.16510447968E+04  0.16510447968E+04  0.00000000000E+00 0.  1.
         25    1    1    2    0    0  0.99992569180E+02 -0.10796623147E+03 -0.51390301976E+03  0.54897771790E+03  0.12500000000E+03 0.  0.
         25    1    1    2    0    0 -0.92190034661E+02 -0.12316866891E+03 -0.60647213942E+03  0.63804622041E+03  0.12500000000E+03 0.  0.
         25    1    1    2    0    0 -0.78025345196E+01  0.23113490038E+03 -0.46260619007E+03  0.53208430611E+03  0.12500000000E+03 0.  0.
</event>
<event>
 5    0  0.5481966E-005  0.3711799E+03  0.7546771E-02  0.1054243E+00
         21   -1    0    0  502  501  0.00000000000E+00  0.00000000000E+00  0.75450126261E+03  0.75450126261E+03  0.00000000000E+00 0.  1.
         21   -1    0    0  501  502 -0.00000000000E+00 -0.00000000000E+00 -0.18260341664E+03  0.18260341664E+03  0.00000000000E+00 0.  1.
         25    1    1    2    0    0  0.20348239765E+03  0.26533600238E+02  0.36661614501E+03  0.43833949842E+03  0.12500000000E+03 0.  0.
         25    1    1    2    0    0  0.35681160885E+02  0.94727705656E+01 -0.35746924917E+02  0.13515073535E+03  0.12500000000E+03 0.  0.
         25    1    1    2    0    0 -0.23916355854E+03 -0.36006370803E+02  0.24102862588E+03  0.36361444548E+03  0.12500000000E+03 0.  0.
</event>
<event>
 5    0  0.5481966E-005  0.3172548E+03  0.7546771E-02  0.1076920E+00
         21   -1    0    0  502  501  0.00000000000E+00  0.00000000000E+00  0.15837254932E+03  0.15837254932E+03  0.00000000000E+00 0.  1.
         21   -1    0    0  501  502 -0.00000000000E+00 -0.00000000000E+00 -0.63553079881E+03  0.63553079881E+03  0.00000000000E+00 0.  1.
         25    1    1    2    0    0  0.38174434776E+02  0.18139440770E+03 -0.15758106227E+03  0.27352880982E+03  0.12500000000E+03 0.  0.
         25    1    1    2    0    0  0.45327428554E+02 -0.21786980179E+03 -0.18353079241E+03  0.31437299196E+03  0.12500000000E+03 0.  0.
         25    1    1    2    0    0 -0.83501863330E+02  0.36475394095E+02 -0.13604639482E+03  0.20600154634E+03  0.12500000000E+03 0.  0.
</event>
<event>
 5    0  0.5481966E-005  0.2862745E+03  0.7546771E-02  0.1092310E+00
         21   -1    0    0  502  501  0.00000000000E+00  0.00000000000E+00  0.35906419257E+03  0.35906419257E+03  0.00000000000E+00 0.  1.
         21   -1    0    0  501  502 -0.00000000000E+00 -0.00000000000E+00 -0.22824083299E+03  0.22824083299E+03  0.00000000000E+00 0.  1.
         25    1    1    2    0    0  0.11222781544E+03  0.37785904062E+02 -0.21510774022E+02  0.17352397674E+03  0.12500000000E+03 0.  0.
         25    1    1    2    0    0 -0.15225959059E+02 -0.14534440628E+03  0.60775855481E+02  0.20168175643E+03  0.12500000000E+03 0.  0.
         25    1    1    2    0    0 -0.97001856381E+02  0.10755850222E+03  0.91558278125E+02  0.21209929239E+03  0.12500000000E+03 0.  0.
</event>
<event>
 5    0  0.5481966E-005  0.2082058E+03  0.7546771E-02  0.1142995E+00
         21   -1    0    0  502  501  0.00000000000E+00  0.00000000000E+00  0.12701406883E+03  0.12701406883E+03  0.00000000000E+00 0. -1.
         21   -1    0    0  501  502 -0.00000000000E+00 -0.00000000000E+00 -0.34129793904E+03  0.34129793904E+03  0.00000000000E+00 0. -1.
         25    1    1    2    0    0 -0.10094834104E+02 -0.10709623288E+02 -0.89040247169E+02  0.15417447040E+03  0.12500000000E+03 0.  0.
         25    1    1    2    0    0  0.61324552768E+02 -0.33082710396E+02 -0.40360215049E+02  0.14869133619E+03  0.12500000000E+03 0.  0.
         25    1    1    2    0    0 -0.51229718664E+02  0.43792333684E+02 -0.84883407994E+02  0.16544620128E+03  0.12500000000E+03 0.  0.
</event>
<event>
 5    0  0.5481966E-005  0.4061020E+03  0.7546771E-02  0.1041687E+00
         21   -1    0    0  502  501  0.00000000000E+00  0.00000000000E+00  0.14258638339E+03  0.14258638339E+03  0.00000000000E+00 0.  1.
         21   -1    0    0  501  502 -0.00000000000E+00 -0.00000000000E+00 -0.11566241803E+04  0.11566241803E+04  0.00000000000E+00 0.  1.
         25    1    1    2    0    0 -0.13078416928E+03  0.36232237588E+02 -0.44263896545E+03  0.47955346700E+03  0.12500000000E+03 0.  0.
         25    1    1    2    0    0 -0.12519196820E+02  0.97836072289E+02 -0.56488368385E+03  0.58689624603E+03  0.12500000000E+03 0.  0.
         25    1    1    2    0    0  0.14330336610E+03 -0.13406830988E+03 -0.65151476139E+01  0.23276085065E+03  0.12500000000E+03 0.  0.
</event>
<event>
 5    0  0.5481966E-005  0.2606717E+03  0.7546771E-02  0.1106740E+00
         21   -1    0    0  502  501  0.00000000000E+00  0.00000000000E+00  0.14346635610E+03  0.14346635610E+03  0.00000000000E+00 0.  1.
         21   -1    0    0  501  502 -0.00000000000E+00 -0.00000000000E+00 -0.47362842539E+03  0.47362842539E+03  0.00000000000E+00 0.  1.
         25    1    1    2    0    0 -0.71280404129E+02  0.21583456563E+02 -0.11136867959E+03  0.18323406999E+03  0.12500000000E+03 0.  0.
         25    1    1    2    0    0 -0.85204484201E+02  0.76930541090E+00 -0.23242694499E+02  0.15305430019E+03  0.12500000000E+03 0.  0.
         25    1    1    2    0    0  0.15648488833E+03 -0.22352761974E+02 -0.19555069520E+03  0.28080641132E+03  0.12500000000E+03 0.  0.
</event>
<event>
 5    0  0.5481966E-005  0.4123334E+03  0.7546771E-02  0.1039591E+00
         21   -1    0    0  502  501  0.00000000000E+00  0.00000000000E+00  0.87697119934E+02  0.87697119934E+02  0.00000000000E+00 0.  1.
         21   -1    0    0  501  502 -0.00000000000E+00 -0.00000000000E+00 -0.19387047988E+04  0.19387047988E+04  0.00000000000E+00 0.  1.
         25    1    1    2    0    0 -0.16607495525E+03 -0.15618769211E+03 -0.26298566222E+03  0.36981339140E+03  0.12500000000E+03 0.  0.
         25    1    1    2    0    0  0.14486666749E+03  0.15520097325E+03 -0.14433229290E+04  0.14641993617E+04  0.12500000000E+03 0.  0.
         25    1    1    2    0    0  0.21208287752E+02  0.98671886343E+00 -0.14469908764E+03  0.19238916562E+03  0.12500000000E+03 0.  0.
</event>
<event>
 5    0  0.5481966E-005  0.3508132E+03  0.7546771E-02  0.1062282E+00
         21   -1    0    0  502  501  0.00000000000E+00  0.00000000000E+00  0.12637548280E+04  0.12637548280E+04  0.00000000000E+00 0.  1.
         21   -1    0    0  501  502 -0.00000000000E+00 -0.00000000000E+00 -0.97384323164E+02  0.97384323164E+02  0.00000000000E+00 0.  1.
         25    1    1    2    0    0 -0.15554064257E+02 -0.77435864010E+02  0.19123821486E+03  0.24173393798E+03  0.12500000000E+03 0.  0.
         25    1    1    2    0    0  0.22220720528E+03 -0.16239475003E+02  0.68164717813E+03  0.72794755174E+03  0.12500000000E+03 0.  0.
         25    1    1    2    0    0 -0.20665314103E+03  0.93675339013E+02  0.29348511189E+03  0.39145766149E+03  0.12500000000E+03 0.  0.
</event>
<event>
 5    0  0.5481966E-005  0.3383466E+03  0.7546771E-02  0.1067502E+00
         21   -1    0    0  502  501  0.00000000000E+00  0.00000000000E+00  0.26524288683E+03  0.26524288683E+03  0.00000000000E+00 0.  1.
         21   -1    0    0  501  502 -0.00000000000E+00 -0.00000000000E+00 -0.43159845708E+03  0.43159845708E+03  0.00000000000E+00 0.  1.
         25    1    1    2    0    0 -0.83107212354E+02 -0.12121046172E+03 -0.64093496239E+02  0.20330214223E+03  0.12500000000E+03 0.  0.
         25    1    1    2    0    0 -0.13517527981E+03 -0.92925301781E+01  0.18965004607E+02  0.18531966649E+03  0.12500000000E+03 0.  0.
         25    1    1    2    0    0  0.21828249216E+03  0.13050299190E+03 -0.12122707862E+03  0.30821953519E+03  0.12500000000E+03 0.  0.
</event>
<event>
 5    0  0.5481966E-005  0.2307924E+03  0.7546771E-02  0.1126083E+00
         21   -1    0    0  502  501  0.00000000000E+00  0.00000000000E+00  0.96495471441E+02  0.96495471441E+02  0.00000000000E+00 0. -1.
         21   -1    0    0  501  502 -0.00000000000E+00 -0.00000000000E+00 -0.55199594446E+03  0.55199594446E+03  0.00000000000E+00 0. -1.
         25    1    1    2    0    0  0.24719718187E+02 -0.86256302097E+02 -0.19560266453E+03  0.24887068227E+03  0.12500000000E+03 0.  0.
         25    1    1    2    0    0 -0.28577920298E+02  0.21215207801E+02 -0.21581205594E+03  0.25192583444E+03  0.12500000000E+03 0.  0.
         25    1    1    2    0    0  0.38582021110E+01  0.65041094297E+02 -0.44085752549E+02  0.14769489920E+03  0.12500000000E+03 0.  0.
</event>
<event>
 5    0  0.5481966E-005  0.4246032E+03  0.7546771E-02  0.1035578E+00
         21   -1    0    0  502  501  0.00000000000E+00  0.00000000000E+00  0.81700553861E+03  0.81700553861E+03  0.00000000000E+00 0.  1.
         21   -1    0    0  501  502 -0.00000000000E+00 -0.00000000000E+00 -0.22066905782E+03  0.22066905782E+03  0.00000000000E+00 0.  1.
         25    1    1    2    0    0 -0.62022601103E+02  0.13770125481E+03  0.35403475262E+03  0.40469006003E+03  0.12500000000E+03 0.  0.
         25    1    1    2    0    0 -0.21316672319E+03 -0.56364564019E+02  0.18737453375E+03  0.31520030433E+03  0.12500000000E+03 0.  0.
         25    1    1    2    0    0  0.27518932429E+03 -0.81336690789E+02  0.54927194418E+02  0.31778423208E+03  0.12500000000E+03 0.  0.
</event>
<event>
 5    0  0.5481966E-005  0.3873907E+03  0.7546771E-02  0.1048235E+00
         21   -1    0    0  502  501  0.00000000000E+00  0.00000000000E+00  0.13159779826E+03  0.13159779826E+03  0.00000000000E+00 0. -1.
         21   -1    0    0  501  502 -0.00000000000E+00 -0.00000000000E+00 -0.11403801511E+04  0.11403801511E+04  0.00000000000E+00 0. -1.
         25    1    1    2    0    0 -0.63933030198E+02 -0.87452853935E+01 -0.20294393852E+03  0.24693147744E+03  0.12500000000E+03 0.  0.
         25    1    1    2    0    0  0.27335239204E+03  0.60127271361E+02 -0.67987459316E+03  0.74578232844E+03  0.12500000000E+03 0.  0.
         25    1    1    2    0    0 -0.20941936184E+03 -0.51381985968E+02 -0.12596382117E+03  0.27926414349E+03  0.12500000000E+03 0.  0.
</event>
<event>
 5    0  0.5481966E-005  0.5962670E+03  0.7546771E-02  0.9913181E-01
         21   -1    0    0  502  501  0.00000000000E+00  0.00000000000E+00  0.32432296774E+03  0.32432296774E+03  0.00000000000E+00 0.  1.
         21   -1    0    0  501  502 -0.00000000000E+00 -0.00000000000E+00 -0.10962356199E+04  0.10962356199E+04  0.00000000000E+00 0.  1.
         25    1    1    2    0    0  0.47000681854E+01  0.18343845316E+03 -0.60837151706E+03  0.64762076828E+03  0.12500000000E+03 0.  0.
         25    1    1    2    0    0  0.27628444321E+03 -0.27046509747E+03  0.15430486695E+02  0.40662951495E+03  0.12500000000E+03 0.  0.
         25    1    1    2    0    0 -0.28098451139E+03  0.87026644307E+02 -0.17897162176E+03  0.36630830438E+03  0.12500000000E+03 0.  0.
</event>
<event>
 5    0  0.5481966E-005  0.3863928E+03  0.7546771E-02  0.1048596E+00
         21   -1    0    0  502  501  0.00000000000E+00  0.00000000000E+00  0.92670419077E+03  0.92670419077E+03  0.00000000000E+00 0.  1.
         21   -1    0    0  501  502 -0.00000000000E+00 -0.00000000000E+00 -0.16110793442E+03  0.16110793442E+03  0.00000000000E+00 0.  1.
         25    1    1    2    0    0 -0.52447499586E+02 -0.60926987220E+02 -0.42113019587E+02  0.15447117661E+03  0.12500000000E+03 0.  0.
         25    1    1    2    0    0  0.78009783865E+02  0.43952045577E+02  0.78832251784E+03  0.80317787621E+03  0.12500000000E+03 0.  0.
         25    1    1    2    0    0 -0.25562284279E+02  0.16974941643E+02  0.19386758097E+02  0.13016307238E+03  0.12500000000E+03 0.  0.
</event>
<event>
 5    0  0.5481966E-005  0.3515411E+03  0.7546771E-02  0.1061984E+00
         21   -1    0    0  502  501  0.00000000000E+00  0.00000000000E+00  0.28679190873E+04  0.28679190873E+04  0.00000000000E+00 0. -1.
         21   -1    0    0  501  502 -0.00000000000E+00 -0.00000000000E+00 -0.43090873377E+02  0.43090873377E+02  0.00000000000E+00 0. -1.
         25    1    1    2    0    0 -0.75822378527E+02 -0.20980335403E+03  0.51000513269E+03  0.57052319481E+03  0.12500000000E+03 0.  0.
         25    1    1    2    0    0  0.20844256431E+02  0.57786361570E+02  0.10650015045E+04  0.10740702729E+04  0.12500000000E+03 0.  0.
         25    1    1    2    0    0  0.54978122096E+02  0.15201699246E+03  0.12498215767E+04  0.12664164929E+04  0.12500000000E+03 0.  0.
</event>
<event>
 5    0  0.5481966E-005  0.2775796E+03  0.7546771E-02  0.1097018E+00
         21   -1    0    0  502  501  0.00000000000E+00  0.00000000000E+00  0.21559038236E+02  0.21559038236E+02  0.00000000000E+00 0.  1.
         21   -1    0    0  501  502 -0.00000000000E+00 -0.00000000000E+00 -0.35739267519E+04  0.35739267519E+04  0.00000000000E+00 0.  1.
         25    1    1    2    0    0  0.16384123348E+03 -0.58344981057E+02 -0.15043919189E+04  0.15195618225E+04  0.12500000000E+03 0.  0.
         25    1    1    2    0    0 -0.11018717783E+03 -0.32289913809E+02 -0.12416144703E+04  0.12531621386E+04  0.12500000000E+03 0.  0.
         25    1    1    2    0    0 -0.53654055649E+02  0.90634894866E+02 -0.80636132446E+03  0.82276182911E+03  0.12500000000E+03 0.  0.
</event>
<event>
 5    0  0.5481966E-005  0.3043312E+03  0.7546771E-02  0.1083095E+00
         21   -1    0    0  502  501  0.00000000000E+00  0.00000000000E+00  0.27743489616E+03  0.27743489616E+03  0.00000000000E+00 0. -1.
         21   -1    0    0  501  502 -0.00000000000E+00 -0.00000000000E+00 -0.33383508819E+03  0.33383508819E+03  0.00000000000E+00 0. -1.
         25    1    1    2    0    0  0.49044582082E+02  0.10842771499E+03 -0.16849239599E+03  0.24119831657E+03  0.12500000000E+03 0.  0.
         25    1    1    2    0    0 -0.11841542104E+03 -0.37851147713E+02  0.11522350883E+03  0.21060953993E+03  0.12500000000E+03 0.  0.
         25    1    1    2    0    0  0.69370838959E+02 -0.70576567281E+02 -0.31313048751E+01  0.15946212785E+03  0.12500000000E+03 0.  0.
</event>
<event>
 5    0  0.5481966E-005  0.2632600E+03  0.7546771E-02  0.1105200E+00
         21   -1    0    0  502  501  0.00000000000E+00  0.00000000000E+00  0.54452457706E+02  0.54452457706E+02  0.00000000000E+00 0. -1.
         21   -1    0    0  501  502 -0.00000000000E+00 -0.00000000000E+00 -0.12727771453E+04  0.12727771453E+04  0.00000000000E+00 0. -1.
         25    1    1    2    0    0  0.61583427360E+01  0.13069567476E+03 -0.24967273485E+03  0.30835168090E+03  0.12500000000E+03 0.  0.
         25    1    1    2    0    0  0.46625812217E+02 -0.10989242527E+03 -0.44102093866E+03  0.47368215064E+03  0.12500000000E+03 0.  0.
         25    1    1    2    0    0 -0.52784154953E+02 -0.20803249484E+02 -0.52763101405E+03  0.54519577143E+03  0.12500000000E+03 0.  0.
</event>
<event>
 5    0  0.5481966E-005  0.3408209E+03  0.7546771E-02  0.1066447E+00
         21   -1    0    0  502  501  0.00000000000E+00  0.00000000000E+00  0.28583413455E+03  0.28583413455E+03  0.00000000000E+00 0.  1.
         21   -1    0    0  501  502 -0.00000000000E+00 -0.00000000000E+00 -0.40638565444E+03  0.40638565444E+03  0.00000000000E+00 0.  1.
         25    1    1    2    0    0 -0.42458607602E+02  0.46064045020E+02  0.74741311102E+02  0.15854303261E+03  0.12500000000E+03 0.  0.
         25    1    1    2    0    0  0.11854844217E+02 -0.22271245396E+03 -0.25538534960E+02  0.25694083219E+03  0.12500000000E+03 0.  0.
         25    1    1    2    0    0  0.30603763385E+02  0.17664840894E+03 -0.16975429603E+03  0.27673592419E+03  0.12500000000E+03 0.  0.
</event>
<event>
 5    0  0.5481966E-005  0.2881276E+03  0.7546771E-02  0.1091331E+00
         21   -1    0    0  502  501  0.00000000000E+00  0.00000000000E+00  0.35865017481E+03  0.35865017481E+03  0.00000000000E+00 0. -1.
         21   -1    0    0  501  502 -0.00000000000E+00 -0.00000000000E+00 -0.23147218107E+03  0.23147218107E+03  0.00000000000E+00 0. -1.
         25    1    1    2    0    0  0.12037538789E+03  0.98957788804E+02 -0.86252574537E+01  0.19995567769E+03  0.12500000000E+03 0.  0.
         25    1    1    2    0    0 -0.40800022416E+02 -0.15283127432E+03  0.11223394251E+03  0.23074552669E+03  0.12500000000E+03 0.  0.
         25    1    1    2    0    0 -0.79575365474E+02  0.53873485513E+02  0.23569308687E+02  0.15942115149E+03  0.12500000000E+03 0.  0.
</event>
<event>
 5    0  0.5481966E-005  0.5310465E+03  0.7546771E-02  0.1005979E+00
         21   -1    0    0  502  501  0.00000000000E+00  0.00000000000E+00  0.40764777000E+03  0.40764777000E+03  0.00000000000E+00 0. -1.
         21   -1    0    0  501  502 -0.00000000000E+00 -0.00000000000E+00 -0.69179903567E+03  0.69179903567E+03  0.00000000000E+00 0. -1.
         25    1    1    2    0    0 -0.20111123981E+03  0.62403803204E+02 -0.21942458655E+03  0.32880406721E+03  0.12500000000E+03 0.  0.
         25    1    1    2    0    0  0.40409685693E+03  0.14377350028E+03 -0.85174935070E+02  0.45480199947E+03  0.12500000000E+03 0.  0.
         25    1    1    2    0    0 -0.20298561712E+03 -0.20617730349E+03  0.20448255949E+02  0.31584073898E+03  0.12500000000E+03 0.  0.
</event>
<event>
 5    0  0.5563176E-005  0.2467766E+03  0.7546771E-02  0.1115359E+00
         21   -1    0    0  502  501  0.00000000000E+00  0.00000000000E+00  0.24545868009E+03  0.24545868009E+03  0.00000000000E+00 0.  1.
         21   -1    0    0  501  502 -0.00000000000E+00 -0.00000000000E+00 -0.24810165150E+03  0.24810165150E+03  0.00000000000E+00 0.  1.
         25    1    1    2    0    0 -0.33396950069E+02  0.48083915914E+02  0.67157473109E+00  0.13803213487E+03  0.12500000000E+03 0.  0.
         25    1    1    2    0    0  0.73078857923E+02 -0.11169486543E+03 -0.69258028853E+02  0.19554523006E+03  0.12500000000E+03 0.  0.
         25    1    1    2    0    0 -0.39681907854E+02  0.63610949520E+02  0.65943482708E+02  0.15998296666E+03  0.12500000000E+03 0.  0.
</event>
<event>
 5    0  0.5481966E-005  0.2748965E+03  0.7546771E-02  0.1098509E+00
         21   -1    0    0  502  501  0.00000000000E+00  0.00000000000E+00  0.62233853422E+02  0.62233853422E+02  0.00000000000E+00 0. -1.
         21   -1    0    0  501  502 -0.00000000000E+00 -0.00000000000E+00 -0.12142603802E+04  0.12142603802E+04  0.00000000000E+00 0. -1.
         25    1    1    2    0    0  0.48632300217E+02  0.95910115937E+02 -0.82108129057E+03  0.83747437972E+03  0.12500000000E+03 0.  0.
         25    1    1    2    0    0 -0.30234182707E+02 -0.51713635515E+02 -0.95967368952E+02  0.16859164216E+03  0.12500000000E+03 0.  0.
         25    1    1    2    0    0 -0.18398117510E+02 -0.44196480422E+02 -0.23497786729E+03  0.27042821178E+03  0.12500000000E+03 0.  0.
</event>
<event>
 5    0  0.5481966E-005  0.2628183E+03  0.7546771E-02  0.1105462E+00
         21   -1    0    0  502  501  0.00000000000E+00  0.00000000000E+00  0.40381145363E+03  0.40381145363E+03  0.00000000000E+00 0.  1.
         21   -1    0    0  501  502 -0.00000000000E+00 -0.00000000000E+00 -0.17105368879E+03  0.17105368879E+03  0.00000000000E+00 0.  1.
         25    1    1    2    0    0 -0.62028111244E+02 -0.87262422621E+02  0.16843505163E+03  0.23549433879E+03  0.12500000000E+03 0.  0.
         25    1    1    2    0    0  0.16128092331E+02 -0.20543995469E+02  0.10260734996E+03  0.16381525991E+03  0.12500000000E+03 0.  0.
         25    1    1    2    0    0  0.45900018914E+02  0.10780641809E+03 -0.38284636756E+02  0.17555554372E+03  0.12500000000E+03 0.  0.
</event>
<event>
 5    0  0.5481966E-005  0.3446307E+03  0.7546771E-02  0.1064841E+00
         21   -1    0    0  502  501  0.00000000000E+00  0.00000000000E+00  0.48608635057E+02  0.48608635057E+02  0.00000000000E+00 0.  1.
         21   -1    0    0  501  502 -0.00000000000E+00 -0.00000000000E+00 -0.24433989910E+04  0.24433989910E+04  0.00000000000E+00 0.  1.
         25    1    1    2    0    0  0.20154105724E+03 -0.87689646979E+02 -0.62884561401E+03  0.67777583182E+03  0.12500000000E+03 0.  0.
         25    1    1    2    0    0  0.35591491604E+02 -0.17493964045E+01 -0.45665804036E+03  0.47479614624E+03  0.12500000000E+03 0.  0.
         25    1    1    2    0    0 -0.23713254884E+03  0.89439043383E+02 -0.13092867016E+04  0.13394356480E+04  0.12500000000E+03 0.  0.
</event>
<event>
 5    0  0.5481966E-005  0.4678607E+03  0.7546771E-02  0.1022526E+00
         21   -1    0    0  502  501  0.00000000000E+00  0.00000000000E+00  0.34314404694E+03  0.34314404694E+03  0.00000000000E+00 0.  1.
         21   -1    0    0  501  502 -0.00000000000E+00 -0.00000000000E+00 -0.63790600509E+03  0.63790600509E+03  0.00000000000E+00 0.  1.
         25    1    1    2    0    0  0.14941067179E+03 -0.88024540976E+02  0.12841216306E+03  0.24937231659E+03  0.12500000000E+03 0.  0.
         25    1    1    2    0    0 -0.18577116427E+03 -0.15930519263E+03 -0.34575310013E+03  0.44165515521E+03  0.12500000000E+03 0.  0.
         25    1    1    2    0    0  0.36360492476E+02  0.24732973360E+03 -0.77421021085E+02  0.29002258023E+03  0.12500000000E+03 0.  0.
</event>
<event>
 5    0  0.5481966E-005  0.3229907E+03  0.7546771E-02  0.1074281E+00
         21   -1    0    0  502  501  0.00000000000E+00  0.00000000000E+00  0.12823843672E+03  0.12823843672E+03  0.00000000000E+00 0.  1.
         21   -1    0    0  501  502 -0.00000000000E+00 -0.00000000000E+00 -0.81350819103E+03  0.81350819103E+03  0.00000000000E+00 0.  1.
         25    1    1    2    0    0  0.14124574075E+03 -0.66006108159E+02 -0.13312586710E+03  0.24011385234E+03  0.12500000000E+03 0.  0.
         25    1    1    2    0    0 -0.91271389940E+02 -0.11880152043E+03 -0.18352593891E+03  0.26786384253E+03  0.12500000000E+03 0.  0.
         25    1    1    2    0    0 -0.49974350813E+02  0.18480762859E+03 -0.36861794829E+03  0.43376893288E+03  0.12500000000E+03 0.  0.
</event>
<event>
 5    0  0.5481966E-005  0.4515710E+03  0.7546771E-02  0.1027255E+00
         21   -1    0    0  502  501  0.00000000000E+00  0.00000000000E+00  0.33636606069E+03  0.33636606069E+03  0.00000000000E+00 0.  1.
         21   -1    0    0  501  502 -0.00000000000E+00 -0.00000000000E+00 -0.60623351457E+03  0.60623351457E+03  0.00000000000E+00 0.  1.
         25    1    1    2    0    0  0.42182449438E+02  0.21576578865E+03 -0.17328615785E+03  0.30657352641E+03  0.12500000000E+03 0.  0.
         25    1    1    2    0    0 -0.18567965891E+03 -0.10122083545E+03 -0.26194255162E+03  0.35911209059E+03  0.12500000000E+03 0.  0.
         25    1    1    2    0    0  0.14349720947E+03 -0.11454495320E+03  0.16536125559E+03  0.27691395826E+03  0.12500000000E+03 0.  0.
</event>
<event>
 5    0  0.5481966E-005  0.2943048E+03  0.7546771E-02  0.1088123E+00
         21   -1    0    0  502  501  0.00000000000E+00  0.00000000000E+00  0.18134508555E+03  0.18134508555E+03  0.00000000000E+00 0. -1.
         21   -1    0    0  501  502 -0.00000000000E+00 -0.00000000000E+00 -0.47762699988E+03  0.47762699988E+03  0.00000000000E+00 0. -1.
         25    1    1    2    0    0  0.12825921311E+03  0.35666344101E+02 -0.16998885816E+03  0.24948692500E+03  0.12500000000E+03 0.  0.
         25    1    1    2    0    0 -0.69365245634E+01 -0.95843405161E+01  0.71615673105E+02  0.14454680761E+03  0.12500000000E+03 0.  0.
         25    1    1    2    0    0 -0.12132268855E+03 -0.26082003585E+02 -0.19790872928E+03  0.26493835282E+03  0.12500000000E+03 0.  0.
</event>
<event>
 5    0  0.5481966E-005  0.2974170E+03  0.7546771E-02  0.1086539E+00
         21   -1    0    0  502  501  0.00000000000E+00  0.00000000000E+00  0.75234201786E+03  0.75234201786E+03  0.00000000000E+00 0.  1.
         21   -1    0    0  501  502 -0.00000000000E+00 -0.00000000000E+00 -0.11757532722E+03  0.11757532722E+03  0.00000000000E+00 0.  1.
         25    1    1    2    0    0 -0.88417384408E+02 -0.17997469605E+03  0.16032109129E+03  0.28554575360E+03  0.12500000000E+03 0.  0.
         25    1    1    2    0    0  0.99658840189E+02  0.85983787627E+02  0.21673231359E+03  0.28270654736E+03  0.12500000000E+03 0.  0.
         25    1    1    2    0    0 -0.11241455781E+02  0.93990908421E+02  0.25771328575E+03  0.30166504413E+03  0.12500000000E+03 0.  0.
</event>
<event>
 5    0  0.5481966E-005  0.2800741E+03  0.7546771E-02  0.1095648E+00
         21   -1    0    0  502  501  0.00000000000E+00  0.00000000000E+00  0.11026008623E+04  0.11026008623E+04  0.00000000000E+00 0.  1.
         21   -1    0    0  501  502 -0.00000000000E+00 -0.00000000000E+00 -0.71142236631E+02  0.71142236631E+02  0.00000000000E+00 0.  1.
         25    1    1    2    0    0 -0.31861622805E+02  0.25676793303E+02  0.15814576576E+03  0.20569283884E+03  0.12500000000E+03 0.  0.
         25    1    1    2    0    0  0.10540796682E+03 -0.21443668312E+02  0.12803157336E+03  0.20877680464E+03  0.12500000000E+03 0.  0.
         25    1    1    2    0    0 -0.73546344015E+02 -0.42331249910E+01  0.74528128655E+03  0.75927345545E+03  0.12500000000E+03 0.  0.
</event>
<event>
 5    0  0.5481966E-005  0.2958540E+03  0.7546771E-02  0.1087332E+00
         21   -1    0    0  502  501  0.00000000000E+00  0.00000000000E+00  0.60759516684E+03  0.60759516684E+03  0.00000000000E+00 0. -1.
         21   -1    0    0  501  502 -0.00000000000E+00 -0.00000000000E+00 -0.14405906508E+03  0.14405906508E+03  0.00000000000E+00 0. -1.
         25    1    1    2    0    0  0.98947868312E+02 -0.39551209390E+02  0.33795896512E+03  0.37576088262E+03  0.12500000000E+03 0.  0.
         25    1    1    2    0    0 -0.41887811684E+02 -0.80394967821E+02 -0.66117197088E-01  0.15441160575E+03  0.12500000000E+03 0.  0.
         25    1    1    2    0    0 -0.57060056629E+02  0.11994617721E+03  0.12564325385E+03  0.22148174355E+03  0.12500000000E+03 0.  0.
</event>
<event>
 5    0  0.5481966E-005  0.3182992E+03  0.7546771E-02  0.1076435E+00
         21   -1    0    0  502  501  0.00000000000E+00  0.00000000000E+00  0.86177203772E+03  0.86177203772E+03  0.00000000000E+00 0.  1.
         21   -1    0    0  501  502 -0.00000000000E+00 -0.00000000000E+00 -0.11756519305E+03  0.11756519305E+03  0.00000000000E+00 0.  1.
         25    1    1    2    0    0  0.14455571936E+02  0.20415182361E+03  0.36414820513E+03  0.43602275851E+03  0.12500000000E+03 0.  0.
         25    1    1    2    0    0 -0.89260365302E+02 -0.15180987361E+03  0.13896584089E+03  0.25680762348E+03  0.12500000000E+03 0.  0.
         25    1    1    2    0    0  0.74804793366E+02 -0.52341949992E+02  0.24109279865E+03  0.28650684878E+03  0.12500000000E+03 0.  0.
</event>
<event>
 5    0  0.5481966E-005  0.2940869E+03  0.7546771E-02  0.1088234E+00
         21   -1    0    0  502  501  0.00000000000E+00  0.00000000000E+00  0.86610946542E+03  0.86610946542E+03  0.00000000000E+00 0.  1.
         21   -1    0    0  501  502 -0.00000000000E+00 -0.00000000000E+00 -0.99857030633E+02  0.99857030633E+02  0.00000000000E+00 0.  1.
         25    1    1    2    0    0  0.34908219933E+02  0.17156494606E+03  0.45346945212E+03  0.50190901421E+03  0.12500000000E+03 0.  0.
         25    1    1    2    0    0 -0.60296796080E+02 -0.15906236394E+02  0.10465061372E+03  0.17454358460E+03  0.12500000000E+03 0.  0.
         25    1    1    2    0    0  0.25388576148E+02 -0.15565870967E+03  0.20813236894E+03  0.28951389724E+03  0.12500000000E+03 0.  0.
</event>
<event>
 5    0  0.6444829E-005  0.5102133E+03  0.7546771E-02  0.1011147E+00
         21   -1    0    0  502  501  0.00000000000E+00  0.00000000000E+00  0.70574326829E+03  0.70574326829E+03  0.00000000000E+00 0.  1.
         21   -1    0    0  501  502 -0.00000000000E+00 -0.00000000000E+00 -0.36885590073E+03  0.36885590073E+03  0.00000000000E+00 0.  1.
         25    1    1    2    0    0  0.43390070905E+02  0.13772216822E+03 -0.22857908121E+03  0.29786488588E+03  0.12500000000E+03 0.  0.
         25    1    1    2    0    0 -0.88245999419E+02 -0.26745359386E+03  0.20153791105E+03  0.36818651642E+03  0.12500000000E+03 0.  0.
         25    1    1    2    0    0  0.44855928514E+02  0.12973142564E+03  0.36392853772E+03  0.40854776671E+03  0.12500000000E+03 0.  0.
</event>
<event>
 5    0  0.5481966E-005  0.2622486E+03  0.7546771E-02  0.1105800E+00
         21   -1    0    0  502  501  0.00000000000E+00  0.00000000000E+00  0.45987892660E+03  0.45987892660E+03  0.00000000000E+00 0. -1.
         21   -1    0    0  501  502 -0.00000000000E+00 -0.00000000000E+00 -0.14954879730E+03  0.14954879730E+03  0.00000000000E+00 0. -1.
         25    1    1    2    0    0  0.55120864919E+02  0.12263309156E+03  0.87598716039E+02  0.20341022577E+03  0.12500000000E+03 0.  0.
         25    1    1    2    0    0 -0.77386981198E+02  0.15730163993E+02  0.68230372329E+02  0.16283908200E+03  0.12500000000E+03 0.  0.
         25    1    1    2    0    0  0.22266116279E+02 -0.13836325556E+03  0.15450104093E+03  0.24317841613E+03  0.12500000000E+03 0.  0.
</event>
<event>
 5    0  0.5481966E-005  0.2385318E+03  0.7546771E-02  0.1120775E+00
         21   -1    0    0  502  501  0.00000000000E+00  0.00000000000E+00  0.66450815689E+03  0.66450815689E+03  0.00000000000E+00 0. -1.
         21   -1    0    0  501  502 -0.00000000000E+00 -0.00000000000E+00 -0.85623361288E+02  0.85623361288E+02  0.00000000000E+00 0. -1.
         25    1    1    2    0    0 -0.51099231994E+02 -0.29791908974E+02  0.20301993380E+03  0.24564360947E+03  0.12500000000E+03 0.  0.
         25    1    1    2    0    0 -0.11083768793E+02 -0.39152580354E+02  0.30752343091E+03  0.33444197559E+03  0.12500000000E+03 0.  0.
         25    1    1    2    0    0  0.62183000787E+02  0.68944489328E+02  0.68341430896E+02  0.17004593313E+03  0.12500000000E+03 0.  0.
</event>
<event>
 5    0  0.6279493E-005  0.2772414E+03  0.7546771E-02  0.1097205E+00
         21   -1    0    0  502  501  0.00000000000E+00  0.00000000000E+00  0.23375754362E+03  0.23375754362E+03  0.00000000000E+00 0. -1.
         21   -1    0    0  501  502 -0.00000000000E+00 -0.00000000000E+00 -0.32881424347E+03  0.32881424347E+03  0.00000000000E+00 0. -1.
         25    1    1    2    0    0  0.84671656294E+02 -0.79896716787E+02  0.13605992859E+02  0.17135605555E+03  0.12500000000E+03 0.  0.
         25    1    1    2    0    0  0.20138120858E+02  0.14164597638E+03 -0.10431629290E+03  0.21673951070E+03  0.12500000000E+03 0.  0.
         25    1    1    2    0    0 -0.10480977715E+03 -0.61749259591E+02 -0.43463998115E+01  0.17447622084E+03  0.12500000000E+03 0.  0.
</event>
<event>
 5    0  0.5481966E-005  0.4085020E+03  0.7546771E-02  0.1040875E+00
         21   -1    0    0  502  501  0.00000000000E+00  0.00000000000E+00  0.37417063631E+03  0.37417063631E+03  0.00000000000E+00 0.  1.
         21   -1    0    0  501  502 -0.00000000000E+00 -0.00000000000E+00 -0.44598342155E+03  0.44598342155E+03  0.00000000000E+00 0.  1.
         25    1    1    2    0    0 -0.13725712492E+03  0.42673045372E+02  0.53473339080E+01  0.19056259109E+03  0.12500000000E+03 0.  0.
         25    1    1    2    0    0 -0.11111661959E+03  0.19376175560E+03  0.26776905006E+01  0.25597400475E+03  0.12500000000E+03 0.  0.
         25    1    1    2    0    0  0.24837374451E+03 -0.23643480098E+03 -0.79837809652E+02  0.37361746202E+03  0.12500000000E+03 0.  0.
</event>
<event>
 5    0  0.5481966E-005  0.3171062E+03  0.7546771E-02  0.1076989E+00
         21   -1    0    0  502  501  0.00000000000E+00  0.00000000000E+00  0.62131177161E+02  0.62131177161E+02  0.00000000000E+00 0. -1.
         21   -1    0    0  501  502 -0.00000000000E+00 -0.00000000000E+00 -0.16184523279E+04  0.16184523279E+04  0.00000000000E+00 0. -1.
         25    1    1    2    0    0  0.10460436896E+03  0.17230042767E+02 -0.71093517022E+03  0.72958396682E+03  0.12500000000E+03 0.  0.
         25    1    1    2    0    0 -0.21290942111E+03  0.39854165597E+02 -0.39153054453E+03  0.46458577616E+03  0.12500000000E+03 0.  0.
         25    1    1    2    0    0  0.10830505215E+03 -0.57084208363E+02 -0.45385543603E+03  0.48641376212E+03  0.12500000000E+03 0.  0.
</event>
<event>
 5    0  0.5481966E-005  0.2731588E+03  0.7546771E-02  0.1099485E+00
         21   -1    0    0  502  501  0.00000000000E+00  0.00000000000E+00  0.31370478290E+03  0.31370478290E+03  0.00000000000E+00 0. -1.
         21   -1    0    0  501  502 -0.00000000000E+00 -0.00000000000E+00 -0.23785341402E+03  0.23785341402E+03  0.00000000000E+00 0. -1.
         25    1    1    2    0    0 -0.37148809639E+02 -0.80887580433E+02  0.15823605305E+03  0.22042341802E+03  0.12500000000E+03 0.  0.
         25    1    1    2    0    0  0.30885716356E+02  0.13299482658E+03 -0.44979164493E+02  0.19049849504E+03  0.12500000000E+03 0.  0.
         25    1    1    2    0    0  0.62630932831E+01 -0.52107246149E+02 -0.37405519674E+02  0.14063628387E+03  0.12500000000E+03 0.  0.
</event>
<event>
 5    0  0.5481966E-005  0.2551865E+03  0.7546771E-02  0.1110070E+00
         21   -1    0    0  502  501  0.00000000000E+00  0.00000000000E+00  0.26053918265E+03  0.26053918265E+03  0.00000000000E+00 0. -1.
         21   -1    0    0  501  502 -0.00000000000E+00 -0.00000000000E+00 -0.24994374990E+03  0.24994374990E+03  0.00000000000E+00 0. -1.
         25    1    1    2    0    0 -0.98291000089E+02  0.63181247171E+02 -0.98430231524E+02  0.19739934440E+03  0.12500000000E+03 0.  0.
         25    1    1    2    0    0  0.41941919576E+02  0.17043747325E+02  0.33056899603E+02  0.13699406028E+03  0.12500000000E+03 0.  0.
         25    1    1    2    0    0  0.56349080514E+02 -0.80224994496E+02  0.75968764672E+02  0.17608952786E+03  0.12500000000E+03 0.  0.
</event>
<event>
 5    0  0.5481966E-005  0.3673562E+03  0.7546771E-02  0.1055708E+00
         21   -1    0    0  502  501  0.00000000000E+00  0.00000000000E+00  0.91605456922E+03  0.91605456922E+03  0.00000000000E+00 0. -1.
         21   -1    0    0  501  502 -0.00000000000E+00 -0.00000000000E+00 -0.14731719777E+03  0.14731719777E+03  0.00000000000E+00 0. -1.
         25    1    1    2    0    0 -0.98181947624E+02  0.12571526024E+02 -0.23317821457E+02  0.16114111488E+03  0.12500000000E+03 0.  0.
         25    1    1    2    0    0  0.10673403012E+03  0.10282216141E+03  0.17191299902E+03  0.25912087777E+03  0.12500000000E+03 0.  0.
         25    1    1    2    0    0 -0.85520825010E+01 -0.11539368744E+03  0.62014219389E+03  0.64310977434E+03  0.12500000000E+03 0.  0.
</event>
<event>
 5    0  0.5481966E-005  0.2776322E+03  0.7546771E-02  0.1096989E+00
         21   -1    0    0  502  501  0.00000000000E+00  0.00000000000E+00  0.50329723705E+03  0.50329723705E+03  0.00000000000E+00 0.  1.
         21   -1    0    0  501  502 -0.00000000000E+00 -0.00000000000E+00 -0.15314937949E+03  0.15314937949E+03  0.00000000000E+00 0.  1.
         25    1    1    2    0    0 -0.15236162316E+03  0.29307892083E+02  0.24440574636E+01  0.19925860124E+03  0.12500000000E+03 0.  0.
         25    1    1    2    0    0  0.78959758557E+02  0.98492654076E+00  0.15580639754E+03  0.21479349866E+03  0.12500000000E+03 0.  0.
         25    1    1    2    0    0  0.73401864601E+02 -0.30292818624E+02  0.19189740257E+03  0.24239451664E+03  0.12500000000E+03 0.  0.
</event>
<event>
 5    0  0.5481966E-005  0.3606659E+03  0.7546771E-02  0.1058321E+00
         21   -1    0    0  502  501  0.00000000000E+00  0.00000000000E+00  0.61454041728E+03  0.61454041728E+03  0.00000000000E+00 0.  1.
         21   -1    0    0  501  502 -0.00000000000E+00 -0.00000000000E+00 -0.21167019840E+03  0.21167019840E+03  0.00000000000E+00 0.  1.
         25    1    1    2    0    0 -0.93192664376E+02  0.12186645839E+03  0.14292645228E+03  0.24410915005E+03  0.12500000000E+03 0.  0.
         25    1    1    2    0    0 -0.13293175986E+03 -0.17915228944E+03  0.14011934526E+03  0.29159016874E+03  0.12500000000E+03 0.  0.
         25    1    1    2    0    0  0.22612442423E+03  0.57285831050E+02  0.11982442133E+03  0.29051129689E+03  0.12500000000E+03 0.  0.
</event>
<event>
 5    0  0.5481966E-005  0.4503671E+03  0.7546771E-02  0.1027613E+00
         21   -1    0    0  502  501  0.00000000000E+00  0.00000000000E+00  0.14460272585E+03  0.14460272585E+03  0.00000000000E+00 0. -1.
         21   -1    0    0  501  502 -0.00000000000E+00 -0.00000000000E+00 -0.14026742337E+04  0.14026742337E+04  0.00000000000E+00 0. -1.
         25    1    1    2    0    0 -0.38998209186E+03  0.85250242392E+02 -0.65432420024E+03  0.77660723331E+03  0.12500000000E+03 0.  0.
         25    1    1    2    0    0  0.25746005418E+03 -0.58438857213E+02 -0.32945076528E+03  0.44029942798E+03  0.12500000000E+03 0.  0.
         25    1    1    2    0    0  0.13252203768E+03 -0.26811385180E+02 -0.27429654237E+03  0.33037029830E+03  0.12500000000E+03 0.  0.
</event>
<event>
 5    0  0.5481966E-005  0.3030019E+03  0.7546771E-02  0.1083750E+00
         21   -1    0    0  502  501  0.00000000000E+00  0.00000000000E+00  0.10023517522E+03  0.10023517522E+03  0.00000000000E+00 0. -1.
         21   -1    0    0  501  502 -0.00000000000E+00 -0.00000000000E+00 -0.91594769454E+03  0.91594769454E+03  0.00000000000E+00 0. -1.
         25    1    1    2    0    0 -0.13122895469E+03  0.47746009099E+02 -0.50707267133E+03  0.54060004989E+03  0.12500000000E+03 0.  0.
         25    1    1    2    0    0  0.96663337941E+02 -0.86606372588E+02 -0.55558547284E+02  0.18856356183E+03  0.12500000000E+03 0.  0.
         25    1    1    2    0    0  0.34565616748E+02  0.38860363488E+02 -0.25308130072E+03  0.28701925804E+03  0.12500000000E+03 0.  0.
</event>
<event>
 5    0  0.5481966E-005  0.2775948E+03  0.7546771E-02  0.1097010E+00
         21   -1    0    0  502  501  0.00000000000E+00  0.00000000000E+00  0.72561302385E+02  0.72561302385E+02  0.00000000000E+00 0.  1.
         21   -1    0    0  501  502 -0.00000000000E+00 -0.00000000000E+00 -0.10619830857E+04  0.10619830857E+04  0.00000000000E+00 0.  1.
         25    1    1    2    0    0  0.74366693727E+01 -0.54830904093E+02 -0.27834715279E+03  0.31010299832E+03  0.12500000000E+03 0.  0.
         25    1    1    2    0    0  0.46769928720E+02 -0.99944398721E+01 -0.64669247261E+03  0.66039644850E+03  0.12500000000E+03 0.  0.
         25    1    1    2    0    0 -0.54206598092E+02  0.64825343966E+02 -0.64382157901E+02  0.16404494126E+03  0.12500000000E+03 0.  0.
</event>
<event>
 5    0  0.5481966E-005  0.3376085E+03  0.7546771E-02  0.1067819E+00
         21   -1    0    0  502  501  0.00000000000E+00  0.00000000000E+00  0.31810857110E+03  0.31810857110E+03  0.00000000000E+00 0. -1.
         21   -1    0    0  501  502 -0.00000000000E+00 -0.00000000000E+00 -0.35830375161E+03  0.35830375161E+03  0.00000000000E+00 0. -1.
         25    1    1    2    0    0 -0.58399249380E+02 -0.16486525397E+02 -0.10707397678E+03  0.17541982314E+03  0.12500000000E+03 0.  0.
         25    1    1    2    0    0  0.11308719128E+03 -0.12124781369E+03  0.18148893084E+03  0.27577704250E+03  0.12500000000E+03 0.  0.
         25    1    1    2    0    0 -0.54687941898E+02  0.13773433909E+03 -0.11461013457E+03  0.22521545706E+03  0.12500000000E+03 0.  0.
</event>
<event>
 5    0  0.5481966E-005  0.4318524E+03  0.7546771E-02  0.1033276E+00
         21   -1    0    0  502  501  0.00000000000E+00  0.00000000000E+00  0.19314410673E+03  0.19314410673E+03  0.00000000000E+00 0.  1.
         21   -1    0    0  501  502 -0.00000000000E+00 -0.00000000000E+00 -0.96558211053E+03  0.96558211053E+03  0.00000000000E+00 0.  1.
         25    1    1    2    0    0  0.90936729999E+02  0.75394218193E+02  0.96403491458E+02  0.19716087382E+03  0.12500000000E+03 0.  0.
         25    1    1    2    0    0 -0.18069333218E+03  0.13878757657E+02 -0.35422702968E+03  0.41706652798E+03  0.12500000000E+03 0.  0.
         25    1    1    2    0    0  0.89756602178E+02 -0.89272975850E+02 -0.51461446559E+03  0.54449881547E+03  0.12500000000E+03 0.  0.
</event>
<event>
 5    0  0.5481966E-005  0.5603194E+03  0.7546771E-02  0.9991332E-01
         21   -1    0    0  502  501  0.00000000000E+00  0.00000000000E+00  0.39857972458E+03  0.39857972458E+03  0.00000000000E+00 0. -1.
         21   -1    0    0  501  502 -0.00000000000E+00 -0.00000000000E+00 -0.78769137161E+03  0.78769137161E+03  0.00000000000E+00 0. -1.
         25    1    1    2    0    0  0.37601097814E+03 -0.19417203488E+02  0.45302520194E+02  0.39929763562E+03  0.12500000000E+03 0.  0.
         25    1    1    2    0    0 -0.22563604163E+03  0.13118352134E+03 -0.47683765445E+03  0.55778121898E+03  0.12500000000E+03 0.  0.
         25    1    1    2    0    0 -0.15037493651E+03 -0.11176631785E+03  0.42423487224E+02  0.22919224159E+03  0.12500000000E+03 0.  0.
</event>
<event>
 5    0  0.5481966E-005  0.2733899E+03  0.7546771E-02  0.1099355E+00
         21   -1    0    0  502  501  0.00000000000E+00  0.00000000000E+00  0.26690862699E+03  0.26690862699E+03  0.00000000000E+00 0.  1.
         21   -1    0    0  501  502 -0.00000000000E+00 -0.00000000000E+00 -0.28002847465E+03  0.28002847465E+03  0.00000000000E+00 0.  1.
         25    1    1    2    0    0 -0.55559851780E+02 -0.11202044687E+03  0.10047233642E+03  0.20335970110E+03  0.12500000000E+03 0.  0.
         25    1    1    2    0    0 -0.47901719159E+02  0.74102704809E+02 -0.25584714219E+02  0.15513014910E+03  0.12500000000E+03 0.  0.
         25    1    1    2    0    0  0.10346157094E+03  0.37917742058E+02 -0.88007469864E+02  0.18844725144E+03  0.12500000000E+03 0.  0.
</event>
<event>
 5    0  0.5481966E-005  0.2989626E+03  0.7546771E-02  0.1085760E+00
         21   -1    0    0  502  501  0.00000000000E+00  0.00000000000E+00  0.62515853297E+02  0.62515853297E+02  0.00000000000E+00 0. -1.
         21   -1    0    0  501  502 -0.00000000000E+00 -0.00000000000E+00 -0.14296950974E+04  0.14296950974E+04  0.00000000000E+00 0. -1.
         25    1    1    2    0    0  0.16977651591E+03  0.87766167582E+02 -0.33931552799E+03  0.40900732641E+03  0.12500000000E+03 0.  0.
         25    1    1    2    0    0 -0.59820520383E+02 -0.51810865204E+02 -0.67968394028E+03  0.69559910803E+03  0.12500000000E+03 0.  0.
         25    1    1    2    0    0 -0.10995599553E+03 -0.35955302378E+02 -0.34817977585E+03  0.38760451627E+03  0.12500000000E+03 0.  0.
</event>
<event>
 5    0  0.5481966E-005  0.5593756E+03  0.7546771E-02  0.9993469E-01
         21   -1    0    0  502  501  0.00000000000E+00  0.00000000000E+00  0.47443219852E+03  0.47443219852E+03  0.00000000000E+00 0. -1.
         21   -1    0    0  501  502 -0.00000000000E+00 -0.00000000000E+00 -0.65952738668E+03  0.65952738668E+03  0.00000000000E+00 0. -1.
         25    1    1    2    0    0  0.40959500017E+03  0.18706363790E+03 -0.25650861552E+03  0.53308774008E+03  0.12500000000E+03 0.  0.
         25    1    1    2    0    0 -0.13918387977E+03 -0.83303858150E+02 -0.11458600153E+03  0.23466281537E+03  0.12500000000E+03 0.  0.
         25    1    1    2    0    0 -0.27041112040E+03 -0.10375977975E+03  0.18599942889E+03  0.36620902976E+03  0.12500000000E+03 0.  0.
</event>
<event>
 5    0  0.5481966E-005  0.2671031E+03  0.7546771E-02  0.1102949E+00
         21   -1    0    0  502  501  0.00000000000E+00  0.00000000000E+00  0.29266757477E+03  0.29266757477E+03  0.00000000000E+00 0.  1.
         21   -1    0    0  501  502 -0.00000000000E+00 -0.00000000000E+00 -0.24377170309E+03  0.24377170309E+03  0.00000000000E+00 0.  1.
         25    1    1    2    0    0 -0.21784301358E+02  0.13266086554E+02 -0.13663457788E+03  0.18693462149E+03  0.12500000000E+03 0.  0.
         25    1    1    2    0    0  0.34737871432E+02 -0.77037939845E+02  0.12578259263E+03  0.19643783876E+03  0.12500000000E+03 0.  0.
         25    1    1    2    0    0 -0.12953570074E+02  0.63771853291E+02  0.59747856929E+02  0.15306681762E+03  0.12500000000E+03 0.  0.
</event>
<event>
 5    0  0.5481966E-005  0.2559709E+03  0.7546771E-02  0.1109588E+00
         21   -1    0    0  502  501  0.00000000000E+00  0.00000000000E+00  0.40383444032E+03  0.40383444032E+03  0.00000000000E+00 0.  1.
         21   -1    0    0  501  502 -0.00000000000E+00 -0.00000000000E+00 -0.16224737460E+03  0.16224737460E+03  0.00000000000E+00 0.  1.
         25    1    1    2    0    0  0.15417319837E+02 -0.29961633510E+02  0.25499382413E+03  0.28597594930E+03  0.12500000000E+03 0.  0.
         25    1    1    2    0    0 -0.37338958219E+02  0.56680525641E+02  0.25926923041E+02  0.14458245096E+03  0.12500000000E+03 0.  0.
         25    1    1    2    0    0  0.21921638382E+02 -0.26718892131E+02 -0.39333681448E+02  0.13552341466E+03  0.12500000000E+03 0.  0.
</event>
<event>
 5    0  0.5481966E-005  0.7232285E+03  0.7546771E-02  0.9678313E-01
         21   -1    0    0  502  501  0.00000000000E+00  0.00000000000E+00  0.20742067336E+04  0.20742067336E+04  0.00000000000E+00 0. -1.
         21   -1    0    0  501  502 -0.00000000000E+00 -0.00000000000E+00 -0.25217326151E+03  0.25217326151E+03  0.00000000000E+00 0. -1.
         25    1    1    2    0    0 -0.19449840731E+03 -0.33222421320E+03  0.47328323277E+03  0.62275563161E+03  0.12500000000E+03 0.  0.
         25    1    1    2    0    0  0.18673790781E+03  0.56509871451E+03  0.42282526431E+03  0.74068468831E+03  0.12500000000E+03 0.  0.
         25    1    1    2    0    0  0.77604994962E+01 -0.23287450131E+03  0.92592497503E+03  0.96293967521E+03  0.12500000000E+03 0.  0.
</event>
<event>
 5    0  0.5481966E-005  0.2468117E+03  0.7546771E-02  0.1115336E+00
         21   -1    0    0  502  501  0.00000000000E+00  0.00000000000E+00  0.29264773215E+03  0.29264773215E+03  0.00000000000E+00 0.  1.
         21   -1    0    0  501  502 -0.00000000000E+00 -0.00000000000E+00 -0.20815475244E+03  0.20815475244E+03  0.00000000000E+00 0.  1.
         25    1    1    2    0    0 -0.74846602985E+02  0.33005640929E+01 -0.81240808249E+02  0.16684716547E+03  0.12500000000E+03 0.  0.
         25    1    1    2    0    0  0.44760116393E+02 -0.58883298747E+02  0.11399035267E+03  0.18463345145E+03  0.12500000000E+03 0.  0.
         25    1    1    2    0    0  0.30086486592E+02  0.55582734654E+02  0.51743435290E+02  0.14932186766E+03  0.12500000000E+03 0.  0.
</event>
<event>
 5    0  0.5481966E-005  0.3984849E+03  0.7546771E-02  0.1044306E+00
         21   -1    0    0  502  501  0.00000000000E+00  0.00000000000E+00  0.91429241717E+03  0.91429241717E+03  0.00000000000E+00 0. -1.
         21   -1    0    0  501  502 -0.00000000000E+00 -0.00000000000E+00 -0.17367556237E+03  0.17367556237E+03  0.00000000000E+00 0. -1.
         25    1    1    2    0    0 -0.15959172714E+03 -0.13279163245E+03  0.45554416691E+03  0.51599285366E+03  0.12500000000E+03 0.  0.
         25    1    1    2    0    0  0.26025034210E+03  0.46332779167E+02  0.25343836713E+03  0.38695345059E+03  0.12500000000E+03 0.  0.
         25    1    1    2    0    0 -0.10065861495E+03  0.86458853280E+02  0.31634320758E+02  0.18502167528E+03  0.12500000000E+03 0.  0.
</event>
<event>
 5    0  0.5571530E-005  0.2629448E+03  0.7546771E-02  0.1105387E+00
         21   -1    0    0  502  501  0.00000000000E+00  0.00000000000E+00  0.43382489721E+03  0.43382489721E+03  0.00000000000E+00 0. -1.
         21   -1    0    0  501  502 -0.00000000000E+00 -0.00000000000E+00 -0.15937300920E+03  0.15937300920E+03  0.00000000000E+00 0. -1.
         25    1    1    2    0    0  0.18966803117E+02 -0.16066684416E+03  0.11102046730E+03  0.23264590818E+03  0.12500000000E+03 0.  0.
         25    1    1    2    0    0  0.50897474011E+02  0.83655949707E+02  0.81377784089E+02  0.17842705660E+03  0.12500000000E+03 0.  0.
         25    1    1    2    0    0 -0.69864277129E+02  0.77010894448E+02  0.82053636623E+02  0.18212494163E+03  0.12500000000E+03 0.  0.
</event>
<event>
 5    0  0.5481966E-005  0.2727506E+03  0.7546771E-02  0.1099716E+00
         21   -1    0    0  502  501  0.00000000000E+00  0.00000000000E+00  0.12760469553E+03  0.12760469553E+03  0.00000000000E+00 0.  1.
         21   -1    0    0  501  502 -0.00000000000E+00 -0.00000000000E+00 -0.58299499594E+03  0.58299499594E+03  0.00000000000E+00 0.  1.
         25    1    1    2    0    0  0.39148945910E+02  0.74554893959E+02 -0.55809944332E+02  0.16071970030E+03  0.12500000000E+03 0.  0.
         25    1    1    2    0    0 -0.95541855049E+02 -0.12261267984E+03 -0.33713102041E+03  0.39171984919E+03  0.12500000000E+03 0.  0.
         25    1    1    2    0    0  0.56392909139E+02  0.48057785882E+02 -0.62449335668E+02  0.15816014198E+03  0.12500000000E+03 0.  0.
</event>
<event>
 5    0  0.5481966E-005  0.3547850E+03  0.7546771E-02  0.1060668E+00
         21   -1    0    0  502  501  0.00000000000E+00  0.00000000000E+00  0.75940899936E+03  0.75940899936E+03  0.00000000000E+00 0.  1.
         21   -1    0    0  501  502 -0.00000000000E+00 -0.00000000000E+00 -0.16575043182E+03  0.16575043182E+03  0.00000000000E+00 0.  1.
         25    1    1    2    0    0 -0.15555358681E+02  0.14137115789E+03  0.20200063442E+03  0.27687005937E+03  0.12500000000E+03 0.  0.
         25    1    1    2    0    0 -0.16356752558E+03  0.88918659952E+01  0.30745657224E+03  0.37011882487E+03  0.12500000000E+03 0.  0.
         25    1    1    2    0    0  0.17912288426E+03 -0.15026302389E+03  0.84201360883E+02  0.27817054695E+03  0.12500000000E+03 0.  0.
</event>
<event>
 5    0  0.5481966E-005  0.3340377E+03  0.7546771E-02  0.1069364E+00
         21   -1    0    0  502  501  0.00000000000E+00  0.00000000000E+00  0.12622624940E+03  0.12622624940E+03  0.00000000000E+00 0. -1.
         21   -1    0    0  501  502 -0.00000000000E+00 -0.00000000000E+00 -0.88397763029E+03  0.88397763029E+03  0.00000000000E+00 0. -1.
         25    1    1    2    0    0 -0.45599321481E+02  0.25287344413E+02 -0.12578137776E+03  0.18483696302E+03  0.12500000000E+03 0.  0.
         25    1    1    2    0    0  0.17718733427E+03 -0.18733476833E+03 -0.31614564474E+03  0.42668810101E+03  0.12500000000E+03 0.  0.
         25    1    1    2    0    0 -0.13158801279E+03  0.16204742392E+03 -0.31582435839E+03  0.39867881567E+03  0.12500000000E+03 0.  0.
</event>
<event>
 5    0  0.5481966E-005  0.2617332E+03  0.7546771E-02  0.1106106E+00
         21   -1    0    0  502  501  0.00000000000E+00  0.00000000000E+00  0.32915468177E+03  0.32915468177E+03  0.00000000000E+00 0.  1.
         21   -1    0    0  501  502 -0.00000000000E+00 -0.00000000000E+00 -0.20812180445E+03  0.20812180445E+03  0.00000000000E+00 0.  1.
         25    1    1    2    0    0  0.58894890952E+01  0.15912764506E+03  0.48493830526E+02  0.20816566744E+03  0.12500000000E+03 0.  0.
         25    1    1    2    0    0 -0.11087140659E+02 -0.52561379357E+02 -0.24522589012E+02  0.13824608732E+03  0.12500000000E+03 0.  0.
         25    1    1    2    0    0  0.51976515640E+01 -0.10656626570E+03  0.97061635812E+02  0.19086473145E+03  0.12500000000E+03 0.  0.
</event>
<event>
 5    0  0.5481966E-005  0.2662449E+03  0.7546771E-02  0.1103448E+00
         21   -1    0    0  502  501  0.00000000000E+00  0.00000000000E+00  0.10039136034E+03  0.10039136034E+03  0.00000000000E+00 0. -1.
         21   -1    0    0  501  502 -0.00000000000E+00 -0.00000000000E+00 -0.70610023644E+03  0.70610023644E+03  0.00000000000E+00 0. -1.
         25    1    1    2    0    0 -0.90421890702E+02  0.40739087928E+00 -0.30239938752E+03  0.33948000510E+03  0.12500000000E+03 0.  0.
         25    1    1    2    0    0  0.12345545875E+03 -0.72724551563E+02 -0.23926458545E+03  0.30561847547E+03  0.12500000000E+03 0.  0.
         25    1    1    2    0    0 -0.33033568049E+02  0.72317160683E+02 -0.64044903128E+02  0.16139311622E+03  0.12500000000E+03 0.  0.
</event>
<event>
 5    0  0.5481966E-005  0.3672625E+03  0.7546771E-02  0.1055745E+00
         21   -1    0    0  502  501  0.00000000000E+00  0.00000000000E+00  0.87899219616E+02  0.87899219616E+02  0.00000000000E+00 0. -1.
         21   -1    0    0  501  502 -0.00000000000E+00 -0.00000000000E+00 -0.15345042195E+04  0.15345042195E+04  0.00000000000E+00 0. -1.
         25    1    1    2    0    0 -0.17128879453E+03 -0.12430813137E+03 -0.91490212227E+03  0.94734537313E+03  0.12500000000E+03 0.  0.
         25    1    1    2    0    0  0.20826433865E+03  0.72442647040E+02 -0.43894648235E+03  0.50687373795E+03  0.12500000000E+03 0.  0.
         25    1    1    2    0    0 -0.36975544115E+02  0.51865484332E+02 -0.92756395231E+02  0.16818432800E+03  0.12500000000E+03 0.  0.
</event>
<event>
 5    0  0.5481966E-005  0.2961373E+03  0.7546771E-02  0.1087188E+00
         21   -1    0    0  502  501  0.00000000000E+00  0.00000000000E+00  0.10367700935E+03  0.10367700935E+03  0.00000000000E+00 0. -1.
         21   -1    0    0  501  502 -0.00000000000E+00 -0.00000000000E+00 -0.84587003954E+03  0.84587003954E+03  0.00000000000E+00 0. -1.
         25    1    1    2    0    0 -0.89624524593E+02 -0.19288133011E+03 -0.39931568610E+03  0.46937594748E+03  0.12500000000E+03 0.  0.
         25    1    1    2    0    0  0.28586111935E+02  0.61342986004E+02 -0.17573433920E+03  0.22602585184E+03  0.12500000000E+03 0.  0.
         25    1    1    2    0    0  0.61038412658E+02  0.13153834410E+03 -0.16714300489E+03  0.25414524956E+03  0.12500000000E+03 0.  0.
</event>
<event>
 5    0  0.5481966E-005  0.2217508E+03  0.7546771E-02  0.1132584E+00
         21   -1    0    0  502  501  0.00000000000E+00  0.00000000000E+00  0.17116759053E+04  0.17116759053E+04  0.00000000000E+00 0.  1.
         21   -1    0    0  501  502 -0.00000000000E+00 -0.00000000000E+00 -0.28728226208E+02  0.28728226208E+02  0.00000000000E+00 0.  1.
         25    1    1    2    0    0 -0.50956891140E+02  0.69446056448E+02  0.57616956998E+03  0.59583196699E+03  0.12500000000E+03 0.  0.
         25    1    1    2    0    0  0.75899006096E+02 -0.99282825692E+01  0.66394831320E+03  0.67993499140E+03  0.12500000000E+03 0.  0.
         25    1    1    2    0    0 -0.24942114957E+02 -0.59517773879E+02  0.44282979592E+03  0.46463717314E+03  0.12500000000E+03 0.  0.
</event>
<event>
 5    0  0.5481966E-005  0.3763553E+03  0.7546771E-02  0.1052289E+00
         21   -1    0    0  502  501  0.00000000000E+00  0.00000000000E+00  0.12677154056E+04  0.12677154056E+04  0.00000000000E+00 0.  1.
         21   -1    0    0  501  502 -0.00000000000E+00 -0.00000000000E+00 -0.11173113977E+03  0.11173113977E+03  0.00000000000E+00 0.  1.
         25    1    1    2    0    0 -0.84437896994E+02 -0.46213441198E+02  0.42829494515E+03  0.45642852741E+03  0.12500000000E+03 0.  0.
         25    1    1    2    0    0  0.11006267815E+03  0.13961406260E+03  0.73326099586E+03  0.76478923086E+03  0.12500000000E+03 0.  0.
         25    1    1    2    0    0 -0.25624781156E+02 -0.93400621399E+02 -0.55716752235E+01  0.15822878705E+03  0.12500000000E+03 0.  0.
</event>
<event>
 5    0  0.5731752E-005  0.4252180E+03  0.7546771E-02  0.1035381E+00
         21   -1    0    0  502  501  0.00000000000E+00  0.00000000000E+00  0.55286037692E+03  0.55286037692E+03  0.00000000000E+00 0.  1.
         21   -1    0    0  501  502 -0.00000000000E+00 -0.00000000000E+00 -0.32704515770E+03  0.32704515770E+03  0.00000000000E+00 0.  1.
         25    1    1    2    0    0 -0.61604431295E+02  0.97708297888E+02  0.37617415868E+03  0.41288499015E+03  0.12500000000E+03 0.  0.
         25    1    1    2    0    0  0.13600484088E+03  0.83416396531E+02 -0.28454802964E+02  0.20467116984E+03  0.12500000000E+03 0.  0.
         25    1    1    2    0    0 -0.74400409583E+02 -0.18112469442E+03 -0.12190413650E+03  0.26234937463E+03  0.12500000000E+03 0.  0.
</event>
<event>
 5    0  0.5481966E-005  0.3413623E+03  0.7546771E-02  0.1066217E+00
         21   -1    0    0  502  501  0.00000000000E+00  0.00000000000E+00  0.75742810746E+03  0.75742810746E+03  0.00000000000E+00 0.  1.
         21   -1    0    0  501  502 -0.00000000000E+00 -0.00000000000E+00 -0.15384727428E+03  0.15384727428E+03  0.00000000000E+00 0.  1.
         25    1    1    2    0    0 -0.19024890830E+02 -0.20014111520E+03  0.11871328037E+02  0.23703236255E+03  0.12500000000E+03 0.  0.
         25    1    1    2    0    0  0.23565697793E+02  0.84473888477E+02  0.29082508902E+03  0.32847437092E+03  0.12500000000E+03 0.  0.
         25    1    1    2    0    0 -0.45408069629E+01  0.11566722673E+03  0.30088441612E+03  0.34576864827E+03  0.12500000000E+03 0.  0.
</event>
<event>
 5    0  0.5481966E-005  0.3783031E+03  0.7546771E-02  0.1051563E+00
         21   -1    0    0  502  501  0.00000000000E+00  0.00000000000E+00  0.32917872893E+03  0.32917872893E+03  0.00000000000E+00 0.  1.
         21   -1    0    0  501  502 -0.00000000000E+00 -0.00000000000E+00 -0.43475848254E+03  0.43475848254E+03  0.00000000000E+00 0.  1.
         25    1    1    2    0    0  0.78544241306E+02 -0.16689326147E+03 -0.56952357959E+02  0.22998071581E+03  0.12500000000E+03 0.  0.
         25    1    1    2    0    0 -0.76682651416E+02 -0.13252099416E+03 -0.67713235579E+02  0.20893091010E+03  0.12500000000E+03 0.  0.
         25    1    1    2    0    0 -0.18615898900E+01  0.29941425563E+03  0.19085839926E+02  0.32502558557E+03  0.12500000000E+03 0.  0.
</event>
<event>
 5    0  0.5481966E-005  0.2893127E+03  0.7546771E-02  0.1090709E+00
         21   -1    0    0  502  501  0.00000000000E+00  0.00000000000E+00  0.67989645705E+03  0.67989645705E+03  0.00000000000E+00 0.  1.
         21   -1    0    0  501  502 -0.00000000000E+00 -0.00000000000E+00 -0.12310970467E+03  0.12310970467E+03  0.00000000000E+00 0.  1.
         25    1    1    2    0    0  0.10042045194E+03 -0.39079718182E+02  0.54820885585E+02  0.17390175686E+03  0.12500000000E+03 0.  0.
         25    1    1    2    0    0 -0.14221413202E+03  0.82059837707E+02  0.16327590333E+03  0.26314007091E+03  0.12500000000E+03 0.  0.
         25    1    1    2    0    0  0.41793680080E+02 -0.42980119525E+02  0.33868996347E+03  0.36596433395E+03  0.12500000000E+03 0.  0.
</event>
<event>
 5    0  0.5481966E-005  0.4857511E+03  0.7546771E-02  0.1017566E+00
         21   -1    0    0  502  501  0.00000000000E+00  0.00000000000E+00  0.38919700666E+03  0.38919700666E+03  0.00000000000E+00 0. -1.
         21   -1    0    0  501  502 -0.00000000000E+00 -0.00000000000E+00 -0.60625875044E+03  0.60625875044E+03  0.00000000000E+00 0. -1.
         25    1    1    2    0    0 -0.49881587711E+02 -0.27612083526E+02 -0.53194786137E+02  0.14732713674E+03  0.12500000000E+03 0.  0.
         25    1    1    2    0    0 -0.21256157985E+03 -0.57476061286E+02 -0.39357514253E+03  0.46798751657E+03  0.12500000000E+03 0.  0.
         25    1    1    2    0    0  0.26244316756E+03  0.85088144812E+02  0.22970818488E+03  0.38014110378E+03  0.12500000000E+03 0.  0.
</event>
<event>
 5    0  0.5481966E-005  0.3444380E+03  0.7546771E-02  0.1064921E+00
         21   -1    0    0  502  501  0.00000000000E+00  0.00000000000E+00  0.14203481920E+03  0.14203481920E+03  0.00000000000E+00 0. -1.
         21   -1    0    0  501  502 -0.00000000000E+00 -0.00000000000E+00 -0.83527081560E+03  0.83527081560E+03  0.00000000000E+00 0. -1.
         25    1    1    2    0    0 -0.22450306326E+03 -0.59115236185E+02 -0.11022620851E+03  0.28578147876E+03  0.12500000000E+03 0.  0.
         25    1    1    2    0    0  0.15715448284E+03  0.96094436280E+02 -0.39019405158E+03  0.44923053108E+03  0.12500000000E+03 0.  0.
         25    1    1    2    0    0  0.67348580413E+02 -0.36979200095E+02 -0.19281573631E+03  0.24229362495E+03  0.12500000000E+03 0.  0.
</event>
<event>
 5    0  0.5481966E-005  0.2723306E+03  0.7546771E-02  0.1099953E+00
         21   -1    0    0  502  501  0.00000000000E+00  0.00000000000E+00  0.33444301164E+03  0.33444301164E+03  0.00000000000E+00 0.  1.
         21   -1    0    0  501  502 -0.00000000000E+00 -0.00000000000E+00 -0.22175371190E+03  0.22175371190E+03  0.00000000000E+00 0.  1.
         25    1    1    2    0    0 -0.90242733238E+02  0.86995170216E+02  0.12845317611E+03  0.21871700664E+03  0.12500000000E+03 0.  0.
         25    1    1    2    0    0  0.72497468444E+02 -0.82068325931E+02 -0.91964816336E+02  0.18993056756E+03  0.12500000000E+03 0.  0.
         25    1    1    2    0    0  0.17745264795E+02 -0.49268442849E+01  0.76200939967E+02  0.14754914933E+03  0.12500000000E+03 0.  0.
</event>
<event>
 5    0  0.5481966E-005  0.3715433E+03  0.7546771E-02  0.1054104E+00
         21   -1    0    0  502  501  0.00000000000E+00  0.00000000000E+00  0.27198998697E+03  0.27198998697E+03  0.00000000000E+00 0.  1.
         21   -1    0    0  501  502 -0.00000000000E+00 -0.00000000000E+00 -0.50753492178E+03  0.50753492178E+03  0.00000000000E+00 0.  1.
         25    1    1    2    0    0 -0.12345171628E+01 -0.12119596896E+03 -0.57164269697E+02  0.18325594303E+03  0.12500000000E+03 0.  0.
         25    1    1    2    0    0  0.11677505045E+03  0.25512070913E+03 -0.21724365705E+03  0.37622173670E+03  0.12500000000E+03 0.  0.
         25    1    1    2    0    0 -0.11554053329E+03 -0.13392474017E+03  0.38862991933E+02  0.22004722903E+03  0.12500000000E+03 0.  0.
</event>
<event>
 5    0  0.5481966E-005  0.4044197E+03  0.7546771E-02  0.1042260E+00
         21   -1    0    0  502  501  0.00000000000E+00  0.00000000000E+00  0.24606952397E+04  0.24606952397E+04  0.00000000000E+00 0. -1.
         21   -1    0    0  501  502 -0.00000000000E+00 -0.00000000000E+00 -0.66467101248E+02  0.66467101248E+02  0.00000000000E+00 0. -1.
         25    1    1    2    0    0 -0.93600920892E+02  0.17844984338E+03  0.86667593179E+03  0.89853082849E+03  0.12500000000E+03 0.  0.
         25    1    1    2    0    0  0.18931667723E+03  0.75853231288E+02  0.93181783068E+03  0.96203117753E+03  0.12500000000E+03 0.  0.
         25    1    1    2    0    0 -0.95715756334E+02 -0.25430307467E+03  0.59573437594E+03  0.66660033489E+03  0.12500000000E+03 0.  0.
</event>
<event>
 5    0  0.5481966E-005  0.2488348E+03  0.7546771E-02  0.1114043E+00
         21   -1    0    0  502  501  0.00000000000E+00  0.00000000000E+00  0.97593473245E+02  0.97593473245E+02  0.00000000000E+00 0.  1.
         21   -1    0    0  501  502 -0.00000000000E+00 -0.00000000000E+00 -0.63445596317E+03  0.63445596317E+03  0.00000000000E+00 0.  1.
         25    1    1    2    0    0 -0.60098828787E+02 -0.43225315372E+01 -0.14574591814E+03  0.20123972310E+03  0.12500000000E+03 0.  0.
         25    1    1    2    0    0 -0.19298513457E+02 -0.10157271520E+03 -0.26000759989E+03  0.30646109230E+03  0.12500000000E+03 0.  0.
         25    1    1    2    0    0  0.79397342244E+02  0.10589524674E+03 -0.13110897190E+03  0.22434862101E+03  0.12500000000E+03 0.  0.
</event>
<event>
 5    0  0.5481966E-005  0.2597187E+03  0.7546771E-02  0.1107312E+00
         21   -1    0    0  502  501  0.00000000000E+00  0.00000000000E+00  0.48057636671E+02  0.48057636671E+02  0.00000000000E+00 0. -1.
         21   -1    0    0  501  502 -0.00000000000E+00 -0.00000000000E+00 -0.14036026624E+04  0.14036026624E+04  0.00000000000E+00 0. -1.
         25    1    1    2    0    0  0.56781658209E+02 -0.49691056897E+02 -0.54646637672E+03  0.56563580043E+03  0.12500000000E+03 0.  0.
         25    1    1    2    0    0  0.26909793741E+02  0.35394986204E+02 -0.11465490648E+03  0.17535019141E+03  0.12500000000E+03 0.  0.
         25    1    1    2    0    0 -0.83691451950E+02  0.14296070693E+02 -0.69442374248E+03  0.71067430718E+03  0.12500000000E+03 0.  0.
</event>
<event>
 5    0  0.5481966E-005  0.2774536E+03  0.7546771E-02  0.1097088E+00
         21   -1    0    0  502  501  0.00000000000E+00  0.00000000000E+00  0.11491410687E+04  0.11491410687E+04  0.00000000000E+00 0. -1.
         21   -1    0    0  501  502 -0.00000000000E+00 -0.00000000000E+00 -0.66989616963E+02  0.66989616963E+02  0.00000000000E+00 0. -1.
         25    1    1    2    0    0 -0.15191607637E+03  0.85915888572E+01  0.28176548935E+03  0.34375732814E+03  0.12500000000E+03 0.  0.
         25    1    1    2    0    0  0.81816955085E+02 -0.73549700905E+02  0.56664110779E+03  0.59060199600E+03  0.12500000000E+03 0.  0.
         25    1    1    2    0    0  0.70099121289E+02  0.64958112047E+02  0.23374485461E+03  0.28177136154E+03  0.12500000000E+03 0.  0.
</event>
<event>
 5    0  0.5481966E-005  0.2157496E+03  0.7546771E-02  0.1137092E+00
         21   -1    0    0  502  501  0.00000000000E+00  0.00000000000E+00  0.76437900830E+03  0.76437900830E+03  0.00000000000E+00 0.  1.
         21   -1    0    0  501  502 -0.00000000000E+00 -0.00000000000E+00 -0.60896341159E+02  0.60896341159E+02  0.00000000000E+00 0.  1.
         25    1    1    2    0    0  0.36858279830E+02 -0.42004181361E+01  0.19552877540E+03  0.23501633627E+03  0.12500000000E+03 0.  0.
         25    1    1    2    0    0  0.13562467812E+02  0.65413600784E+02  0.17018388845E+03  0.22147332930E+03  0.12500000000E+03 0.  0.
         25    1    1    2    0    0 -0.50420747642E+02 -0.61213182648E+02  0.33777000329E+03  0.36878568389E+03  0.12500000000E+03 0.  0.
</event>
<event>
 5    0  0.5481966E-005  0.4145142E+03  0.7546771E-02  0.1038867E+00
         21   -1    0    0  502  501  0.00000000000E+00  0.00000000000E+00  0.34428140453E+03  0.34428140453E+03  0.00000000000E+00 0.  1.
         21   -1    0    0  501  502 -0.00000000000E+00 -0.00000000000E+00 -0.49907437588E+03  0.49907437588E+03  0.00000000000E+00 0.  1.
         25    1    1    2    0    0  0.11962933654E+03  0.17370844705E+03 -0.87353977579E+02  0.26027201182E+03  0.12500000000E+03 0.  0.
         25    1    1    2    0    0 -0.23292168021E+03 -0.24156947816E+03 -0.14376249535E+03  0.38587689353E+03  0.12500000000E+03 0.  0.
         25    1    1    2    0    0  0.11329234366E+03  0.67861031106E+02  0.76323501580E+02  0.19720687506E+03  0.12500000000E+03 0.  0.
</event>
<event>
 5    0  0.5481966E-005  0.3175769E+03  0.7546771E-02  0.1076770E+00
         21   -1    0    0  502  501  0.00000000000E+00  0.00000000000E+00  0.52746971368E+02  0.52746971368E+02  0.00000000000E+00 0.  1.
         21   -1    0    0  501  502 -0.00000000000E+00 -0.00000000000E+00 -0.19120551115E+04  0.19120551115E+04  0.00000000000E+00 0.  1.
         25    1    1    2    0    0  0.11714342604E+03 -0.10255363272E+03 -0.77144977931E+03  0.79686861642E+03  0.12500000000E+03 0.  0.
         25    1    1    2    0    0 -0.14755132958E+03 -0.12570301530E+02 -0.86276285580E+03  0.88425909817E+03  0.12500000000E+03 0.  0.
         25    1    1    2    0    0  0.30407903539E+02  0.11512393425E+03 -0.22509550502E+03  0.28367436828E+03  0.12500000000E+03 0.  0.
</event>
<event>
 5    0  0.5481966E-005  0.2639289E+03  0.7546771E-02  0.1104805E+00
         21   -1    0    0  502  501  0.00000000000E+00  0.00000000000E+00  0.28768491160E+03  0.28768491160E+03  0.00000000000E+00 0. -1.
         21   -1    0    0  501  502 -0.00000000000E+00 -0.00000000000E+00 -0.24213457520E+03  0.24213457520E+03  0.00000000000E+00 0. -1.
         25    1    1    2    0    0 -0.28105890797E+02  0.52628805034E+02  0.63818406573E+02  0.15250416792E+03  0.12500000000E+03 0.  0.
         25    1    1    2    0    0  0.13318611487E+03 -0.83045871414E+02 -0.53180982440E+02  0.20757739483E+03  0.12500000000E+03 0.  0.
         25    1    1    2    0    0 -0.10508022407E+03  0.30417066380E+02  0.34912912268E+02  0.16973792405E+03  0.12500000000E+03 0.  0.
</event>
<event>
 5    0  0.5481966E-005  0.3384842E+03  0.7546771E-02  0.1067443E+00
         21   -1    0    0  502  501  0.00000000000E+00  0.00000000000E+00  0.35604459258E+03  0.35604459258E+03  0.00000000000E+00 0.  1.
         21   -1    0    0  501  502 -0.00000000000E+00 -0.00000000000E+00 -0.32178997906E+03  0.32178997906E+03  0.00000000000E+00 0.  1.
         25    1    1    2    0    0  0.17626244251E+03  0.28547214880E+02  0.57400861053E+02  0.22539576519E+03  0.12500000000E+03 0.  0.
         25    1    1    2    0    0 -0.46487634856E+02 -0.13527023840E+03 -0.11684099429E+03  0.22301559484E+03  0.12500000000E+03 0.  0.
         25    1    1    2    0    0 -0.12977480766E+03  0.10672302352E+03  0.93694746764E+02  0.22942321161E+03  0.12500000000E+03 0.  0.
</event>
<event>
 5    0  0.5481966E-005  0.3064957E+03  0.7546771E-02  0.1082038E+00
         21   -1    0    0  502  501  0.00000000000E+00  0.00000000000E+00  0.24123270726E+03  0.24123270726E+03  0.00000000000E+00 0. -1.
         21   -1    0    0  501  502 -0.00000000000E+00 -0.00000000000E+00 -0.38941497173E+03  0.38941497173E+03  0.00000000000E+00 0. -1.
         25    1    1    2    0    0  0.24121418585E+02  0.95421745712E+02 -0.15772445729E+03  0.22402936597E+03  0.12500000000E+03 0.  0.
         25    1    1    2    0    0  0.20357231675E+02 -0.83348136344E+02  0.14982635638E+03  0.21315315100E+03  0.12500000000E+03 0.  0.
         25    1    1    2    0    0 -0.44478650260E+02 -0.12073609368E+02 -0.14028416355E+03  0.19346516202E+03  0.12500000000E+03 0.  0.
</event>
<event>
 5    0  0.5481966E-005  0.2660710E+03  0.7546771E-02  0.1103550E+00
         21   -1    0    0  502  501  0.00000000000E+00  0.00000000000E+00  0.22762048847E+03  0.22762048847E+03  0.00000000000E+00 0.  1.
         21   -1    0    0  501  502 -0.00000000000E+00 -0.00000000000E+00 -0.31101670610E+03  0.31101670610E+03  0.00000000000E+00 0.  1.
         25    1    1    2    0    0 -0.94175209581E+02  0.52183736001E+01  0.97304654415E+02  0.18436213628E+03  0.12500000000E+03 0.  0.
         25    1    1    2    0    0 -0.16041591235E+02 -0.13294995015E+02 -0.31814983400E+02  0.13065711887E+03  0.12500000000E+03 0.  0.
         25    1    1    2    0    0  0.11021680082E+03  0.80766214145E+01 -0.14888588864E+03  0.22361793942E+03  0.12500000000E+03 0.  0.
</event>
<event>
 5    0  0.5481966E-005  0.3424555E+03  0.7546771E-02  0.1065755E+00
         21   -1    0    0  502  501  0.00000000000E+00  0.00000000000E+00  0.11270140193E+04  0.11270140193E+04  0.00000000000E+00 0. -1.
         21   -1    0    0  501  502 -0.00000000000E+00 -0.00000000000E+00 -0.10405881486E+03  0.10405881486E+03  0.00000000000E+00 0. -1.
         25    1    1    2    0    0  0.61813951865E+01 -0.59933489685E+02  0.50552318723E+03  0.52422221019E+03  0.12500000000E+03 0.  0.
         25    1    1    2    0    0  0.48255199918E+01  0.17769071017E+03  0.48538352780E+03  0.53180771260E+03  0.12500000000E+03 0.  0.
         25    1    1    2    0    0 -0.11006915178E+02 -0.11775722048E+03  0.32048489446E+02  0.17504291140E+03  0.12500000000E+03 0.  0.
</event>
<event>
 5    0  0.5481966E-005  0.4236655E+03  0.7546771E-02  0.1035880E+00
         21   -1    0    0  502  501  0.00000000000E+00  0.00000000000E+00  0.94694427856E+03  0.94694427856E+03  0.00000000000E+00 0.  1.
         21   -1    0    0  501  502 -0.00000000000E+00 -0.00000000000E+00 -0.18954915817E+03  0.18954915817E+03  0.00000000000E+00 0.  1.
         25    1    1    2    0    0  0.23592082657E+03 -0.11677417764E+03  0.26556769395E+03  0.39426646452E+03  0.12500000000E+03 0.  0.
         25    1    1    2    0    0 -0.26901640634E+03  0.23355761621E+03  0.29333895427E+03  0.47811267402E+03  0.12500000000E+03 0.  0.
         25    1    1    2    0    0  0.33095579771E+02 -0.11678343857E+03  0.19848847217E+03  0.26411429819E+03  0.12500000000E+03 0.  0.
</event>
<event>
 5    0  0.5481966E-005  0.3182856E+03  0.7546771E-02  0.1076441E+00
         21   -1    0    0  502  501  0.00000000000E+00  0.00000000000E+00  0.56557084886E+03  0.56557084886E+03  0.00000000000E+00 0.  1.
         21   -1    0    0  501  502 -0.00000000000E+00 -0.00000000000E+00 -0.17912116431E+03  0.17912116431E+03  0.00000000000E+00 0.  1.
         25    1    1    2    0    0 -0.15341567176E+03 -0.86449983251E+02  0.23096234934E+03  0.31619388792E+03  0.12500000000E+03 0.  0.
         25    1    1    2    0    0  0.19175198865E+03  0.12174663513E+03  0.70732990734E+02  0.26873634718E+03  0.12500000000E+03 0.  0.
         25    1    1    2    0    0 -0.38336316890E+02 -0.35296651876E+02  0.84754344480E+02  0.15976177808E+03  0.12500000000E+03 0.  0.
</event>
<event>
 5    0  0.5481966E-005  0.3342061E+03  0.7546771E-02  0.1069291E+00
         21   -1    0    0  502  501  0.00000000000E+00  0.00000000000E+00  0.40355848271E+03  0.40355848271E+03  0.00000000000E+00 0.  1.
         21   -1    0    0  501  502 -0.00000000000E+00 -0.00000000000E+00 -0.27677202376E+03  0.27677202376E+03  0.00000000000E+00 0.  1.
         25    1    1    2    0    0  0.18786848567E+03 -0.24624695710E+02  0.21587621713E+03  0.31325466424E+03  0.12500000000E+03 0.  0.
         25    1    1    2    0    0 -0.12036618680E+03  0.51315366752E+02  0.25329769097E+02  0.18272351516E+03  0.12500000000E+03 0.  0.
         25    1    1    2    0    0 -0.67502298869E+02 -0.26690671042E+02 -0.11441952728E+03  0.18435232707E+03  0.12500000000E+03 0.  0.
</event>
<event>
 5    0  0.5481966E-005  0.3629173E+03  0.7546771E-02  0.1057435E+00
         21   -1    0    0  502  501  0.00000000000E+00  0.00000000000E+00  0.30828347396E+03  0.30828347396E+03  0.00000000000E+00 0. -1.
         21   -1    0    0  501  502 -0.00000000000E+00 -0.00000000000E+00 -0.42723337703E+03  0.42723337703E+03  0.00000000000E+00 0. -1.
         25    1    1    2    0    0 -0.12489035566E+03  0.19523712395E+02 -0.27252066280E+02  0.17985119238E+03  0.12500000000E+03 0.  0.
         25    1    1    2    0    0  0.19160021688E+03 -0.20373108363E+03 -0.10247161714E+03  0.32302078859E+03  0.12500000000E+03 0.  0.
         25    1    1    2    0    0 -0.66709861214E+02  0.18420737124E+03  0.10773780344E+02  0.23264487002E+03  0.12500000000E+03 0.  0.
</event>
<event>
 5    0  0.5481966E-005  0.3461396E+03  0.7546771E-02  0.1064211E+00
         21   -1    0    0  502  501  0.00000000000E+00  0.00000000000E+00  0.77355979408E+03  0.77355979408E+03  0.00000000000E+00 0.  1.
         21   -1    0    0  501  502 -0.00000000000E+00 -0.00000000000E+00 -0.15488480080E+03  0.15488480080E+03  0.00000000000E+00 0.  1.
         25    1    1    2    0    0  0.34362608745E+01 -0.12851726899E+03  0.36106766751E+03  0.40314185697E+03  0.12500000000E+03 0.  0.
         25    1    1    2    0    0 -0.20273152480E+02  0.16466218887E+03 -0.29334935061E+02  0.20978602329E+03  0.12500000000E+03 0.  0.
         25    1    1    2    0    0  0.16836891606E+02 -0.36144919871E+02  0.28694226083E+03  0.31551671462E+03  0.12500000000E+03 0.  0.
</event>
<event>
 5    0  0.5481966E-005  0.2699801E+03  0.7546771E-02  0.1101291E+00
         21   -1    0    0  502  501  0.00000000000E+00  0.00000000000E+00  0.10090270595E+04  0.10090270595E+04  0.00000000000E+00 0.  1.
         21   -1    0    0  501  502 -0.00000000000E+00 -0.00000000000E+00 -0.72237153983E+02  0.72237153983E+02  0.00000000000E+00 0.  1.
         25    1    1    2    0    0  0.85707358548E+02  0.84122545035E+01  0.24179257327E+03  0.28549109587E+03  0.12500000000E+03 0.  0.
         25    1    1    2    0    0  0.82836758070E+02 -0.71509200827E+02  0.34358583877E+03  0.38164344995E+03  0.12500000000E+03 0.  0.
         25    1    1    2    0    0 -0.16854411662E+03  0.63096946323E+02  0.35141149348E+03  0.41412966765E+03  0.12500000000E+03 0.  0.
</event>
<event>
 5    0  0.5481966E-005  0.2313627E+03  0.7546771E-02  0.1125684E+00
         21   -1    0    0  502  501  0.00000000000E+00  0.00000000000E+00  0.32172709839E+02  0.32172709839E+02  0.00000000000E+00 0. -1.
         21   -1    0    0  501  502 -0.00000000000E+00 -0.00000000000E+00 -0.16637920048E+04  0.16637920048E+04  0.00000000000E+00 0. -1.
         25    1    1    2    0    0 -0.90124843601E+02  0.44521162439E+02 -0.66976564589E+03  0.68870577299E+03  0.12500000000E+03 0.  0.
         25    1    1    2    0    0  0.65158438448E+01 -0.68380849322E+02 -0.38240784436E+03  0.40814109840E+03  0.12500000000E+03 0.  0.
         25    1    1    2    0    0  0.83608999756E+02  0.23859686883E+02 -0.57944580467E+03  0.59911784321E+03  0.12500000000E+03 0.  0.
</event>
<event>
 5    0  0.5481966E-005  0.3329960E+03  0.7546771E-02  0.1069819E+00
         21   -1    0    0  502  501  0.00000000000E+00  0.00000000000E+00  0.17364588294E+03  0.17364588294E+03  0.00000000000E+00 0.  1.
         21   -1    0    0  501  502 -0.00000000000E+00 -0.00000000000E+00 -0.63857752340E+03  0.63857752340E+03  0.00000000000E+00 0.  1.
         25    1    1    2    0    0  0.95747460155E+02 -0.68619357975E+02 -0.33990407518E+03  0.38083588688E+03  0.12500000000E+03 0.  0.
         25    1    1    2    0    0 -0.16508717065E+03  0.14283153513E+03 -0.68779496822E+02  0.26078773078E+03  0.12500000000E+03 0.  0.
         25    1    1    2    0    0  0.69339710494E+02 -0.74212177159E+02 -0.56248068466E+02  0.17059978868E+03  0.12500000000E+03 0.  0.
</event>
<event>
 5    0  0.5481966E-005  0.2673879E+03  0.7546771E-02  0.1102784E+00
         21   -1    0    0  502  501  0.00000000000E+00  0.00000000000E+00  0.33213391321E+02  0.33213391321E+02  0.00000000000E+00 0.  1.
         21   -1    0    0  501  502 -0.00000000000E+00 -0.00000000000E+00 -0.21526345201E+04  0.21526345201E+04  0.00000000000E+00 0.  1.
         25    1    1    2    0    0 -0.11329577846E+03  0.56971426149E+02 -0.55105762138E+03  0.57911240610E+03  0.12500000000E+03 0.  0.
         25    1    1    2    0    0  0.66565688407E+02  0.12180772279E+02 -0.12072828436E+04  0.12156217449E+04  0.12500000000E+03 0.  0.
         25    1    1    2    0    0  0.46730090056E+02 -0.69152198428E+02 -0.36108066373E+03  0.39111376041E+03  0.12500000000E+03 0.  0.
</event>
<event>
 5    0  0.5481966E-005  0.2295981E+03  0.7546771E-02  0.1126923E+00
         21   -1    0    0  502  501  0.00000000000E+00  0.00000000000E+00  0.85943293400E+03  0.85943293400E+03  0.00000000000E+00 0. -1.
         21   -1    0    0  501  502 -0.00000000000E+00 -0.00000000000E+00 -0.61337298937E+02  0.61337298937E+02  0.00000000000E+00 0. -1.
         25    1    1    2    0    0 -0.80524380363E-01  0.96534448739E+01  0.11207778245E+03  0.16816546851E+03  0.12500000000E+03 0.  0.
         25    1    1    2    0    0 -0.12722665819E+02  0.71188117911E+02  0.21950406943E+03  0.26274826518E+03  0.12500000000E+03 0.  0.
         25    1    1    2    0    0  0.12803190200E+02 -0.80841562784E+02  0.46651378318E+03  0.48985649924E+03  0.12500000000E+03 0.  0.
</event>
<event>
 5    0  0.5481966E-005  0.2513100E+03  0.7546771E-02  0.1112480E+00
         21   -1    0    0  502  501  0.00000000000E+00  0.00000000000E+00  0.30617123983E+02  0.30617123983E+02  0.00000000000E+00 0.  1.
         21   -1    0    0  501  502 -0.00000000000E+00 -0.00000000000E+00 -0.20627900372E+04  0.20627900372E+04  0.00000000000E+00 0.  1.
         25    1    1    2    0    0  0.43714235750E+02 -0.86800628505E+02 -0.41663751285E+03  0.44570965957E+03  0.12500000000E+03 0.  0.
         25    1    1    2    0    0  0.32386725823E+02  0.43827201960E+02 -0.11442371890E+04  0.11523339223E+04  0.12500000000E+03 0.  0.
         25    1    1    2    0    0 -0.76100961573E+02  0.42973426545E+02 -0.47129821133E+03  0.49536357935E+03  0.12500000000E+03 0.  0.
</event>
<event>
 5    0  0.5711720E-005  0.2652629E+03  0.7546771E-02  0.1104022E+00
         21   -1    0    0  502  501  0.00000000000E+00  0.00000000000E+00  0.55313168716E+03  0.55313168716E+03  0.00000000000E+00 0.  1.
         21   -1    0    0  501  502 -0.00000000000E+00 -0.00000000000E+00 -0.12721096394E+03  0.12721096394E+03  0.00000000000E+00 0.  1.
         25    1    1    2    0    0 -0.27207030899E+02  0.83328527899E+02  0.15385851266E+03  0.21675171974E+03  0.12500000000E+03 0.  0.
         25    1    1    2    0    0  0.30037001955E+02  0.89794070258E+02  0.78467996669E+02  0.17534943125E+03  0.12500000000E+03 0.  0.
         25    1    1    2    0    0 -0.28299710565E+01 -0.17312259816E+03  0.19359421390E+03  0.28824150010E+03  0.12500000000E+03 0.  0.
</event>
<event>
 5    0  0.5481966E-005  0.2828917E+03  0.7546771E-02  0.1094120E+00
         21   -1    0    0  502  501  0.00000000000E+00  0.00000000000E+00  0.13839082813E+04  0.13839082813E+04  0.00000000000E+00 0.  1.
         21   -1    0    0  501  502 -0.00000000000E+00 -0.00000000000E+00 -0.57827323488E+02  0.57827323488E+02  0.00000000000E+00 0.  1.
         25    1    1    2    0    0  0.33964660643E+02  0.84985545306E+02  0.53980494603E+03  0.56159640388E+03  0.12500000000E+03 0.  0.
         25    1    1    2    0    0 -0.15139672955E+03 -0.57086266193E+02  0.55054944692E+03  0.58728996672E+03  0.12500000000E+03 0.  0.
         25    1    1    2    0    0  0.11743206891E+03 -0.27899279113E+02  0.23572656482E+03  0.29284923415E+03  0.12500000000E+03 0.  0.
</event>
<event>
 5    0  0.5481966E-005  0.2829582E+03  0.7546771E-02  0.1094084E+00
         21   -1    0    0  502  501  0.00000000000E+00  0.00000000000E+00  0.12426887245E+03  0.12426887245E+03  0.00000000000E+00 0. -1.
         21   -1    0    0  501  502 -0.00000000000E+00 -0.00000000000E+00 -0.64429129421E+03  0.64429129421E+03  0.00000000000E+00 0. -1.
         25    1    1    2    0    0 -0.10086429967E+03  0.91111994534E+02 -0.34834729877E+03  0.39426620836E+03  0.12500000000E+03 0.  0.
         25    1    1    2    0    0  0.12263428578E+03 -0.10369745521E+03 -0.87596750237E+02  0.22156380778E+03  0.12500000000E+03 0.  0.
         25    1    1    2    0    0 -0.21769986111E+02  0.12585460672E+02 -0.84078372756E+02  0.15273015053E+03  0.12500000000E+03 0.  0.
</event>
<event>
 5    0  0.5481966E-005  0.4047622E+03  0.7546771E-02  0.1042143E+00
         21   -1    0    0  502  501  0.00000000000E+00  0.00000000000E+00  0.22602616309E+03  0.22602616309E+03  0.00000000000E+00 0. -1.
         21   -1    0    0  501  502 -0.00000000000E+00 -0.00000000000E+00 -0.72483828373E+03  0.72483828373E+03  0.00000000000E+00 0. -1.
         25    1    1    2    0    0 -0.94172234903E+02  0.29047093397E+03 -0.15963455433E+03  0.36653780739E+03  0.12500000000E+03 0.  0.
         25    1    1    2    0    0  0.10151833169E+03 -0.66739389269E+02 -0.20801109151E+02  0.17555000396E+03  0.12500000000E+03 0.  0.
         25    1    1    2    0    0 -0.73460967901E+01 -0.22373154470E+03 -0.31837645716E+03  0.40877663547E+03  0.12500000000E+03 0.  0.
</event>
<event>
 5    0  0.5481966E-005  0.2757821E+03  0.7546771E-02  0.1098015E+00
         21   -1    0    0  502  501  0.00000000000E+00  0.00000000000E+00  0.13441879256E+03  0.13441879256E+03  0.00000000000E+00 0.  1.
         21   -1    0    0  501  502 -0.00000000000E+00 -0.00000000000E+00 -0.56581186395E+03  0.56581186395E+03  0.00000000000E+00 0.  1.
         25    1    1    2    0    0 -0.60714623262E+02 -0.25954601117E+02 -0.30059418461E+03  0.33217731804E+03  0.12500000000E+03 0.  0.
         25    1    1    2    0    0 -0.69031705658E+02  0.46321397232E+02 -0.10550308156E+02  0.15049038916E+03  0.12500000000E+03 0.  0.
         25    1    1    2    0    0  0.12974632892E+03 -0.20366796115E+02 -0.12024857862E+03  0.21756294931E+03  0.12500000000E+03 0.  0.
</event>
<event>
 5    0  0.5481966E-005  0.2599303E+03  0.7546771E-02  0.1107185E+00
         21   -1    0    0  502  501  0.00000000000E+00  0.00000000000E+00  0.81024679995E+02  0.81024679995E+02  0.00000000000E+00 0. -1.
         21   -1    0    0  501  502 -0.00000000000E+00 -0.00000000000E+00 -0.83386613061E+03  0.83386613061E+03  0.00000000000E+00 0. -1.
         25    1    1    2    0    0  0.88685635513E+02 -0.49063284259E+02 -0.23663966346E+03  0.28617420941E+03  0.12500000000E+03 0.  0.
         25    1    1    2    0    0 -0.85673027747E+02  0.11976498296E+03 -0.39912570525E+03  0.44340708994E+03  0.12500000000E+03 0.  0.
         25    1    1    2    0    0 -0.30126077666E+01 -0.70701698697E+02 -0.11707608190E+03  0.18530951125E+03  0.12500000000E+03 0.  0.
</event>
<event>
 5    0  0.5481966E-005  0.2657803E+03  0.7546771E-02  0.1103719E+00
         21   -1    0    0  502  501  0.00000000000E+00  0.00000000000E+00  0.99889258831E+02  0.99889258831E+02  0.00000000000E+00 0. -1.
         21   -1    0    0  501  502 -0.00000000000E+00 -0.00000000000E+00 -0.70717496843E+03  0.70717496843E+03  0.00000000000E+00 0. -1.
         25    1    1    2    0    0 -0.80850461163E+02 -0.33544841740E+02 -0.34743904530E+03  0.37947456262E+03  0.12500000000E+03 0.  0.
         25    1    1    2    0    0  0.71499385964E+02  0.96454268118E+02 -0.22327063087E+03  0.28264883273E+03  0.12500000000E+03 0.  0.
         25    1    1    2    0    0  0.93510751991E+01 -0.62909426378E+02 -0.36576033427E+02  0.14494083191E+03  0.12500000000E+03 0.  0.
</event>
<event>
 5    0  0.5481966E-005  0.2679659E+03  0.7546771E-02  0.1102449E+00
         21   -1    0    0  502  501  0.00000000000E+00  0.00000000000E+00  0.22451480308E+03  0.22451480308E+03  0.00000000000E+00 0. -1.
         21   -1    0    0  501  502 -0.00000000000E+00 -0.00000000000E+00 -0.31982625490E+03  0.31982625490E+03  0.00000000000E+00 0. -1.
         25    1    1    2    0    0  0.16911855816E+02  0.89425669294E+02  0.64307365444E+02  0.16746163276E+03  0.12500000000E+03 0.  0.
         25    1    1    2    0    0  0.38227640476E+02 -0.13930368462E+03 -0.12196276460E+03  0.22664241658E+03  0.12500000000E+03 0.  0.
         25    1    1    2    0    0 -0.55139496292E+02  0.49878015323E+02 -0.37656052658E+02  0.15023700864E+03  0.12500000000E+03 0.  0.
</event>
<event>
 5    0  0.5481966E-005  0.3238469E+03  0.7546771E-02  0.1073892E+00
         21   -1    0    0  502  501  0.00000000000E+00  0.00000000000E+00  0.36646148095E+03  0.36646148095E+03  0.00000000000E+00 0. -1.
         21   -1    0    0  501  502 -0.00000000000E+00 -0.00000000000E+00 -0.28618788156E+03  0.28618788156E+03  0.00000000000E+00 0. -1.
         25    1    1    2    0    0 -0.95889777245E+02 -0.87307516214E+01  0.24499242167E+03  0.29140583741E+03  0.12500000000E+03 0.  0.
         25    1    1    2    0    0 -0.93546400792E+01 -0.65253390018E+02 -0.85378230242E+02  0.16510589450E+03  0.12500000000E+03 0.  0.
         25    1    1    2    0    0  0.10524441732E+03  0.73984141640E+02 -0.79340592037E+02  0.19613763060E+03  0.12500000000E+03 0.  0.
</event>
<event>
 5    0  0.5481966E-005  0.2315802E+03  0.7546771E-02  0.1125533E+00
         21   -1    0    0  502  501  0.00000000000E+00  0.00000000000E+00  0.51435478762E+03  0.51435478762E+03  0.00000000000E+00 0.  1.
         21   -1    0    0  501  502 -0.00000000000E+00 -0.00000000000E+00 -0.10426532029E+03  0.10426532029E+03  0.00000000000E+00 0.  1.
         25    1    1    2    0    0 -0.13674665535E+02  0.41634345601E+01  0.56731252188E+02  0.13801364295E+03  0.12500000000E+03 0.  0.
         25    1    1    2    0    0 -0.38025546710E+02  0.88625396703E+02  0.21019871825E+03  0.26288572479E+03  0.12500000000E+03 0.  0.
         25    1    1    2    0    0  0.51700212245E+02 -0.92788831263E+02  0.14315949689E+03  0.21772074018E+03  0.12500000000E+03 0.  0.
</event>
<event>
 5    0  0.5692122E-005  0.3514713E+03  0.7546771E-02  0.1062013E+00
         21   -1    0    0  502  501  0.00000000000E+00  0.00000000000E+00  0.15389500988E+03  0.15389500988E+03  0.00000000000E+00 0. -1.
         21   -1    0    0  501  502 -0.00000000000E+00 -0.00000000000E+00 -0.80270379495E+03  0.80270379495E+03  0.00000000000E+00 0. -1.
         25    1    1    2    0    0  0.64539419421E+02  0.38921413653E+02 -0.19785884589E+02  0.14729797802E+03  0.12500000000E+03 0.  0.
         25    1    1    2    0    0  0.27054616589E+02  0.19164906313E+03 -0.26004610187E+03  0.34743386533E+03  0.12500000000E+03 0.  0.
         25    1    1    2    0    0 -0.91594036010E+02 -0.23057047679E+03 -0.36897679862E+03  0.46186696149E+03  0.12500000000E+03 0.  0.
</event>
<event>
 5    0  0.5481966E-005  0.2798157E+03  0.7546771E-02  0.1095790E+00
         21   -1    0    0  502  501  0.00000000000E+00  0.00000000000E+00  0.24329075452E+03  0.24329075452E+03  0.00000000000E+00 0. -1.
         21   -1    0    0  501  502 -0.00000000000E+00 -0.00000000000E+00 -0.32182401572E+03  0.32182401572E+03  0.00000000000E+00 0. -1.
         25    1    1    2    0    0 -0.28541542709E+02 -0.49202898695E+02 -0.33875420750E+01  0.13737547212E+03  0.12500000000E+03 0.  0.
         25    1    1    2    0    0  0.46141273586E+01 -0.13820113585E+03  0.76223406057E+01  0.18655815232E+03  0.12500000000E+03 0.  0.
         25    1    1    2    0    0  0.23927415350E+02  0.18740403455E+03 -0.82768059732E+02  0.24118114579E+03  0.12500000000E+03 0.  0.
</event>
<event>
 5    0  0.5481966E-005  0.4080312E+03  0.7546771E-02  0.1041034E+00
         21   -1    0    0  502  501  0.00000000000E+00  0.00000000000E+00  0.10114304285E+04  0.10114304285E+04  0.00000000000E+00 0. -1.
         21   -1    0    0  501  502 -0.00000000000E+00 -0.00000000000E+00 -0.16460792325E+03  0.16460792325E+03  0.00000000000E+00 0. -1.
         25    1    1    2    0    0 -0.20082349756E+02 -0.17905577888E+03  0.42267860191E+03  0.47617903485E+03  0.12500000000E+03 0.  0.
         25    1    1    2    0    0  0.11831957026E+02  0.31139846318E+03  0.14326804246E+03  0.36504757233E+03  0.12500000000E+03 0.  0.
         25    1    1    2    0    0  0.82503927299E+01 -0.13234268430E+03  0.28087586087E+03  0.33481174455E+03  0.12500000000E+03 0.  0.
</event>
<event>
 5    0  0.5481966E-005  0.3234418E+03  0.7546771E-02  0.1074076E+00
         21   -1    0    0  502  501  0.00000000000E+00  0.00000000000E+00  0.66156592473E+02  0.66156592473E+02  0.00000000000E+00 0. -1.
         21   -1    0    0  501  502 -0.00000000000E+00 -0.00000000000E+00 -0.15813177627E+04  0.15813177627E+04  0.00000000000E+00 0. -1.
         25    1    1    2    0    0  0.12168115696E+03 -0.10324215988E+03 -0.36833407137E+03  0.42042863326E+03  0.12500000000E+03 0.  0.
         25    1    1    2    0    0  0.99507199582E+02  0.79527680338E+02 -0.54086377947E+03  0.56954803366E+03  0.12500000000E+03 0.  0.
         25    1    1    2    0    0 -0.22118835654E+03  0.23714479539E+02 -0.60596331942E+03  0.65749768828E+03  0.12500000000E+03 0.  0.
</event>
<event>
 5    0  0.5481966E-005  0.2534432E+03  0.7546771E-02  0.1111148E+00
         21   -1    0    0  502  501  0.00000000000E+00  0.00000000000E+00  0.13287894625E+03  0.13287894625E+03  0.00000000000E+00 0.  1.
         21   -1    0    0  501  502 -0.00000000000E+00 -0.00000000000E+00 -0.48339815988E+03  0.48339815988E+03  0.00000000000E+00 0.  1.
         25    1    1    2    0    0 -0.67815368615E+02  0.98339878073E+02 -0.54570889734E+02  0.18130812956E+03  0.12500000000E+03 0.  0.
         25    1    1    2    0    0  0.78909847276E+02  0.40878713626E+01 -0.19259480794E+03  0.24281934588E+03  0.12500000000E+03 0.  0.
         25    1    1    2    0    0 -0.11094478661E+02 -0.10242774944E+03 -0.10335351596E+03  0.19214963068E+03  0.12500000000E+03 0.  0.
</event>
<event>
 5    0  0.5481966E-005  0.3258972E+03  0.7546771E-02  0.1072967E+00
         21   -1    0    0  502  501  0.00000000000E+00  0.00000000000E+00  0.54253439590E+03  0.54253439590E+03  0.00000000000E+00 0.  1.
         21   -1    0    0  501  502 -0.00000000000E+00 -0.00000000000E+00 -0.19576448461E+03  0.19576448461E+03  0.00000000000E+00 0.  1.
         25    1    1    2    0    0  0.95599235303E+02 -0.27586947723E+02  0.75224671022E+02  0.17658993348E+03  0.12500000000E+03 0.  0.
         25    1    1    2    0    0 -0.86970721472E+02  0.20978067536E+03  0.20591257118E+03  0.33105411207E+03  0.12500000000E+03 0.  0.
         25    1    1    2    0    0 -0.86285138308E+01 -0.18219372764E+03  0.65632669088E+02  0.23065483496E+03  0.12500000000E+03 0.  0.
</event>
<event>
 5    0  0.5481966E-005  0.2860998E+03  0.7546771E-02  0.1092403E+00
         21   -1    0    0  502  501  0.00000000000E+00  0.00000000000E+00  0.13277268631E+03  0.13277268631E+03  0.00000000000E+00 0. -1.
         21   -1    0    0  501  502 -0.00000000000E+00 -0.00000000000E+00 -0.61649026724E+03  0.61649026724E+03  0.00000000000E+00 0. -1.
         25    1    1    2    0    0  0.16643867137E+02 -0.14211880483E+03 -0.25639849433E+03  0.31912373916E+03  0.12500000000E+03 0.  0.
         25    1    1    2    0    0  0.66396019453E+02 -0.44559778301E+01 -0.35742937470E+02  0.14605082922E+03  0.12500000000E+03 0.  0.
         25    1    1    2    0    0 -0.83039886590E+02  0.14657478266E+03 -0.19157614912E+03  0.28408838517E+03  0.12500000000E+03 0.  0.
</event>
<event>
 5    0  0.5481966E-005  0.4514468E+03  0.7546771E-02  0.1027291E+00
         21   -1    0    0  502  501  0.00000000000E+00  0.00000000000E+00  0.65437559865E+03  0.65437559865E+03  0.00000000000E+00 0.  1.
         21   -1    0    0  501  502 -0.00000000000E+00 -0.00000000000E+00 -0.31144836450E+03  0.31144836450E+03  0.00000000000E+00 0.  1.
         25    1    1    2    0    0  0.37451079902E+03  0.11638312482E+03  0.18054556094E+03  0.44947199012E+03  0.12500000000E+03 0.  0.
         25    1    1    2    0    0 -0.23956634827E+03 -0.13558610146E+03  0.73355753343E+02  0.31109756136E+03  0.12500000000E+03 0.  0.
         25    1    1    2    0    0 -0.13494445075E+03  0.19202976640E+02  0.89025919869E+02  0.20525441167E+03  0.12500000000E+03 0.  0.
</event>
<event>
 5    0  0.5481966E-005  0.3888194E+03  0.7546771E-02  0.1047721E+00
         21   -1    0    0  502  501  0.00000000000E+00  0.00000000000E+00  0.36286790673E+03  0.36286790673E+03  0.00000000000E+00 0. -1.
         21   -1    0    0  501  502 -0.00000000000E+00 -0.00000000000E+00 -0.41662684096E+03  0.41662684096E+03  0.00000000000E+00 0. -1.
         25    1    1    2    0    0  0.19744669580E+03 -0.26586523892E+03 -0.60755676618E+02  0.35914589681E+03  0.12500000000E+03 0.  0.
         25    1    1    2    0    0 -0.10913849353E+03  0.15594176145E+03 -0.25490540263E+02  0.22913710171E+03  0.12500000000E+03 0.  0.
         25    1    1    2    0    0 -0.88308202272E+02  0.10992347747E+03  0.32487282652E+02  0.19121174917E+03  0.12500000000E+03 0.  0.
</event>
<event>
 5    0  0.5481966E-005  0.2346163E+03  0.7546771E-02  0.1123432E+00
         21   -1    0    0  502  501  0.00000000000E+00  0.00000000000E+00  0.12184446528E+03  0.12184446528E+03  0.00000000000E+00 0. -1.
         21   -1    0    0  501  502 -0.00000000000E+00 -0.00000000000E+00 -0.45176278343E+03  0.45176278343E+03  0.00000000000E+00 0. -1.
         25    1    1    2    0    0 -0.93826741102E+02  0.62977386711E+02 -0.17522320437E+03  0.24310034951E+03  0.12500000000E+03 0.  0.
         25    1    1    2    0    0  0.48516851961E+01  0.26272583703E+01 -0.70059072730E+02  0.14340054047E+03  0.12500000000E+03 0.  0.
         25    1    1    2    0    0  0.88975055906E+02 -0.65604645081E+02 -0.84636041054E+02  0.18710635872E+03  0.12500000000E+03 0.  0.
</event>
<event>
 5    0  0.5481966E-005  0.3383662E+03  0.7546771E-02  0.1067494E+00
         21   -1    0    0  502  501  0.00000000000E+00  0.00000000000E+00  0.72437030765E+03  0.72437030765E+03  0.00000000000E+00 0. -1.
         21   -1    0    0  501  502 -0.00000000000E+00 -0.00000000000E+00 -0.15805684711E+03  0.15805684711E+03  0.00000000000E+00 0. -1.
         25    1    1    2    0    0 -0.10177727689E+03 -0.93178002981E+02  0.79531654215E+02  0.20246243689E+03  0.12500000000E+03 0.  0.
         25    1    1    2    0    0 -0.56592269733E+01  0.34225419275E+02  0.48796003901E+03  0.50490930458E+03  0.12500000000E+03 0.  0.
         25    1    1    2    0    0  0.10743650386E+03  0.58952583707E+02 -0.11782326869E+01  0.17505541328E+03  0.12500000000E+03 0.  0.
</event>
<event>
 5    0  0.5481966E-005  0.2201287E+03  0.7546771E-02  0.1133787E+00
         21   -1    0    0  502  501  0.00000000000E+00  0.00000000000E+00  0.14601963120E+04  0.14601963120E+04  0.00000000000E+00 0.  1.
         21   -1    0    0  501  502 -0.00000000000E+00 -0.00000000000E+00 -0.33185022225E+02  0.33185022225E+02  0.00000000000E+00 0.  1.
         25    1    1    2    0    0  0.12154396749E+02  0.45879888964E+02  0.44708821849E+03  0.46665358531E+03  0.12500000000E+03 0.  0.
         25    1    1    2    0    0 -0.22708258140E+02 -0.10737994650E+03  0.50607006532E+03  0.53270820240E+03  0.12500000000E+03 0.  0.
         25    1    1    2    0    0  0.10553861392E+02  0.61500057535E+02  0.47385300594E+03  0.49401954648E+03  0.12500000000E+03 0.  0.
</event>
<event>
 5    0  0.5481966E-005  0.3362047E+03  0.7546771E-02  0.1068424E+00
         21   -1    0    0  502  501  0.00000000000E+00  0.00000000000E+00  0.14029482405E+04  0.14029482405E+04  0.00000000000E+00 0.  1.
         21   -1    0    0  501  502 -0.00000000000E+00 -0.00000000000E+00 -0.80568635146E+02  0.80568635146E+02  0.00000000000E+00 0.  1.
         25    1    1    2    0    0  0.22774870051E+03 -0.42886079286E+02  0.79254447577E+03  0.83514096562E+03  0.12500000000E+03 0.  0.
         25    1    1    2    0    0 -0.14144548948E+03  0.16072201522E+02  0.41461324836E+03  0.45584458741E+03  0.12500000000E+03 0.  0.
         25    1    1    2    0    0 -0.86303211036E+02  0.26813877764E+02  0.11522188122E+03  0.19253132262E+03  0.12500000000E+03 0.  0.
</event>
<event>
 5    0  0.5481966E-005  0.2622770E+03  0.7546771E-02  0.1105783E+00
         21   -1    0    0  502  501  0.00000000000E+00  0.00000000000E+00  0.47209836113E+03  0.47209836113E+03  0.00000000000E+00 0.  1.
         21   -1    0    0  501  502 -0.00000000000E+00 -0.00000000000E+00 -0.14570955056E+03  0.14570955056E+03  0.00000000000E+00 0.  1.
         25    1    1    2    0    0  0.14543590089E+02  0.16400783557E+03  0.89925534782E+02  0.22543666061E+03  0.12500000000E+03 0.  0.
         25    1    1    2    0    0 -0.36519845096E+01 -0.46332894521E+02  0.60994526949E+02  0.14664721758E+03  0.12500000000E+03 0.  0.
         25    1    1    2    0    0 -0.10891605579E+02 -0.11767494105E+03  0.17546874884E+03  0.24572403351E+03  0.12500000000E+03 0.  0.
</event>
<event>
 5    0  0.5618708E-005  0.4238328E+03  0.7546771E-02  0.1035826E+00
         21   -1    0    0  502  501  0.00000000000E+00  0.00000000000E+00  0.91112276100E+03  0.91112276100E+03  0.00000000000E+00 0. -1.
         21   -1    0    0  501  502 -0.00000000000E+00 -0.00000000000E+00 -0.19715698444E+03  0.19715698444E+03  0.00000000000E+00 0. -1.
         25    1    1    2    0    0 -0.26311376157E+03  0.56001919317E+02  0.34593786033E+03  0.45570063606E+03  0.12500000000E+03 0.  0.
         25    1    1    2    0    0  0.25148368907E+02 -0.13131578185E+03 -0.92380415570E+01  0.18326651749E+03  0.12500000000E+03 0.  0.
         25    1    1    2    0    0  0.23796539267E+03  0.75313862536E+02  0.37726595778E+03  0.46931259188E+03  0.12500000000E+03 0.  0.
</event>
<event>
 5    0  0.5481966E-005  0.3153612E+03  0.7546771E-02  0.1077804E+00
         21   -1    0    0  502  501  0.00000000000E+00  0.00000000000E+00  0.59988247470E+03  0.59988247470E+03  0.00000000000E+00 0. -1.
         21   -1    0    0  501  502 -0.00000000000E+00 -0.00000000000E+00 -0.16578696600E+03  0.16578696600E+03  0.00000000000E+00 0. -1.
         25    1    1    2    0    0 -0.13616456833E+03 -0.51567845338E+01  0.23604096380E+03  0.29984615837E+03  0.12500000000E+03 0.  0.
         25    1    1    2    0    0 -0.31878166191E+01  0.13619066256E+03  0.43427470988E+02  0.18991841401E+03  0.12500000000E+03 0.  0.
         25    1    1    2    0    0  0.13935238495E+03 -0.13103387803E+03  0.15462707391E+03  0.27590486833E+03  0.12500000000E+03 0.  0.
</event>
<event>
 5    0  0.5481966E-005  0.2892543E+03  0.7546771E-02  0.1090739E+00
         21   -1    0    0  502  501  0.00000000000E+00  0.00000000000E+00  0.14224098039E+03  0.14224098039E+03  0.00000000000E+00 0.  1.
         21   -1    0    0  501  502 -0.00000000000E+00 -0.00000000000E+00 -0.58821336451E+03  0.58821336451E+03  0.00000000000E+00 0.  1.
         25    1    1    2    0    0 -0.63451081582E+01  0.25544729037E+02 -0.16940128662E+03  0.21216641932E+03  0.12500000000E+03 0.  0.
         25    1    1    2    0    0  0.99033464995E+02  0.10784585460E+03 -0.24392083359E+03  0.31074222211E+03  0.12500000000E+03 0.  0.
         25    1    1    2    0    0 -0.92688356837E+02 -0.13339058364E+03 -0.32650263913E+02  0.20754570347E+03  0.12500000000E+03 0.  0.
</event>
<event>
 5    0  0.5960240E-005  0.3015980E+03  0.7546771E-02  0.1084444E+00
         21   -1    0    0  502  501  0.00000000000E+00  0.00000000000E+00  0.16367534659E+03  0.16367534659E+03  0.00000000000E+00 0. -1.
         21   -1    0    0  501  502 -0.00000000000E+00 -0.00000000000E+00 -0.55574264367E+03  0.55574264367E+03  0.00000000000E+00 0. -1.
         25    1    1    2    0    0  0.11086913487E+02 -0.13432480640E+03 -0.15339532943E+03  0.23941846286E+03  0.12500000000E+03 0.  0.
         25    1    1    2    0    0  0.39018930072E+02  0.15893996579E+03 -0.12534499462E+01  0.20593921619E+03  0.12500000000E+03 0.  0.
         25    1    1    2    0    0 -0.50105843559E+02 -0.24615159384E+02 -0.23741851771E+03  0.27406031121E+03  0.12500000000E+03 0.  0.
</event>
<event>
 5    0  0.5481966E-005  0.3763660E+03  0.7546771E-02  0.1052285E+00
         21   -1    0    0  502  501  0.00000000000E+00  0.00000000000E+00  0.74914296862E+03  0.74914296862E+03  0.00000000000E+00 0. -1.
         21   -1    0    0  501  502 -0.00000000000E+00 -0.00000000000E+00 -0.18908450729E+03  0.18908450729E+03  0.00000000000E+00 0. -1.
         25    1    1    2    0    0 -0.62202763879E+02  0.15270698053E+03  0.22446765292E+03  0.30528565794E+03  0.12500000000E+03 0.  0.
         25    1    1    2    0    0 -0.95401824083E+02  0.76124841169E+02  0.26951004603E+03  0.32118089045E+03  0.12500000000E+03 0.  0.
         25    1    1    2    0    0  0.15760458796E+03 -0.22883182170E+03  0.66080762381E+02  0.31176092752E+03  0.12500000000E+03 0.  0.
</event>
<event>
 5    0  0.5481966E-005  0.3400033E+03  0.7546771E-02  0.1066795E+00
         21   -1    0    0  502  501  0.00000000000E+00  0.00000000000E+00  0.26986043664E+03  0.26986043664E+03  0.00000000000E+00 0.  1.
         21   -1    0    0  501  502 -0.00000000000E+00 -0.00000000000E+00 -0.42837799772E+03  0.42837799772E+03  0.00000000000E+00 0.  1.
         25    1    1    2    0    0 -0.32599937498E+02  0.16717558532E+03 -0.19829142955E+03  0.28974975977E+03  0.12500000000E+03 0.  0.
         25    1    1    2    0    0  0.59795125054E+02 -0.21170759944E+03  0.83026910756E+02  0.26629688799E+03  0.12500000000E+03 0.  0.
         25    1    1    2    0    0 -0.27195187556E+02  0.44532014120E+02 -0.43253042287E+02  0.14219178659E+03  0.12500000000E+03 0.  0.
</event>
<event>
 5    0  0.5481966E-005  0.2208204E+03  0.7546771E-02  0.1133273E+00
         21   -1    0    0  502  501  0.00000000000E+00  0.00000000000E+00  0.41154686956E+02  0.41154686956E+02  0.00000000000E+00 0.  1.
         21   -1    0    0  501  502 -0.00000000000E+00 -0.00000000000E+00 -0.11848378301E+04  0.11848378301E+04  0.00000000000E+00 0.  1.
         25    1    1    2    0    0  0.58816860109E+01  0.32644454995E+02 -0.38241934847E+03  0.40369519784E+03  0.12500000000E+03 0.  0.
         25    1    1    2    0    0  0.11285706795E+02 -0.90612037746E+02 -0.26426017011E+03  0.30626189131E+03  0.12500000000E+03 0.  0.
         25    1    1    2    0    0 -0.17167392806E+02  0.57967582750E+02 -0.49700362454E+03  0.51603542788E+03  0.12500000000E+03 0.  0.
</event>
<event>
 5    0  0.5481966E-005  0.2234342E+03  0.7546771E-02  0.1131348E+00
         21   -1    0    0  502  501  0.00000000000E+00  0.00000000000E+00  0.67836091236E+02  0.67836091236E+02  0.00000000000E+00 0.  1.
         21   -1    0    0  501  502 -0.00000000000E+00 -0.00000000000E+00 -0.73593344467E+03  0.73593344467E+03  0.00000000000E+00 0.  1.
         25    1    1    2    0    0 -0.22138258718E+02 -0.29613555005E+02 -0.92019337037E+02  0.15956072050E+03  0.12500000000E+03 0.  0.
         25    1    1    2    0    0 -0.16781192134E+02  0.15574508472E+02 -0.14180992045E+03  0.19041855808E+03  0.12500000000E+03 0.  0.
         25    1    1    2    0    0  0.38919450852E+02  0.14039046533E+02 -0.43426809594E+03  0.45379025732E+03  0.12500000000E+03 0.  0.
</event>
<event>
 5    0  0.5481966E-005  0.3090337E+03  0.7546771E-02  0.1080810E+00
         21   -1    0    0  502  501  0.00000000000E+00  0.00000000000E+00  0.18748975859E+04  0.18748975859E+04  0.00000000000E+00 0. -1.
         21   -1    0    0  501  502 -0.00000000000E+00 -0.00000000000E+00 -0.50937090759E+02  0.50937090759E+02  0.00000000000E+00 0. -1.
         25    1    1    2    0    0  0.82759758748E+02 -0.31091296734E+02  0.22570261561E+03  0.27273158433E+03  0.12500000000E+03 0.  0.
         25    1    1    2    0    0 -0.94906991923E+02 -0.52317215079E+02  0.27240893495E+03  0.31870998722E+03  0.12500000000E+03 0.  0.
         25    1    1    2    0    0  0.12147233176E+02  0.83408511813E+02  0.13258489446E+04  0.13343931051E+04  0.12500000000E+03 0.  0.
</event>
<event>
 5    0  0.5481966E-005  0.2485650E+03  0.7546771E-02  0.1114215E+00
         21   -1    0    0  502  501  0.00000000000E+00  0.00000000000E+00  0.81521536991E+03  0.81521536991E+03  0.00000000000E+00 0.  1.
         21   -1    0    0  501  502 -0.00000000000E+00 -0.00000000000E+00 -0.75789259056E+02  0.75789259056E+02  0.00000000000E+00 0.  1.
         25    1    1    2    0    0 -0.43392760438E+02 -0.67585504455E+02  0.43638808400E+03  0.46098838589E+03  0.12500000000E+03 0.  0.
         25    1    1    2    0    0  0.96683035005E+01 -0.28402292253E+02  0.20313670401E+03  0.24039485604E+03  0.12500000000E+03 0.  0.
         25    1    1    2    0    0  0.33724456937E+02  0.95987796708E+02  0.99901322850E+02  0.18962138703E+03  0.12500000000E+03 0.  0.
</event>
<event>
 5    0  0.5481966E-005  0.2637099E+03  0.7546771E-02  0.1104935E+00
         21   -1    0    0  502  501  0.00000000000E+00  0.00000000000E+00  0.30708971742E+02  0.30708971742E+02  0.00000000000E+00 0. -1.
         21   -1    0    0  501  502 -0.00000000000E+00 -0.00000000000E+00 -0.22645799645E+04  0.22645799645E+04  0.00000000000E+00 0. -1.
         25    1    1    2    0    0 -0.52168988713E+01 -0.89386762052E+02 -0.34939837933E+03  0.38173477277E+03  0.12500000000E+03 0.  0.
         25    1    1    2    0    0  0.76303901169E+02  0.62055051726E+02 -0.59835718933E+03  0.61913604385E+03  0.12500000000E+03 0.  0.
         25    1    1    2    0    0 -0.71087002298E+02  0.27331710326E+02 -0.12861154241E+04  0.12944181196E+04  0.12500000000E+03 0.  0.
</event>
<event>
 5    0  0.5481966E-005  0.2840822E+03  0.7546771E-02  0.1093480E+00
         21   -1    0    0  502  501  0.00000000000E+00  0.00000000000E+00  0.18430245910E+03  0.18430245910E+03  0.00000000000E+00 0. -1.
         21   -1    0    0  501  502 -0.00000000000E+00 -0.00000000000E+00 -0.43788177391E+03  0.43788177391E+03  0.00000000000E+00 0. -1.
         25    1    1    2    0    0 -0.65862130823E+02  0.34529000437E+02 -0.38488412149E+02  0.15045407943E+03  0.12500000000E+03 0.  0.
         25    1    1    2    0    0  0.89707704050E+02  0.13233879744E+03 -0.14881987469E+03  0.25166124965E+03  0.12500000000E+03 0.  0.
         25    1    1    2    0    0 -0.23845573227E+02 -0.16686779787E+03 -0.66271027965E+02  0.22006890393E+03  0.12500000000E+03 0.  0.
</event>
<event>
 5    0  0.5481966E-005  0.5644606E+03  0.7546771E-02  0.9982012E-01
         21   -1    0    0  502  501  0.00000000000E+00  0.00000000000E+00  0.11792882374E+04  0.11792882374E+04  0.00000000000E+00 0. -1.
         21   -1    0    0  501  502 -0.00000000000E+00 -0.00000000000E+00 -0.27017629891E+03  0.27017629891E+03  0.00000000000E+00 0. -1.
         25    1    1    2    0    0  0.98411417366E+02  0.12612137940E+03  0.33182982771E+03  0.38900828265E+03  0.12500000000E+03 0.  0.
         25    1    1    2    0    0 -0.26665543040E+03  0.34098081204E+02 -0.11624658968E+03  0.31844319324E+03  0.12500000000E+03 0.  0.
         25    1    1    2    0    0  0.16824401304E+03 -0.16021946060E+03  0.69352870047E+03  0.74201306043E+03  0.12500000000E+03 0.  0.
</event>
<event>
 5    0  0.5481966E-005  0.2285074E+03  0.7546771E-02  0.1127695E+00
         21   -1    0    0  502  501  0.00000000000E+00  0.00000000000E+00  0.39954774521E+03  0.39954774521E+03  0.00000000000E+00 0.  1.
         21   -1    0    0  501  502 -0.00000000000E+00 -0.00000000000E+00 -0.13068679828E+03  0.13068679828E+03  0.00000000000E+00 0.  1.
         25    1    1    2    0    0  0.46874632702E+02  0.16469970175E+02  0.16620250921E+03  0.21381479176E+03  0.12500000000E+03 0.  0.
         25    1    1    2    0    0 -0.91029687618E+02  0.26536424307E+02  0.76754598382E+02  0.17466211443E+03  0.12500000000E+03 0.  0.
         25    1    1    2    0    0  0.44155054916E+02 -0.43006394482E+02  0.25903839339E+02  0.14175763730E+03  0.12500000000E+03 0.  0.
</event>
<event>
 5    0  0.5481966E-005  0.4398573E+03  0.7546771E-02  0.1030791E+00
         21   -1    0    0  502  501  0.00000000000E+00  0.00000000000E+00  0.28023051801E+03  0.28023051801E+03  0.00000000000E+00 0.  1.
         21   -1    0    0  501  502 -0.00000000000E+00 -0.00000000000E+00 -0.69041180769E+03  0.69041180769E+03  0.00000000000E+00 0.  1.
         25    1    1    2    0    0 -0.18248273477E+03 -0.28769502101E+03 -0.20480641862E+03  0.41670018324E+03  0.12500000000E+03 0.  0.
         25    1    1    2    0    0  0.20806390471E+03  0.62785299027E+02 -0.61972689165E+02  0.25825993963E+03  0.12500000000E+03 0.  0.
         25    1    1    2    0    0 -0.25581169941E+02  0.22490972198E+03 -0.14340218189E+03  0.29568220283E+03  0.12500000000E+03 0.  0.
</event>
<event>
 5    0  0.5481966E-005  0.3382359E+03  0.7546771E-02  0.1067550E+00
         21   -1    0    0  502  501  0.00000000000E+00  0.00000000000E+00  0.18863991346E+03  0.18863991346E+03  0.00000000000E+00 0. -1.
         21   -1    0    0  501  502 -0.00000000000E+00 -0.00000000000E+00 -0.60646520419E+03  0.60646520419E+03  0.00000000000E+00 0. -1.
         25    1    1    2    0    0 -0.51266122609E+02  0.80036432655E+02 -0.42064004243E+03  0.44899564717E+03  0.12500000000E+03 0.  0.
         25    1    1    2    0    0  0.69817189678E+02 -0.14514295642E+03 -0.16660266302E+01  0.20388401952E+03  0.12500000000E+03 0.  0.
         25    1    1    2    0    0 -0.18551067070E+02  0.65106523762E+02  0.44807783237E+01  0.14222545096E+03  0.12500000000E+03 0.  0.
</event>
<event>
 5    0  0.5481966E-005  0.2845736E+03  0.7546771E-02  0.1093217E+00
         21   -1    0    0  502  501  0.00000000000E+00  0.00000000000E+00  0.67918661228E+02  0.67918661228E+02  0.00000000000E+00 0.  1.
         21   -1    0    0  501  502 -0.00000000000E+00 -0.00000000000E+00 -0.11923402577E+04  0.11923402577E+04  0.00000000000E+00 0. -1.
         25    1    1    2    0    0 -0.17171633434E+02  0.18085719169E+03 -0.57343904930E+03  0.61437898079E+03  0.12500000000E+03 0.  0.
         25    1    1    2    0    0  0.55749460716E+01 -0.44425926951E+02 -0.12972724194E+03  0.18563108660E+03  0.12500000000E+03 0.  0.
         25    1    1    2    0    0  0.11596687363E+02 -0.13643126473E+03 -0.42125530522E+03  0.46024885152E+03  0.12500000000E+03 0.  0.
</event>
<event>
 5    0  0.5481966E-005  0.4041240E+03  0.7546771E-02  0.1042361E+00
         21   -1    0    0  502  501  0.00000000000E+00  0.00000000000E+00  0.11339626527E+03  0.11339626527E+03  0.00000000000E+00 0. -1.
         21   -1    0    0  501  502 -0.00000000000E+00 -0.00000000000E+00 -0.14402256733E+04  0.14402256733E+04  0.00000000000E+00 0. -1.
         25    1    1    2    0    0 -0.13180008032E+03  0.76732420168E+00 -0.38204956413E+03  0.42303512787E+03  0.12500000000E+03 0.  0.
         25    1    1    2    0    0 -0.20546752964E+03  0.11911410514E+02 -0.24413498302E+03  0.34290768053E+03  0.12500000000E+03 0.  0.
         25    1    1    2    0    0  0.33726760995E+03 -0.12678734715E+02 -0.70064486092E+03  0.78767913021E+03  0.12500000000E+03 0.  0.
</event>
<event>
 5    0  0.5903140E-005  0.2809458E+03  0.7546771E-02  0.1095173E+00
         21   -1    0    0  502  501  0.00000000000E+00  0.00000000000E+00  0.64842620646E+03  0.64842620646E+03  0.00000000000E+00 0. -1.
         21   -1    0    0  501  502 -0.00000000000E+00 -0.00000000000E+00 -0.12172632636E+03  0.12172632636E+03  0.00000000000E+00 0. -1.
         25    1    1    2    0    0  0.55838363581E+00 -0.13933798093E+02  0.24609263777E+02  0.12816036199E+03  0.12500000000E+03 0.  0.
         25    1    1    2    0    0 -0.68105703566E+02 -0.60107118272E+02  0.44637545835E+03  0.47236352775E+03  0.12500000000E+03 0.  0.
         25    1    1    2    0    0  0.67547319930E+02  0.74040916365E+02  0.55715157976E+02  0.16962864308E+03  0.12500000000E+03 0.  0.
</event>
<event>
 5    0  0.5481966E-005  0.3522777E+03  0.7546771E-02  0.1061684E+00
         21   -1    0    0  502  501  0.00000000000E+00  0.00000000000E+00  0.20794167548E+04  0.20794167548E+04  0.00000000000E+00 0. -1.
         21   -1    0    0  501  502 -0.00000000000E+00 -0.00000000000E+00 -0.59679980840E+02  0.59679980840E+02  0.00000000000E+00 0. -1.
         25    1    1    2    0    0  0.15697460160E+02  0.63576756578E+02  0.28432199770E+03  0.31741520539E+03  0.12500000000E+03 0.  0.
         25    1    1    2    0    0 -0.35696514886E+02 -0.26947248451E+03  0.11511976565E+04  0.11894413418E+04  0.12500000000E+03 0.  0.
         25    1    1    2    0    0  0.19999054726E+02  0.20589572793E+03  0.58421711974E+03  0.63224018851E+03  0.12500000000E+03 0.  0.
</event>
<event>
 5    0  0.5481966E-005  0.2489198E+03  0.7546771E-02  0.1113989E+00
         21   -1    0    0  502  501  0.00000000000E+00  0.00000000000E+00  0.73647837291E+03  0.73647837291E+03  0.00000000000E+00 0.  1.
         21   -1    0    0  501  502 -0.00000000000E+00 -0.00000000000E+00 -0.84131574602E+02  0.84131574602E+02  0.00000000000E+00 0.  1.
         25    1    1    2    0    0  0.66346842905E+01  0.88421999369E+02  0.18084291635E+03  0.23704773655E+03  0.12500000000E+03 0.  0.
         25    1    1    2    0    0  0.73470638426E+02  0.50704153218E+01  0.11114587180E+03  0.18276227357E+03  0.12500000000E+03 0.  0.
         25    1    1    2    0    0 -0.80105322717E+02 -0.93492414690E+02  0.36035801015E+03  0.40079993739E+03  0.12500000000E+03 0.  0.
</event>
<event>
 5    0  0.5481966E-005  0.3536658E+03  0.7546771E-02  0.1061120E+00
         21   -1    0    0  502  501  0.00000000000E+00  0.00000000000E+00  0.21181128252E+03  0.21181128252E+03  0.00000000000E+00 0. -1.
         21   -1    0    0  501  502 -0.00000000000E+00 -0.00000000000E+00 -0.59052332838E+03  0.59052332838E+03  0.00000000000E+00 0. -1.
         25    1    1    2    0    0  0.86814549671E+02  0.28903739197E+02 -0.16718049154E+03  0.22791776790E+03  0.12500000000E+03 0.  0.
         25    1    1    2    0    0  0.46577635479E+02  0.10708829560E+03 -0.28724513252E+03  0.33432341428E+03  0.12500000000E+03 0.  0.
         25    1    1    2    0    0 -0.13339218515E+03 -0.13599203480E+03  0.75713578196E+02  0.24009342871E+03  0.12500000000E+03 0.  0.
</event>
<event>
 5    0  0.5481966E-005  0.3048444E+03  0.7546771E-02  0.1082844E+00
         21   -1    0    0  502  501  0.00000000000E+00  0.00000000000E+00  0.73363675669E+02  0.73363675669E+02  0.00000000000E+00 0. -1.
         21   -1    0    0  501  502 -0.00000000000E+00 -0.00000000000E+00 -0.12667044364E+04  0.12667044364E+04  0.00000000000E+00 0. -1.
         25    1    1    2    0    0  0.18717966461E+02 -0.23601252931E+01 -0.49145994196E+02  0.13563281758E+03  0.12500000000E+03 0.  0.
         25    1    1    2    0    0 -0.11162103282E+03 -0.57047796427E+02 -0.34195226719E+03  0.38505851384E+03  0.12500000000E+03 0.  0.
         25    1    1    2    0    0  0.92903066363E+02  0.59407921720E+02 -0.80224249932E+03  0.81937678062E+03  0.12500000000E+03 0.  0.
</event>
<event>
 5    0  0.5481966E-005  0.3882047E+03  0.7546771E-02  0.1047942E+00
         21   -1    0    0  502  501  0.00000000000E+00  0.00000000000E+00  0.16994943480E+03  0.16994943480E+03  0.00000000000E+00 0.  1.
         21   -1    0    0  501  502 -0.00000000000E+00 -0.00000000000E+00 -0.88675123091E+03  0.88675123091E+03  0.00000000000E+00 0.  1.
         25    1    1    2    0    0 -0.17220885539E+03 -0.23436523268E+03 -0.34571624403E+03  0.46875118512E+03  0.12500000000E+03 0.  0.
         25    1    1    2    0    0  0.17559224666E+03  0.10841743380E+03 -0.94082464230E+02  0.25896618914E+03  0.12500000000E+03 0.  0.
         25    1    1    2    0    0 -0.33833912718E+01  0.12594779888E+03 -0.27700308785E+03  0.32898329145E+03  0.12500000000E+03 0.  0.
</event>
<event>
 5    0  0.5481966E-005  0.3592390E+03  0.7546771E-02  0.1058886E+00
         21   -1    0    0  502  501  0.00000000000E+00  0.00000000000E+00  0.21826266475E+03  0.21826266475E+03  0.00000000000E+00 0. -1.
         21   -1    0    0  501  502 -0.00000000000E+00 -0.00000000000E+00 -0.59127230135E+03  0.59127230135E+03  0.00000000000E+00 0. -1.
         25    1    1    2    0    0 -0.83976430649E+02  0.19534988237E+02  0.39179215982E+02  0.15682368327E+03  0.12500000000E+03 0.  0.
         25    1    1    2    0    0  0.80780143667E+01 -0.41423220188E+02  0.69302161666E+02  0.14902659863E+03  0.12500000000E+03 0.  0.
         25    1    1    2    0    0  0.75898416282E+02  0.21888231951E+02 -0.48149101425E+03  0.50368468420E+03  0.12500000000E+03 0.  0.
</event>
<event>
 5    0  0.5481966E-005  0.2503284E+03  0.7546771E-02  0.1113097E+00
         21   -1    0    0  502  501  0.00000000000E+00  0.00000000000E+00  0.51027157163E+03  0.51027157163E+03  0.00000000000E+00 0.  1.
         21   -1    0    0  501  502 -0.00000000000E+00 -0.00000000000E+00 -0.12280581058E+03  0.12280581058E+03  0.00000000000E+00 0.  1.
         25    1    1    2    0    0  0.10951566652E+03  0.14743865778E+02  0.11565116544E+03  0.20300555376E+03  0.12500000000E+03 0.  0.
         25    1    1    2    0    0 -0.96693350104E+02 -0.68927083887E+02  0.69646960983E+02  0.18594689033E+03  0.12500000000E+03 0.  0.
         25    1    1    2    0    0 -0.12822316415E+02  0.54183218109E+02  0.20216763462E+03  0.24412493812E+03  0.12500000000E+03 0.  0.
</event>
<event>
 5    0  0.5481966E-005  0.3062735E+03  0.7546771E-02  0.1082146E+00
         21   -1    0    0  502  501  0.00000000000E+00  0.00000000000E+00  0.16506250034E+04  0.16506250034E+04  0.00000000000E+00 0.  1.
         21   -1    0    0  501  502 -0.00000000000E+00 -0.00000000000E+00 -0.56829058784E+02  0.56829058784E+02  0.00000000000E+00 0.  1.
         25    1    1    2    0    0 -0.89519544985E+02  0.16218906976E+03  0.10499858617E+04  0.10735056372E+04  0.12500000000E+03 0.  0.
         25    1    1    2    0    0  0.81018032304E+00 -0.59780314289E+02  0.27596712596E+03  0.30879960651E+03  0.12500000000E+03 0.  0.
         25    1    1    2    0    0  0.88709364662E+02 -0.10240875547E+03  0.26784295693E+03  0.32514881847E+03  0.12500000000E+03 0.  0.
</event>
<event>
 5    0  0.5481966E-005  0.2860325E+03  0.7546771E-02  0.1092439E+00
         21   -1    0    0  502  501  0.00000000000E+00  0.00000000000E+00  0.30833059720E+03  0.30833059720E+03  0.00000000000E+00 0.  1.
         21   -1    0    0  501  502 -0.00000000000E+00 -0.00000000000E+00 -0.26534691401E+03  0.26534691401E+03  0.00000000000E+00 0.  1.
         25    1    1    2    0    0 -0.29102443495E+02  0.10826022751E+03  0.10458795298E+03  0.19781523952E+03  0.12500000000E+03 0.  0.
         25    1    1    2    0    0 -0.32200689409E+02  0.64973319291E+02 -0.51410623549E+02  0.15338340468E+03  0.12500000000E+03 0.  0.
         25    1    1    2    0    0  0.61303132904E+02 -0.17323354680E+03 -0.10193646234E+02  0.22247886701E+03  0.12500000000E+03 0.  0.
</event>
<event>
 5    0  0.5481966E-005  0.4104108E+03  0.7546771E-02  0.1040233E+00
         21   -1    0    0  502  501  0.00000000000E+00  0.00000000000E+00  0.59493584231E+03  0.59493584231E+03  0.00000000000E+00 0.  1.
         21   -1    0    0  501  502 -0.00000000000E+00 -0.00000000000E+00 -0.28311790900E+03  0.28311790900E+03  0.00000000000E+00 0.  1.
         25    1    1    2    0    0 -0.15303227812E+03  0.24406959151E+03  0.17782766648E+03  0.36088297634E+03  0.12500000000E+03 0.  0.
         25    1    1    2    0    0  0.20748871738E+03 -0.46241358692E+02  0.12562760307E+03  0.27676185746E+03  0.12500000000E+03 0.  0.
         25    1    1    2    0    0 -0.54456439259E+02 -0.19782823282E+03  0.83626637521E+01  0.24040891751E+03  0.12500000000E+03 0.  0.
</event>
<event>
 5    0  0.5481966E-005  0.2447249E+03  0.7546771E-02  0.1116685E+00
         21   -1    0    0  502  501  0.00000000000E+00  0.00000000000E+00  0.18501403098E+03  0.18501403098E+03  0.00000000000E+00 0.  1.
         21   -1    0    0  501  502 -0.00000000000E+00 -0.00000000000E+00 -0.32370663614E+03  0.32370663614E+03  0.00000000000E+00 0.  1.
         25    1    1    2    0    0 -0.25039937290E+02  0.48024499362E+02 -0.97824153960E+02  0.16771379221E+03  0.12500000000E+03 0.  0.
         25    1    1    2    0    0  0.12312572717E+03 -0.33987994193E+02 -0.29025633659E+02  0.18105970245E+03  0.12500000000E+03 0.  0.
         25    1    1    2    0    0 -0.98085789881E+02 -0.14036505169E+02 -0.11842817539E+02  0.15994717247E+03  0.12500000000E+03 0.  0.
</event>
<event>
 5    0  0.5481966E-005  0.4124047E+03  0.7546771E-02  0.1039567E+00
         21   -1    0    0  502  501  0.00000000000E+00  0.00000000000E+00  0.13024751127E+03  0.13024751127E+03  0.00000000000E+00 0.  1.
         21   -1    0    0  501  502 -0.00000000000E+00 -0.00000000000E+00 -0.13058034152E+04  0.13058034152E+04  0.00000000000E+00 0.  1.
         25    1    1    2    0    0 -0.41267575898E+02 -0.10287500570E+03  0.24939067246E+01  0.16708530513E+03  0.12500000000E+03 0.  0.
         25    1    1    2    0    0 -0.97912215221E+02  0.55102867939E+02 -0.97265703916E+03  0.98707134685E+03  0.12500000000E+03 0.  0.
         25    1    1    2    0    0  0.13917979112E+03  0.47772137760E+02 -0.20539277146E+03  0.28189427446E+03  0.12500000000E+03 0.  0.
</event>
<event>
 5    0  0.5481966E-005  0.3098226E+03  0.7546771E-02  0.1080431E+00
         21   -1    0    0  502  501  0.00000000000E+00  0.00000000000E+00  0.11355668019E+03  0.11355668019E+03  0.00000000000E+00 0. -1.
         21   -1    0    0  501  502 -0.00000000000E+00 -0.00000000000E+00 -0.84530531604E+03  0.84530531604E+03  0.00000000000E+00 0. -1.
         25    1    1    2    0    0 -0.11495781917E+03  0.11357672083E+03 -0.10255818933E+03  0.22860042411E+03  0.12500000000E+03 0.  0.
         25    1    1    2    0    0 -0.99384895732E+01 -0.13812956644E+03 -0.38528526152E+03  0.42807509090E+03  0.12500000000E+03 0.  0.
         25    1    1    2    0    0  0.12489630874E+03  0.24552845609E+02 -0.24390518500E+03  0.30218648122E+03  0.12500000000E+03 0.  0.
</event>
<event>
 5    0  0.5481966E-005  0.2771125E+03  0.7546771E-02  0.1097277E+00
         21   -1    0    0  502  501  0.00000000000E+00  0.00000000000E+00  0.18000956192E+03  0.18000956192E+03  0.00000000000E+00 0. -1.
         21   -1    0    0  501  502 -0.00000000000E+00 -0.00000000000E+00 -0.42659588621E+03  0.42659588621E+03  0.00000000000E+00 0. -1.
         25    1    1    2    0    0 -0.57495640076E+02 -0.12860531023E+03 -0.37949308401E+02  0.19212033847E+03  0.12500000000E+03 0.  0.
         25    1    1    2    0    0  0.10112234532E+03  0.10102950098E+02 -0.16690002236E+03  0.23196641090E+03  0.12500000000E+03 0.  0.
         25    1    1    2    0    0 -0.43626705241E+02  0.11850236013E+03 -0.41736993524E+02  0.18251869876E+03  0.12500000000E+03 0.  0.
</event>
<event>
 5    0  0.6059019E-005  0.3883778E+03  0.7546771E-02  0.1047880E+00
         21   -1    0    0  502  501  0.00000000000E+00  0.00000000000E+00  0.12244230122E+03  0.12244230122E+03  0.00000000000E+00 0. -1.
         21   -1    0    0  501  502 -0.00000000000E+00 -0.00000000000E+00 -0.12319054378E+04  0.12319054378E+04  0.00000000000E+00 0. -1.
         25    1    1    2    0    0 -0.84922278690E+02  0.91907993146E+02 -0.16291028484E+02  0.17762114241E+03  0.12500000000E+03 0.  0.
         25    1    1    2    0    0 -0.95314087530E+02  0.14873500762E+02 -0.66924144189E+03  0.68761552037E+03  0.12500000000E+03 0.  0.
         25    1    1    2    0    0  0.18023636622E+03 -0.10678149391E+03 -0.42393066624E+03  0.48911107627E+03  0.12500000000E+03 0.  0.
</event>
<event>
 5    0  0.5481966E-005  0.2633756E+03  0.7546771E-02  0.1105132E+00
         21   -1    0    0  502  501  0.00000000000E+00  0.00000000000E+00  0.24840168834E+03  0.24840168834E+03  0.00000000000E+00 0. -1.
         21   -1    0    0  501  502 -0.00000000000E+00 -0.00000000000E+00 -0.27925212096E+03  0.27925212096E+03  0.00000000000E+00 0. -1.
         25    1    1    2    0    0  0.43043737824E+02 -0.51100777490E+02 -0.99914048846E+01  0.14208758214E+03  0.12500000000E+03 0.  0.
         25    1    1    2    0    0  0.75066678038E+02  0.68033483153E+01  0.94420195582E+02  0.17384321969E+03  0.12500000000E+03 0.  0.
         25    1    1    2    0    0 -0.11811041586E+03  0.44297429175E+02 -0.11527922331E+03  0.21172300748E+03  0.12500000000E+03 0.  0.
</event>
<event>
 5    0  0.5481966E-005  0.3588376E+03  0.7546771E-02  0.1059045E+00
         21   -1    0    0  502  501  0.00000000000E+00  0.00000000000E+00  0.16233827219E+04  0.16233827219E+04  0.00000000000E+00 0.  1.
         21   -1    0    0  501  502 -0.00000000000E+00 -0.00000000000E+00 -0.79318587856E+02  0.79318587856E+02  0.00000000000E+00 0.  1.
         25    1    1    2    0    0  0.21775433115E+03  0.43023110637E+02  0.37275721911E+03  0.45148740977E+03  0.12500000000E+03 0.  0.
         25    1    1    2    0    0  0.37361297407E+02  0.29730054526E+02  0.51980530297E+03  0.53675161452E+03  0.12500000000E+03 0.  0.
         25    1    1    2    0    0 -0.25511562856E+03 -0.72753165163E+02  0.65150161201E+03  0.71446228551E+03  0.12500000000E+03 0.  0.
</event>
<event>
 5    0  0.5481966E-005  0.2210432E+03  0.7546771E-02  0.1133108E+00
         21   -1    0    0  502  501  0.00000000000E+00  0.00000000000E+00  0.65136082536E+02  0.65136082536E+02  0.00000000000E+00 0. -1.
         21   -1    0    0  501  502 -0.00000000000E+00 -0.00000000000E+00 -0.75012356230E+03  0.75012356230E+03  0.00000000000E+00 0. -1.
         25    1    1    2    0    0  0.23790861876E+02 -0.51548381611E+02 -0.38635841406E+03  0.41002568807E+03  0.12500000000E+03 0.  0.
         25    1    1    2    0    0 -0.30543045286E+01  0.45079707947E+02 -0.88203579317E+02  0.15951921592E+03  0.12500000000E+03 0.  0.
         25    1    1    2    0    0 -0.20736557347E+02  0.64686736641E+01 -0.21042548638E+03  0.24571474084E+03  0.12500000000E+03 0.  0.
</event>
<event>
 5    0  0.5481966E-005  0.3146318E+03  0.7546771E-02  0.1078147E+00
         21   -1    0    0  502  501  0.00000000000E+00  0.00000000000E+00  0.13101769008E+03  0.13101769008E+03  0.00000000000E+00 0. -1.
         21   -1    0    0  501  502 -0.00000000000E+00 -0.00000000000E+00 -0.75557115075E+03  0.75557115075E+03  0.00000000000E+00 0. -1.
         25    1    1    2    0    0  0.16895061263E+03 -0.33801205735E+02 -0.23351188593E+03  0.31597410003E+03  0.12500000000E+03 0.  0.
         25    1    1    2    0    0 -0.56129364487E+02  0.55864461087E+02 -0.40828373913E+01  0.14803044664E+03  0.12500000000E+03 0.  0.
         25    1    1    2    0    0 -0.11282124814E+03 -0.22063255351E+02 -0.38695873735E+03  0.42258429417E+03  0.12500000000E+03 0.  0.
</event>
<event>
 5    0  0.5481966E-005  0.2472822E+03  0.7546771E-02  0.1115035E+00
         21   -1    0    0  502  501  0.00000000000E+00  0.00000000000E+00  0.77102629716E+03  0.77102629716E+03  0.00000000000E+00 0. -1.
         21   -1    0    0  501  502 -0.00000000000E+00 -0.00000000000E+00 -0.79307895798E+02  0.79307895798E+02  0.00000000000E+00 0. -1.
         25    1    1    2    0    0  0.26510115837E+02  0.46099434743E+02  0.59470488797E+02  0.14828918761E+03  0.12500000000E+03 0.  0.
         25    1    1    2    0    0  0.65306189989E+01 -0.58391328109E+02  0.15578145835E+03  0.20819476206E+03  0.12500000000E+03 0.  0.
         25    1    1    2    0    0 -0.33040734836E+02  0.12291893367E+02  0.47646645421E+03  0.49385024328E+03  0.12500000000E+03 0.  0.
</event>
<event>
 5    0  0.5481966E-005  0.3309063E+03  0.7546771E-02  0.1070737E+00
         21   -1    0    0  502  501  0.00000000000E+00  0.00000000000E+00  0.15096394399E+03  0.15096394399E+03  0.00000000000E+00 0. -1.
         21   -1    0    0  501  502 -0.00000000000E+00 -0.00000000000E+00 -0.72533198483E+03  0.72533198483E+03  0.00000000000E+00 0. -1.
         25    1    1    2    0    0  0.20795143422E+03  0.57228770552E+02 -0.13420434877E+03  0.28311612176E+03  0.12500000000E+03 0.  0.
         25    1    1    2    0    0 -0.15742412574E+03 -0.13329751878E+03 -0.29396646578E+03  0.38025237262E+03  0.12500000000E+03 0.  0.
         25    1    1    2    0    0 -0.50527308483E+02  0.76068748229E+02 -0.14619722629E+03  0.21292743444E+03  0.12500000000E+03 0.  0.
</event>
<event>
 5    0  0.5481966E-005  0.2487789E+03  0.7546771E-02  0.1114079E+00
         21   -1    0    0  502  501  0.00000000000E+00  0.00000000000E+00  0.16369956831E+03  0.16369956831E+03  0.00000000000E+00 0. -1.
         21   -1    0    0  501  502 -0.00000000000E+00 -0.00000000000E+00 -0.37807626766E+03  0.37807626766E+03  0.00000000000E+00 0. -1.
         25    1    1    2    0    0  0.22454974298E+02  0.27974934524E+02  0.43381650184E+02  0.13709044608E+03  0.12500000000E+03 0.  0.
         25    1    1    2    0    0  0.25790074561E+02 -0.70085152468E+02 -0.21157455804E+03  0.25683817892E+03  0.12500000000E+03 0.  0.
         25    1    1    2    0    0 -0.48245048859E+02  0.42110217944E+02 -0.46183791495E+02  0.14784721097E+03  0.12500000000E+03 0.  0.
</event>
<event>
 5    0  0.5481966E-005  0.5368676E+03  0.7546771E-02  0.1004580E+00
         21   -1    0    0  502  501  0.00000000000E+00  0.00000000000E+00  0.28860426067E+03  0.28860426067E+03  0.00000000000E+00 0. -1.
         21   -1    0    0  501  502 -0.00000000000E+00 -0.00000000000E+00 -0.99869207649E+03  0.99869207649E+03  0.00000000000E+00 0. -1.
         25    1    1    2    0    0  0.14682901996E+03  0.87152645726E+02  0.10417861371E+03  0.23586548776E+03  0.12500000000E+03 0.  0.
         25    1    1    2    0    0 -0.14379187053E+03 -0.10577226068E+03 -0.88164662684E+03  0.90817930376E+03  0.12500000000E+03 0.  0.
         25    1    1    2    0    0 -0.30371494278E+01  0.18619614951E+02  0.67380197310E+02  0.14325154564E+03  0.12500000000E+03 0.  0.
</event>
<event>
 5    0  0.5653359E-005  0.3026240E+03  0.7546771E-02  0.1083936E+00
         21   -1    0    0  502  501  0.00000000000E+00  0.00000000000E+00  0.24745101065E+03  0.24745101065E+03  0.00000000000E+00 0.  1.
         21   -1    0    0  501  502 -0.00000000000E+00 -0.00000000000E+00 -0.37009855647E+03  0.37009855647E+03  0.00000000000E+00 0.  1.
         25    1    1    2    0    0  0.17954006998E+03 -0.38175269671E+02 -0.14726226863E+03  0.26646418841E+03  0.12500000000E+03 0.  0.
         25    1    1    2    0    0 -0.97473090966E+02 -0.61362027474E+02  0.15739091850E+01  0.16998170216E+03  0.12500000000E+03 0.  0.
         25    1    1    2    0    0 -0.82066979010E+02  0.99537297146E+02  0.23040813626E+02  0.18110367655E+03  0.12500000000E+03 0.  0.
</event>
<event>
 5    0  0.5481966E-005  0.2422792E+03  0.7546771E-02  0.1118284E+00
         21   -1    0    0  502  501  0.00000000000E+00  0.00000000000E+00  0.24452980040E+03  0.24452980040E+03  0.00000000000E+00 0.  1.
         21   -1    0    0  501  502 -0.00000000000E+00 -0.00000000000E+00 -0.24004927128E+03  0.24004927128E+03  0.00000000000E+00 0.  1.
         25    1    1    2    0    0  0.27581744591E+02 -0.17872139943E+02  0.30111489097E+02  0.13270971252E+03  0.12500000000E+03 0.  0.
         25    1    1    2    0    0 -0.12759357581E+03 -0.11875781469E+02  0.26359058174E+02  0.18094461783E+03  0.12500000000E+03 0.  0.
         25    1    1    2    0    0  0.10001183122E+03  0.29747921412E+02 -0.51990018156E+02  0.17092474133E+03  0.12500000000E+03 0.  0.
</event>
<event>
 5    0  0.5481966E-005  0.2619512E+03  0.7546771E-02  0.1105977E+00
         21   -1    0    0  502  501  0.00000000000E+00  0.00000000000E+00  0.21571215695E+03  0.21571215695E+03  0.00000000000E+00 0.  1.
         21   -1    0    0  501  502 -0.00000000000E+00 -0.00000000000E+00 -0.31810183104E+03  0.31810183104E+03  0.00000000000E+00 0.  1.
         25    1    1    2    0    0  0.34124183629E+02 -0.53373975514E+02 -0.10950319303E+03  0.17784597396E+03  0.12500000000E+03 0.  0.
         25    1    1    2    0    0  0.52108685625E+02  0.44680162495E+02 -0.96263748663E+02  0.17205621565E+03  0.12500000000E+03 0.  0.
         25    1    1    2    0    0 -0.86232869254E+02  0.86938130190E+01  0.10337726761E+03  0.18391179838E+03  0.12500000000E+03 0.  0.
</event>
<event>
 5    0  0.5481966E-005  0.3887883E+03  0.7546771E-02  0.1047733E+00
         21   -1    0    0  502  501  0.00000000000E+00  0.00000000000E+00  0.87948290471E+03  0.87948290471E+03  0.00000000000E+00 0.  1.
         21   -1    0    0  501  502 -0.00000000000E+00 -0.00000000000E+00 -0.17186957182E+03  0.17186957182E+03  0.00000000000E+00 0.  1.
         25    1    1    2    0    0  0.95354501418E+02  0.66613320083E+02 -0.17854995579E+02  0.17167881704E+03  0.12500000000E+03 0.  0.
         25    1    1    2    0    0 -0.23612158367E+03  0.29824397162E+02  0.28928777395E+03  0.39491177888E+03  0.12500000000E+03 0.  0.
         25    1    1    2    0    0  0.14076708225E+03 -0.96437717245E+02  0.43618055452E+03  0.48476188061E+03  0.12500000000E+03 0.  0.
</event>
<event>
 5    0  0.5481966E-005  0.4012304E+03  0.7546771E-02  0.1043354E+00
         21   -1    0    0  502  501  0.00000000000E+00  0.00000000000E+00  0.24301314589E+03  0.24301314589E+03  0.00000000000E+00 0.  1.
         21   -1    0    0  501  502 -0.00000000000E+00 -0.00000000000E+00 -0.66245732270E+03  0.66245732270E+03  0.00000000000E+00 0.  1.
         25    1    1    2    0    0  0.30713848875E+03 -0.21282730381E+02 -0.31096397014E+03  0.45509405249E+03  0.12500000000E+03 0.  0.
         25    1    1    2    0    0 -0.59705530087E+02  0.53677172295E+02 -0.82844037565E+02  0.17010033424E+03  0.12500000000E+03 0.  0.
         25    1    1    2    0    0 -0.24743295866E+03 -0.32394441914E+02 -0.25636169109E+02  0.28027608187E+03  0.12500000000E+03 0.  0.
</event>
<event>
 5    0  0.5481966E-005  0.1973675E+03  0.7546771E-02  0.1151979E+00
         21   -1    0    0  502  501  0.00000000000E+00  0.00000000000E+00  0.71579433301E+02  0.71579433301E+02  0.00000000000E+00 0.  1.
         21   -1    0    0  501  502 -0.00000000000E+00 -0.00000000000E+00 -0.54420536676E+03  0.54420536676E+03  0.00000000000E+00 0.  1.
         25    1    1    2    0    0  0.67378473373E+01 -0.38402498505E+02 -0.11943208492E+03  0.17722633378E+03  0.12500000000E+03 0.  0.
         25    1    1    2    0    0  0.15146625490E+02  0.53252199482E+01 -0.14102467903E+03  0.18913153711E+03  0.12500000000E+03 0.  0.
         25    1    1    2    0    0 -0.21884472827E+02  0.33077278557E+02 -0.21216916951E+03  0.24942692917E+03  0.12500000000E+03 0.  0.
</event>
<event>
 5    0  0.5481966E-005  0.3289314E+03  0.7546771E-02  0.1071611E+00
         21   -1    0    0  502  501  0.00000000000E+00  0.00000000000E+00  0.11899454664E+03  0.11899454664E+03  0.00000000000E+00 0. -1.
         21   -1    0    0  501  502 -0.00000000000E+00 -0.00000000000E+00 -0.90925055035E+03  0.90925055035E+03  0.00000000000E+00 0. -1.
         25    1    1    2    0    0  0.63810532402E+02 -0.25722158974E+02 -0.30561031656E+03  0.33727745121E+03  0.12500000000E+03 0.  0.
         25    1    1    2    0    0 -0.13956597127E+03 -0.16578412445E+03 -0.22074252033E+03  0.33363947089E+03  0.12500000000E+03 0.  0.
         25    1    1    2    0    0  0.75755438871E+02  0.19150628342E+03 -0.26390316682E+03  0.35732817489E+03  0.12500000000E+03 0.  0.
</event>
<event>
 5    0  0.5481966E-005  0.2463308E+03  0.7546771E-02  0.1115646E+00
         21   -1    0    0  502  501  0.00000000000E+00  0.00000000000E+00  0.22323997276E+03  0.22323997276E+03  0.00000000000E+00 0.  1.
         21   -1    0    0  501  502 -0.00000000000E+00 -0.00000000000E+00 -0.27181003569E+03  0.27181003569E+03  0.00000000000E+00 0.  1.
         25    1    1    2    0    0 -0.78933729384E+01  0.30443045415E+02  0.78303859472E+01  0.12913326177E+03  0.12500000000E+03 0.  0.
         25    1    1    2    0    0  0.79177834413E+02 -0.25604524888E+02 -0.13495933665E+03  0.20190033112E+03  0.12500000000E+03 0.  0.
         25    1    1    2    0    0 -0.71284461475E+02 -0.48385205271E+01  0.78558887765E+02  0.16401641557E+03  0.12500000000E+03 0.  0.
</event>
<event>
 5    0  0.5563751E-005  0.5290625E+03  0.7546771E-02  0.1006460E+00
         21   -1    0    0  502  501  0.00000000000E+00  0.00000000000E+00  0.46967403243E+03  0.46967403243E+03  0.00000000000E+00 0. -1.
         21   -1    0    0  501  502 -0.00000000000E+00 -0.00000000000E+00 -0.59596051363E+03  0.59596051363E+03  0.00000000000E+00 0. -1.
         25    1    1    2    0    0  0.17782094662E+03 -0.92349298361E+02 -0.24913008973E+03  0.34327756054E+03  0.12500000000E+03 0.  0.
         25    1    1    2    0    0  0.71558358505E+02 -0.16491845885E+03  0.24032199986E+03  0.32511284251E+03  0.12500000000E+03 0.  0.
         25    1    1    2    0    0 -0.24937930512E+03  0.25726775722E+03 -0.11747839135E+03  0.39724414302E+03  0.12500000000E+03 0.  0.
</event>
<event>
 5    0  0.5481966E-005  0.2795933E+03  0.7546771E-02  0.1095911E+00
         21   -1    0    0  502  501  0.00000000000E+00  0.00000000000E+00  0.11622636362E+04  0.11622636362E+04  0.00000000000E+00 0.  1.
         21   -1    0    0  501  502 -0.00000000000E+00 -0.00000000000E+00 -0.67258748682E+02  0.67258748682E+02  0.00000000000E+00 0.  1.
         25    1    1    2    0    0 -0.15574305588E+03  0.10333871555E+03  0.31378726303E+03  0.38603398300E+03  0.12500000000E+03 0.  0.
         25    1    1    2    0    0  0.52307395890E+02 -0.31439691647E+02  0.38445130155E+03  0.40884266061E+03  0.12500000000E+03 0.  0.
         25    1    1    2    0    0  0.10343565999E+03 -0.71899023900E+02  0.39676632298E+03  0.43464574132E+03  0.12500000000E+03 0.  0.
</event>
<event>
 5    0  0.5481966E-005  0.3844493E+03  0.7546771E-02  0.1049301E+00
         21   -1    0    0  502  501  0.00000000000E+00  0.00000000000E+00  0.29428955701E+03  0.29428955701E+03  0.00000000000E+00 0. -1.
         21   -1    0    0  501  502 -0.00000000000E+00 -0.00000000000E+00 -0.50223068338E+03  0.50223068338E+03  0.00000000000E+00 0. -1.
         25    1    1    2    0    0 -0.11967358017E+03 -0.96292598786E+02  0.91623505628E+02  0.21820608872E+03  0.12500000000E+03 0.  0.
         25    1    1    2    0    0  0.11519985776E+03 -0.13436009162E+03 -0.64600628211E+02  0.22610148742E+03  0.12500000000E+03 0.  0.
         25    1    1    2    0    0  0.44737224125E+01  0.23065269040E+03 -0.23496400379E+03  0.35221266425E+03  0.12500000000E+03 0.  0.
</event>
<event>
 5    0  0.5481966E-005  0.3222965E+03  0.7546771E-02  0.1074597E+00
         21   -1    0    0  502  501  0.00000000000E+00  0.00000000000E+00  0.76040532218E+03  0.76040532218E+03  0.00000000000E+00 0. -1.
         21   -1    0    0  501  502 -0.00000000000E+00 -0.00000000000E+00 -0.13660479783E+03  0.13660479783E+03  0.00000000000E+00 0. -1.
         25    1    1    2    0    0  0.44572956071E+02  0.12075632495E+03  0.19058828794E+03  0.26175892331E+03  0.12500000000E+03 0.  0.
         25    1    1    2    0    0 -0.15292618182E+02 -0.24165002035E+03  0.34020614306E+03  0.43588280109E+03  0.12500000000E+03 0.  0.
         25    1    1    2    0    0 -0.29280337889E+02  0.12089369539E+03  0.93006093336E+02  0.19936839562E+03  0.12500000000E+03 0.  0.
</event>
<event>
 5    0  0.5481966E-005  0.2399518E+03  0.7546771E-02  0.1119825E+00
         21   -1    0    0  502  501  0.00000000000E+00  0.00000000000E+00  0.41936716060E+02  0.41936716060E+02  0.00000000000E+00 0.  1.
         21   -1    0    0  501  502 -0.00000000000E+00 -0.00000000000E+00 -0.13729469159E+04  0.13729469159E+04  0.00000000000E+00 0. -1.
         25    1    1    2    0    0  0.20508904378E+02 -0.91809790777E+02 -0.67822111268E+03  0.69603055287E+03  0.12500000000E+03 0.  0.
         25    1    1    2    0    0  0.46245928505E+02  0.12288265093E+02 -0.35868328345E+03  0.38284250703E+03  0.12500000000E+03 0.  0.
         25    1    1    2    0    0 -0.66754832883E+02  0.79521525684E+02 -0.29410580371E+03  0.33601057206E+03  0.12500000000E+03 0.  0.
</event>
<event>
 5    0  0.5481966E-005  0.2671552E+03  0.7546771E-02  0.1102919E+00
         21   -1    0    0  502  501  0.00000000000E+00  0.00000000000E+00  0.64842224822E+02  0.64842224822E+02  0.00000000000E+00 0.  1.
         21   -1    0    0  501  502 -0.00000000000E+00 -0.00000000000E+00 -0.11007012986E+04  0.11007012986E+04  0.00000000000E+00 0.  1.
         25    1    1    2    0    0  0.35280025831E+02  0.15073151147E+03 -0.57534344812E+03  0.60877725981E+03  0.12500000000E+03 0.  0.
         25    1    1    2    0    0 -0.47302219286E+02 -0.26560235200E+02 -0.20534263025E+03  0.24644176156E+03  0.12500000000E+03 0.  0.
         25    1    1    2    0    0  0.12022193455E+02 -0.12417127627E+03 -0.25517299543E+03  0.31032450206E+03  0.12500000000E+03 0.  0.
</event>
<event>
 5    0  0.5481966E-005  0.2373965E+03  0.7546771E-02  0.1121539E+00
         21   -1    0    0  502  501  0.00000000000E+00  0.00000000000E+00  0.25735025911E+03  0.25735025911E+03  0.00000000000E+00 0.  1.
         21   -1    0    0  501  502 -0.00000000000E+00 -0.00000000000E+00 -0.21898989480E+03  0.21898989480E+03  0.00000000000E+00 0.  1.
         25    1    1    2    0    0  0.68702465831E+02  0.60257288053E+02 -0.72125362381E+01  0.15500964568E+03  0.12500000000E+03 0.  0.
         25    1    1    2    0    0 -0.91355877440E+02 -0.95704694324E+02  0.70528108049E+00  0.18201863168E+03  0.12500000000E+03 0.  0.
         25    1    1    2    0    0  0.22653411609E+02  0.35447406271E+02  0.44867619473E+02  0.13931187654E+03  0.12500000000E+03 0.  0.
</event>
<event>
 5    0  0.5481966E-005  0.3061714E+03  0.7546771E-02  0.1082196E+00
         21   -1    0    0  502  501  0.00000000000E+00  0.00000000000E+00  0.42132030451E+03  0.42132030451E+03  0.00000000000E+00 0. -1.
         21   -1    0    0  501  502 -0.00000000000E+00 -0.00000000000E+00 -0.22249330988E+03  0.22249330988E+03  0.00000000000E+00 0. -1.
         25    1    1    2    0    0  0.28358720215E+02 -0.75347411097E+02 -0.22588557830E+02  0.15038847135E+03  0.12500000000E+03 0.  0.
         25    1    1    2    0    0 -0.29569771810E+02  0.20605181151E+03  0.57925737495E+02  0.24962394015E+03  0.12500000000E+03 0.  0.
         25    1    1    2    0    0  0.12110515949E+01 -0.13070440041E+03  0.16348981496E+03  0.24380120289E+03  0.12500000000E+03 0.  0.
</event>
<event>
 5    0  0.5481966E-005  0.5081439E+03  0.7546771E-02  0.1011675E+00
         21   -1    0    0  502  501  0.00000000000E+00  0.00000000000E+00  0.22555247841E+04  0.22555247841E+04  0.00000000000E+00 0.  1.
         21   -1    0    0  501  502 -0.00000000000E+00 -0.00000000000E+00 -0.11447899090E+03  0.11447899090E+03  0.00000000000E+00 0.  1.
         25    1    1    2    0    0  0.37306613625E+02  0.28324572939E+02  0.12834933145E+03  0.18518265507E+03  0.12500000000E+03 0.  0.
         25    1    1    2    0    0 -0.25595496825E+03  0.22354768847E+03  0.42815591386E+03  0.56073969127E+03  0.12500000000E+03 0.  0.
         25    1    1    2    0    0  0.21864835463E+03 -0.25187226141E+03  0.15845405479E+04  0.16240814287E+04  0.12500000000E+03 0.  0.
</event>
<event>
 5    0  0.5481966E-005  0.3026049E+03  0.7546771E-02  0.1083946E+00
         21   -1    0    0  502  501  0.00000000000E+00  0.00000000000E+00  0.87922248637E+03  0.87922248637E+03  0.00000000000E+00 0. -1.
         21   -1    0    0  501  502 -0.00000000000E+00 -0.00000000000E+00 -0.10414855850E+03  0.10414855850E+03  0.00000000000E+00 0. -1.
         25    1    1    2    0    0 -0.12453731662E+03 -0.58705840991E+02  0.12079664806E+03  0.22174929352E+03  0.12500000000E+03 0.  0.
         25    1    1    2    0    0  0.77437668034E+02  0.98492144289E+02  0.57424709594E+03  0.60090100858E+03  0.12500000000E+03 0.  0.
         25    1    1    2    0    0  0.47099648581E+02 -0.39786303298E+02  0.80030183861E+02  0.16072074277E+03  0.12500000000E+03 0.  0.
</event>
<event>
 5    0  0.5481966E-005  0.3410201E+03  0.7546771E-02  0.1066362E+00
         21   -1    0    0  502  501  0.00000000000E+00  0.00000000000E+00  0.20475933736E+04  0.20475933736E+04  0.00000000000E+00 0.  1.
         21   -1    0    0  501  502 -0.00000000000E+00 -0.00000000000E+00 -0.56795789623E+02  0.56795789623E+02  0.00000000000E+00 0.  1.
         25    1    1    2    0    0 -0.28191100121E+02  0.17351590392E+03  0.62458524873E+03  0.66078305061E+03  0.12500000000E+03 0.  0.
         25    1    1    2    0    0 -0.67951554776E+02 -0.25064895332E+03  0.92058864040E+03  0.96465058774E+03  0.12500000000E+03 0.  0.
         25    1    1    2    0    0  0.96142654897E+02  0.77133049399E+02  0.44562369490E+03  0.47895552492E+03  0.12500000000E+03 0.  0.
</event>
<event>
 5    0  0.5481966E-005  0.3240276E+03  0.7546771E-02  0.1073810E+00
         21   -1    0    0  502  501  0.00000000000E+00  0.00000000000E+00  0.25749918057E+03  0.25749918057E+03  0.00000000000E+00 0.  1.
         21   -1    0    0  501  502 -0.00000000000E+00 -0.00000000000E+00 -0.40774466468E+03  0.40774466468E+03  0.00000000000E+00 0.  1.
         25    1    1    2    0    0 -0.53059379041E+02  0.22360212079E+03 -0.11252287283E+03  0.28477992035E+03  0.12500000000E+03 0.  0.
         25    1    1    2    0    0  0.66336633162E+01 -0.19355280921E+03 -0.68278962023E+02  0.24040322814E+03  0.12500000000E+03 0.  0.
         25    1    1    2    0    0  0.46425715725E+02 -0.30049311571E+02  0.30556350741E+02  0.14006069676E+03  0.12500000000E+03 0.  0.
</event>
<event>
 5    0  0.5481966E-005  0.3033216E+03  0.7546771E-02  0.1083592E+00
         21   -1    0    0  502  501  0.00000000000E+00  0.00000000000E+00  0.24076597465E+03  0.24076597465E+03  0.00000000000E+00 0. -1.
         21   -1    0    0  501  502 -0.00000000000E+00 -0.00000000000E+00 -0.38213039112E+03  0.38213039112E+03  0.00000000000E+00 0. -1.
         25    1    1    2    0    0  0.66620997094E+02 -0.11689092634E+03 -0.50201103431E+02  0.19038644043E+03  0.12500000000E+03 0.  0.
         25    1    1    2    0    0 -0.17358168284E+02  0.81846630224E+02 -0.20409220727E+03  0.25353265264E+03  0.12500000000E+03 0.  0.
         25    1    1    2    0    0 -0.49262828810E+02  0.35044296112E+02  0.11292889423E+03  0.17897727271E+03  0.12500000000E+03 0.  0.
</event>
<event>
 5    0  0.5481966E-005  0.3617136E+03  0.7546771E-02  0.1057907E+00
         21   -1    0    0  502  501  0.00000000000E+00  0.00000000000E+00  0.32450461140E+03  0.32450461140E+03  0.00000000000E+00 0.  1.
         21   -1    0    0  501  502 -0.00000000000E+00 -0.00000000000E+00 -0.40318916813E+03  0.40318916813E+03  0.00000000000E+00 0. -1.
         25    1    1    2    0    0  0.85849040670E+01  0.12544644157E+03 -0.15334858432E+03  0.23441693325E+03  0.12500000000E+03 0.  0.
         25    1    1    2    0    0  0.19156885699E+02  0.47802543698E+02  0.20197197911E+03  0.24304269131E+03  0.12500000000E+03 0.  0.
         25    1    1    2    0    0 -0.27741789766E+02 -0.17324898526E+03 -0.12730795152E+03  0.25023415497E+03  0.12500000000E+03 0.  0.
</event>
<event>
 5    0  0.5481966E-005  0.3225481E+03  0.7546771E-02  0.1074483E+00
         21   -1    0    0  502  501  0.00000000000E+00  0.00000000000E+00  0.12011929372E+03  0.12011929372E+03  0.00000000000E+00 0.  1.
         21   -1    0    0  501  502 -0.00000000000E+00 -0.00000000000E+00 -0.86611604919E+03  0.86611604919E+03  0.00000000000E+00 0.  1.
         25    1    1    2    0    0  0.76385469604E+01  0.24635752793E+02 -0.31560292344E+03  0.34043424182E+03  0.12500000000E+03 0.  0.
         25    1    1    2    0    0  0.94713276058E+01  0.37148637633E+02 -0.47948314043E+03  0.49698974767E+03  0.12500000000E+03 0.  0.
         25    1    1    2    0    0 -0.17109874566E+02 -0.61784390426E+02  0.49089308410E+02  0.14881135343E+03  0.12500000000E+03 0.  0.
</event>
<event>
 5    0  0.5481966E-005  0.3886059E+03  0.7546771E-02  0.1047798E+00
         21   -1    0    0  502  501  0.00000000000E+00  0.00000000000E+00  0.74094581320E+03  0.74094581320E+03  0.00000000000E+00 0.  1.
         21   -1    0    0  501  502 -0.00000000000E+00 -0.00000000000E+00 -0.20381322207E+03  0.20381322207E+03  0.00000000000E+00 0.  1.
         25    1    1    2    0    0  0.19602384389E+02  0.90720287082E+02  0.27740103214E+03  0.31810494588E+03  0.12500000000E+03 0.  0.
         25    1    1    2    0    0  0.15351092987E+03  0.95461711070E+02 -0.29549736127E+02  0.22175827104E+03  0.12500000000E+03 0.  0.
         25    1    1    2    0    0 -0.17311331426E+03 -0.18618199815E+03  0.28928129512E+03  0.40489581835E+03  0.12500000000E+03 0.  0.
</event>
<event>
 5    0  0.6330464E-005  0.2857621E+03  0.7546771E-02  0.1092583E+00
         21   -1    0    0  502  501  0.00000000000E+00  0.00000000000E+00  0.23123705019E+03  0.23123705019E+03  0.00000000000E+00 0. -1.
         21   -1    0    0  501  502 -0.00000000000E+00 -0.00000000000E+00 -0.35314388404E+03  0.35314388404E+03  0.00000000000E+00 0. -1.
         25    1    1    2    0    0  0.12939360605E+03  0.76195078718E+01 -0.21357670677E+03  0.27935778468E+03  0.12500000000E+03 0.  0.
         25    1    1    2    0    0 -0.38589443128E+02 -0.31569078692E+02  0.42643553591E+02  0.14117090534E+03  0.12500000000E+03 0.  0.
         25    1    1    2    0    0 -0.90804162920E+02  0.23949570820E+02  0.49026319325E+02  0.16385224421E+03  0.12500000000E+03 0.  0.
</event>
<event>
 5    0  0.5481966E-005  0.3324858E+03  0.7546771E-02  0.1070042E+00
         21   -1    0    0  502  501  0.00000000000E+00  0.00000000000E+00  0.14742598187E+03  0.14742598187E+03  0.00000000000E+00 0. -1.
         21   -1    0    0  501  502 -0.00000000000E+00 -0.00000000000E+00 -0.74984637847E+03  0.74984637847E+03  0.00000000000E+00 0. -1.
         25    1    1    2    0    0 -0.11537501715E+03 -0.66894548083E+01 -0.35376483138E+02  0.17387535463E+03  0.12500000000E+03 0.  0.
         25    1    1    2    0    0  0.90884980556E+02 -0.10896975467E+03 -0.77265538902E+02  0.20427787601E+03  0.12500000000E+03 0.  0.
         25    1    1    2    0    0  0.24490036597E+02  0.11565920948E+03 -0.48977837456E+03  0.51911912970E+03  0.12500000000E+03 0.  0.
</event>
<event>
 5    0  0.5481966E-005  0.3316687E+03  0.7546771E-02  0.1070401E+00
         21   -1    0    0  502  501  0.00000000000E+00  0.00000000000E+00  0.44197715539E+03  0.44197715539E+03  0.00000000000E+00 0. -1.
         21   -1    0    0  501  502 -0.00000000000E+00 -0.00000000000E+00 -0.24889100642E+03  0.24889100642E+03  0.00000000000E+00 0. -1.
         25    1    1    2    0    0 -0.11972851018E+03  0.12217107168E+03 -0.49721992343E+02  0.21761884897E+03  0.12500000000E+03 0.  0.
         25    1    1    2    0    0  0.98297686719E+02  0.70789011177E+02  0.12277403161E+03  0.21300700025E+03  0.12500000000E+03 0.  0.
         25    1    1    2    0    0  0.21430823459E+02 -0.19296008286E+03  0.12003410970E+03  0.26024231259E+03  0.12500000000E+03 0.  0.
</event>
<event>
 5    0  0.5676455E-005  0.2554480E+03  0.7546771E-02  0.1109909E+00
         21   -1    0    0  502  501  0.00000000000E+00  0.00000000000E+00  0.39218253622E+03  0.39218253622E+03  0.00000000000E+00 0. -1.
         21   -1    0    0  501  502 -0.00000000000E+00 -0.00000000000E+00 -0.16638593423E+03  0.16638593423E+03  0.00000000000E+00 0. -1.
         25    1    1    2    0    0  0.95305678581E+02  0.67932769730E+02  0.10105502618E+03  0.19883448365E+03  0.12500000000E+03 0.  0.
         25    1    1    2    0    0  0.13943242930E+02  0.47237426287E+01  0.12658413567E+03  0.17850846247E+03  0.12500000000E+03 0.  0.
         25    1    1    2    0    0 -0.10924892151E+03 -0.72656512359E+02 -0.18425598664E+01  0.18122552432E+03  0.12500000000E+03 0.  0.
</event>
<event>
 5    0  0.5481966E-005  0.3903864E+03  0.7546771E-02  0.1047160E+00
         21   -1    0    0  502  501  0.00000000000E+00  0.00000000000E+00  0.73503351660E+03  0.73503351660E+03  0.00000000000E+00 0.  1.
         21   -1    0    0  501  502 -0.00000000000E+00 -0.00000000000E+00 -0.20733955764E+03  0.20733955764E+03  0.00000000000E+00 0.  1.
         25    1    1    2    0    0 -0.11760093345E+03  0.24788641137E+03  0.92846286122E+02  0.31547279651E+03  0.12500000000E+03 0.  0.
         25    1    1    2    0    0 -0.62526949453E+02 -0.37283292696E+02  0.17435707181E+03  0.22655032953E+03  0.12500000000E+03 0.  0.
         25    1    1    2    0    0  0.18012788290E+03 -0.21060311867E+03  0.26049060103E+03  0.40034994819E+03  0.12500000000E+03 0.  0.
</event>
<event>
 5    0  0.5481966E-005  0.2725716E+03  0.7546771E-02  0.1099817E+00
         21   -1    0    0  502  501  0.00000000000E+00  0.00000000000E+00  0.29239109648E+03  0.29239109648E+03  0.00000000000E+00 0.  1.
         21   -1    0    0  501  502 -0.00000000000E+00 -0.00000000000E+00 -0.25409558312E+03  0.25409558312E+03  0.00000000000E+00 0.  1.
         25    1    1    2    0    0  0.17125309229E+02  0.16536477227E+02  0.37291051589E+02  0.13259846841E+03  0.12500000000E+03 0.  0.
         25    1    1    2    0    0 -0.66174461784E+02  0.14210091697E+03 -0.33301018444E+02  0.20323800783E+03  0.12500000000E+03 0.  0.
         25    1    1    2    0    0  0.49049152555E+02 -0.15863739420E+03  0.34305480222E+02  0.21065020337E+03  0.12500000000E+03 0.  0.
</event>
<event>
 5    0  0.5481966E-005  0.2542234E+03  0.7546771E-02  0.1110664E+00
         21   -1    0    0  502  501  0.00000000000E+00  0.00000000000E+00  0.48681250133E+02  0.48681250133E+02  0.00000000000E+00 0. -1.
         21   -1    0    0  501  502 -0.00000000000E+00 -0.00000000000E+00 -0.13276065464E+04  0.13276065464E+04  0.00000000000E+00 0. -1.
         25    1    1    2    0    0  0.58698612086E+02 -0.53291234850E+02 -0.31263666005E+03  0.34590773911E+03  0.12500000000E+03 0.  0.
         25    1    1    2    0    0 -0.10859548786E+03 -0.56844073896E+02 -0.37142697847E+03  0.41061810609E+03  0.12500000000E+03 0.  0.
         25    1    1    2    0    0  0.49896875770E+02  0.11013530875E+03 -0.59486165773E+03  0.61976195130E+03  0.12500000000E+03 0.  0.
</event>
<event>
 5    0  0.5481966E-005  0.2972007E+03  0.7546771E-02  0.1086648E+00
         21   -1    0    0  502  501  0.00000000000E+00  0.00000000000E+00  0.10300404038E+03  0.10300404038E+03  0.00000000000E+00 0.  1.
         21   -1    0    0  501  502 -0.00000000000E+00 -0.00000000000E+00 -0.85752216498E+03  0.85752216498E+03  0.00000000000E+00 0.  1.
         25    1    1    2    0    0  0.19999983230E+03 -0.44905658919E+02 -0.37453390750E+03  0.44487874639E+03  0.12500000000E+03 0.  0.
         25    1    1    2    0    0 -0.94743203453E+02  0.58132426295E+02 -0.11138461805E+03  0.20096563568E+03  0.12500000000E+03 0.  0.
         25    1    1    2    0    0 -0.10525662884E+03 -0.13226767377E+02 -0.26859959906E+03  0.31468182328E+03  0.12500000000E+03 0.  0.
</event>
<event>
 5    0  0.5481966E-005  0.3163051E+03  0.7546771E-02  0.1077362E+00
         21   -1    0    0  502  501  0.00000000000E+00  0.00000000000E+00  0.66740676690E+03  0.66740676690E+03  0.00000000000E+00 0.  1.
         21   -1    0    0  501  502 -0.00000000000E+00 -0.00000000000E+00 -0.14990694281E+03  0.14990694281E+03  0.00000000000E+00 0.  1.
         25    1    1    2    0    0 -0.36975522706E+02 -0.15619480915E+02 -0.40689544623E+02  0.13744743179E+03  0.12500000000E+03 0.  0.
         25    1    1    2    0    0  0.40902899005E+02 -0.12469956473E+03  0.16966058593E+03  0.24825942682E+03  0.12500000000E+03 0.  0.
         25    1    1    2    0    0 -0.39273762992E+01  0.14031904564E+03  0.38852878279E+03  0.43160685110E+03  0.12500000000E+03 0.  0.
</event>
<event>
 5    0  0.5481966E-005  0.3081083E+03  0.7546771E-02  0.1081256E+00
         21   -1    0    0  502  501  0.00000000000E+00  0.00000000000E+00  0.13305631777E+03  0.13305631777E+03  0.00000000000E+00 0.  1.
         21   -1    0    0  501  502 -0.00000000000E+00 -0.00000000000E+00 -0.71346286479E+03  0.71346286479E+03  0.00000000000E+00 0.  1.
         25    1    1    2    0    0  0.32265436262E+02 -0.89895010155E+02 -0.44124484406E+03  0.46844869905E+03  0.12500000000E+03 0.  0.
         25    1    1    2    0    0 -0.43899298048E+02  0.15966920793E+03 -0.91326821184E+02  0.22668699257E+03  0.12500000000E+03 0.  0.
         25    1    1    2    0    0  0.11633861786E+02 -0.69774197780E+02 -0.47834881781E+02  0.15138349095E+03  0.12500000000E+03 0.  0.
</event>
<event>
 5    0  0.5481966E-005  0.3320805E+03  0.7546771E-02  0.1070220E+00
         21   -1    0    0  502  501  0.00000000000E+00  0.00000000000E+00  0.39114565101E+03  0.39114565101E+03  0.00000000000E+00 0. -1.
         21   -1    0    0  501  502 -0.00000000000E+00 -0.00000000000E+00 -0.28193459271E+03  0.28193459271E+03  0.00000000000E+00 0. -1.
         25    1    1    2    0    0  0.96265099773E+02 -0.28244164972E+02  0.60558231438E+02  0.17133885048E+03  0.12500000000E+03 0.  0.
         25    1    1    2    0    0  0.10288365320E+03 -0.13240737601E+03  0.57256535276E+02  0.21684111730E+03  0.12500000000E+03 0.  0.
         25    1    1    2    0    0 -0.19914875298E+03  0.16065154099E+03 -0.86037084163E+01  0.28490027594E+03  0.12500000000E+03 0.  0.
</event>
<event>
 5    0  0.5481966E-005  0.2952011E+03  0.7546771E-02  0.1087664E+00
         21   -1    0    0  502  501  0.00000000000E+00  0.00000000000E+00  0.35147059937E+03  0.35147059937E+03  0.00000000000E+00 0. -1.
         21   -1    0    0  501  502 -0.00000000000E+00 -0.00000000000E+00 -0.24794023854E+03  0.24794023854E+03  0.00000000000E+00 0. -1.
         25    1    1    2    0    0 -0.17121455158E+03 -0.41413786252E+02  0.60798674581E+02  0.22439029212E+03  0.12500000000E+03 0.  0.
         25    1    1    2    0    0  0.53846917179E+02  0.11959859483E+03  0.44470591331E+02  0.18656352234E+03  0.12500000000E+03 0.  0.
         25    1    1    2    0    0  0.11736763440E+03 -0.78184808576E+02 -0.17389050887E+01  0.18845702345E+03  0.12500000000E+03 0.  0.
</event>
<event>
 5    0  0.5481966E-005  0.2340358E+03  0.7546771E-02  0.1123831E+00
         21   -1    0    0  502  501  0.00000000000E+00  0.00000000000E+00  0.45473348165E+03  0.45473348165E+03  0.00000000000E+00 0.  1.
         21   -1    0    0  501  502 -0.00000000000E+00 -0.00000000000E+00 -0.12045027738E+03  0.12045027738E+03  0.00000000000E+00 0.  1.
         25    1    1    2    0    0  0.10600169479E+02 -0.63676432350E+02  0.19723131108E+03  0.24226481729E+03  0.12500000000E+03 0.  0.
         25    1    1    2    0    0 -0.62141064330E+02  0.88864272731E+02  0.66469653785E+02  0.17832999108E+03  0.12500000000E+03 0.  0.
         25    1    1    2    0    0  0.51540894851E+02 -0.25187840381E+02  0.70582239416E+02  0.15458895066E+03  0.12500000000E+03 0.  0.
</event>
<event>
 5    0  0.5481966E-005  0.3703607E+03  0.7546771E-02  0.1054555E+00
         21   -1    0    0  502  501  0.00000000000E+00  0.00000000000E+00  0.34156356961E+03  0.34156356961E+03  0.00000000000E+00 0.  1.
         21   -1    0    0  501  502 -0.00000000000E+00 -0.00000000000E+00 -0.40158562684E+03  0.40158562684E+03  0.00000000000E+00 0.  1.
         25    1    1    2    0    0 -0.19248219234E+03  0.87441954381E+02 -0.50560202185E+02  0.25075251504E+03  0.12500000000E+03 0.  0.
         25    1    1    2    0    0  0.79290795145E+02  0.33169353977E+02 -0.17171708793E+03  0.22912659061E+03  0.12500000000E+03 0.  0.
         25    1    1    2    0    0  0.11319139720E+03 -0.12061130836E+03  0.16225523289E+03  0.26327009079E+03  0.12500000000E+03 0.  0.
</event>
<event>
 5    0  0.5481966E-005  0.2248580E+03  0.7546771E-02  0.1130312E+00
         21   -1    0    0  502  501  0.00000000000E+00  0.00000000000E+00  0.20454295108E+02  0.20454295108E+02  0.00000000000E+00 0.  1.
         21   -1    0    0  501  502 -0.00000000000E+00 -0.00000000000E+00 -0.24719078931E+04  0.24719078931E+04  0.00000000000E+00 0.  1.
         25    1    1    2    0    0  0.53912952293E+02 -0.56092433499E+02 -0.90328797703E+03  0.91520879419E+03  0.12500000000E+03 0.  0.
         25    1    1    2    0    0 -0.33106926968E+02  0.31460085172E+02 -0.11703566311E+04  0.11778987434E+04  0.12500000000E+03 0.  0.
         25    1    1    2    0    0 -0.20806025325E+02  0.24632348328E+02 -0.37780898982E+03  0.39925465065E+03  0.12500000000E+03 0.  0.
</event>
<event>
 5    0  0.5481966E-005  0.2623185E+03  0.7546771E-02  0.1105758E+00
         21   -1    0    0  502  501  0.00000000000E+00  0.00000000000E+00  0.93593338682E+02  0.93593338682E+02  0.00000000000E+00 0. -1.
         21   -1    0    0  501  502 -0.00000000000E+00 -0.00000000000E+00 -0.73521240488E+03  0.73521240488E+03  0.00000000000E+00 0. -1.
         25    1    1    2    0    0 -0.73939381134E+02 -0.75133867496E+01 -0.61482539471E+02  0.15788788973E+03  0.12500000000E+03 0.  0.
         25    1    1    2    0    0  0.34077537872E+02 -0.11802023353E+02 -0.49848153341E+03  0.51517900335E+03  0.12500000000E+03 0.  0.
         25    1    1    2    0    0  0.39861843263E+02  0.19315410103E+02 -0.81654993315E+02  0.15573885048E+03  0.12500000000E+03 0.  0.
</event>
<event>
 5    0  0.5481966E-005  0.4532423E+03  0.7546771E-02  0.1026760E+00
         21   -1    0    0  502  501  0.00000000000E+00  0.00000000000E+00  0.80686229932E+02  0.80686229932E+02  0.00000000000E+00 0. -1.
         21   -1    0    0  501  502 -0.00000000000E+00 -0.00000000000E+00 -0.25460175461E+04  0.25460175461E+04  0.00000000000E+00 0. -1.
         25    1    1    2    0    0  0.91514395383E+02 -0.37598441558E+03 -0.84061460385E+03  0.93380783758E+03  0.12500000000E+03 0.  0.
         25    1    1    2    0    0 -0.26581231428E+02  0.23854617541E+03 -0.10906515001E+04  0.11237244032E+04  0.12500000000E+03 0.  0.
         25    1    1    2    0    0 -0.64933163955E+02  0.13743824017E+03 -0.53406521219E+03  0.56917153523E+03  0.12500000000E+03 0.  0.
</event>
<event>
 5    0  0.5481966E-005  0.3207111E+03  0.7546771E-02  0.1075322E+00
         21   -1    0    0  502  501  0.00000000000E+00  0.00000000000E+00  0.20761281466E+03  0.20761281466E+03  0.00000000000E+00 0. -1.
         21   -1    0    0  501  502 -0.00000000000E+00 -0.00000000000E+00 -0.49542044246E+03  0.49542044246E+03  0.00000000000E+00 0. -1.
         25    1    1    2    0    0  0.12308978866E+02 -0.23080652952E+03 -0.24525030493E+03  0.35943827996E+03  0.12500000000E+03 0.  0.
         25    1    1    2    0    0 -0.10413592676E+02  0.10662086371E+03 -0.16154330062E+02  0.16541588155E+03  0.12500000000E+03 0.  0.
         25    1    1    2    0    0 -0.18953861900E+01  0.12418566582E+03 -0.26402992810E+02  0.17817909561E+03  0.12500000000E+03 0.  0.
</event>
<event>
 5    0  0.5481966E-005  0.3276375E+03  0.7546771E-02  0.1072187E+00
         21   -1    0    0  502  501  0.00000000000E+00  0.00000000000E+00  0.63800741396E+03  0.63800741396E+03  0.00000000000E+00 0.  1.
         21   -1    0    0  501  502 -0.00000000000E+00 -0.00000000000E+00 -0.16825244716E+03  0.16825244716E+03  0.00000000000E+00 0.  1.
         25    1    1    2    0    0  0.10289748626E+03 -0.12041975311E+03 -0.30476414412E+02  0.20406523823E+03  0.12500000000E+03 0.  0.
         25    1    1    2    0    0  0.20048224479E+02  0.41542292311E+02  0.13631859032E+03  0.19061860198E+03  0.12500000000E+03 0.  0.
         25    1    1    2    0    0 -0.12294571073E+03  0.78877460800E+02  0.36391279089E+03  0.41157602090E+03  0.12500000000E+03 0.  0.
</event>
<event>
 5    0  0.5481966E-005  0.2634913E+03  0.7546771E-02  0.1105064E+00
         21   -1    0    0  502  501  0.00000000000E+00  0.00000000000E+00  0.10127601436E+03  0.10127601436E+03  0.00000000000E+00 0. -1.
         21   -1    0    0  501  502 -0.00000000000E+00 -0.00000000000E+00 -0.68552898815E+03  0.68552898815E+03  0.00000000000E+00 0. -1.
         25    1    1    2    0    0 -0.10452315378E+03  0.11601861700E+03 -0.21317927242E+03  0.29232825959E+03  0.12500000000E+03 0.  0.
         25    1    1    2    0    0  0.29749649600E+02 -0.11838521808E+03 -0.15309083932E+03  0.23229702235E+03  0.12500000000E+03 0.  0.
         25    1    1    2    0    0  0.74773504177E+02  0.23666010784E+01 -0.21798286206E+03  0.26217972057E+03  0.12500000000E+03 0.  0.
</event>
<event>
 5    0  0.6653818E-005  0.3298568E+03  0.7546771E-02  0.1071200E+00
         21   -1    0    0  502  501  0.00000000000E+00  0.00000000000E+00  0.45473299712E+03  0.45473299712E+03  0.00000000000E+00 0.  1.
         21   -1    0    0  501  502 -0.00000000000E+00 -0.00000000000E+00 -0.23927340787E+03  0.23927340787E+03  0.00000000000E+00 0.  1.
         25    1    1    2    0    0  0.42531019398E+02  0.10960180529E+03 -0.92980404666E+02  0.19517120429E+03  0.12500000000E+03 0.  0.
         25    1    1    2    0    0 -0.63416932684E+02  0.64553889134E+02  0.21355146256E+03  0.26347322276E+03  0.12500000000E+03 0.  0.
         25    1    1    2    0    0  0.20885913286E+02 -0.17415569442E+03  0.94888531364E+02  0.23536197794E+03  0.12500000000E+03 0.  0.
</event>
<event>
 5    0  0.5481966E-005  0.3564441E+03  0.7546771E-02  0.1060001E+00
         21   -1    0    0  502  501  0.00000000000E+00  0.00000000000E+00  0.69445888236E+03  0.69445888236E+03  0.00000000000E+00 0. -1.
         21   -1    0    0  501  502 -0.00000000000E+00 -0.00000000000E+00 -0.18295160162E+03  0.18295160162E+03  0.00000000000E+00 0. -1.
         25    1    1    2    0    0 -0.18996370755E+03 -0.53612019770E+02  0.16981950667E+02  0.23425167128E+03  0.12500000000E+03 0.  0.
         25    1    1    2    0    0  0.19195272232E+03  0.12887878532E+03  0.28347481629E+03  0.38657283968E+03  0.12500000000E+03 0.  0.
         25    1    1    2    0    0 -0.19890147661E+01 -0.75266765548E+02  0.21105051378E+03  0.25658597301E+03  0.12500000000E+03 0.  0.
</event>
<event>
 5    0  0.5481966E-005  0.2744418E+03  0.7546771E-02  0.1098764E+00
         21   -1    0    0  502  501  0.00000000000E+00  0.00000000000E+00  0.24689490072E+03  0.24689490072E+03  0.00000000000E+00 0.  1.
         21   -1    0    0  501  502 -0.00000000000E+00 -0.00000000000E+00 -0.30506228091E+03  0.30506228091E+03  0.00000000000E+00 0.  1.
         25    1    1    2    0    0 -0.97404609909E+02 -0.24783668754E+02  0.55216365903E+02  0.16963412196E+03  0.12500000000E+03 0.  0.
         25    1    1    2    0    0 -0.30959650904E+02  0.34957862846E+02 -0.14830259163E+03  0.19949739558E+03  0.12500000000E+03 0.  0.
         25    1    1    2    0    0  0.12836426081E+03 -0.10174194092E+02  0.34918845539E+02  0.18282566410E+03  0.12500000000E+03 0.  0.
</event>
<event>
 5    0  0.5481966E-005  0.3235441E+03  0.7546771E-02  0.1074030E+00
         21   -1    0    0  502  501  0.00000000000E+00  0.00000000000E+00  0.14502215550E+03  0.14502215550E+03  0.00000000000E+00 0. -1.
         21   -1    0    0  501  502 -0.00000000000E+00 -0.00000000000E+00 -0.72182626827E+03  0.72182626827E+03  0.00000000000E+00 0. -1.
         25    1    1    2    0    0  0.51933495079E-01  0.92386719452E+02 -0.78206050048E+02  0.17400142210E+03  0.12500000000E+03 0.  0.
         25    1    1    2    0    0 -0.14626618233E+03 -0.49777885484E+02 -0.53075502730E+02  0.20570280253E+03  0.12500000000E+03 0.  0.
         25    1    1    2    0    0  0.14621424884E+03 -0.42608833968E+02 -0.44552255999E+03  0.48714419914E+03  0.12500000000E+03 0.  0.
</event>
<event>
 5    0  0.5481966E-005  0.3879434E+03  0.7546771E-02  0.1048036E+00
         21   -1    0    0  502  501  0.00000000000E+00  0.00000000000E+00  0.16006599255E+04  0.16006599255E+04  0.00000000000E+00 0.  1.
         21   -1    0    0  501  502 -0.00000000000E+00 -0.00000000000E+00 -0.94023748920E+02  0.94023748920E+02  0.00000000000E+00 0.  1.
         25    1    1    2    0    0 -0.70872985039E+02 -0.66667753877E-01  0.16884204263E+03  0.22171066689E+03  0.12500000000E+03 0.  0.
         25    1    1    2    0    0 -0.22017094404E+03  0.43882864837E+02  0.86375285979E+03  0.90116311133E+03  0.12500000000E+03 0.  0.
         25    1    1    2    0    0  0.29104392908E+03 -0.43816197083E+02  0.47404127413E+03  0.57180989617E+03  0.12500000000E+03 0.  0.
</event>
<event>
 5    0  0.5481966E-005  0.3136889E+03  0.7546771E-02  0.1078591E+00
         21   -1    0    0  502  501  0.00000000000E+00  0.00000000000E+00  0.16591333272E+03  0.16591333272E+03  0.00000000000E+00 0. -1.
         21   -1    0    0  501  502 -0.00000000000E+00 -0.00000000000E+00 -0.59308520084E+03  0.59308520084E+03  0.00000000000E+00 0. -1.
         25    1    1    2    0    0 -0.66936717635E+02  0.63646643529E+01 -0.93946163919E+02  0.17021138280E+03  0.12500000000E+03 0.  0.
         25    1    1    2    0    0  0.99019237107E+02  0.18463127114E+03 -0.10898404240E+03  0.26720036882E+03  0.12500000000E+03 0.  0.
         25    1    1    2    0    0 -0.32082519472E+02 -0.19099593550E+03 -0.22424166179E+03  0.32158678193E+03  0.12500000000E+03 0.  0.
</event>
<event>
 5    0  0.5481966E-005  0.2991715E+03  0.7546771E-02  0.1085656E+00
         21   -1    0    0  502  501  0.00000000000E+00  0.00000000000E+00  0.20538747865E+03  0.20538747865E+03  0.00000000000E+00 0. -1.
         21   -1    0    0  501  502 -0.00000000000E+00 -0.00000000000E+00 -0.43577905518E+03  0.43577905518E+03  0.00000000000E+00 0. -1.
         25    1    1    2    0    0  0.50435544875E+02 -0.14353676994E+03 -0.10557378887E+01  0.19690775275E+03  0.12500000000E+03 0.  0.
         25    1    1    2    0    0 -0.61436529393E+02  0.13134224035E+03 -0.25168307270E+03  0.31621922827E+03  0.12500000000E+03 0.  0.
         25    1    1    2    0    0  0.11000984518E+02  0.12194529593E+02  0.22347234069E+02  0.12803955281E+03  0.12500000000E+03 0.  0.
</event>
<event>
 5    0  0.5481966E-005  0.3978692E+03  0.7546771E-02  0.1044520E+00
         21   -1    0    0  502  501  0.00000000000E+00  0.00000000000E+00  0.19994607523E+03  0.19994607523E+03  0.00000000000E+00 0. -1.
         21   -1    0    0  501  502 -0.00000000000E+00 -0.00000000000E+00 -0.79171310942E+03  0.79171310942E+03  0.00000000000E+00 0. -1.
         25    1    1    2    0    0 -0.15985234564E+03  0.22378087380E+03 -0.47414872443E+03  0.56220340159E+03  0.12500000000E+03 0.  0.
         25    1    1    2    0    0  0.14546960042E+03 -0.75950471675E+02 -0.78385641277E+01  0.20643721051E+03  0.12500000000E+03 0.  0.
         25    1    1    2    0    0  0.14382745218E+02 -0.14783040212E+03 -0.10977974563E+03  0.22301857255E+03  0.12500000000E+03 0.  0.
</event>
<event>
 5    0  0.5481966E-005  0.3274980E+03  0.7546771E-02  0.1072249E+00
         21   -1    0    0  502  501  0.00000000000E+00  0.00000000000E+00  0.75127542399E+03  0.75127542399E+03  0.00000000000E+00 0.  1.
         21   -1    0    0  501  502 -0.00000000000E+00 -0.00000000000E+00 -0.14276382578E+03  0.14276382578E+03  0.00000000000E+00 0.  1.
         25    1    1    2    0    0 -0.18863387528E+03  0.52782126775E+02  0.31037414384E+03  0.38771871373E+03  0.12500000000E+03 0.  0.
         25    1    1    2    0    0 -0.15778546286E+01 -0.10725728429E+02  0.23500865164E+03  0.26640494970E+03  0.12500000000E+03 0.  0.
         25    1    1    2    0    0  0.19021172991E+03 -0.42056398345E+02  0.63128802734E+02  0.23991558635E+03  0.12500000000E+03 0.  0.
</event>
<event>
 5    0  0.5481966E-005  0.2794104E+03  0.7546771E-02  0.1096011E+00
         21   -1    0    0  502  501  0.00000000000E+00  0.00000000000E+00  0.30620248335E+03  0.30620248335E+03  0.00000000000E+00 0.  1.
         21   -1    0    0  501  502 -0.00000000000E+00 -0.00000000000E+00 -0.25496255352E+03  0.25496255352E+03  0.00000000000E+00 0.  1.
         25    1    1    2    0    0 -0.59227824901E+02  0.13931158151E+03  0.81027711918E+02  0.21238206629E+03  0.12500000000E+03 0.  0.
         25    1    1    2    0    0  0.84717309566E+02  0.27561142988E+01  0.17600625788E+02  0.15205065187E+03  0.12500000000E+03 0.  0.
         25    1    1    2    0    0 -0.25489484665E+02 -0.14206769580E+03 -0.47388407875E+02  0.19673231870E+03  0.12500000000E+03 0.  0.
</event>
<event>
 5    0  0.5481966E-005  0.2945670E+03  0.7546771E-02  0.1087988E+00
         21   -1    0    0  502  501  0.00000000000E+00  0.00000000000E+00  0.15262262460E+03  0.15262262460E+03  0.00000000000E+00 0.  1.
         21   -1    0    0  501  502 -0.00000000000E+00 -0.00000000000E+00 -0.56852470810E+03  0.56852470810E+03  0.00000000000E+00 0.  1.
         25    1    1    2    0    0  0.46306813927E+02 -0.90477215333E+02 -0.20249695865E+03  0.25876720382E+03  0.12500000000E+03 0.  0.
         25    1    1    2    0    0 -0.67400359222E+02 -0.10047620842E+03 -0.50370380633E+02  0.18110895098E+03  0.12500000000E+03 0.  0.
         25    1    1    2    0    0  0.21093545295E+02  0.19095342375E+03 -0.16303474422E+03  0.28127117790E+03  0.12500000000E+03 0.  0.
</event>
<event>
 5    0  0.5481966E-005  0.2390995E+03  0.7546771E-02  0.1120394E+00
         21   -1    0    0  502  501  0.00000000000E+00  0.00000000000E+00  0.62631828929E+03  0.62631828929E+03  0.00000000000E+00 0.  1.
         21   -1    0    0  501  502 -0.00000000000E+00 -0.00000000000E+00 -0.91277165718E+02  0.91277165718E+02  0.00000000000E+00 0.  1.
         25    1    1    2    0    0 -0.45849696054E+01 -0.19740081768E+02  0.15103118004E+03  0.19709416561E+03  0.12500000000E+03 0.  0.
         25    1    1    2    0    0  0.34304000670E+00  0.10914512470E+03  0.90143287080E+02  0.18884805567E+03  0.12500000000E+03 0.  0.
         25    1    1    2    0    0  0.42419295987E+01 -0.89405042935E+02  0.29386665645E+03  0.33165323373E+03  0.12500000000E+03 0.  0.
</event>
<event>
 5    0  0.5481966E-005  0.3515642E+03  0.7546771E-02  0.1061975E+00
         21   -1    0    0  502  501  0.00000000000E+00  0.00000000000E+00  0.12221820332E+03  0.12221820332E+03  0.00000000000E+00 0. -1.
         21   -1    0    0  501  502 -0.00000000000E+00 -0.00000000000E+00 -0.10112848753E+04  0.10112848753E+04  0.00000000000E+00 0. -1.
         25    1    1    2    0    0  0.10283993995E+02  0.13263430416E+03 -0.20167148171E+03  0.27201839222E+03  0.12500000000E+03 0.  0.
         25    1    1    2    0    0  0.14184751336E+03  0.24316120053E+02 -0.53313879122E+03  0.56619251271E+03  0.12500000000E+03 0.  0.
         25    1    1    2    0    0 -0.15213150736E+03 -0.15695042422E+03 -0.15425639903E+03  0.29529217368E+03  0.12500000000E+03 0.  0.
</event>
<event>
 5    0  0.5481966E-005  0.2848406E+03  0.7546771E-02  0.1093074E+00
         21   -1    0    0  502  501  0.00000000000E+00  0.00000000000E+00  0.59311751436E+03  0.59311751436E+03  0.00000000000E+00 0.  1.
         21   -1    0    0  501  502 -0.00000000000E+00 -0.00000000000E+00 -0.13679277704E+03  0.13679277704E+03  0.00000000000E+00 0.  1.
         25    1    1    2    0    0 -0.76459877443E+02  0.51898043410E+02  0.75502396472E+02  0.17281531078E+03  0.12500000000E+03 0.  0.
         25    1    1    2    0    0  0.15085657003E+03 -0.19073988107E+02  0.64086897232E+02  0.20701123675E+03  0.12500000000E+03 0.  0.
         25    1    1    2    0    0 -0.74396692587E+02 -0.32824055303E+02  0.31673544362E+03  0.35008374386E+03  0.12500000000E+03 0.  0.
</event>
<event>
 5    0  0.5481966E-005  0.2582653E+03  0.7546771E-02  0.1108190E+00
         21   -1    0    0  502  501  0.00000000000E+00  0.00000000000E+00  0.10242229800E+04  0.10242229800E+04  0.00000000000E+00 0. -1.
         21   -1    0    0  501  502 -0.00000000000E+00 -0.00000000000E+00 -0.65123460069E+02  0.65123460069E+02  0.00000000000E+00 0. -1.
         25    1    1    2    0    0  0.43148979974E+01 -0.62693005278E+02  0.54701816244E+03  0.56462633776E+03  0.12500000000E+03 0.  0.
         25    1    1    2    0    0 -0.67392133483E+02 -0.33463705715E+02  0.25272650679E+03  0.29181707710E+03  0.12500000000E+03 0.  0.
         25    1    1    2    0    0  0.63077235485E+02  0.96156710993E+02  0.15935485069E+03  0.23290302519E+03  0.12500000000E+03 0.  0.
</event>
<event>
 5    0  0.6096944E-005  0.4246826E+03  0.7546771E-02  0.1035553E+00
         21   -1    0    0  502  501  0.00000000000E+00  0.00000000000E+00  0.31979160375E+03  0.31979160375E+03  0.00000000000E+00 0. -1.
         21   -1    0    0  501  502 -0.00000000000E+00 -0.00000000000E+00 -0.56397772241E+03  0.56397772241E+03  0.00000000000E+00 0. -1.
         25    1    1    2    0    0  0.14514518245E+03  0.11422355095E+01 -0.38913666888E+03  0.43372891967E+03  0.12500000000E+03 0.  0.
         25    1    1    2    0    0 -0.17610558049E+03 -0.95338758652E+02  0.23922212958E+01  0.23607917550E+03  0.12500000000E+03 0.  0.
         25    1    1    2    0    0  0.30960398039E+02  0.94196523143E+02  0.14255832894E+03  0.21396123099E+03  0.12500000000E+03 0.  0.
</event>
<event>
 5    0  0.5481966E-005  0.6542124E+03  0.7546771E-02  0.9798907E-01
         21   -1    0    0  502  501  0.00000000000E+00  0.00000000000E+00  0.28731361504E+04  0.28731361504E+04  0.00000000000E+00 0. -1.
         21   -1    0    0  501  502 -0.00000000000E+00 -0.00000000000E+00 -0.14896398329E+03  0.14896398329E+03  0.00000000000E+00 0. -1.
         25    1    1    2    0    0  0.64710750074E+02  0.14205656106E+03  0.28821354819E+03  0.35079851350E+03  0.12500000000E+03 0.  0.
         25    1    1    2    0    0 -0.28258838069E+03  0.16932130352E+03  0.21107463682E+03  0.41073519332E+03  0.12500000000E+03 0.  0.
         25    1    1    2    0    0  0.21787763062E+03 -0.31137786457E+03  0.22248839821E+04  0.22605664269E+04  0.12500000000E+03 0.  0.
</event>
<event>
 5    0  0.5481966E-005  0.3167591E+03  0.7546771E-02  0.1077151E+00
         21   -1    0    0  502  501  0.00000000000E+00  0.00000000000E+00  0.34377808405E+03  0.34377808405E+03  0.00000000000E+00 0.  1.
         21   -1    0    0  501  502 -0.00000000000E+00 -0.00000000000E+00 -0.29186366382E+03  0.29186366382E+03  0.00000000000E+00 0.  1.
         25    1    1    2    0    0  0.62644118306E+02  0.29623355516E+02  0.79959292890E+02  0.16376909742E+03  0.12500000000E+03 0.  0.
         25    1    1    2    0    0  0.14059847304E+03  0.82148781086E+02  0.10647640112E+02  0.20555954149E+03  0.12500000000E+03 0.  0.
         25    1    1    2    0    0 -0.20324259135E+03 -0.11177213660E+03 -0.38692512774E+02  0.26631310896E+03  0.12500000000E+03 0.  0.
</event>
<event>
 5    0  0.5481966E-005  0.3566847E+03  0.7546771E-02  0.1059904E+00
         21   -1    0    0  502  501  0.00000000000E+00  0.00000000000E+00  0.71979635576E+03  0.71979635576E+03  0.00000000000E+00 0.  1.
         21   -1    0    0  501  502 -0.00000000000E+00 -0.00000000000E+00 -0.17674997361E+03  0.17674997361E+03  0.00000000000E+00 0.  1.
         25    1    1    2    0    0  0.23948315739E+00  0.10247812140E+03  0.42462825051E+03  0.45435225745E+03  0.12500000000E+03 0.  0.
         25    1    1    2    0    0 -0.43713570501E+02  0.66153832635E+02  0.16620617691E+03  0.22256841434E+03  0.12500000000E+03 0.  0.
         25    1    1    2    0    0  0.43474087344E+02 -0.16863195404E+03 -0.47788045285E+02  0.21962565758E+03  0.12500000000E+03 0.  0.
</event>
<event>
 5    0  0.5481966E-005  0.5160921E+03  0.7546771E-02  0.1009662E+00
         21   -1    0    0  502  501  0.00000000000E+00  0.00000000000E+00  0.64362550418E+03  0.64362550418E+03  0.00000000000E+00 0. -1.
         21   -1    0    0  501  502 -0.00000000000E+00 -0.00000000000E+00 -0.41382923124E+03  0.41382923124E+03  0.00000000000E+00 0. -1.
         25    1    1    2    0    0  0.81946347041E+02  0.76288115277E+02 -0.31058604385E+02  0.17065965321E+03  0.12500000000E+03 0.  0.
         25    1    1    2    0    0 -0.39218568515E+03 -0.13682676770E+03  0.32355574332E+03  0.54115108337E+03  0.12500000000E+03 0.  0.
         25    1    1    2    0    0  0.31023933811E+03  0.60538652422E+02 -0.62700865993E+02  0.34564399885E+03  0.12500000000E+03 0.  0.
</event>
<event>
 5    0  0.6185669E-005  0.3321453E+03  0.7546771E-02  0.1070192E+00
         21   -1    0    0  502  501  0.00000000000E+00  0.00000000000E+00  0.62441422676E+03  0.62441422676E+03  0.00000000000E+00 0. -1.
         21   -1    0    0  501  502 -0.00000000000E+00 -0.00000000000E+00 -0.17667838392E+03  0.17667838392E+03  0.00000000000E+00 0. -1.
         25    1    1    2    0    0  0.93159772576E+02 -0.98773765177E+02  0.30544580195E+03  0.35687131832E+03  0.12500000000E+03 0.  0.
         25    1    1    2    0    0 -0.82962716425E+02 -0.95720769042E+02  0.11335157917E+03  0.21099492516E+03  0.12500000000E+03 0.  0.
         25    1    1    2    0    0 -0.10197056151E+02  0.19449453422E+03  0.28938461727E+02  0.23322636721E+03  0.12500000000E+03 0.  0.
</event>
<event>
 5    0  0.5481966E-005  0.3132178E+03  0.7546771E-02  0.1078814E+00
         21   -1    0    0  502  501  0.00000000000E+00  0.00000000000E+00  0.17922797373E+03  0.17922797373E+03  0.00000000000E+00 0. -1.
         21   -1    0    0  501  502 -0.00000000000E+00 -0.00000000000E+00 -0.54737766719E+03  0.54737766719E+03  0.00000000000E+00 0. -1.
         25    1    1    2    0    0  0.63314691716E+02 -0.29273422124E+02 -0.16108265836E+03  0.21549549010E+03  0.12500000000E+03 0.  0.
         25    1    1    2    0    0 -0.12034806974E+03 -0.15815606837E+03 -0.10961968610E+03  0.25911093268E+03  0.12500000000E+03 0.  0.
         25    1    1    2    0    0  0.57033378028E+02  0.18742949049E+03 -0.97447349000E+02  0.25199921814E+03  0.12500000000E+03 0.  0.
</event>
<event>
 5    0  0.5481966E-005  0.3231285E+03  0.7546771E-02  0.1074218E+00
         21   -1    0    0  502  501  0.00000000000E+00  0.00000000000E+00  0.32028501703E+03  0.32028501703E+03  0.00000000000E+00 0.  1.
         21   -1    0    0  501  502 -0.00000000000E+00 -0.00000000000E+00 -0.32599719280E+03  0.32599719280E+03  0.00000000000E+00 0.  1.
         25    1    1    2    0    0  0.13897323655E+03  0.44682725208E+02  0.13743976642E+03  0.23627271489E+03  0.12500000000E+03 0.  0.
         25    1    1    2    0    0 -0.14985302082E+03 -0.32740496963E+02 -0.19116866098E+03  0.27513328576E+03  0.12500000000E+03 0.  0.
         25    1    1    2    0    0  0.10879784279E+02 -0.11942228245E+02  0.48016718777E+02  0.13487620918E+03  0.12500000000E+03 0.  0.
</event>
<event>
 5    0  0.5481966E-005  0.3789257E+03  0.7546771E-02  0.1051332E+00
         21   -1    0    0  502  501  0.00000000000E+00  0.00000000000E+00  0.53830896677E+03  0.53830896677E+03  0.00000000000E+00 0.  1.
         21   -1    0    0  501  502 -0.00000000000E+00 -0.00000000000E+00 -0.26673282207E+03  0.26673282207E+03  0.00000000000E+00 0.  1.
         25    1    1    2    0    0  0.97556420325E+02 -0.14536123764E+03  0.41170397109E+02  0.21901403186E+03  0.12500000000E+03 0.  0.
         25    1    1    2    0    0 -0.13078634423E+03  0.27587257449E+03  0.23020669142E+03  0.40228207264E+03  0.12500000000E+03 0.  0.
         25    1    1    2    0    0  0.33229923905E+02 -0.13051133685E+03  0.19905618391E+00  0.18374568434E+03  0.12500000000E+03 0.  0.
</event>
<event>
 5    0  0.5481966E-005  0.4760213E+03  0.7546771E-02  0.1020234E+00
         21   -1    0    0  502  501  0.00000000000E+00  0.00000000000E+00  0.15094292199E+03  0.15094292199E+03  0.00000000000E+00 0. -1.
         21   -1    0    0  501  502 -0.00000000000E+00 -0.00000000000E+00 -0.15012049697E+04  0.15012049697E+04  0.00000000000E+00 0. -1.
         25    1    1    2    0    0 -0.19805481159E+03  0.17995264031E+03 -0.36215945370E+03  0.46732550867E+03  0.12500000000E+03 0.  0.
         25    1    1    2    0    0  0.71555484848E+02  0.19287882592E+03 -0.36153582982E+03  0.43434500705E+03  0.12500000000E+03 0.  0.
         25    1    1    2    0    0  0.12649932674E+03 -0.37283146623E+03 -0.62656676421E+03  0.75047737600E+03  0.12500000000E+03 0.  0.
</event>
<event>
 5    0  0.5481966E-005  0.4151102E+03  0.7546771E-02  0.1038670E+00
         21   -1    0    0  502  501  0.00000000000E+00  0.00000000000E+00  0.15597292516E+04  0.15597292516E+04  0.00000000000E+00 0.  1.
         21   -1    0    0  501  502 -0.00000000000E+00 -0.00000000000E+00 -0.11047847569E+03  0.11047847569E+03  0.00000000000E+00 0.  1.
         25    1    1    2    0    0 -0.12707887024E+03 -0.32258774815E+03  0.59944683045E+03  0.70368558111E+03  0.12500000000E+03 0.  0.
         25    1    1    2    0    0  0.70450613208E+02  0.27206290574E+03  0.64811505719E+03  0.71739782613E+03  0.12500000000E+03 0.  0.
         25    1    1    2    0    0  0.56628257034E+02  0.50524842405E+02  0.20168888827E+03  0.24912432007E+03  0.12500000000E+03 0.  0.
</event>
<event>
 5    0  0.5481966E-005  0.2588521E+03  0.7546771E-02  0.1107835E+00
         21   -1    0    0  502  501  0.00000000000E+00  0.00000000000E+00  0.10366390810E+04  0.10366390810E+04  0.00000000000E+00 0.  1.
         21   -1    0    0  501  502 -0.00000000000E+00 -0.00000000000E+00 -0.64636203370E+02  0.64636203370E+02  0.00000000000E+00 0.  1.
         25    1    1    2    0    0  0.20800243136E+02 -0.97314139962E+02  0.60287552134E+03  0.62368789165E+03  0.12500000000E+03 0.  0.
         25    1    1    2    0    0  0.22449776049E+02  0.26415470017E+02  0.26463943668E+03  0.29472156512E+03  0.12500000000E+03 0.  0.
         25    1    1    2    0    0 -0.43250019184E+02  0.70898669945E+02  0.10448791959E+03  0.18286582759E+03  0.12500000000E+03 0.  0.
</event>
<event>
 5    0  0.5481966E-005  0.5607313E+03  0.7546771E-02  0.9990401E-01
         21   -1    0    0  502  501  0.00000000000E+00  0.00000000000E+00  0.19409357627E+03  0.19409357627E+03  0.00000000000E+00 0.  1.
         21   -1    0    0  501  502 -0.00000000000E+00 -0.00000000000E+00 -0.16199384466E+04  0.16199384466E+04  0.00000000000E+00 0.  1.
         25    1    1    2    0    0 -0.44543562543E+03 -0.15954094042E+03 -0.69274589552E+03  0.84816748572E+03  0.12500000000E+03 0.  0.
         25    1    1    2    0    0  0.30035016493E+03  0.25211648901E+03 -0.42650696365E+03  0.59271083645E+03  0.12500000000E+03 0.  0.
         25    1    1    2    0    0  0.14508546050E+03 -0.92575548593E+02 -0.30659201118E+03  0.37315370072E+03  0.12500000000E+03 0.  0.
</event>
<event>
 5    0  0.5481966E-005  0.2798980E+03  0.7546771E-02  0.1095745E+00
         21   -1    0    0  502  501  0.00000000000E+00  0.00000000000E+00  0.50648310853E+03  0.50648310853E+03  0.00000000000E+00 0.  1.
         21   -1    0    0  501  502 -0.00000000000E+00 -0.00000000000E+00 -0.15468013166E+03  0.15468013166E+03  0.00000000000E+00 0.  1.
         25    1    1    2    0    0 -0.66685705663E+02 -0.68059563342E+02 -0.16686028216E+02  0.15805856838E+03  0.12500000000E+03 0.  0.
         25    1    1    2    0    0  0.36156781880E+02  0.11327058536E+03  0.93677748058E+02  0.19631112772E+03  0.12500000000E+03 0.  0.
         25    1    1    2    0    0  0.30528923784E+02 -0.45211022023E+02  0.27481125703E+03  0.30679354408E+03  0.12500000000E+03 0.  0.
</event>
<event>
 5    0  0.5481966E-005  0.3725014E+03  0.7546771E-02  0.1053741E+00
         21   -1    0    0  502  501  0.00000000000E+00  0.00000000000E+00  0.16981883022E+04  0.16981883022E+04  0.00000000000E+00 0.  1.
         21   -1    0    0  501  502 -0.00000000000E+00 -0.00000000000E+00 -0.81709007404E+02  0.81709007404E+02  0.00000000000E+00 0.  1.
         25    1    1    2    0    0  0.57175940127E+02 -0.44101398263E+02  0.93124196368E+03  0.94236437559E+03  0.12500000000E+03 0.  0.
         25    1    1    2    0    0 -0.20817015796E+03 -0.67918599805E+02  0.41271418927E+03  0.48363803913E+03  0.12500000000E+03 0.  0.
         25    1    1    2    0    0  0.15099421783E+03  0.11201999807E+03  0.27252314183E+03  0.35389489488E+03  0.12500000000E+03 0.  0.
</event>
<event>
 5    0  0.5481966E-005  0.2839262E+03  0.7546771E-02  0.1093564E+00
         21   -1    0    0  502  501  0.00000000000E+00  0.00000000000E+00  0.23004902613E+03  0.23004902613E+03  0.00000000000E+00 0.  1.
         21   -1    0    0  501  502 -0.00000000000E+00 -0.00000000000E+00 -0.35042138427E+03  0.35042138427E+03  0.00000000000E+00 0.  1.
         25    1    1    2    0    0 -0.10463188267E+03  0.10392014191E+03 -0.84993788844E+01  0.19350572655E+03  0.12500000000E+03 0.  0.
         25    1    1    2    0    0  0.81137364727E+02  0.13251457735E+02 -0.14783522907E+03  0.21033099638E+03  0.12500000000E+03 0.  0.
         25    1    1    2    0    0  0.23494517940E+02 -0.11717159965E+03  0.35962249816E+02  0.17663368747E+03  0.12500000000E+03 0.  0.
</event>
<event>
 5    0  0.5481966E-005  0.2673270E+03  0.7546771E-02  0.1102819E+00
         21   -1    0    0  502  501  0.00000000000E+00  0.00000000000E+00  0.37595920637E+03  0.37595920637E+03  0.00000000000E+00 0. -1.
         21   -1    0    0  501  502 -0.00000000000E+00 -0.00000000000E+00 -0.19008378848E+03  0.19008378848E+03  0.00000000000E+00 0. -1.
         25    1    1    2    0    0 -0.14549048391E+02  0.38400313983E+02  0.85856418626E+02  0.15710691755E+03  0.12500000000E+03 0.  0.
         25    1    1    2    0    0  0.38602554654E+02 -0.14821181001E+03  0.13213195809E+03  0.23778299393E+03  0.12500000000E+03 0.  0.
         25    1    1    2    0    0 -0.24053506264E+02  0.10981149603E+03 -0.32112958819E+02  0.17115308337E+03  0.12500000000E+03 0.  0.
</event>
<event>
 5    0  0.5481966E-005  0.2983596E+03  0.7546771E-02  0.1086063E+00
         21   -1    0    0  502  501  0.00000000000E+00  0.00000000000E+00  0.36459378525E+03  0.36459378525E+03  0.00000000000E+00 0. -1.
         21   -1    0    0  501  502 -0.00000000000E+00 -0.00000000000E+00 -0.24415794786E+03  0.24415794786E+03  0.00000000000E+00 0. -1.
         25    1    1    2    0    0 -0.14027928303E+03 -0.27665828329E+02  0.93142562747E+02  0.21152827777E+03  0.12500000000E+03 0.  0.
         25    1    1    2    0    0  0.84495206212E+02  0.76571139227E+02  0.13488216002E+03  0.21638109050E+03  0.12500000000E+03 0.  0.
         25    1    1    2    0    0  0.55784076813E+02 -0.48905310898E+02 -0.10758888538E+03  0.18084236483E+03  0.12500000000E+03 0.  0.
</event>
<event>
 5    0  0.5481966E-005  0.2424084E+03  0.7546771E-02  0.1118199E+00
         21   -1    0    0  502  501  0.00000000000E+00  0.00000000000E+00  0.13643735255E+03  0.13643735255E+03  0.00000000000E+00 0.  1.
         21   -1    0    0  501  502 -0.00000000000E+00 -0.00000000000E+00 -0.43068737242E+03  0.43068737242E+03  0.00000000000E+00 0.  1.
         25    1    1    2    0    0 -0.37082804373E+02  0.32610052946E+02 -0.18111658929E+03  0.22553662419E+03  0.12500000000E+03 0.  0.
         25    1    1    2    0    0  0.69800880841E+02 -0.93489180239E+02 -0.10016084352E+03  0.19816554787E+03  0.12500000000E+03 0.  0.
         25    1    1    2    0    0 -0.32718076468E+02  0.60879127294E+02 -0.12972587062E+02  0.14342255291E+03  0.12500000000E+03 0.  0.
</event>
<event>
 5    0  0.5481966E-005  0.2438778E+03  0.7546771E-02  0.1117236E+00
         21   -1    0    0  502  501  0.00000000000E+00  0.00000000000E+00  0.57873541257E+03  0.57873541257E+03  0.00000000000E+00 0.  1.
         21   -1    0    0  501  502 -0.00000000000E+00 -0.00000000000E+00 -0.10276958422E+03  0.10276958422E+03  0.00000000000E+00 0.  1.
         25    1    1    2    0    0 -0.10436845129E+03 -0.54048312440E+02  0.20233932894E+03  0.26529266431E+03  0.12500000000E+03 0.  0.
         25    1    1    2    0    0  0.44477933502E+02  0.67393643975E+02  0.22290447432E+03  0.26801416844E+03  0.12500000000E+03 0.  0.
         25    1    1    2    0    0  0.59890517784E+02 -0.13345331535E+02  0.50722025087E+02  0.14819816403E+03  0.12500000000E+03 0.  0.
</event>
<event>
 5    0  0.5481966E-005  0.2737288E+03  0.7546771E-02  0.1099164E+00
         21   -1    0    0  502  501  0.00000000000E+00  0.00000000000E+00  0.13891873867E+03  0.13891873867E+03  0.00000000000E+00 0. -1.
         21   -1    0    0  501  502 -0.00000000000E+00 -0.00000000000E+00 -0.53936165990E+03  0.53936165990E+03  0.00000000000E+00 0. -1.
         25    1    1    2    0    0 -0.10084687682E+03  0.38097472721E+02 -0.24841293612E+02  0.16692393436E+03  0.12500000000E+03 0.  0.
         25    1    1    2    0    0  0.96055228825E+01  0.14026581111E+02 -0.31123430866E+03  0.33582853651E+03  0.12500000000E+03 0.  0.
         25    1    1    2    0    0  0.91241353942E+02 -0.52124053831E+02 -0.64367318960E+02  0.17552792771E+03  0.12500000000E+03 0.  0.
</event>
<event>
 5    0  0.5481966E-005  0.3218909E+03  0.7546771E-02  0.1074782E+00
         21   -1    0    0  502  501  0.00000000000E+00  0.00000000000E+00  0.14324538676E+04  0.14324538676E+04  0.00000000000E+00 0. -1.
         21   -1    0    0  501  502 -0.00000000000E+00 -0.00000000000E+00 -0.72333044323E+02  0.72333044323E+02  0.00000000000E+00 0. -1.
         25    1    1    2    0    0 -0.12238227065E+02  0.93292912109E+02  0.40865260501E+03  0.43757889943E+03  0.12500000000E+03 0.  0.
         25    1    1    2    0    0  0.93076517267E+02 -0.18256631344E+03  0.80520458520E+03  0.84022206642E+03  0.12500000000E+03 0.  0.
         25    1    1    2    0    0 -0.80838290202E+02  0.89273401334E+02  0.14626363304E+03  0.22698594603E+03  0.12500000000E+03 0.  0.
</event>
<event>
 5    0  0.5481966E-005  0.2098364E+03  0.7546771E-02  0.1141696E+00
         21   -1    0    0  502  501  0.00000000000E+00  0.00000000000E+00  0.96805039890E+03  0.96805039890E+03  0.00000000000E+00 0.  1.
         21   -1    0    0  501  502 -0.00000000000E+00 -0.00000000000E+00 -0.45484547538E+02  0.45484547538E+02  0.00000000000E+00 0.  1.
         25    1    1    2    0    0 -0.35638106227E+01 -0.51358470608E+02  0.29021908033E+03  0.32016012843E+03  0.12500000000E+03 0.  0.
         25    1    1    2    0    0  0.43223546699E+01  0.81491455510E+02  0.26472143130E+03  0.30391113218E+03  0.12500000000E+03 0.  0.
         25    1    1    2    0    0 -0.75854404721E+00 -0.30132984902E+02  0.36762533973E+03  0.38946368583E+03  0.12500000000E+03 0.  0.
</event>
<event>
 5    0  0.5481966E-005  0.3334305E+03  0.7546771E-02  0.1069629E+00
         21   -1    0    0  502  501  0.00000000000E+00  0.00000000000E+00  0.24646019103E+03  0.24646019103E+03  0.00000000000E+00 0.  1.
         21   -1    0    0  501  502 -0.00000000000E+00 -0.00000000000E+00 -0.45109076463E+03  0.45109076463E+03  0.00000000000E+00 0.  1.
         25    1    1    2    0    0 -0.44304737923E+02 -0.51248901201E+02 -0.41156277626E-01  0.14217721818E+03  0.12500000000E+03 0.  0.
         25    1    1    2    0    0 -0.19778008889E+03  0.56490293503E+02 -0.65599688575E+02  0.24947231502E+03  0.12500000000E+03 0.  0.
         25    1    1    2    0    0  0.24208482681E+03 -0.52413923023E+01 -0.13898972874E+03  0.30590142246E+03  0.12500000000E+03 0.  0.
</event>
<event>
 5    0  0.5481966E-005  0.3172763E+03  0.7546771E-02  0.1076910E+00
         21   -1    0    0  502  501  0.00000000000E+00  0.00000000000E+00  0.43897631596E+03  0.43897631596E+03  0.00000000000E+00 0.  1.
         21   -1    0    0  501  502 -0.00000000000E+00 -0.00000000000E+00 -0.22931590342E+03  0.22931590342E+03  0.00000000000E+00 0.  1.
         25    1    1    2    0    0  0.22219393760E+03  0.19975003859E+02  0.53453297067E+02  0.26124969216E+03  0.12500000000E+03 0.  0.
         25    1    1    2    0    0 -0.17476647392E+03 -0.75242674824E+02  0.67982626297E+02  0.23759507149E+03  0.12500000000E+03 0.  0.
         25    1    1    2    0    0 -0.47427463685E+02  0.55267670965E+02  0.88224489175E+02  0.16944745574E+03  0.12500000000E+03 0.  0.
</event>
<event>
 5    0  0.5481966E-005  0.4179433E+03  0.7546771E-02  0.1037738E+00
         21   -1    0    0  502  501  0.00000000000E+00  0.00000000000E+00  0.10891836267E+04  0.10891836267E+04  0.00000000000E+00 0.  1.
         21   -1    0    0  501  502 -0.00000000000E+00 -0.00000000000E+00 -0.16037385671E+03  0.16037385671E+03  0.00000000000E+00 0.  1.
         25    1    1    2    0    0  0.15903207648E+03  0.70184828080E+02  0.24732786115E+03  0.32712869385E+03  0.12500000000E+03 0.  0.
         25    1    1    2    0    0 -0.11168692827E+03 -0.29583162625E+03  0.49536815771E+03  0.60083686032E+03  0.12500000000E+03 0.  0.
         25    1    1    2    0    0 -0.47345148206E+02  0.22564679817E+03  0.18611375110E+03  0.32159192921E+03  0.12500000000E+03 0.  0.
</event>
<event>
 5    0  0.5481966E-005  0.3966290E+03  0.7546771E-02  0.1044953E+00
         21   -1    0    0  502  501  0.00000000000E+00  0.00000000000E+00  0.35414735610E+03  0.35414735610E+03  0.00000000000E+00 0. -1.
         21   -1    0    0  501  502 -0.00000000000E+00 -0.00000000000E+00 -0.44420658173E+03  0.44420658173E+03  0.00000000000E+00 0. -1.
         25    1    1    2    0    0 -0.99469176446E+02  0.25119643375E+03 -0.13046447084E+03  0.32502268158E+03  0.12500000000E+03 0.  0.
         25    1    1    2    0    0  0.94821692137E+02 -0.29671572960E+03  0.52284008140E+02  0.33969102873E+03  0.12500000000E+03 0.  0.
         25    1    1    2    0    0  0.46474843084E+01  0.45519295847E+02 -0.11878762928E+02  0.13364022753E+03  0.12500000000E+03 0.  0.
</event>
<event>
 5    0  0.5481966E-005  0.2551852E+03  0.7546771E-02  0.1110071E+00
         21   -1    0    0  502  501  0.00000000000E+00  0.00000000000E+00  0.55944395655E+02  0.55944395655E+02  0.00000000000E+00 0. -1.
         21   -1    0    0  501  502 -0.00000000000E+00 -0.00000000000E+00 -0.11640037355E+04  0.11640037355E+04  0.00000000000E+00 0. -1.
         25    1    1    2    0    0  0.92542510754E+02  0.26127941141E+02 -0.25495729959E+03  0.29979161132E+03  0.12500000000E+03 0.  0.
         25    1    1    2    0    0 -0.12918155069E+03  0.55508916757E+02 -0.52865586930E+03  0.56113379958E+03  0.12500000000E+03 0.  0.
         25    1    1    2    0    0  0.36639039937E+02 -0.81636857898E+02 -0.32444617096E+03  0.35902272027E+03  0.12500000000E+03 0.  0.
</event>
<event>
 5    0  0.5481966E-005  0.2436308E+03  0.7546771E-02  0.1117397E+00
         21   -1    0    0  502  501  0.00000000000E+00  0.00000000000E+00  0.35831549984E+02  0.35831549984E+02  0.00000000000E+00 0. -1.
         21   -1    0    0  501  502 -0.00000000000E+00 -0.00000000000E+00 -0.16565285181E+04  0.16565285181E+04  0.00000000000E+00 0. -1.
         25    1    1    2    0    0  0.14567095610E+03 -0.17886926619E+02 -0.74579954520E+03  0.77031287878E+03  0.12500000000E+03 0.  0.
         25    1    1    2    0    0 -0.64664439480E+02  0.49821676674E+01 -0.45730021285E+03  0.47849221143E+03  0.12500000000E+03 0.  0.
         25    1    1    2    0    0 -0.81006516622E+02  0.12904758952E+02 -0.41759721006E+03  0.44355497786E+03  0.12500000000E+03 0.  0.
</event>
<event>
 5    0  0.5481966E-005  0.3107601E+03  0.7546771E-02  0.1079982E+00
         21   -1    0    0  502  501  0.00000000000E+00  0.00000000000E+00  0.33784087689E+03  0.33784087689E+03  0.00000000000E+00 0.  1.
         21   -1    0    0  501  502 -0.00000000000E+00 -0.00000000000E+00 -0.28585003615E+03  0.28585003615E+03  0.00000000000E+00 0.  1.
         25    1    1    2    0    0 -0.19898289916E+02  0.58869180417E+02  0.13997031792E+03  0.19768209895E+03  0.12500000000E+03 0.  0.
         25    1    1    2    0    0 -0.63988934451E+02 -0.11167708245E+03  0.78134632995E+02  0.19569459714E+03  0.12500000000E+03 0.  0.
         25    1    1    2    0    0  0.83887224367E+02  0.52807902029E+02 -0.16611411018E+03  0.23031421695E+03  0.12500000000E+03 0.  0.
</event>
<event>
 5    0  0.5481966E-005  0.2749424E+03  0.7546771E-02  0.1098484E+00
         21   -1    0    0  502  501  0.00000000000E+00  0.00000000000E+00  0.18783716048E+03  0.18783716048E+03  0.00000000000E+00 0.  1.
         21   -1    0    0  501  502 -0.00000000000E+00 -0.00000000000E+00 -0.40244065571E+03  0.40244065571E+03  0.00000000000E+00 0.  1.
         25    1    1    2    0    0  0.11556020814E+02 -0.97003710287E+02 -0.24353976286E+03  0.29065422329E+03  0.12500000000E+03 0.  0.
         25    1    1    2    0    0 -0.17237350171E+02 -0.17194857177E+02 -0.22570844507E+01  0.12736908489E+03  0.12500000000E+03 0.  0.
         25    1    1    2    0    0  0.56813293565E+01  0.11419856746E+03  0.31193352078E+02  0.17225450800E+03  0.12500000000E+03 0.  0.
</event>
<event>
 5    0  0.5481966E-005  0.2633591E+03  0.7546771E-02  0.1105142E+00
         21   -1    0    0  502  501  0.00000000000E+00  0.00000000000E+00  0.25114398746E+03  0.25114398746E+03  0.00000000000E+00 0. -1.
         21   -1    0    0  501  502 -0.00000000000E+00 -0.00000000000E+00 -0.27616834104E+03  0.27616834104E+03  0.00000000000E+00 0. -1.
         25    1    1    2    0    0  0.13397040029E+03 -0.59955971763E+02 -0.53163955366E+02  0.19998548161E+03  0.12500000000E+03 0.  0.
         25    1    1    2    0    0 -0.47914130262E+02  0.89527863738E+02  0.55440131180E+02  0.17032207846E+03  0.12500000000E+03 0.  0.
         25    1    1    2    0    0 -0.86056270030E+02 -0.29571891974E+02 -0.27300529401E+02  0.15700476844E+03  0.12500000000E+03 0.  0.
</event>
<event>
 5    0  0.5481966E-005  0.4257696E+03  0.7546771E-02  0.1035205E+00
         21   -1    0    0  502  501  0.00000000000E+00  0.00000000000E+00  0.26956513966E+03  0.26956513966E+03  0.00000000000E+00 0.  1.
         21   -1    0    0  501  502 -0.00000000000E+00 -0.00000000000E+00 -0.67248966748E+03  0.67248966748E+03  0.00000000000E+00 0.  1.
         25    1    1    2    0    0 -0.27774846516E+03  0.13604215402E+03 -0.31282318850E+03  0.45731283038E+03  0.12500000000E+03 0.  0.
         25    1    1    2    0    0  0.61331471452E+02 -0.36785607398E+02  0.81760070046E+02  0.16560325889E+03  0.12500000000E+03 0.  0.
         25    1    1    2    0    0  0.21641699371E+03 -0.99256546617E+02 -0.17186140937E+03  0.31913871787E+03  0.12500000000E+03 0.  0.
</event>
<event>
 5    0  0.5481966E-005  0.3813137E+03  0.7546771E-02  0.1050449E+00
         21   -1    0    0  502  501  0.00000000000E+00  0.00000000000E+00  0.15965760010E+04  0.15965760010E+04  0.00000000000E+00 0.  1.
         21   -1    0    0  501  502 -0.00000000000E+00 -0.00000000000E+00 -0.91069978779E+02  0.91069978779E+02  0.00000000000E+00 0.  1.
         25    1    1    2    0    0 -0.95801095076E+02  0.27258907899E+03  0.40452268305E+03  0.51258780409E+03  0.12500000000E+03 0.  0.
         25    1    1    2    0    0  0.12067998810E+03 -0.18477717841E+03  0.62342277195E+03  0.67304325104E+03  0.12500000000E+03 0.  0.
         25    1    1    2    0    0 -0.24878893021E+02 -0.87811900573E+02  0.47756056721E+03  0.50201492463E+03  0.12500000000E+03 0.  0.
</event>
<event>
 5    0  0.5481966E-005  0.3677751E+03  0.7546771E-02  0.1055547E+00
         21   -1    0    0  502  501  0.00000000000E+00  0.00000000000E+00  0.54826028759E+03  0.54826028759E+03  0.00000000000E+00 0.  1.
         21   -1    0    0  501  502 -0.00000000000E+00 -0.00000000000E+00 -0.24670492150E+03  0.24670492150E+03  0.00000000000E+00 0.  1.
         25    1    1    2    0    0 -0.22889426870E+03 -0.11121087372E+03  0.23359807743E+03  0.36736018627E+03  0.12500000000E+03 0.  0.
         25    1    1    2    0    0  0.66828148628E+02  0.13956750551E+03  0.92775273431E+02  0.21949337440E+03  0.12500000000E+03 0.  0.
         25    1    1    2    0    0  0.16206612008E+03 -0.28356631791E+02 -0.24817984758E+02  0.20811164843E+03  0.12500000000E+03 0.  0.
</event>
<event>
 5    0  0.5481966E-005  0.3645582E+03  0.7546771E-02  0.1056793E+00
         21   -1    0    0  502  501  0.00000000000E+00  0.00000000000E+00  0.78226235487E+03  0.78226235487E+03  0.00000000000E+00 0.  1.
         21   -1    0    0  501  502 -0.00000000000E+00 -0.00000000000E+00 -0.16989524458E+03  0.16989524458E+03  0.00000000000E+00 0.  1.
         25    1    1    2    0    0  0.67607554857E+02 -0.96400226404E+02 -0.41567636439E+02  0.17668235204E+03  0.12500000000E+03 0.  0.
         25    1    1    2    0    0 -0.95309226978E+02  0.19507575688E+03  0.33955247738E+03  0.42197071529E+03  0.12500000000E+03 0.  0.
         25    1    1    2    0    0  0.27701672121E+02 -0.98675530472E+02  0.31438226935E+03  0.35350453213E+03  0.12500000000E+03 0.  0.
</event>
<event>
 5    0  0.5481966E-005  0.4233605E+03  0.7546771E-02  0.1035978E+00
         21   -1    0    0  502  501  0.00000000000E+00  0.00000000000E+00  0.25243679352E+04  0.25243679352E+04  0.00000000000E+00 0.  1.
         21   -1    0    0  501  502 -0.00000000000E+00 -0.00000000000E+00 -0.71001582898E+02  0.71001582898E+02  0.00000000000E+00 0.  1.
         25    1    1    2    0    0 -0.30946699919E+03  0.15038319813E+03  0.13409052037E+04  0.13899772283E+04  0.12500000000E+03 0.  0.
         25    1    1    2    0    0  0.89649612967E+02 -0.14463579711E+03  0.51310803729E+03  0.55485261542E+03  0.12500000000E+03 0.  0.
         25    1    1    2    0    0  0.21981738622E+03 -0.57474010195E+01  0.59935311130E+03  0.65053967437E+03  0.12500000000E+03 0.  0.
</event>
<event>
 5    0  0.5481966E-005  0.2290561E+03  0.7546771E-02  0.1127306E+00
         21   -1    0    0  502  501  0.00000000000E+00  0.00000000000E+00  0.28739905036E+03  0.28739905036E+03  0.00000000000E+00 0. -1.
         21   -1    0    0  501  502 -0.00000000000E+00 -0.00000000000E+00 -0.18255695005E+03  0.18255695005E+03  0.00000000000E+00 0. -1.
         25    1    1    2    0    0 -0.20206293141E+02 -0.50792559223E+01  0.20629029625E+01  0.12674126673E+03  0.12500000000E+03 0.  0.
         25    1    1    2    0    0 -0.34005716747E+02  0.86677110314E+02  0.34674285705E+01  0.15590488538E+03  0.12500000000E+03 0.  0.
         25    1    1    2    0    0  0.54212009888E+02 -0.81597854392E+02  0.99311768776E+02  0.18730984831E+03  0.12500000000E+03 0.  0.
</event>
<event>
 5    0  0.5481966E-005  0.3493749E+03  0.7546771E-02  0.1062872E+00
         21   -1    0    0  502  501  0.00000000000E+00  0.00000000000E+00  0.30651539668E+03  0.30651539668E+03  0.00000000000E+00 0.  1.
         21   -1    0    0  501  502 -0.00000000000E+00 -0.00000000000E+00 -0.39822735638E+03  0.39822735638E+03  0.00000000000E+00 0.  1.
         25    1    1    2    0    0 -0.14895401662E+03 -0.18560718007E+03 -0.92806483579E+02  0.28438594859E+03  0.12500000000E+03 0.  0.
         25    1    1    2    0    0  0.70320816074E+02  0.12593486416E+03  0.11654942037E+03  0.22363670220E+03  0.12500000000E+03 0.  0.
         25    1    1    2    0    0  0.78633200543E+02  0.59672315908E+02 -0.11545489649E+03  0.19672010227E+03  0.12500000000E+03 0.  0.
</event>
<event>
 5    0  0.5481966E-005  0.2084890E+03  0.7546771E-02  0.1142768E+00
         21   -1    0    0  502  501  0.00000000000E+00  0.00000000000E+00  0.53642941935E+02  0.53642941935E+02  0.00000000000E+00 0.  1.
         21   -1    0    0  501  502 -0.00000000000E+00 -0.00000000000E+00 -0.81031430514E+03  0.81031430514E+03  0.00000000000E+00 0.  1.
         25    1    1    2    0    0 -0.40245321041E+02 -0.20892676335E+02 -0.13480388715E+03  0.18934961785E+03  0.12500000000E+03 0.  0.
         25    1    1    2    0    0  0.68908450487E+01 -0.12342742759E+02 -0.34458020268E+03  0.36682467627E+03  0.12500000000E+03 0.  0.
         25    1    1    2    0    0  0.33354475992E+02  0.33235419094E+02 -0.27728727338E+03  0.30778295296E+03  0.12500000000E+03 0.  0.
</event>
<event>
 5    0  0.5481966E-005  0.3303928E+03  0.7546771E-02  0.1070963E+00
         21   -1    0    0  502  501  0.00000000000E+00  0.00000000000E+00  0.71631644703E+03  0.71631644703E+03  0.00000000000E+00 0. -1.
         21   -1    0    0  501  502 -0.00000000000E+00 -0.00000000000E+00 -0.15238995539E+03  0.15238995539E+03  0.00000000000E+00 0. -1.
         25    1    1    2    0    0 -0.14561677900E+03 -0.24728796313E+02  0.45975148487E+03  0.49881077328E+03  0.12500000000E+03 0.  0.
         25    1    1    2    0    0  0.16997252492E+02  0.74311619535E+02  0.11093377954E+03  0.18369111800E+03  0.12500000000E+03 0.  0.
         25    1    1    2    0    0  0.12861952651E+03 -0.49582823221E+02 -0.67587727675E+01  0.18620451114E+03  0.12500000000E+03 0.  0.
</event>
<event>
 5    0  0.5481966E-005  0.2593327E+03  0.7546771E-02  0.1107545E+00
         21   -1    0    0  502  501  0.00000000000E+00  0.00000000000E+00  0.76565308330E+03  0.76565308330E+03  0.00000000000E+00 0. -1.
         21   -1    0    0  501  502 -0.00000000000E+00 -0.00000000000E+00 -0.87838031366E+02  0.87838031366E+02  0.00000000000E+00 0. -1.
         25    1    1    2    0    0  0.62164291381E+02 -0.99543844658E+02  0.10290968812E+03  0.19997194813E+03  0.12500000000E+03 0.  0.
         25    1    1    2    0    0 -0.10390126804E+03  0.57699103427E+02  0.31644857326E+03  0.36040166420E+03  0.12500000000E+03 0.  0.
         25    1    1    2    0    0  0.41736976664E+02  0.41844741231E+02  0.25845679056E+03  0.29311750234E+03  0.12500000000E+03 0.  0.
</event>
<event>
 5    0  0.5481966E-005  0.3250995E+03  0.7546771E-02  0.1073326E+00
         21   -1    0    0  502  501  0.00000000000E+00  0.00000000000E+00  0.10823231248E+03  0.10823231248E+03  0.00000000000E+00 0. -1.
         21   -1    0    0  501  502 -0.00000000000E+00 -0.00000000000E+00 -0.97650751916E+03  0.97650751916E+03  0.00000000000E+00 0. -1.
         25    1    1    2    0    0 -0.22643140178E+03  0.26645135255E+02 -0.22706048839E+03  0.34519937476E+03  0.12500000000E+03 0.  0.
         25    1    1    2    0    0  0.11020300199E+03  0.83761089228E+01 -0.17484084619E+03  0.24167991713E+03  0.12500000000E+03 0.  0.
         25    1    1    2    0    0  0.11622839980E+03 -0.35021244177E+02 -0.46637387209E+03  0.49786053975E+03  0.12500000000E+03 0.  0.
</event>
<event>
 5    0  0.5481966E-005  0.6263202E+03  0.7546771E-02  0.9852256E-01
         21   -1    0    0  502  501  0.00000000000E+00  0.00000000000E+00  0.42998925073E+03  0.42998925073E+03  0.00000000000E+00 0. -1.
         21   -1    0    0  501  502 -0.00000000000E+00 -0.00000000000E+00 -0.91229500393E+03  0.91229500393E+03  0.00000000000E+00 0. -1.
         25    1    1    2    0    0 -0.25797529317E+03 -0.43367052217E+02 -0.36843220112E+03  0.46882751617E+03  0.12500000000E+03 0.  0.
         25    1    1    2    0    0  0.24283880952E+03 -0.30510744457E+03  0.13028384633E+03  0.42972098012E+03  0.12500000000E+03 0.  0.
         25    1    1    2    0    0  0.15136483648E+02  0.34847449679E+03 -0.24415739841E+03  0.44373575836E+03  0.12500000000E+03 0.  0.
</event>
<event>
 5    0  0.5481966E-005  0.2886506E+03  0.7546771E-02  0.1091056E+00
         21   -1    0    0  502  501  0.00000000000E+00  0.00000000000E+00  0.56860251718E+03  0.56860251718E+03  0.00000000000E+00 0. -1.
         21   -1    0    0  501  502 -0.00000000000E+00 -0.00000000000E+00 -0.14653326048E+03  0.14653326048E+03  0.00000000000E+00 0. -1.
         25    1    1    2    0    0 -0.12623657482E+03  0.95849912069E+02  0.34781410668E+03  0.40214739993E+03  0.12500000000E+03 0.  0.
         25    1    1    2    0    0  0.95209827532E+02 -0.47518972526E+02  0.21082438331E+02  0.16550659568E+03  0.12500000000E+03 0.  0.
         25    1    1    2    0    0  0.31026747287E+02 -0.48330939543E+02  0.53172711684E+02  0.14748178203E+03  0.12500000000E+03 0.  0.
</event>
<event>
 5    0  0.5481966E-005  0.3777087E+03  0.7546771E-02  0.1051784E+00
         21   -1    0    0  502  501  0.00000000000E+00  0.00000000000E+00  0.11253929320E+03  0.11253929320E+03  0.00000000000E+00 0. -1.
         21   -1    0    0  501  502 -0.00000000000E+00 -0.00000000000E+00 -0.12676803663E+04  0.12676803663E+04  0.00000000000E+00 0. -1.
         25    1    1    2    0    0 -0.53259023124E+02  0.24248450447E+03 -0.56134085528E+03  0.62638950682E+03  0.12500000000E+03 0.  0.
         25    1    1    2    0    0  0.74985315337E+02  0.42426549596E+02 -0.21406375507E+03  0.26243304072E+03  0.12500000000E+03 0.  0.
         25    1    1    2    0    0 -0.21726292213E+02 -0.28491105407E+03 -0.37973646275E+03  0.49139711196E+03  0.12500000000E+03 0.  0.
</event>
<event>
 5    0  0.5481966E-005  0.2742343E+03  0.7546771E-02  0.1098880E+00
         21   -1    0    0  502  501  0.00000000000E+00  0.00000000000E+00  0.40534871923E+03  0.40534871923E+03  0.00000000000E+00 0. -1.
         21   -1    0    0  501  502 -0.00000000000E+00 -0.00000000000E+00 -0.18553024136E+03  0.18553024136E+03  0.00000000000E+00 0. -1.
         25    1    1    2    0    0  0.15834423656E+02 -0.80356512948E+02  0.16052570740E+03  0.21932031570E+03  0.12500000000E+03 0.  0.
         25    1    1    2    0    0  0.15364205748E+02  0.53710338572E+02 -0.96605887979E+02  0.16756657447E+03  0.12500000000E+03 0.  0.
         25    1    1    2    0    0 -0.31198629404E+02  0.26646174377E+02  0.15589865845E+03  0.20399207042E+03  0.12500000000E+03 0.  0.
</event>
<event>
 5    0  0.5481966E-005  0.2683403E+03  0.7546771E-02  0.1102233E+00
         21   -1    0    0  502  501  0.00000000000E+00  0.00000000000E+00  0.11976421184E+03  0.11976421184E+03  0.00000000000E+00 0. -1.
         21   -1    0    0  501  502 -0.00000000000E+00 -0.00000000000E+00 -0.60123585872E+03  0.60123585872E+03  0.00000000000E+00 0. -1.
         25    1    1    2    0    0 -0.59401863980E+02  0.29207204250E+02  0.14987037546E+02  0.14223661104E+03  0.12500000000E+03 0.  0.
         25    1    1    2    0    0  0.28784739188E+01 -0.46620757170E+02 -0.12677301999E+03  0.18406025972E+03  0.12500000000E+03 0.  0.
         25    1    1    2    0    0  0.56523390062E+02  0.17413552920E+02 -0.36968566443E+03  0.39470319980E+03  0.12500000000E+03 0.  0.
</event>
<event>
 5    0  0.5481966E-005  0.3776519E+03  0.7546771E-02  0.1051805E+00
         21   -1    0    0  502  501  0.00000000000E+00  0.00000000000E+00  0.33233262902E+03  0.33233262902E+03  0.00000000000E+00 0.  1.
         21   -1    0    0  501  502 -0.00000000000E+00 -0.00000000000E+00 -0.42915131611E+03  0.42915131611E+03  0.00000000000E+00 0.  1.
         25    1    1    2    0    0  0.92168961178E+02 -0.17695966375E+02 -0.51627594528E+02  0.16461674625E+03  0.12500000000E+03 0.  0.
         25    1    1    2    0    0 -0.11774878085E+03  0.25698569141E+02  0.23307217114E+03  0.29064209744E+03  0.12500000000E+03 0.  0.
         25    1    1    2    0    0  0.25579819674E+02 -0.80026027662E+01 -0.27826326370E+03  0.30622510144E+03  0.12500000000E+03 0.  0.
</event>
<event>
 5    0  0.5481966E-005  0.2797071E+03  0.7546771E-02  0.1095849E+00
         21   -1    0    0  502  501  0.00000000000E+00  0.00000000000E+00  0.12927067493E+04  0.12927067493E+04  0.00000000000E+00 0.  1.
         21   -1    0    0  501  502 -0.00000000000E+00 -0.00000000000E+00 -0.60521124777E+02  0.60521124777E+02  0.00000000000E+00 0.  1.
         25    1    1    2    0    0 -0.12285598806E+02 -0.51382898517E+02  0.17476959610E+03  0.22127030962E+03  0.12500000000E+03 0.  0.
         25    1    1    2    0    0 -0.79327067668E+02  0.15711517050E+03  0.53777560759E+03  0.57948732910E+03  0.12500000000E+03 0.  0.
         25    1    1    2    0    0  0.91612666474E+02 -0.10573227199E+03  0.51964042087E+03  0.55247023540E+03  0.12500000000E+03 0.  0.
</event>
<event>
 5    0  0.5481966E-005  0.2965611E+03  0.7546771E-02  0.1086972E+00
         21   -1    0    0  502  501  0.00000000000E+00  0.00000000000E+00  0.95279532555E+03  0.95279532555E+03  0.00000000000E+00 0. -1.
         21   -1    0    0  501  502 -0.00000000000E+00 -0.00000000000E+00 -0.92305728150E+02  0.92305728150E+02  0.00000000000E+00 0. -1.
         25    1    1    2    0    0  0.78194335551E+02 -0.29529894232E+02  0.22543851854E+03  0.27098688973E+03  0.12500000000E+03 0.  0.
         25    1    1    2    0    0 -0.15899222967E+03 -0.10672064370E+03  0.24615092565E+03  0.33598080762E+03  0.12500000000E+03 0.  0.
         25    1    1    2    0    0  0.80797894123E+02  0.13625053793E+03  0.38890015321E+03  0.43813335635E+03  0.12500000000E+03 0.  0.
</event>
<event>
 5    0  0.5481966E-005  0.2880731E+03  0.7546771E-02  0.1091360E+00
         21   -1    0    0  502  501  0.00000000000E+00  0.00000000000E+00  0.30334083498E+03  0.30334083498E+03  0.00000000000E+00 0.  1.
         21   -1    0    0  501  502 -0.00000000000E+00 -0.00000000000E+00 -0.27357376216E+03  0.27357376216E+03  0.00000000000E+00 0.  1.
         25    1    1    2    0    0 -0.85030283880E+02  0.11838616778E+03  0.83945499098E+02  0.20956450252E+03  0.12500000000E+03 0.  0.
         25    1    1    2    0    0  0.91442804626E+02 -0.27910272722E+02 -0.12155680714E+03  0.19885126905E+03  0.12500000000E+03 0.  0.
         25    1    1    2    0    0 -0.64125207460E+01 -0.90475895062E+02  0.67378380862E+02  0.16849882557E+03  0.12500000000E+03 0.  0.
</event>
<event>
 5    0  0.5481966E-005  0.2177445E+03  0.7546771E-02  0.1135576E+00
         21   -1    0    0  502  501  0.00000000000E+00  0.00000000000E+00  0.14882175948E+03  0.14882175948E+03  0.00000000000E+00 0.  1.
         21   -1    0    0  501  502 -0.00000000000E+00 -0.00000000000E+00 -0.31858680077E+03  0.31858680077E+03  0.00000000000E+00 0.  1.
         25    1    1    2    0    0 -0.63271871697E+02 -0.31613551384E+02  0.13958251413E+02  0.14430030895E+03  0.12500000000E+03 0.  0.
         25    1    1    2    0    0  0.10739052566E+02  0.33333740835E+02 -0.81271256799E+02  0.15315509365E+03  0.12500000000E+03 0.  0.
         25    1    1    2    0    0  0.52532819131E+02 -0.17201894511E+01 -0.10245203590E+03  0.16995315766E+03  0.12500000000E+03 0.  0.
</event>
<event>
 5    0  0.6267981E-005  0.2858249E+03  0.7546771E-02  0.1092549E+00
         21   -1    0    0  502  501  0.00000000000E+00  0.00000000000E+00  0.32120207433E+03  0.32120207433E+03  0.00000000000E+00 0. -1.
         21   -1    0    0  501  502 -0.00000000000E+00 -0.00000000000E+00 -0.25434421102E+03  0.25434421102E+03  0.00000000000E+00 0. -1.
         25    1    1    2    0    0  0.89728983166E+02 -0.86503687550E+00 -0.10819621667E+02  0.15425337248E+03  0.12500000000E+03 0.  0.
         25    1    1    2    0    0  0.89445374314E+02  0.73418547411E+02 -0.19437202030E+02  0.17144551004E+03  0.12500000000E+03 0.  0.
         25    1    1    2    0    0 -0.17917435748E+03 -0.72553510535E+02  0.97114687010E+02  0.24984740283E+03  0.12500000000E+03 0.  0.
</event>
<event>
 5    0  0.5481966E-005  0.3517734E+03  0.7546771E-02  0.1061890E+00
         21   -1    0    0  502  501  0.00000000000E+00  0.00000000000E+00  0.51243768336E+03  0.51243768336E+03  0.00000000000E+00 0. -1.
         21   -1    0    0  501  502 -0.00000000000E+00 -0.00000000000E+00 -0.24148207134E+03  0.24148207134E+03  0.00000000000E+00 0. -1.
         25    1    1    2    0    0  0.15446968148E+03 -0.15815514755E+03  0.22477203710E+03  0.33914805300E+03  0.12500000000E+03 0.  0.
         25    1    1    2    0    0 -0.62143915603E+02  0.18066093363E+03 -0.45706154901E+02  0.23283962674E+03  0.12500000000E+03 0.  0.
         25    1    1    2    0    0 -0.92325765879E+02 -0.22505786078E+02  0.91889729820E+02  0.18193207496E+03  0.12500000000E+03 0.  0.
</event>
<event>
 5    0  0.5481966E-005  0.3206263E+03  0.7546771E-02  0.1075361E+00
         21   -1    0    0  502  501  0.00000000000E+00  0.00000000000E+00  0.70619905052E+03  0.70619905052E+03  0.00000000000E+00 0. -1.
         21   -1    0    0  501  502 -0.00000000000E+00 -0.00000000000E+00 -0.14556975477E+03  0.14556975477E+03  0.00000000000E+00 0.  1.
         25    1    1    2    0    0  0.70376877836E+02  0.90153966027E+01  0.11656522523E+03  0.18505846115E+03  0.12500000000E+03 0.  0.
         25    1    1    2    0    0  0.45123040762E+02 -0.19445982375E+03  0.28165371460E+03  0.36715735973E+03  0.12500000000E+03 0.  0.
         25    1    1    2    0    0 -0.11549991860E+03  0.18544442714E+03  0.16241035593E+03  0.29955298441E+03  0.12500000000E+03 0.  0.
</event>
<event>
 5    0  0.5481966E-005  0.3781022E+03  0.7546771E-02  0.1051637E+00
         21   -1    0    0  502  501  0.00000000000E+00  0.00000000000E+00  0.27228419578E+04  0.27228419578E+04  0.00000000000E+00 0.  1.
         21   -1    0    0  501  502 -0.00000000000E+00 -0.00000000000E+00 -0.52504442080E+02  0.52504442080E+02  0.00000000000E+00 0.  1.
         25    1    1    2    0    0 -0.33159646242E+02  0.11502687890E+03  0.38185875494E+03  0.41925153993E+03  0.12500000000E+03 0.  0.
         25    1    1    2    0    0  0.25428977730E+03 -0.59023377272E+02  0.97256270641E+03  0.10147168412E+04  0.12500000000E+03 0.  0.
         25    1    1    2    0    0 -0.22113013106E+03 -0.56003501624E+02  0.13159160544E+04  0.13413780188E+04  0.12500000000E+03 0.  0.
</event>
<event>
 5    0  0.5481966E-005  0.2197378E+03  0.7546771E-02  0.1134079E+00
         21   -1    0    0  502  501  0.00000000000E+00  0.00000000000E+00  0.34490215139E+02  0.34490215139E+02  0.00000000000E+00 0. -1.
         21   -1    0    0  501  502 -0.00000000000E+00 -0.00000000000E+00 -0.13999529783E+04  0.13999529783E+04  0.00000000000E+00 0. -1.
         25    1    1    2    0    0  0.69400669738E+02  0.65454219131E+02 -0.55205127467E+03  0.57400898741E+03  0.12500000000E+03 0.  0.
         25    1    1    2    0    0 -0.61600463587E+02 -0.12110650368E+02 -0.48914069027E+03  0.50874836594E+03  0.12500000000E+03 0.  0.
         25    1    1    2    0    0 -0.78002061518E+01 -0.53343568763E+02 -0.32427079825E+03  0.35168584012E+03  0.12500000000E+03 0.  0.
</event>
<event>
 5    0  0.5481966E-005  0.2429901E+03  0.7546771E-02  0.1117817E+00
         21   -1    0    0  502  501  0.00000000000E+00  0.00000000000E+00  0.46934350364E+02  0.46934350364E+02  0.00000000000E+00 0.  1.
         21   -1    0    0  501  502 -0.00000000000E+00 -0.00000000000E+00 -0.12580166297E+04  0.12580166297E+04  0.00000000000E+00 0.  1.
         25    1    1    2    0    0 -0.95159747412E+01 -0.35482983071E+02 -0.34504932463E+03  0.36882737465E+03  0.12500000000E+03 0.  0.
         25    1    1    2    0    0 -0.41391357768E+02 -0.68312570302E+02 -0.20204688499E+03  0.25065473364E+03  0.12500000000E+03 0.  0.
         25    1    1    2    0    0  0.50907332509E+02  0.10379555337E+03 -0.66398606973E+03  0.68546887179E+03  0.12500000000E+03 0.  0.
</event>
<event>
 5    0  0.5481966E-005  0.2513745E+03  0.7546771E-02  0.1112439E+00
         21   -1    0    0  502  501  0.00000000000E+00  0.00000000000E+00  0.61309874883E+03  0.61309874883E+03  0.00000000000E+00 0. -1.
         21   -1    0    0  501  502 -0.00000000000E+00 -0.00000000000E+00 -0.10306522047E+03  0.10306522047E+03  0.00000000000E+00 0. -1.
         25    1    1    2    0    0 -0.44580661586E+02  0.11093029084E+03  0.21468091562E+03  0.27569160369E+03  0.12500000000E+03 0.  0.
         25    1    1    2    0    0  0.73426885063E+02 -0.36142088975E+02  0.57537652079E+02  0.16010415189E+03  0.12500000000E+03 0.  0.
         25    1    1    2    0    0 -0.28846223477E+02 -0.74788201866E+02  0.23781496067E+03  0.28036821372E+03  0.12500000000E+03 0.  0.
</event>
<event>
 5    0  0.5481966E-005  0.2697425E+03  0.7546771E-02  0.1101427E+00
         21   -1    0    0  502  501  0.00000000000E+00  0.00000000000E+00  0.32946719895E+03  0.32946719895E+03  0.00000000000E+00 0.  1.
         21   -1    0    0  501  502 -0.00000000000E+00 -0.00000000000E+00 -0.22084450066E+03  0.22084450066E+03  0.00000000000E+00 0.  1.
         25    1    1    2    0    0  0.12301584467E+03 -0.56416373308E+01  0.72667517665E+02  0.18992181085E+03  0.12500000000E+03 0.  0.
         25    1    1    2    0    0 -0.78274616749E+02 -0.30609507240E+00  0.13078955764E+03  0.19712411752E+03  0.12500000000E+03 0.  0.
         25    1    1    2    0    0 -0.44741227924E+02  0.59477324032E+01 -0.94834377014E+02  0.16326577125E+03  0.12500000000E+03 0.  0.
</event>
<event>
 5    0  0.5481966E-005  0.2519631E+03  0.7546771E-02  0.1112070E+00
         21   -1    0    0  502  501  0.00000000000E+00  0.00000000000E+00  0.19725039347E+03  0.19725039347E+03  0.00000000000E+00 0. -1.
         21   -1    0    0  501  502 -0.00000000000E+00 -0.00000000000E+00 -0.32185181043E+03  0.32185181043E+03  0.00000000000E+00 0. -1.
         25    1    1    2    0    0 -0.10512932834E+03 -0.85851250246E+02  0.46402265179E+01  0.18457828840E+03  0.12500000000E+03 0.  0.
         25    1    1    2    0    0  0.58982003297E+02 -0.13243849392E+02 -0.84521792550E+02  0.16255217524E+03  0.12500000000E+03 0.  0.
         25    1    1    2    0    0  0.46147325048E+02  0.99095099638E+02 -0.44719850930E+02  0.17197174026E+03  0.12500000000E+03 0.  0.
</event>
<event>
 5    0  0.5481966E-005  0.3165780E+03  0.7546771E-02  0.1077235E+00
         21   -1    0    0  502  501  0.00000000000E+00  0.00000000000E+00  0.32931645755E+03  0.32931645755E+03  0.00000000000E+00 0.  1.
         21   -1    0    0  501  502 -0.00000000000E+00 -0.00000000000E+00 -0.30433220825E+03  0.30433220825E+03  0.00000000000E+00 0.  1.
         25    1    1    2    0    0 -0.39262578376E+02 -0.91837350686E+02  0.26402511354E+02  0.16216578445E+03  0.12500000000E+03 0.  0.
         25    1    1    2    0    0 -0.67527445621E+02  0.22075708468E+03  0.19700338545E+01  0.26253100271E+03  0.12500000000E+03 0.  0.
         25    1    1    2    0    0  0.10679002400E+03 -0.12891973400E+03 -0.33882959148E+01  0.20895187864E+03  0.12500000000E+03 0.  0.
</event>
<event>
 5    0  0.5481966E-005  0.3009352E+03  0.7546771E-02  0.1084774E+00
         21   -1    0    0  502  501  0.00000000000E+00  0.00000000000E+00  0.27766188349E+03  0.27766188349E+03  0.00000000000E+00 0. -1.
         21   -1    0    0  501  502 -0.00000000000E+00 -0.00000000000E+00 -0.32615922354E+03  0.32615922354E+03  0.00000000000E+00 0. -1.
         25    1    1    2    0    0 -0.68999611583E+02 -0.89940405800E+02  0.71403836931E+02  0.18323135900E+03  0.12500000000E+03 0.  0.
         25    1    1    2    0    0  0.11677175051E+03  0.88005934788E+02  0.55264367194E+02  0.20014953549E+03  0.12500000000E+03 0.  0.
         25    1    1    2    0    0 -0.47772138928E+02  0.19344710118E+01 -0.17516554418E+03  0.22044021254E+03  0.12500000000E+03 0.  0.
</event>
<event>
 5    0  0.5481966E-005  0.2874509E+03  0.7546771E-02  0.1091688E+00
         21   -1    0    0  502  501  0.00000000000E+00  0.00000000000E+00  0.17061734610E+03  0.17061734610E+03  0.00000000000E+00 0. -1.
         21   -1    0    0  501  502 -0.00000000000E+00 -0.00000000000E+00 -0.48428836972E+03  0.48428836972E+03  0.00000000000E+00 0. -1.
         25    1    1    2    0    0 -0.60602421537E+02  0.15428854579E+03 -0.15368732182E+03  0.25830679772E+03  0.12500000000E+03 0.  0.
         25    1    1    2    0    0 -0.66017747182E+01 -0.13938643269E+03 -0.71167849887E+01  0.18747749112E+03  0.12500000000E+03 0.  0.
         25    1    1    2    0    0  0.67204196256E+02 -0.14902113105E+02 -0.15286691681E+03  0.20912142699E+03  0.12500000000E+03 0.  0.
</event>
<event>
 5    0  0.5481966E-005  0.3167461E+03  0.7546771E-02  0.1077157E+00
         21   -1    0    0  502  501  0.00000000000E+00  0.00000000000E+00  0.75798795113E+03  0.75798795113E+03  0.00000000000E+00 0. -1.
         21   -1    0    0  501  502 -0.00000000000E+00 -0.00000000000E+00 -0.13236109802E+03  0.13236109802E+03  0.00000000000E+00 0. -1.
         25    1    1    2    0    0 -0.14808859458E+03 -0.94849239148E+02  0.58858592859E+02  0.22364244670E+03  0.12500000000E+03 0.  0.
         25    1    1    2    0    0  0.16242562442E+02 -0.28077602087E+02  0.17197746138E+03  0.21506608239E+03  0.12500000000E+03 0.  0.
         25    1    1    2    0    0  0.13184603214E+03  0.12292684124E+03  0.39479079888E+03  0.45164052007E+03  0.12500000000E+03 0.  0.
</event>
<event>
 5    0  0.6205914E-005  0.2933552E+03  0.7546771E-02  0.1088610E+00
         21   -1    0    0  502  501  0.00000000000E+00  0.00000000000E+00  0.46184960466E+03  0.46184960466E+03  0.00000000000E+00 0. -1.
         21   -1    0    0  501  502 -0.00000000000E+00 -0.00000000000E+00 -0.18633178048E+03  0.18633178048E+03  0.00000000000E+00 0. -1.
         25    1    1    2    0    0 -0.31967785985E+02  0.36409345233E+02  0.19762202050E+03  0.23880335581E+03  0.12500000000E+03 0.  0.
         25    1    1    2    0    0  0.72920701758E+02  0.75449172655E+02  0.15055916783E+03  0.22204294498E+03  0.12500000000E+03 0.  0.
         25    1    1    2    0    0 -0.40952915772E+02 -0.11185851789E+03 -0.72663364150E+02  0.18733508434E+03  0.12500000000E+03 0.  0.
</event>
<event>
 5    0  0.5481966E-005  0.3741421E+03  0.7546771E-02  0.1053120E+00
         21   -1    0    0  502  501  0.00000000000E+00  0.00000000000E+00  0.44334989531E+03  0.44334989531E+03  0.00000000000E+00 0. -1.
         21   -1    0    0  501  502 -0.00000000000E+00 -0.00000000000E+00 -0.31573780898E+03  0.31573780898E+03  0.00000000000E+00 0. -1.
         25    1    1    2    0    0  0.17097400633E+03  0.10869402361E+03  0.57517044131E+02  0.24490755802E+03  0.12500000000E+03 0.  0.
         25    1    1    2    0    0  0.18929625083E+02  0.12215396244E+03  0.72513895912E+02  0.19016620716E+03  0.12500000000E+03 0.  0.
         25    1    1    2    0    0 -0.18990363141E+03 -0.23084798605E+03 -0.24188537147E+01  0.32401393911E+03  0.12500000000E+03 0.  0.
</event>
<event>
 5    0  0.5481966E-005  0.3326895E+03  0.7546771E-02  0.1069953E+00
         21   -1    0    0  502  501  0.00000000000E+00  0.00000000000E+00  0.14446942411E+04  0.14446942411E+04  0.00000000000E+00 0.  1.
         21   -1    0    0  501  502 -0.00000000000E+00 -0.00000000000E+00 -0.76612938323E+02  0.76612938323E+02  0.00000000000E+00 0.  1.
         25    1    1    2    0    0  0.56363559227E+02  0.42134481608E+02  0.64921029198E+03  0.66486928682E+03  0.12500000000E+03 0.  0.
         25    1    1    2    0    0 -0.68507796435E+02  0.31040192469E+02  0.69376157229E+03  0.70893365762E+03  0.12500000000E+03 0.  0.
         25    1    1    2    0    0  0.12144237208E+02 -0.73174674076E+02  0.25109438463E+02  0.14750423493E+03  0.12500000000E+03 0.  0.
</event>
<event>
 5    0  0.5481966E-005  0.2264746E+03  0.7546771E-02  0.1129146E+00
         21   -1    0    0  502  501  0.00000000000E+00  0.00000000000E+00  0.57806569208E+03  0.57806569208E+03  0.00000000000E+00 0.  1.
         21   -1    0    0  501  502 -0.00000000000E+00 -0.00000000000E+00 -0.88728239971E+02  0.88728239971E+02  0.00000000000E+00 0.  1.
         25    1    1    2    0    0 -0.25834238749E+01 -0.12291777022E+02  0.31181494210E+02  0.12944128956E+03  0.12500000000E+03 0.  0.
         25    1    1    2    0    0  0.32023109256E+02 -0.49344346200E+02  0.23548786596E+03  0.27301992426E+03  0.12500000000E+03 0.  0.
         25    1    1    2    0    0 -0.29439685381E+02  0.61636123223E+02  0.22266809195E+03  0.26433271824E+03  0.12500000000E+03 0.  0.
</event>
<event>
 5    0  0.5481966E-005  0.3843121E+03  0.7546771E-02  0.1049351E+00
         21   -1    0    0  502  501  0.00000000000E+00  0.00000000000E+00  0.63931197909E+03  0.63931197909E+03  0.00000000000E+00 0.  1.
         21   -1    0    0  501  502 -0.00000000000E+00 -0.00000000000E+00 -0.23102306403E+03  0.23102306403E+03  0.00000000000E+00 0.  1.
         25    1    1    2    0    0 -0.61770815334E+02 -0.16671374716E+03  0.34077205958E+02  0.21998946130E+03  0.12500000000E+03 0.  0.
         25    1    1    2    0    0 -0.11647470441E+03 -0.33626805921E+02  0.10588523365E+01  0.17413569425E+03  0.12500000000E+03 0.  0.
         25    1    1    2    0    0  0.17824551974E+03  0.20034055308E+03  0.37315285676E+03  0.47620988757E+03  0.12500000000E+03 0.  0.
</event>
<event>
 5    0  0.5481966E-005  0.2998844E+03  0.7546771E-02  0.1085298E+00
         21   -1    0    0  502  501  0.00000000000E+00  0.00000000000E+00  0.28722568567E+03  0.28722568567E+03  0.00000000000E+00 0.  1.
         21   -1    0    0  501  502 -0.00000000000E+00 -0.00000000000E+00 -0.31310096317E+03  0.31310096317E+03  0.00000000000E+00 0.  1.
         25    1    1    2    0    0 -0.84228690838E+02  0.65731895010E+02 -0.15785057292E+03  0.22794068911E+03  0.12500000000E+03 0.  0.
         25    1    1    2    0    0 -0.40298632499E+02  0.85887544144E+01 -0.12966689048E+02  0.13225309640E+03  0.12500000000E+03 0.  0.
         25    1    1    2    0    0  0.12452732334E+03 -0.74320649424E+02  0.14494198447E+03  0.24013286333E+03  0.12500000000E+03 0.  0.
</event>
<event>
 5    0  0.5481966E-005  0.2913226E+03  0.7546771E-02  0.1089661E+00
         21   -1    0    0  502  501  0.00000000000E+00  0.00000000000E+00  0.62326695652E+03  0.62326695652E+03  0.00000000000E+00 0. -1.
         21   -1    0    0  501  502 -0.00000000000E+00 -0.00000000000E+00 -0.13616777045E+03  0.13616777045E+03  0.00000000000E+00 0. -1.
         25    1    1    2    0    0 -0.12936986848E+03 -0.29865787818E+02  0.31412197457E+03  0.36321638600E+03  0.12500000000E+03 0.  0.
         25    1    1    2    0    0  0.40349375073E+01  0.76221243738E+02  0.30357068183E+01  0.14649291530E+03  0.12500000000E+03 0.  0.
         25    1    1    2    0    0  0.12533493097E+03 -0.46355455921E+02  0.16994150468E+03  0.24972542567E+03  0.12500000000E+03 0.  0.
</event>
<event>
 5    0  0.5481966E-005  0.3617864E+03  0.7546771E-02  0.1057879E+00
         21   -1    0    0  502  501  0.00000000000E+00  0.00000000000E+00  0.65447163429E+03  0.65447163429E+03  0.00000000000E+00 0. -1.
         21   -1    0    0  501  502 -0.00000000000E+00 -0.00000000000E+00 -0.19999242540E+03  0.19999242540E+03  0.00000000000E+00 0. -1.
         25    1    1    2    0    0 -0.46143775636E+02 -0.93238875269E+02 -0.73924080296E+02  0.17864071635E+03  0.12500000000E+03 0.  0.
         25    1    1    2    0    0  0.83764730496E+02  0.20053127176E+03  0.34463686677E+03  0.42617941171E+03  0.12500000000E+03 0.  0.
         25    1    1    2    0    0 -0.37620954860E+02 -0.10729239649E+03  0.18376642242E+03  0.24964393163E+03  0.12500000000E+03 0.  0.
</event>
<event>
 5    0  0.5481966E-005  0.3100442E+03  0.7546771E-02  0.1080325E+00
         21   -1    0    0  502  501  0.00000000000E+00  0.00000000000E+00  0.65702109777E+03  0.65702109777E+03  0.00000000000E+00 0.  1.
         21   -1    0    0  501  502 -0.00000000000E+00 -0.00000000000E+00 -0.14630789757E+03  0.14630789757E+03  0.00000000000E+00 0.  1.
         25    1    1    2    0    0 -0.68491427846E+02 -0.75287717402E+02  0.94914997480E+02  0.18706462206E+03  0.12500000000E+03 0.  0.
         25    1    1    2    0    0  0.60057507794E+02  0.17812009644E+03  0.73286746062E+02  0.23733861916E+03  0.12500000000E+03 0.  0.
         25    1    1    2    0    0  0.84339200522E+01 -0.10283237904E+03  0.34251145667E+03  0.37892575412E+03  0.12500000000E+03 0.  0.
</event>
<event>
 5    0  0.5481966E-005  0.5710062E+03  0.7546771E-02  0.9967455E-01
         21   -1    0    0  502  501  0.00000000000E+00  0.00000000000E+00  0.53650628506E+03  0.53650628506E+03  0.00000000000E+00 0.  1.
         21   -1    0    0  501  502 -0.00000000000E+00 -0.00000000000E+00 -0.60772455591E+03  0.60772455591E+03  0.00000000000E+00 0.  1.
         25    1    1    2    0    0 -0.17546847188E+03  0.17477988694E+03  0.21864958948E+02  0.27828091910E+03  0.12500000000E+03 0.  0.
         25    1    1    2    0    0  0.26552375067E+03 -0.24919383995E+03 -0.37418166494E+03  0.53687740725E+03  0.12500000000E+03 0.  0.
         25    1    1    2    0    0 -0.90055278789E+02  0.74413953005E+02  0.28109843514E+03  0.32907251462E+03  0.12500000000E+03 0.  0.
</event>
<event>
 5    0  0.5481966E-005  0.3415352E+03  0.7546771E-02  0.1066144E+00
         21   -1    0    0  502  501  0.00000000000E+00  0.00000000000E+00  0.11922363620E+03  0.11922363620E+03  0.00000000000E+00 0.  1.
         21   -1    0    0  501  502 -0.00000000000E+00 -0.00000000000E+00 -0.97838208615E+03  0.97838208615E+03  0.00000000000E+00 0. -1.
         25    1    1    2    0    0  0.18749514369E+03  0.38963029206E+02 -0.85866474263E+02  0.24427565977E+03  0.12500000000E+03 0.  0.
         25    1    1    2    0    0 -0.18799324897E+03 -0.23255124834E+02 -0.57764056449E+03  0.62062539767E+03  0.12500000000E+03 0.  0.
         25    1    1    2    0    0  0.49810528093E+00 -0.15707904372E+02 -0.19565141119E+03  0.23270466491E+03  0.12500000000E+03 0.  0.
</event>
<event>
 5    0  0.5481966E-005  0.2788760E+03  0.7546771E-02  0.1096304E+00
         21   -1    0    0  502  501  0.00000000000E+00  0.00000000000E+00  0.19384626100E+03  0.19384626100E+03  0.00000000000E+00 0.  1.
         21   -1    0    0  501  502 -0.00000000000E+00 -0.00000000000E+00 -0.40120352277E+03  0.40120352277E+03  0.00000000000E+00 0.  1.
         25    1    1    2    0    0  0.30559526979E+02 -0.10111179697E+03 -0.12372559393E+02  0.16412056666E+03  0.12500000000E+03 0.  0.
         25    1    1    2    0    0  0.72824370720E+02 -0.57691147608E+02 -0.60541083419E+02  0.16709841491E+03  0.12500000000E+03 0.  0.
         25    1    1    2    0    0 -0.10338389770E+03  0.15880294458E+03 -0.13444361896E+03  0.26383080220E+03  0.12500000000E+03 0.  0.
</event>
<event>
 5    0  0.5481966E-005  0.4340472E+03  0.7546771E-02  0.1032589E+00
         21   -1    0    0  502  501  0.00000000000E+00  0.00000000000E+00  0.11222350062E+04  0.11222350062E+04  0.00000000000E+00 0.  1.
         21   -1    0    0  501  502 -0.00000000000E+00 -0.00000000000E+00 -0.16787659747E+03  0.16787659747E+03  0.00000000000E+00 0.  1.
         25    1    1    2    0    0 -0.11440011736E+03 -0.20810750514E+02  0.24335483234E+03  0.29726595603E+03  0.12500000000E+03 0.  0.
         25    1    1    2    0    0  0.24619869698E+03 -0.23462392228E+03  0.27031079036E+03  0.45205653041E+03  0.12500000000E+03 0.  0.
         25    1    1    2    0    0 -0.13179857962E+03  0.25543467280E+03  0.44069278604E+03  0.54078911724E+03  0.12500000000E+03 0.  0.
</event>
<event>
 5    0  0.5481966E-005  0.2336161E+03  0.7546771E-02  0.1124120E+00
         21   -1    0    0  502  501  0.00000000000E+00  0.00000000000E+00  0.46431660446E+03  0.46431660446E+03  0.00000000000E+00 0.  1.
         21   -1    0    0  501  502 -0.00000000000E+00 -0.00000000000E+00 -0.11754151405E+03  0.11754151405E+03  0.00000000000E+00 0.  1.
         25    1    1    2    0    0  0.91000662526E+02  0.48311642656E+02  0.19303516973E+03  0.25199744472E+03  0.12500000000E+03 0.  0.
         25    1    1    2    0    0 -0.30387278425E+01  0.33944408182E+01  0.98838132956E+02  0.15941998815E+03  0.12500000000E+03 0.  0.
         25    1    1    2    0    0 -0.87961934684E+02 -0.51706083474E+02  0.54901787726E+02  0.17044068563E+03  0.12500000000E+03 0.  0.
</event>
<event>
 5    0  0.5481966E-005  0.2589026E+03  0.7546771E-02  0.1107804E+00
         21   -1    0    0  502  501  0.00000000000E+00  0.00000000000E+00  0.22433496170E+03  0.22433496170E+03  0.00000000000E+00 0. -1.
         21   -1    0    0  501  502 -0.00000000000E+00 -0.00000000000E+00 -0.29879673694E+03  0.29879673694E+03  0.00000000000E+00 0. -1.
         25    1    1    2    0    0 -0.36408080981E+02  0.61746838949E+02 -0.45657061105E+02  0.15115484680E+03  0.12500000000E+03 0.  0.
         25    1    1    2    0    0 -0.11406480774E+03 -0.38766899978E+02 -0.20836768947E+02  0.17485086171E+03  0.12500000000E+03 0.  0.
         25    1    1    2    0    0  0.15047288872E+03 -0.22979938972E+02 -0.79679451884E+01  0.19712599013E+03  0.12500000000E+03 0.  0.
</event>
<event>
 5    0  0.5481966E-005  0.2251119E+03  0.7546771E-02  0.1130128E+00
         21   -1    0    0  502  501  0.00000000000E+00  0.00000000000E+00  0.14452467911E+03  0.14452467911E+03  0.00000000000E+00 0.  1.
         21   -1    0    0  501  502 -0.00000000000E+00 -0.00000000000E+00 -0.35063456458E+03  0.35063456458E+03  0.00000000000E+00 0.  1.
         25    1    1    2    0    0 -0.19875258741E+02 -0.85500036828E+02 -0.62874551921E+02  0.16517715183E+03  0.12500000000E+03 0.  0.
         25    1    1    2    0    0 -0.37586124463E+02  0.72643639522E+02 -0.11604191531E+03  0.18915745088E+03  0.12500000000E+03 0.  0.
         25    1    1    2    0    0  0.57461383204E+02  0.12856397306E+02 -0.27193418238E+02  0.14082464098E+03  0.12500000000E+03 0.  0.
</event>
<event>
 5    0  0.5481966E-005  0.2675936E+03  0.7546771E-02  0.1102665E+00
         21   -1    0    0  502  501  0.00000000000E+00  0.00000000000E+00  0.56692687793E+02  0.56692687793E+02  0.00000000000E+00 0.  1.
         21   -1    0    0  501  502 -0.00000000000E+00 -0.00000000000E+00 -0.12630610349E+04  0.12630610349E+04  0.00000000000E+00 0.  1.
         25    1    1    2    0    0 -0.57000876857E+02  0.10358488637E+03 -0.43971026003E+03  0.47217479965E+03  0.12500000000E+03 0.  0.
         25    1    1    2    0    0 -0.82477680670E+02 -0.17885792274E+02 -0.25877170249E+03  0.29951671637E+03  0.12500000000E+03 0.  0.
         25    1    1    2    0    0  0.13947855753E+03 -0.85699094093E+02 -0.50788638456E+03  0.54806220665E+03  0.12500000000E+03 0.  0.
</event>
<event>
 5    0  0.5481966E-005  0.4104116E+03  0.7546771E-02  0.1040233E+00
         21   -1    0    0  502  501  0.00000000000E+00  0.00000000000E+00  0.29259257050E+03  0.29259257050E+03  0.00000000000E+00 0.  1.
         21   -1    0    0  501  502 -0.00000000000E+00 -0.00000000000E+00 -0.57567327110E+03  0.57567327110E+03  0.00000000000E+00 0.  1.
         25    1    1    2    0    0 -0.85559239538E+02  0.63643058128E+00  0.99376402168E+02  0.18116693358E+03  0.12500000000E+03 0.  0.
         25    1    1    2    0    0  0.13077909348E+03 -0.97738630022E+02 -0.46094455608E+03  0.50472853582E+03  0.12500000000E+03 0.  0.
         25    1    1    2    0    0 -0.45219853939E+02  0.97102199441E+02  0.78487453317E+02  0.18237037220E+03  0.12500000000E+03 0.  0.
</event>
<event>
 5    0  0.5481966E-005  0.3383589E+03  0.7546771E-02  0.1067497E+00
         21   -1    0    0  502  501  0.00000000000E+00  0.00000000000E+00  0.31257770148E+03  0.31257770148E+03  0.00000000000E+00 0.  1.
         21   -1    0    0  501  502 -0.00000000000E+00 -0.00000000000E+00 -0.36626642699E+03  0.36626642699E+03  0.00000000000E+00 0.  1.
         25    1    1    2    0    0  0.14360206558E+03  0.29670985700E+02 -0.16521800267E+03  0.25381865384E+03  0.12500000000E+03 0.  0.
         25    1    1    2    0    0  0.54196428026E+01 -0.11668781077E+02 -0.82003260601E+02  0.15005021736E+03  0.12500000000E+03 0.  0.
         25    1    1    2    0    0 -0.14902170838E+03 -0.18002204623E+02  0.19353253776E+03  0.27497525727E+03  0.12500000000E+03 0.  0.
</event>
<event>
 5    0  0.5481966E-005  0.4562889E+03  0.7546771E-02  0.1025863E+00
         21   -1    0    0  502  501  0.00000000000E+00  0.00000000000E+00  0.42125926465E+03  0.42125926465E+03  0.00000000000E+00 0. -1.
         21   -1    0    0  501  502 -0.00000000000E+00 -0.00000000000E+00 -0.49423131764E+03  0.49423131764E+03  0.00000000000E+00 0. -1.
         25    1    1    2    0    0  0.19016793294E+03 -0.36824402277E+02 -0.11224260511E+03  0.25640452750E+03  0.12500000000E+03 0.  0.
         25    1    1    2    0    0 -0.13656884918E+02 -0.14276887985E+03 -0.20999741910E+03  0.28336086460E+03  0.12500000000E+03 0.  0.
         25    1    1    2    0    0 -0.17651104802E+03  0.17959328212E+03  0.24926797122E+03  0.37572519018E+03  0.12500000000E+03 0.  0.
</event>
<event>
 5    0  0.5481966E-005  0.2368368E+03  0.7546771E-02  0.1121918E+00
         21   -1    0    0  502  501  0.00000000000E+00  0.00000000000E+00  0.12197561317E+03  0.12197561317E+03  0.00000000000E+00 0.  1.
         21   -1    0    0  501  502 -0.00000000000E+00 -0.00000000000E+00 -0.45985985705E+03  0.45985985705E+03  0.00000000000E+00 0.  1.
         25    1    1    2    0    0  0.60809455046E+02 -0.32871136775E+02 -0.22283001617E+03  0.26468191771E+03  0.12500000000E+03 0.  0.
         25    1    1    2    0    0  0.13866668446E+02  0.24677810172E+02 -0.11366866225E+03  0.17130920462E+03  0.12500000000E+03 0.  0.
         25    1    1    2    0    0 -0.74676123492E+02  0.81933266030E+01 -0.13855654603E+01  0.14584434789E+03  0.12500000000E+03 0.  0.
</event>
<event>
 5    0  0.5481966E-005  0.3455231E+03  0.7546771E-02  0.1064468E+00
         21   -1    0    0  502  501  0.00000000000E+00  0.00000000000E+00  0.68334941045E+03  0.68334941045E+03  0.00000000000E+00 0.  1.
         21   -1    0    0  501  502 -0.00000000000E+00 -0.00000000000E+00 -0.17470746107E+03  0.17470746107E+03  0.00000000000E+00 0.  1.
         25    1    1    2    0    0  0.24221947800E+03 -0.66383887543E+02  0.23962171503E+03  0.36894533790E+03  0.12500000000E+03 0.  0.
         25    1    1    2    0    0 -0.63997995493E+01 -0.16321859885E+02  0.57735564091E+02  0.13880113798E+03  0.12500000000E+03 0.  0.
         25    1    1    2    0    0 -0.23581967845E+03  0.82705747428E+02  0.21128467025E+03  0.35031039563E+03  0.12500000000E+03 0.  0.
</event>
<event>
 5    0  0.5481966E-005  0.3883673E+03  0.7546771E-02  0.1047884E+00
         21   -1    0    0  502  501  0.00000000000E+00  0.00000000000E+00  0.82331390958E+03  0.82331390958E+03  0.00000000000E+00 0. -1.
         21   -1    0    0  501  502 -0.00000000000E+00 -0.00000000000E+00 -0.18319762096E+03  0.18319762096E+03  0.00000000000E+00 0. -1.
         25    1    1    2    0    0 -0.13645138708E+03  0.16056007952E+03  0.29100933829E+03  0.38040761710E+03  0.12500000000E+03 0.  0.
         25    1    1    2    0    0  0.77570724424E+02 -0.38627588378E+02 -0.70627249170E+02  0.16769769288E+03  0.12500000000E+03 0.  0.
         25    1    1    2    0    0  0.58880662658E+02 -0.12193249114E+03  0.41973419949E+03  0.45840622057E+03  0.12500000000E+03 0.  0.
</event>
<event>
 5    0  0.5481966E-005  0.2698518E+03  0.7546771E-02  0.1101364E+00
         21   -1    0    0  502  501  0.00000000000E+00  0.00000000000E+00  0.97961389374E+03  0.97961389374E+03  0.00000000000E+00 0.  1.
         21   -1    0    0  501  502 -0.00000000000E+00 -0.00000000000E+00 -0.74335409805E+02  0.74335409805E+02  0.00000000000E+00 0.  1.
         25    1    1    2    0    0  0.11646529674E+03  0.23766756808E+02  0.48667015079E+03  0.51633502664E+03  0.12500000000E+03 0.  0.
         25    1    1    2    0    0  0.49125718102E+01 -0.74704638519E+02  0.25267263900E+03  0.29167341133E+03  0.12500000000E+03 0.  0.
         25    1    1    2    0    0 -0.12137786855E+03  0.50937881711E+02  0.16593569416E+03  0.24594086558E+03  0.12500000000E+03 0.  0.
</event>
<event>
 5    0  0.5481966E-005  0.3277373E+03  0.7546771E-02  0.1072142E+00
         21   -1    0    0  502  501  0.00000000000E+00  0.00000000000E+00  0.43154784523E+03  0.43154784523E+03  0.00000000000E+00 0. -1.
         21   -1    0    0  501  502 -0.00000000000E+00 -0.00000000000E+00 -0.24889884204E+03  0.24889884204E+03  0.00000000000E+00 0. -1.
         25    1    1    2    0    0 -0.19619847108E+02  0.28809962642E+02 -0.12849624178E+02  0.13040347077E+03  0.12500000000E+03 0.  0.
         25    1    1    2    0    0 -0.90836383519E+02  0.12850387639E+03  0.24356134897E+03  0.31577147675E+03  0.12500000000E+03 0.  0.
         25    1    1    2    0    0  0.11045623063E+03 -0.15731383903E+03 -0.48062721599E+02  0.23427173975E+03  0.12500000000E+03 0.  0.
</event>
<event>
 5    0  0.5481966E-005  0.3241311E+03  0.7546771E-02  0.1073764E+00
         21   -1    0    0  502  501  0.00000000000E+00  0.00000000000E+00  0.63778195264E+03  0.63778195264E+03  0.00000000000E+00 0. -1.
         21   -1    0    0  501  502 -0.00000000000E+00 -0.00000000000E+00 -0.16472861838E+03  0.16472861838E+03  0.00000000000E+00 0. -1.
         25    1    1    2    0    0 -0.97182350059E+02 -0.12890084358E+02  0.14617562049E+03  0.21587699151E+03  0.12500000000E+03 0.  0.
         25    1    1    2    0    0 -0.20320349243E+02 -0.10408897113E+03  0.34115861339E+03  0.37849918097E+03  0.12500000000E+03 0.  0.
         25    1    1    2    0    0  0.11750269930E+03  0.11697905548E+03 -0.14280899605E+02  0.20813439855E+03  0.12500000000E+03 0.  0.
</event>
<event>
 5    0  0.5481966E-005  0.4160517E+03  0.7546771E-02  0.1038359E+00
         21   -1    0    0  502  501  0.00000000000E+00  0.00000000000E+00  0.46476794212E+03  0.46476794212E+03  0.00000000000E+00 0.  1.
         21   -1    0    0  501  502 -0.00000000000E+00 -0.00000000000E+00 -0.37244185792E+03  0.37244185792E+03  0.00000000000E+00 0.  1.
         25    1    1    2    0    0 -0.10633244948E+03  0.75882105176E+02  0.31576476638E+02  0.18353952592E+03  0.12500000000E+03 0.  0.
         25    1    1    2    0    0  0.30639460145E+03 -0.17928241135E+03 -0.37011989380E+02  0.37817287340E+03  0.12500000000E+03 0.  0.
         25    1    1    2    0    0 -0.20006215197E+03  0.10340030618E+03  0.97761596938E+02  0.27549740072E+03  0.12500000000E+03 0.  0.
</event>
<event>
 5    0  0.5481966E-005  0.2746003E+03  0.7546771E-02  0.1098675E+00
         21   -1    0    0  502  501  0.00000000000E+00  0.00000000000E+00  0.27284705277E+04  0.27284705277E+04  0.00000000000E+00 0. -1.
         21   -1    0    0  501  502 -0.00000000000E+00 -0.00000000000E+00 -0.27636490744E+02  0.27636490744E+02  0.00000000000E+00 0. -1.
         25    1    1    2    0    0 -0.94673427685E+02 -0.14961693481E+03  0.76382798193E+03  0.79398140474E+03  0.12500000000E+03 0.  0.
         25    1    1    2    0    0  0.52347237140E+02  0.44183756054E+02  0.79149956154E+03  0.80423192765E+03  0.12500000000E+03 0.  0.
         25    1    1    2    0    0  0.42326190545E+02  0.10543317875E+03  0.11455064935E+04  0.11578936861E+04  0.12500000000E+03 0.  0.
</event>
<event>
 5    0  0.5481966E-005  0.3607273E+03  0.7546771E-02  0.1058296E+00
         21   -1    0    0  502  501  0.00000000000E+00  0.00000000000E+00  0.19339429831E+03  0.19339429831E+03  0.00000000000E+00 0. -1.
         21   -1    0    0  501  502 -0.00000000000E+00 -0.00000000000E+00 -0.67284386178E+03  0.67284386178E+03  0.00000000000E+00 0. -1.
         25    1    1    2    0    0 -0.17782243575E+03  0.11853341878E+02 -0.92871609934E+02  0.23666739594E+03  0.12500000000E+03 0.  0.
         25    1    1    2    0    0  0.22945083090E+03  0.13624371188E+03 -0.25511252394E+03  0.38976586908E+03  0.12500000000E+03 0.  0.
         25    1    1    2    0    0 -0.51628395150E+02 -0.14809705376E+03 -0.13146542959E+03  0.23980489506E+03  0.12500000000E+03 0.  0.
</event>
<event>
 5    0  0.5481966E-005  0.4776846E+03  0.7546771E-02  0.1019773E+00
         21   -1    0    0  502  501  0.00000000000E+00  0.00000000000E+00  0.15832442852E+04  0.15832442852E+04  0.00000000000E+00 0.  1.
         21   -1    0    0  501  502 -0.00000000000E+00 -0.00000000000E+00 -0.14412342479E+03  0.14412342479E+03  0.00000000000E+00 0.  1.
         25    1    1    2    0    0 -0.49834456174E+02  0.36006748416E+03  0.55053745459E+03  0.67145257098E+03  0.12500000000E+03 0.  0.
         25    1    1    2    0    0  0.92955427230E+00 -0.24870307970E+03  0.19279009141E+03  0.33859578449E+03  0.12500000000E+03 0.  0.
         25    1    1    2    0    0  0.48904901902E+02 -0.11136440446E+03  0.69579331435E+03  0.71731935448E+03  0.12500000000E+03 0.  0.
</event>
<event>
 5    0  0.5481966E-005  0.2996742E+03  0.7546771E-02  0.1085404E+00
         21   -1    0    0  502  501  0.00000000000E+00  0.00000000000E+00  0.70465819882E+02  0.70465819882E+02  0.00000000000E+00 0.  1.
         21   -1    0    0  501  502 -0.00000000000E+00 -0.00000000000E+00 -0.12744421978E+04  0.12744421978E+04  0.00000000000E+00 0.  1.
         25    1    1    2    0    0  0.11240586717E+03 -0.29689912191E+02 -0.14789132165E+03  0.22586149047E+03  0.12500000000E+03 0.  0.
         25    1    1    2    0    0 -0.12379655715E+03  0.11222359234E+03 -0.74365741959E+03  0.77238013953E+03  0.12500000000E+03 0.  0.
         25    1    1    2    0    0  0.11390689983E+02 -0.82533680151E+02 -0.31242763665E+03  0.34666638764E+03  0.12500000000E+03 0.  0.
</event>
<event>
 5    0  0.5481966E-005  0.2474349E+03  0.7546771E-02  0.1114937E+00
         21   -1    0    0  502  501  0.00000000000E+00  0.00000000000E+00  0.14208626217E+03  0.14208626217E+03  0.00000000000E+00 0.  1.
         21   -1    0    0  501  502 -0.00000000000E+00 -0.00000000000E+00 -0.43089324545E+03  0.43089324545E+03  0.00000000000E+00 0.  1.
         25    1    1    2    0    0 -0.11666377526E+02 -0.20179766342E+01 -0.26611284132E+03  0.29424687069E+03  0.12500000000E+03 0.  0.
         25    1    1    2    0    0 -0.22730840674E+02 -0.47774840621E+02 -0.32285771265E+02  0.13952239082E+03  0.12500000000E+03 0.  0.
         25    1    1    2    0    0  0.34397218200E+02  0.49792817255E+02  0.95916293020E+01  0.13921024611E+03  0.12500000000E+03 0.  0.
</event>
<event>
 5    0  0.5481966E-005  0.3031013E+03  0.7546771E-02  0.1083701E+00
         21   -1    0    0  502  501  0.00000000000E+00  0.00000000000E+00  0.17568764653E+04  0.17568764653E+04  0.00000000000E+00 0.  1.
         21   -1    0    0  501  502 -0.00000000000E+00 -0.00000000000E+00 -0.52291890737E+02  0.52291890737E+02  0.00000000000E+00 0.  1.
         25    1    1    2    0    0  0.71150610655E+02 -0.13298941750E+02  0.97658660228E+03  0.98721105291E+03  0.12500000000E+03 0.  0.
         25    1    1    2    0    0 -0.14581614520E+03  0.52291433609E+02  0.24323714465E+03  0.31430248292E+03  0.12500000000E+03 0.  0.
         25    1    1    2    0    0  0.74665534549E+02 -0.38992491859E+02  0.48476082768E+03  0.50765482025E+03  0.12500000000E+03 0.  0.
</event>
<event>
 5    0  0.5481966E-005  0.4132993E+03  0.7546771E-02  0.1039269E+00
         21   -1    0    0  502  501  0.00000000000E+00  0.00000000000E+00  0.37860208307E+03  0.37860208307E+03  0.00000000000E+00 0. -1.
         21   -1    0    0  501  502 -0.00000000000E+00 -0.00000000000E+00 -0.45117637619E+03  0.45117637619E+03  0.00000000000E+00 0. -1.
         25    1    1    2    0    0  0.10075289833E+03 -0.22131608026E+03 -0.19731101046E+03  0.33717738470E+03  0.12500000000E+03 0.  0.
         25    1    1    2    0    0 -0.81792553820E+02  0.17294994161E+03 -0.84281955401E+02  0.24357781543E+03  0.12500000000E+03 0.  0.
         25    1    1    2    0    0 -0.18960344513E+02  0.48366138652E+02  0.20901867274E+03  0.24902325913E+03  0.12500000000E+03 0.  0.
</event>
<event>
 5    0  0.5481966E-005  0.2665774E+03  0.7546771E-02  0.1103255E+00
         21   -1    0    0  502  501  0.00000000000E+00  0.00000000000E+00  0.30633455947E+03  0.30633455947E+03  0.00000000000E+00 0. -1.
         21   -1    0    0  501  502 -0.00000000000E+00 -0.00000000000E+00 -0.23198007857E+03  0.23198007857E+03  0.00000000000E+00 0. -1.
         25    1    1    2    0    0 -0.10704024235E+03  0.73800491709E+02  0.69927988655E+02  0.19344004150E+03  0.12500000000E+03 0.  0.
         25    1    1    2    0    0  0.11492137268E+03 -0.12295541770E+03 -0.76750950213E+01  0.20978289665E+03  0.12500000000E+03 0.  0.
         25    1    1    2    0    0 -0.78811303331E+01  0.49154925994E+02  0.12101587263E+02  0.13509169989E+03  0.12500000000E+03 0.  0.
</event>
<event>
 5    0  0.5481966E-005  0.2548402E+03  0.7546771E-02  0.1110284E+00
         21   -1    0    0  502  501  0.00000000000E+00  0.00000000000E+00  0.32408591348E+03  0.32408591348E+03  0.00000000000E+00 0. -1.
         21   -1    0    0  501  502 -0.00000000000E+00 -0.00000000000E+00 -0.20038985035E+03  0.20038985035E+03  0.00000000000E+00 0. -1.
         25    1    1    2    0    0  0.14865953783E+03  0.31204507264E+02 -0.40724175643E+01  0.19676118532E+03  0.12500000000E+03 0.  0.
         25    1    1    2    0    0 -0.11049712404E+03 -0.24337035647E+02  0.91854350610E+02  0.19200033191E+03  0.12500000000E+03 0.  0.
         25    1    1    2    0    0 -0.38162413791E+02 -0.68674716174E+01  0.35914130076E+02  0.13571424661E+03  0.12500000000E+03 0.  0.
</event>
<event>
 5    0  0.5481966E-005  0.2265693E+03  0.7546771E-02  0.1129078E+00
         21   -1    0    0  502  501  0.00000000000E+00  0.00000000000E+00  0.76381398681E+03  0.76381398681E+03  0.00000000000E+00 0. -1.
         21   -1    0    0  501  502 -0.00000000000E+00 -0.00000000000E+00 -0.67206990956E+02  0.67206990956E+02  0.00000000000E+00 0. -1.
         25    1    1    2    0    0  0.91553544237E+01  0.12545448972E+02  0.34795768742E+03  0.37005507839E+03  0.12500000000E+03 0.  0.
         25    1    1    2    0    0  0.69532250384E+01  0.24763833187E+02  0.54468579380E+02  0.13875669682E+03  0.12500000000E+03 0.  0.
         25    1    1    2    0    0 -0.16108579462E+02 -0.37309282159E+02  0.29418072905E+03  0.32220920255E+03  0.12500000000E+03 0.  0.
</event>
<event>
 5    0  0.5481966E-005  0.3005924E+03  0.7546771E-02  0.1084945E+00
         21   -1    0    0  502  501  0.00000000000E+00  0.00000000000E+00  0.13146076808E+04  0.13146076808E+04  0.00000000000E+00 0. -1.
         21   -1    0    0  501  502 -0.00000000000E+00 -0.00000000000E+00 -0.68732148006E+02  0.68732148006E+02  0.00000000000E+00 0. -1.
         25    1    1    2    0    0  0.56199300350E+02 -0.16617149941E+03  0.57838816730E+03  0.61719462137E+03  0.12500000000E+03 0.  0.
         25    1    1    2    0    0  0.26900191376E+02  0.94775325418E+02  0.52039764241E+03  0.54419177578E+03  0.12500000000E+03 0.  0.
         25    1    1    2    0    0 -0.83099491726E+02  0.71396173990E+02  0.14708972308E+03  0.22195343165E+03  0.12500000000E+03 0.  0.
</event>
<event>
 5    0  0.5481966E-005  0.3654457E+03  0.7546771E-02  0.1056448E+00
         21   -1    0    0  502  501  0.00000000000E+00  0.00000000000E+00  0.32274226921E+03  0.32274226921E+03  0.00000000000E+00 0.  1.
         21   -1    0    0  501  502 -0.00000000000E+00 -0.00000000000E+00 -0.41379936600E+03  0.41379936600E+03  0.00000000000E+00 0.  1.
         25    1    1    2    0    0 -0.19254747377E+02  0.37861229455E+02 -0.27671201351E+03  0.30659216626E+03  0.12500000000E+03 0.  0.
         25    1    1    2    0    0 -0.18335649554E+02 -0.91634936118E+02 -0.42406885511E+02  0.16172971743E+03  0.12500000000E+03 0.  0.
         25    1    1    2    0    0  0.37590396931E+02  0.53773706663E+02  0.22806180223E+03  0.26821975152E+03  0.12500000000E+03 0.  0.
</event>
<event>
 5    0  0.5481966E-005  0.2955544E+03  0.7546771E-02  0.1087484E+00
         21   -1    0    0  502  501  0.00000000000E+00  0.00000000000E+00  0.66992865926E+03  0.66992865926E+03  0.00000000000E+00 0. -1.
         21   -1    0    0  501  502 -0.00000000000E+00 -0.00000000000E+00 -0.13039064716E+03  0.13039064716E+03  0.00000000000E+00 0. -1.
         25    1    1    2    0    0  0.78054483509E+02  0.13057988301E+03  0.11496636826E+03  0.22800410977E+03  0.12500000000E+03 0.  0.
         25    1    1    2    0    0  0.19393072762E+02 -0.16257910141E+03  0.15432448283E+03  0.25738900809E+03  0.12500000000E+03 0.  0.
         25    1    1    2    0    0 -0.97447556270E+02  0.31999218396E+02  0.27024716102E+03  0.31492618856E+03  0.12500000000E+03 0.  0.
</event>
<event>
 5    0  0.5481966E-005  0.2297905E+03  0.7546771E-02  0.1126787E+00
         21   -1    0    0  502  501  0.00000000000E+00  0.00000000000E+00  0.12431421330E+03  0.12431421330E+03  0.00000000000E+00 0. -1.
         21   -1    0    0  501  502 -0.00000000000E+00 -0.00000000000E+00 -0.42475961723E+03  0.42475961723E+03  0.00000000000E+00 0. -1.
         25    1    1    2    0    0 -0.48334356488E+02 -0.62149272196E+01  0.69634790980E+01  0.13434405599E+03  0.12500000000E+03 0.  0.
         25    1    1    2    0    0 -0.76092914643E+00 -0.46821015707E+02 -0.16031702038E+03  0.20861287964E+03  0.12500000000E+03 0.  0.
         25    1    1    2    0    0  0.49095285634E+02  0.53035942927E+02 -0.14709186264E+03  0.20611689491E+03  0.12500000000E+03 0.  0.
</event>
<event>
 5    0  0.5481966E-005  0.3291947E+03  0.7546771E-02  0.1071494E+00
         21   -1    0    0  502  501  0.00000000000E+00  0.00000000000E+00  0.28592403492E+03  0.28592403492E+03  0.00000000000E+00 0. -1.
         21   -1    0    0  501  502 -0.00000000000E+00 -0.00000000000E+00 -0.37901388098E+03  0.37901388098E+03  0.00000000000E+00 0. -1.
         25    1    1    2    0    0  0.57791824884E+02 -0.63003919892E+02  0.61915149239E+02  0.16360890761E+03  0.12500000000E+03 0.  0.
         25    1    1    2    0    0 -0.20782638390E+03 -0.52261413586E+02 -0.58548219525E+02  0.25490381560E+03  0.12500000000E+03 0.  0.
         25    1    1    2    0    0  0.15003455902E+03  0.11526533348E+03 -0.96456775765E+02  0.24642519269E+03  0.12500000000E+03 0.  0.
</event>
<event>
 5    0  0.5481966E-005  0.2486945E+03  0.7546771E-02  0.1114133E+00
         21   -1    0    0  502  501  0.00000000000E+00  0.00000000000E+00  0.11224551833E+03  0.11224551833E+03  0.00000000000E+00 0. -1.
         21   -1    0    0  501  502 -0.00000000000E+00 -0.00000000000E+00 -0.55101488734E+03  0.55101488734E+03  0.00000000000E+00 0. -1.
         25    1    1    2    0    0  0.34814123011E+02  0.74891546252E+02 -0.85335864613E+02  0.17241802879E+03  0.12500000000E+03 0.  0.
         25    1    1    2    0    0  0.63663613539E+01  0.55536936234E+02 -0.74247705604E+02  0.15576457759E+03  0.12500000000E+03 0.  0.
         25    1    1    2    0    0 -0.41180484365E+02 -0.13042848249E+03 -0.27918579879E+03  0.33507779930E+03  0.12500000000E+03 0.  0.
</event>
<event>
 5    0  0.5481966E-005  0.3471460E+03  0.7546771E-02  0.1063793E+00
         21   -1    0    0  502  501  0.00000000000E+00  0.00000000000E+00  0.10076799648E+04  0.10076799648E+04  0.00000000000E+00 0. -1.
         21   -1    0    0  501  502 -0.00000000000E+00 -0.00000000000E+00 -0.11959187892E+03  0.11959187892E+03  0.00000000000E+00 0. -1.
         25    1    1    2    0    0 -0.73750799816E+02 -0.56276059773E+02  0.16177153692E+03  0.22450212813E+03  0.12500000000E+03 0.  0.
         25    1    1    2    0    0  0.12104833979E+03  0.22205400489E+03  0.57828823338E+03  0.64343061982E+03  0.12500000000E+03 0.  0.
         25    1    1    2    0    0 -0.47297539972E+02 -0.16577794512E+03  0.14802831553E+03  0.25933909573E+03  0.12500000000E+03 0.  0.
</event>
<event>
 5    0  0.5481966E-005  0.3142559E+03  0.7546771E-02  0.1078324E+00
         21   -1    0    0  502  501  0.00000000000E+00  0.00000000000E+00  0.82631640402E+03  0.82631640402E+03  0.00000000000E+00 0. -1.
         21   -1    0    0  501  502 -0.00000000000E+00 -0.00000000000E+00 -0.11951445784E+03  0.11951445784E+03  0.00000000000E+00 0. -1.
         25    1    1    2    0    0  0.97875701737E+01 -0.23948041992E+02  0.55380022601E+02  0.13914471657E+03  0.12500000000E+03 0.  0.
         25    1    1    2    0    0  0.10048192623E+03 -0.28542742670E+02  0.35861953296E+02  0.16680043571E+03  0.12500000000E+03 0.  0.
         25    1    1    2    0    0 -0.11026949641E+03  0.52490784663E+02  0.61555997029E+03  0.63988570958E+03  0.12500000000E+03 0.  0.
</event>
<event>
 5    0  0.5481966E-005  0.3303971E+03  0.7546771E-02  0.1070961E+00
         21   -1    0    0  502  501  0.00000000000E+00  0.00000000000E+00  0.13216583275E+04  0.13216583275E+04  0.00000000000E+00 0. -1.
         21   -1    0    0  501  502 -0.00000000000E+00 -0.00000000000E+00 -0.82594887225E+02  0.82594887225E+02  0.00000000000E+00 0. -1.
         25    1    1    2    0    0  0.16106104736E+03 -0.12140916859E+03  0.34635758261E+03  0.41984452149E+03  0.12500000000E+03 0.  0.
         25    1    1    2    0    0 -0.11589018473E+03  0.19280723255E+03  0.64400333534E+03  0.69352033840E+03  0.12500000000E+03 0.  0.
         25    1    1    2    0    0 -0.45170862632E+02 -0.71398063963E+02  0.24870252232E+03  0.29088835483E+03  0.12500000000E+03 0.  0.
</event>
<event>
 5    0  0.5481966E-005  0.2741344E+03  0.7546771E-02  0.1098936E+00
         21   -1    0    0  502  501  0.00000000000E+00  0.00000000000E+00  0.72807985592E+03  0.72807985592E+03  0.00000000000E+00 0. -1.
         21   -1    0    0  501  502 -0.00000000000E+00 -0.00000000000E+00 -0.10321625385E+03  0.10321625385E+03  0.00000000000E+00 0. -1.
         25    1    1    2    0    0  0.14408859691E+03  0.47488975572E+02  0.40076125667E+03  0.44637575136E+03  0.12500000000E+03 0.  0.
         25    1    1    2    0    0 -0.39347441563E+02 -0.58336295029E+02  0.67386153015E+02  0.15848418878E+03  0.12500000000E+03 0.  0.
         25    1    1    2    0    0 -0.10474115534E+03  0.10847319457E+02  0.15671619238E+03  0.22643616963E+03  0.12500000000E+03 0.  0.
</event>
<event>
 5    0  0.5481966E-005  0.3812354E+03  0.7546771E-02  0.1050478E+00
         21   -1    0    0  502  501  0.00000000000E+00  0.00000000000E+00  0.19699382370E+04  0.19699382370E+04  0.00000000000E+00 0. -1.
         21   -1    0    0  501  502 -0.00000000000E+00 -0.00000000000E+00 -0.73779186064E+02  0.73779186064E+02  0.00000000000E+00 0. -1.
         25    1    1    2    0    0  0.19520240077E+03 -0.70146287824E+02  0.81667362069E+03  0.85182467779E+03  0.12500000000E+03 0.  0.
         25    1    1    2    0    0  0.43822952796E+02 -0.10942623237E+03  0.48947004810E+03  0.51874895615E+03  0.12500000000E+03 0.  0.
         25    1    1    2    0    0 -0.23902535356E+03  0.17957252020E+03  0.59001538210E+03  0.67314378907E+03  0.12500000000E+03 0.  0.
</event>
<event>
 5    0  0.5481966E-005  0.2820273E+03  0.7546771E-02  0.1094587E+00
         21   -1    0    0  502  501  0.00000000000E+00  0.00000000000E+00  0.51231663050E+03  0.51231663050E+03  0.00000000000E+00 0.  1.
         21   -1    0    0  501  502 -0.00000000000E+00 -0.00000000000E+00 -0.15525434116E+03  0.15525434116E+03  0.00000000000E+00 0.  1.
         25    1    1    2    0    0 -0.78746765224E+02  0.58096413875E+02  0.16539059194E+03  0.22924941492E+03  0.12500000000E+03 0.  0.
         25    1    1    2    0    0  0.75197258393E+02 -0.69107689860E+01  0.25128116567E+03  0.29063656105E+03  0.12500000000E+03 0.  0.
         25    1    1    2    0    0  0.35495068309E+01 -0.51185644889E+02 -0.59609468275E+02  0.14768499568E+03  0.12500000000E+03 0.  0.
</event>
<event>
 5    0  0.5481966E-005  0.3322496E+03  0.7546771E-02  0.1070146E+00
         21   -1    0    0  502  501  0.00000000000E+00  0.00000000000E+00  0.17807694903E+03  0.17807694903E+03  0.00000000000E+00 0.  1.
         21   -1    0    0  501  502 -0.00000000000E+00 -0.00000000000E+00 -0.61989957961E+03  0.61989957961E+03  0.00000000000E+00 0.  1.
         25    1    1    2    0    0 -0.70841396812E+02  0.86059114204E+02 -0.15121446990E+03  0.22564461116E+03  0.12500000000E+03 0.  0.
         25    1    1    2    0    0  0.13625930983E+02  0.15689914991E+03 -0.58827075646E+02  0.20949614332E+03  0.12500000000E+03 0.  0.
         25    1    1    2    0    0  0.57215465829E+02 -0.24295826411E+03 -0.23178108503E+03  0.36283577416E+03  0.12500000000E+03 0.  0.
</event>
<event>
 5    0  0.5481966E-005  0.3687562E+03  0.7546771E-02  0.1055170E+00
         21   -1    0    0  502  501  0.00000000000E+00  0.00000000000E+00  0.21048330760E+04  0.21048330760E+04  0.00000000000E+00 0. -1.
         21   -1    0    0  501  502 -0.00000000000E+00 -0.00000000000E+00 -0.64604249562E+02  0.64604249562E+02  0.00000000000E+00 0. -1.
         25    1    1    2    0    0  0.14456521335E+03  0.92669572343E+02  0.13312503195E+04  0.13480872241E+04  0.12500000000E+03 0.  0.
         25    1    1    2    0    0 -0.36635761274E+02  0.29227774339E+02  0.53766665882E+03  0.55399176691E+03  0.12500000000E+03 0.  0.
         25    1    1    2    0    0 -0.10792945208E+03 -0.12189734668E+03  0.17131184808E+03  0.26735833454E+03  0.12500000000E+03 0.  0.
</event>
<event>
 5    0  0.5481966E-005  0.2670638E+03  0.7546771E-02  0.1102972E+00
         21   -1    0    0  502  501  0.00000000000E+00  0.00000000000E+00  0.13278863001E+03  0.13278863001E+03  0.00000000000E+00 0. -1.
         21   -1    0    0  501  502 -0.00000000000E+00 -0.00000000000E+00 -0.53711723419E+03  0.53711723419E+03  0.00000000000E+00 0. -1.
         25    1    1    2    0    0  0.57471824250E+02 -0.53997032265E+02 -0.13122269517E+03  0.19764383573E+03  0.12500000000E+03 0.  0.
         25    1    1    2    0    0 -0.73933849825E+02 -0.10474749439E+03 -0.15994825905E+03  0.24009726634E+03  0.12500000000E+03 0.  0.
         25    1    1    2    0    0  0.16462025575E+02  0.15874452665E+03 -0.11315764997E+03  0.23216476213E+03  0.12500000000E+03 0.  0.
</event>
<event>
 5    0  0.5481966E-005  0.7819032E+03  0.7546771E-02  0.9586587E-01
         21   -1    0    0  502  501  0.00000000000E+00  0.00000000000E+00  0.10074315030E+04  0.10074315030E+04  0.00000000000E+00 0. -1.
         21   -1    0    0  501  502 -0.00000000000E+00 -0.00000000000E+00 -0.60686265024E+03  0.60686265024E+03  0.00000000000E+00 0. -1.
         25    1    1    2    0    0  0.57494570928E+03  0.39956621258E+02  0.48608858869E+03  0.76424224972E+03  0.12500000000E+03 0.  0.
         25    1    1    2    0    0 -0.66279397898E+03 -0.53994869396E+02 -0.47239530258E+01  0.67665251069E+03  0.12500000000E+03 0.  0.
         25    1    1    2    0    0  0.87848269698E+02  0.14038248138E+02 -0.80795782904E+02  0.17339939283E+03  0.12500000000E+03 0.  0.
</event>
<event>
 5    0  0.5481966E-005  0.4143476E+03  0.7546771E-02  0.1038922E+00
         21   -1    0    0  502  501  0.00000000000E+00  0.00000000000E+00  0.10709383296E+04  0.10709383296E+04  0.00000000000E+00 0. -1.
         21   -1    0    0  501  502 -0.00000000000E+00 -0.00000000000E+00 -0.16031166734E+03  0.16031166734E+03  0.00000000000E+00 0. -1.
         25    1    1    2    0    0  0.66552550586E+02 -0.88119397204E+02 -0.67536628172E+02  0.17994573154E+03  0.12500000000E+03 0.  0.
         25    1    1    2    0    0 -0.78763880015E+02  0.10232484997E+03  0.85897733438E+03  0.87757688250E+03  0.12500000000E+03 0.  0.
         25    1    1    2    0    0  0.12211329429E+02 -0.14205452764E+02  0.11918595608E+03  0.17372738293E+03  0.12500000000E+03 0.  0.
</event>
<event>
 5    0  0.5481966E-005  0.4197355E+03  0.7546771E-02  0.1037152E+00
         21   -1    0    0  502  501  0.00000000000E+00  0.00000000000E+00  0.25570956833E+03  0.25570956833E+03  0.00000000000E+00 0. -1.
         21   -1    0    0  501  502 -0.00000000000E+00 -0.00000000000E+00 -0.68897642466E+03  0.68897642466E+03  0.00000000000E+00 0. -1.
         25    1    1    2    0    0 -0.10873431636E+03  0.27425628948E+02 -0.77630581311E+02  0.18500492921E+03  0.12500000000E+03 0.  0.
         25    1    1    2    0    0  0.17141353483E+03  0.18589402397E+03  0.44101810051E+02  0.28549808707E+03  0.12500000000E+03 0.  0.
         25    1    1    2    0    0 -0.62679218473E+02 -0.21331965292E+03 -0.39973808507E+03  0.47418297671E+03  0.12500000000E+03 0.  0.
</event>
<event>
 5    0  0.5481966E-005  0.2712769E+03  0.7546771E-02  0.1100551E+00
         21   -1    0    0  502  501  0.00000000000E+00  0.00000000000E+00  0.14151260465E+03  0.14151260465E+03  0.00000000000E+00 0. -1.
         21   -1    0    0  501  502 -0.00000000000E+00 -0.00000000000E+00 -0.52003253854E+03  0.52003253854E+03  0.00000000000E+00 0. -1.
         25    1    1    2    0    0  0.71275644853E+02 -0.12664515109E+03 -0.19803094815E+03  0.27560926739E+03  0.12500000000E+03 0.  0.
         25    1    1    2    0    0 -0.90721094031E+02  0.13382110255E+03 -0.15548407524E+03  0.25678532287E+03  0.12500000000E+03 0.  0.
         25    1    1    2    0    0  0.19445449178E+02 -0.71759514598E+01 -0.25004910500E+02  0.12915055293E+03  0.12500000000E+03 0.  0.
</event>
<event>
 5    0  0.5481966E-005  0.4402037E+03  0.7546771E-02  0.1030684E+00
         21   -1    0    0  502  501  0.00000000000E+00  0.00000000000E+00  0.94469360609E+03  0.94469360609E+03  0.00000000000E+00 0. -1.
         21   -1    0    0  501  502 -0.00000000000E+00 -0.00000000000E+00 -0.20512392239E+03  0.20512392239E+03  0.00000000000E+00 0. -1.
         25    1    1    2    0    0 -0.39791417537E+02  0.81258541913E+02 -0.15022430936E+03  0.21535703068E+03  0.12500000000E+03 0.  0.
         25    1    1    2    0    0  0.64367657256E+02 -0.48828536613E+02  0.55976441015E+03  0.57921379141E+03  0.12500000000E+03 0.  0.
         25    1    1    2    0    0 -0.24576239720E+02 -0.32430005301E+02  0.33002958291E+03  0.35524670639E+03  0.12500000000E+03 0.  0.
</event>
<event>
 5    0  0.5481966E-005  0.3128638E+03  0.7546771E-02  0.1078981E+00
         21   -1    0    0  502  501  0.00000000000E+00  0.00000000000E+00  0.67370247833E+03  0.67370247833E+03  0.00000000000E+00 0.  1.
         21   -1    0    0  501  502 -0.00000000000E+00 -0.00000000000E+00 -0.14529226068E+03  0.14529226068E+03  0.00000000000E+00 0.  1.
         25    1    1    2    0    0  0.13501697862E+03 -0.79114401825E+02 -0.57625191181E+00  0.20028481011E+03  0.12500000000E+03 0.  0.
         25    1    1    2    0    0 -0.41995732124E+02  0.78129203965E+02  0.34561474437E+03  0.37807719523E+03  0.12500000000E+03 0.  0.
         25    1    1    2    0    0 -0.93021246500E+02  0.98519786086E+00  0.18337172519E+03  0.24063273368E+03  0.12500000000E+03 0.  0.
</event>
<event>
 5    0  0.5481966E-005  0.2451438E+03  0.7546771E-02  0.1116413E+00
         21   -1    0    0  502  501  0.00000000000E+00  0.00000000000E+00  0.11662521443E+04  0.11662521443E+04  0.00000000000E+00 0. -1.
         21   -1    0    0  501  502 -0.00000000000E+00 -0.00000000000E+00 -0.51528736150E+02  0.51528736150E+02  0.00000000000E+00 0. -1.
         25    1    1    2    0    0  0.26224084296E+02  0.16185947749E+01  0.15116256772E+03  0.19790261323E+03  0.12500000000E+03 0.  0.
         25    1    1    2    0    0  0.92545789534E+02  0.28860419735E+02  0.49548426166E+03  0.52012238996E+03  0.12500000000E+03 0.  0.
         25    1    1    2    0    0 -0.11876987383E+03 -0.30479014510E+02  0.46807657880E+03  0.49975587728E+03  0.12500000000E+03 0.  0.
</event>
<event>
 5    0  0.5481966E-005  0.3528797E+03  0.7546771E-02  0.1061439E+00
         21   -1    0    0  502  501  0.00000000000E+00  0.00000000000E+00  0.73024795335E+03  0.73024795335E+03  0.00000000000E+00 0.  1.
         21   -1    0    0  501  502 -0.00000000000E+00 -0.00000000000E+00 -0.17052298939E+03  0.17052298939E+03  0.00000000000E+00 0.  1.
         25    1    1    2    0    0  0.11953403487E+03  0.71393416987E+02 -0.72897321516E+02  0.20080942449E+03  0.12500000000E+03 0.  0.
         25    1    1    2    0    0 -0.53731621780E+02 -0.12163273216E+02  0.21081980287E+03  0.25120712903E+03  0.12500000000E+03 0.  0.
         25    1    1    2    0    0 -0.65802413092E+02 -0.59230143771E+02  0.42180248261E+03  0.44875438921E+03  0.12500000000E+03 0.  0.
</event>
<event>
 5    0  0.5481966E-005  0.2843810E+03  0.7546771E-02  0.1093320E+00
         21   -1    0    0  502  501  0.00000000000E+00  0.00000000000E+00  0.41439961432E+03  0.41439961432E+03  0.00000000000E+00 0.  1.
         21   -1    0    0  501  502 -0.00000000000E+00 -0.00000000000E+00 -0.19515601252E+03  0.19515601252E+03  0.00000000000E+00 0.  1.
         25    1    1    2    0    0  0.19739865570E+02 -0.11897023539E+02  0.30172318312E+01  0.12714285332E+03  0.12500000000E+03 0.  0.
         25    1    1    2    0    0 -0.62215059264E+02  0.12471292315E+03 -0.21032709355E+02  0.18839161781E+03  0.12500000000E+03 0.  0.
         25    1    1    2    0    0  0.42475193694E+02 -0.11281589961E+03  0.23725907933E+03  0.29402115571E+03  0.12500000000E+03 0.  0.
</event>
<event>
 5    0  0.5481966E-005  0.3693971E+03  0.7546771E-02  0.1054924E+00
         21   -1    0    0  502  501  0.00000000000E+00  0.00000000000E+00  0.34137765828E+03  0.34137765828E+03  0.00000000000E+00 0.  1.
         21   -1    0    0  501  502 -0.00000000000E+00 -0.00000000000E+00 -0.39971621525E+03  0.39971621525E+03  0.00000000000E+00 0.  1.
         25    1    1    2    0    0  0.29231006325E+02  0.20048528654E+03  0.25559122295E+02  0.23943072189E+03  0.12500000000E+03 0.  0.
         25    1    1    2    0    0 -0.42039876482E+02  0.90011825669E+02  0.35173402295E+02  0.16349815963E+03  0.12500000000E+03 0.  0.
         25    1    1    2    0    0  0.12808870157E+02 -0.29049711221E+03 -0.11907108156E+03  0.33816499201E+03  0.12500000000E+03 0.  0.
</event>
<event>
 5    0  0.5667656E-005  0.3298802E+03  0.7546771E-02  0.1071190E+00
         21   -1    0    0  502  501  0.00000000000E+00  0.00000000000E+00  0.20046545041E+03  0.20046545041E+03  0.00000000000E+00 0. -1.
         21   -1    0    0  501  502 -0.00000000000E+00 -0.00000000000E+00 -0.54284128292E+03  0.54284128292E+03  0.00000000000E+00 0. -1.
         25    1    1    2    0    0 -0.70958761071E+02 -0.52785046565E+02  0.87439314042E+02  0.17632935250E+03  0.12500000000E+03 0.  0.
         25    1    1    2    0    0  0.11197490859E+03  0.12008950672E+03 -0.16701232577E+03  0.26547690434E+03  0.12500000000E+03 0.  0.
         25    1    1    2    0    0 -0.41016147519E+02 -0.67304460156E+02 -0.26280282077E+03  0.30150047648E+03  0.12500000000E+03 0.  0.
</event>
<event>
 5    0  0.5481966E-005  0.3715432E+03  0.7546771E-02  0.1054104E+00
         21   -1    0    0  502  501  0.00000000000E+00  0.00000000000E+00  0.13115224967E+03  0.13115224967E+03  0.00000000000E+00 0.  1.
         21   -1    0    0  501  502 -0.00000000000E+00 -0.00000000000E+00 -0.10525502198E+04  0.10525502198E+04  0.00000000000E+00 0.  1.
         25    1    1    2    0    0  0.10931834786E+03 -0.51154306233E+02 -0.12483208405E+03  0.21395166144E+03  0.12500000000E+03 0.  0.
         25    1    1    2    0    0  0.16822345868E+03  0.49539948388E+02 -0.17441483357E+03  0.27712609531E+03  0.12500000000E+03 0.  0.
         25    1    1    2    0    0 -0.27754180654E+03  0.16143578446E+01 -0.62215105250E+03  0.69262471271E+03  0.12500000000E+03 0.  0.
</event>
<event>
 5    0  0.5481966E-005  0.3274411E+03  0.7546771E-02  0.1072275E+00
         21   -1    0    0  502  501  0.00000000000E+00  0.00000000000E+00  0.13109217501E+03  0.13109217501E+03  0.00000000000E+00 0.  1.
         21   -1    0    0  501  502 -0.00000000000E+00 -0.00000000000E+00 -0.81788022571E+03  0.81788022571E+03  0.00000000000E+00 0.  1.
         25    1    1    2    0    0  0.19117234158E+03  0.74835800915E+01 -0.21162775525E+03  0.31147098572E+03  0.12500000000E+03 0.  0.
         25    1    1    2    0    0 -0.36693742650E+02 -0.63367208611E+02 -0.31621515362E+02  0.14827931113E+03  0.12500000000E+03 0.  0.
         25    1    1    2    0    0 -0.15447859893E+03  0.55883628519E+02 -0.44353878009E+03  0.48922210386E+03  0.12500000000E+03 0.  0.
</event>
<event>
 5    0  0.5481966E-005  0.2489156E+03  0.7546771E-02  0.1113992E+00
         21   -1    0    0  502  501  0.00000000000E+00  0.00000000000E+00  0.13640923305E+03  0.13640923305E+03  0.00000000000E+00 0.  1.
         21   -1    0    0  501  502 -0.00000000000E+00 -0.00000000000E+00 -0.45421403967E+03  0.45421403967E+03  0.00000000000E+00 0.  1.
         25    1    1    2    0    0 -0.36221221466E+02  0.50276414959E+02 -0.18780550966E+03  0.23395641526E+03  0.12500000000E+03 0.  0.
         25    1    1    2    0    0 -0.68446532574E+02 -0.27989496890E+01  0.44379796446E+00  0.14254107793E+03  0.12500000000E+03 0.  0.
         25    1    1    2    0    0  0.10466775404E+03 -0.47477465270E+02 -0.13044309493E+03  0.21412577953E+03  0.12500000000E+03 0.  0.
</event>
<event>
 5    0  0.5635653E-005  0.4569287E+03  0.7546771E-02  0.1025676E+00
         21   -1    0    0  502  501  0.00000000000E+00  0.00000000000E+00  0.71140806251E+03  0.71140806251E+03  0.00000000000E+00 0. -1.
         21   -1    0    0  501  502 -0.00000000000E+00 -0.00000000000E+00 -0.29347967025E+03  0.29347967025E+03  0.00000000000E+00 0. -1.
         25    1    1    2    0    0  0.27267783757E+02 -0.22595745187E+03  0.27772160464E+03  0.38020335581E+03  0.12500000000E+03 0.  0.
         25    1    1    2    0    0 -0.94655590534E+02  0.25309215251E+02 -0.16751152531E+03  0.23083619367E+03  0.12500000000E+03 0.  0.
         25    1    1    2    0    0  0.67387806777E+02  0.20064823662E+03  0.30771831293E+03  0.39384818328E+03  0.12500000000E+03 0.  0.
</event>
<event>
 5    0  0.5481966E-005  0.5567593E+03  0.7546771E-02  0.9999414E-01
         21   -1    0    0  502  501  0.00000000000E+00  0.00000000000E+00  0.11601971479E+03  0.11601971479E+03  0.00000000000E+00 0. -1.
         21   -1    0    0  501  502 -0.00000000000E+00 -0.00000000000E+00 -0.26717956186E+04  0.26717956186E+04  0.00000000000E+00 0. -1.
         25    1    1    2    0    0 -0.25262905592E+01 -0.23100275985E+03 -0.14371254356E+04  0.14609322965E+04  0.12500000000E+03 0.  0.
         25    1    1    2    0    0 -0.20692625564E+03  0.31664370794E+03 -0.91441050306E+03  0.99742332094E+03  0.12500000000E+03 0.  0.
         25    1    1    2    0    0  0.20945254620E+03 -0.85640948092E+02 -0.20423996518E+03  0.32945971601E+03  0.12500000000E+03 0.  0.
</event>
<event>
 5    0  0.5481966E-005  0.3860067E+03  0.7546771E-02  0.1048736E+00
         21   -1    0    0  502  501  0.00000000000E+00  0.00000000000E+00  0.36648320514E+03  0.36648320514E+03  0.00000000000E+00 0. -1.
         21   -1    0    0  501  502 -0.00000000000E+00 -0.00000000000E+00 -0.40657020277E+03  0.40657020277E+03  0.00000000000E+00 0. -1.
         25    1    1    2    0    0 -0.12181695042E+02  0.73414149369E+02 -0.16127308120E+03  0.21719124693E+03  0.12500000000E+03 0.  0.
         25    1    1    2    0    0  0.69884083389E+02  0.19332657861E+03  0.31945934948E+02  0.24270248014E+03  0.12500000000E+03 0.  0.
         25    1    1    2    0    0 -0.57702388347E+02 -0.26674072798E+03  0.89240148624E+02  0.31315968085E+03  0.12500000000E+03 0.  0.
</event>
<event>
 5    0  0.5481966E-005  0.5647050E+03  0.7546771E-02  0.9981465E-01
         21   -1    0    0  502  501  0.00000000000E+00  0.00000000000E+00  0.22437060296E+04  0.22437060296E+04  0.00000000000E+00 0. -1.
         21   -1    0    0  501  502 -0.00000000000E+00 -0.00000000000E+00 -0.14212725276E+03  0.14212725276E+03  0.00000000000E+00 0. -1.
         25    1    1    2    0    0  0.47343350953E+02 -0.20062425058E+02  0.64881639409E+02  0.14992838594E+03  0.12500000000E+03 0.  0.
         25    1    1    2    0    0 -0.23655984246E+03  0.39840684209E+03  0.11259664308E+04  0.12239746624E+04  0.12500000000E+03 0.  0.
         25    1    1    2    0    0  0.18921649150E+03 -0.37834441703E+03  0.91073070665E+03  0.10119302341E+04  0.12500000000E+03 0.  0.
</event>
<event>
 5    0  0.5481966E-005  0.4309832E+03  0.7546771E-02  0.1033550E+00
         21   -1    0    0  502  501  0.00000000000E+00  0.00000000000E+00  0.30503494135E+03  0.30503494135E+03  0.00000000000E+00 0.  1.
         21   -1    0    0  501  502 -0.00000000000E+00 -0.00000000000E+00 -0.60893514310E+03  0.60893514310E+03  0.00000000000E+00 0.  1.
         25    1    1    2    0    0  0.42393017339E+02 -0.15215977161E+03 -0.25648464184E+03  0.32612748353E+03  0.12500000000E+03 0.  0.
         25    1    1    2    0    0  0.13683394361E+02  0.42079684514E+02 -0.27203931070E+03  0.30263562529E+03  0.12500000000E+03 0.  0.
         25    1    1    2    0    0 -0.56076411700E+02  0.11008008710E+03  0.22462375079E+03  0.28520697562E+03  0.12500000000E+03 0.  0.
</event>
<event>
 5    0  0.5481966E-005  0.3145979E+03  0.7546771E-02  0.1078163E+00
         21   -1    0    0  502  501  0.00000000000E+00  0.00000000000E+00  0.43059503447E+03  0.43059503447E+03  0.00000000000E+00 0. -1.
         21   -1    0    0  501  502 -0.00000000000E+00 -0.00000000000E+00 -0.22984900858E+03  0.22984900858E+03  0.00000000000E+00 0. -1.
         25    1    1    2    0    0  0.45891170219E+02 -0.59082816510E+01  0.25005302941E+02  0.13561405706E+03  0.12500000000E+03 0.  0.
         25    1    1    2    0    0 -0.17641910190E+03 -0.12863923077E+03  0.23025799776E+02  0.25263993878E+03  0.12500000000E+03 0.  0.
         25    1    1    2    0    0  0.13052793168E+03  0.13454751242E+03  0.15271492317E+03  0.27219004723E+03  0.12500000000E+03 0.  0.
</event>
<event>
 5    0  0.5481966E-005  0.3056716E+03  0.7546771E-02  0.1082439E+00
         21   -1    0    0  502  501  0.00000000000E+00  0.00000000000E+00  0.38947843578E+03  0.38947843578E+03  0.00000000000E+00 0.  1.
         21   -1    0    0  501  502 -0.00000000000E+00 -0.00000000000E+00 -0.23989808208E+03  0.23989808208E+03  0.00000000000E+00 0.  1.
         25    1    1    2    0    0  0.68488850647E+02  0.77317049439E+02  0.68579409582E+02  0.17605903617E+03  0.12500000000E+03 0.  0.
         25    1    1    2    0    0  0.17589207184E+01  0.92509724684E+02  0.15449941609E+03  0.21921727244E+03  0.12500000000E+03 0.  0.
         25    1    1    2    0    0 -0.70247771365E+02 -0.16982677412E+03 -0.73498471968E+02  0.23410020925E+03  0.12500000000E+03 0.  0.
</event>
<event>
 5    0  0.5481966E-005  0.5199879E+03  0.7546771E-02  0.1008690E+00
         21   -1    0    0  502  501  0.00000000000E+00  0.00000000000E+00  0.37991564385E+03  0.37991564385E+03  0.00000000000E+00 0.  1.
         21   -1    0    0  501  502 -0.00000000000E+00 -0.00000000000E+00 -0.71170386426E+03  0.71170386426E+03  0.00000000000E+00 0.  1.
         25    1    1    2    0    0 -0.16325838611E+03  0.41633000789E+03 -0.63972180841E+02  0.46872317633E+03  0.12500000000E+03 0.  0.
         25    1    1    2    0    0  0.48429331456E+02 -0.19725861648E+03 -0.14410445065E+01  0.23850249167E+03  0.12500000000E+03 0.  0.
         25    1    1    2    0    0  0.11482905465E+03 -0.21907139141E+03 -0.26637499506E+03  0.38439384011E+03  0.12500000000E+03 0.  0.
</event>
<event>
 5    0  0.5481966E-005  0.3888333E+03  0.7546771E-02  0.1047716E+00
         21   -1    0    0  502  501  0.00000000000E+00  0.00000000000E+00  0.18408613245E+04  0.18408613245E+04  0.00000000000E+00 0. -1.
         21   -1    0    0  501  502 -0.00000000000E+00 -0.00000000000E+00 -0.82130745855E+02  0.82130745855E+02  0.00000000000E+00 0.  1.
         25    1    1    2    0    0 -0.44898533585E+02  0.64255857908E+02  0.30429635568E+03  0.33818037446E+03  0.12500000000E+03 0.  0.
         25    1    1    2    0    0 -0.21135394903E+03  0.13854616937E+02  0.10805019066E+04  0.11081388958E+04  0.12500000000E+03 0.  0.
         25    1    1    2    0    0  0.25625248261E+03 -0.78110474845E+02  0.37393231629E+03  0.47667280003E+03  0.12500000000E+03 0.  0.
</event>
<event>
 5    0  0.5481966E-005  0.3010061E+03  0.7546771E-02  0.1084739E+00
         21   -1    0    0  502  501  0.00000000000E+00  0.00000000000E+00  0.34283086679E+03  0.34283086679E+03  0.00000000000E+00 0. -1.
         21   -1    0    0  501  502 -0.00000000000E+00 -0.00000000000E+00 -0.26428380667E+03  0.26428380667E+03  0.00000000000E+00 0. -1.
         25    1    1    2    0    0 -0.19200861244E+01  0.15220552623E+03  0.10401204584E+03  0.22274136263E+03  0.12500000000E+03 0.  0.
         25    1    1    2    0    0  0.12182897001E+03 -0.48522278187E+02 -0.21709990019E+02  0.18246378567E+03  0.12500000000E+03 0.  0.
         25    1    1    2    0    0 -0.11990888388E+03 -0.10368324804E+03 -0.37549956916E+01  0.20190952516E+03  0.12500000000E+03 0.  0.
</event>
<event>
 5    0  0.5481966E-005  0.3545725E+03  0.7546771E-02  0.1060754E+00
         21   -1    0    0  502  501  0.00000000000E+00  0.00000000000E+00  0.36182208873E+03  0.36182208873E+03  0.00000000000E+00 0. -1.
         21   -1    0    0  501  502 -0.00000000000E+00 -0.00000000000E+00 -0.34746807700E+03  0.34746807700E+03  0.00000000000E+00 0. -1.
         25    1    1    2    0    0 -0.18652557203E+03 -0.24159880246E+02  0.18233815557E+03  0.29025452936E+03  0.12500000000E+03 0.  0.
         25    1    1    2    0    0  0.50322814129E+02  0.15116788560E+02 -0.18916022588E+03  0.23273911140E+03  0.12500000000E+03 0.  0.
         25    1    1    2    0    0  0.13620275790E+03  0.90430916863E+01  0.21176082043E+02  0.18629652498E+03  0.12500000000E+03 0.  0.
</event>
<event>
 5    0  0.5481966E-005  0.4103804E+03  0.7546771E-02  0.1040243E+00
         21   -1    0    0  502  501  0.00000000000E+00  0.00000000000E+00  0.10227597153E+04  0.10227597153E+04  0.00000000000E+00 0. -1.
         21   -1    0    0  501  502 -0.00000000000E+00 -0.00000000000E+00 -0.16466438802E+03  0.16466438802E+03  0.00000000000E+00 0. -1.
         25    1    1    2    0    0  0.14582519648E+03 -0.52635340831E+02  0.20424037161E+03  0.28526232914E+03  0.12500000000E+03 0.  0.
         25    1    1    2    0    0 -0.54735256340E+02  0.15073167017E+03  0.68662729019E+03  0.71609916932E+03  0.12500000000E+03 0.  0.
         25    1    1    2    0    0 -0.91089940142E+02 -0.98096329336E+02 -0.32772334490E+02  0.18606260487E+03  0.12500000000E+03 0.  0.
</event>
<event>
 5    0  0.5481966E-005  0.2034819E+03  0.7546771E-02  0.1146834E+00
         21   -1    0    0  502  501  0.00000000000E+00  0.00000000000E+00  0.29772666884E+03  0.29772666884E+03  0.00000000000E+00 0.  1.
         21   -1    0    0  501  502 -0.00000000000E+00 -0.00000000000E+00 -0.13907008785E+03  0.13907008785E+03  0.00000000000E+00 0.  1.
         25    1    1    2    0    0 -0.22325151398E+02 -0.63300207239E+02  0.57465522082E+02  0.15307715326E+03  0.12500000000E+03 0.  0.
         25    1    1    2    0    0  0.14784191586E+02  0.56978414806E+02  0.37932995325E+02  0.14327953172E+03  0.12500000000E+03 0.  0.
         25    1    1    2    0    0  0.75409598120E+01  0.63217924337E+01  0.63258063582E+02  0.14044007171E+03  0.12500000000E+03 0.  0.
</event>
<event>
 5    0  0.5481966E-005  0.2841850E+03  0.7546771E-02  0.1093425E+00
         21   -1    0    0  502  501  0.00000000000E+00  0.00000000000E+00  0.17324738933E+03  0.17324738933E+03  0.00000000000E+00 0. -1.
         21   -1    0    0  501  502 -0.00000000000E+00 -0.00000000000E+00 -0.46616054127E+03  0.46616054127E+03  0.00000000000E+00 0. -1.
         25    1    1    2    0    0 -0.18010626374E+02 -0.13029281851E+02  0.64372113550E+02  0.14234786212E+03  0.12500000000E+03 0.  0.
         25    1    1    2    0    0  0.87206760511E+02 -0.81008310916E+02 -0.15330238214E+03  0.23085490224E+03  0.12500000000E+03 0.  0.
         25    1    1    2    0    0 -0.69196134138E+02  0.94037592767E+02 -0.20398288335E+03  0.26620516624E+03  0.12500000000E+03 0.  0.
</event>
<event>
 5    0  0.5481966E-005  0.3256941E+03  0.7546771E-02  0.1073058E+00
         21   -1    0    0  502  501  0.00000000000E+00  0.00000000000E+00  0.15483635966E+03  0.15483635966E+03  0.00000000000E+00 0.  1.
         21   -1    0    0  501  502 -0.00000000000E+00 -0.00000000000E+00 -0.68508861752E+03  0.68508861752E+03  0.00000000000E+00 0.  1.
         25    1    1    2    0    0 -0.75646328213E+02  0.11196044751E+03 -0.22034800340E+02  0.18538619475E+03  0.12500000000E+03 0.  0.
         25    1    1    2    0    0  0.46940096102E+02 -0.96423316346E+02 -0.49847641802E+03  0.52498054048E+03  0.12500000000E+03 0.  0.
         25    1    1    2    0    0  0.28706232111E+02 -0.15537131167E+02 -0.97410394940E+01  0.12955824195E+03  0.12500000000E+03 0.  0.
</event>
<event>
 5    0  0.5481966E-005  0.6036140E+03  0.7546771E-02  0.9897936E-01
         21   -1    0    0  502  501  0.00000000000E+00  0.00000000000E+00  0.10844511757E+04  0.10844511757E+04  0.00000000000E+00 0.  1.
         21   -1    0    0  501  502 -0.00000000000E+00 -0.00000000000E+00 -0.33597622634E+03  0.33597622634E+03  0.00000000000E+00 0.  1.
         25    1    1    2    0    0 -0.19820873954E+02 -0.48601423160E+02 -0.70023751926E+02  0.15258863395E+03  0.12500000000E+03 0.  0.
         25    1    1    2    0    0  0.43107643645E+03  0.16418825029E+03  0.23114182037E+03  0.53088248862E+03  0.12500000000E+03 0.  0.
         25    1    1    2    0    0 -0.41125556250E+03 -0.11558682713E+03  0.58735688088E+03  0.73695627944E+03  0.12500000000E+03 0.  0.
</event>
<event>
 5    0  0.5481966E-005  0.3527441E+03  0.7546771E-02  0.1061494E+00
         21   -1    0    0  502  501  0.00000000000E+00  0.00000000000E+00  0.45361772793E+02  0.45361772793E+02  0.00000000000E+00 0.  1.
         21   -1    0    0  501  502 -0.00000000000E+00 -0.00000000000E+00 -0.27430233021E+04  0.27430233021E+04  0.00000000000E+00 0.  1.
         25    1    1    2    0    0  0.49075264780E+02  0.24556369636E+02 -0.58318510166E+03  0.59895013123E+03  0.12500000000E+03 0.  0.
         25    1    1    2    0    0 -0.23619983863E+02 -0.26528572355E+03 -0.11728172925E+04  0.12091566567E+04  0.12500000000E+03 0.  0.
         25    1    1    2    0    0 -0.25455280917E+02  0.24072935392E+03 -0.94165913515E+03  0.98027828701E+03  0.12500000000E+03 0.  0.
</event>
<event>
 5    0  0.5481966E-005  0.2393464E+03  0.7546771E-02  0.1120229E+00
         21   -1    0    0  502  501  0.00000000000E+00  0.00000000000E+00  0.30436606359E+03  0.30436606359E+03  0.00000000000E+00 0. -1.
         21   -1    0    0  501  502 -0.00000000000E+00 -0.00000000000E+00 -0.18821649552E+03  0.18821649552E+03  0.00000000000E+00 0. -1.
         25    1    1    2    0    0  0.91843897858E+02  0.77643413908E+01  0.52617205285E+02  0.16397913545E+03  0.12500000000E+03 0.  0.
         25    1    1    2    0    0 -0.88299825995E+02 -0.31172022264E+02 -0.43738068432E+02  0.16219301117E+03  0.12500000000E+03 0.  0.
         25    1    1    2    0    0 -0.35440718629E+01  0.23407680874E+02  0.10727043122E+03  0.16641041249E+03  0.12500000000E+03 0.  0.
</event>
<event>
 5    0  0.5481966E-005  0.3063313E+03  0.7546771E-02  0.1082118E+00
         21   -1    0    0  502  501  0.00000000000E+00  0.00000000000E+00  0.51217077679E+03  0.51217077679E+03  0.00000000000E+00 0.  1.
         21   -1    0    0  501  502 -0.00000000000E+00 -0.00000000000E+00 -0.18321788194E+03  0.18321788194E+03  0.00000000000E+00 0.  1.
         25    1    1    2    0    0  0.20593850709E+03 -0.37510976104E+02  0.11777068367E+03  0.27076313627E+03  0.12500000000E+03 0.  0.
         25    1    1    2    0    0 -0.14719598024E+03 -0.56443854200E+02  0.12148751656E+03  0.23502506666E+03  0.12500000000E+03 0.  0.
         25    1    1    2    0    0 -0.58742526849E+02  0.93954830304E+02  0.89694694628E+02  0.18960045581E+03  0.12500000000E+03 0.  0.
</event>
<event>
 5    0  0.5481966E-005  0.2208557E+03  0.7546771E-02  0.1133247E+00
         21   -1    0    0  502  501  0.00000000000E+00  0.00000000000E+00  0.48144854234E+02  0.48144854234E+02  0.00000000000E+00 0. -1.
         21   -1    0    0  501  502 -0.00000000000E+00 -0.00000000000E+00 -0.10131355252E+04  0.10131355252E+04  0.00000000000E+00 0. -1.
         25    1    1    2    0    0  0.44693030424E+02 -0.13600090416E+02 -0.27911254632E+03  0.30937233706E+03  0.12500000000E+03 0.  0.
         25    1    1    2    0    0  0.12818698332E+01 -0.12004948124E+02 -0.13416353241E+03  0.18376783015E+03  0.12500000000E+03 0.  0.
         25    1    1    2    0    0 -0.45974900257E+02  0.25605038540E+02 -0.55171459224E+03  0.56814021222E+03  0.12500000000E+03 0.  0.
</event>
<event>
 5    0  0.5481966E-005  0.2428258E+03  0.7546771E-02  0.1117925E+00
         21   -1    0    0  502  501  0.00000000000E+00  0.00000000000E+00  0.11239010107E+03  0.11239010107E+03  0.00000000000E+00 0.  1.
         21   -1    0    0  501  502 -0.00000000000E+00 -0.00000000000E+00 -0.52464032330E+03  0.52464032330E+03  0.00000000000E+00 0.  1.
         25    1    1    2    0    0  0.89564214178E+02 -0.74380310339E+02 -0.23061043683E+03  0.28698493445E+03  0.12500000000E+03 0.  0.
         25    1    1    2    0    0 -0.96870479561E+02  0.42223411837E+02 -0.13645398879E+03  0.21309950111E+03  0.12500000000E+03 0.  0.
         25    1    1    2    0    0  0.73062653830E+01  0.32156898503E+02 -0.45185796609E+02  0.13694598881E+03  0.12500000000E+03 0.  0.
</event>
<event>
 5    0  0.5481966E-005  0.6347690E+03  0.7546771E-02  0.9835786E-01
         21   -1    0    0  502  501  0.00000000000E+00  0.00000000000E+00  0.69874660025E+03  0.69874660025E+03  0.00000000000E+00 0. -1.
         21   -1    0    0  501  502 -0.00000000000E+00 -0.00000000000E+00 -0.57664926659E+03  0.57664926659E+03  0.00000000000E+00 0. -1.
         25    1    1    2    0    0 -0.28310927754E+01 -0.29819494551E+03 -0.15744519367E+03  0.35964180739E+03  0.12500000000E+03 0.  0.
         25    1    1    2    0    0 -0.17999348913E+03  0.18963582962E+01 -0.20908605808E+03  0.30289145248E+03  0.12500000000E+03 0.  0.
         25    1    1    2    0    0  0.18282458190E+03  0.29629858721E+03  0.48862858541E+03  0.61286260696E+03  0.12500000000E+03 0.  0.
</event>
<event>
 5    0  0.5481966E-005  0.2333514E+03  0.7546771E-02  0.1124303E+00
         21   -1    0    0  502  501  0.00000000000E+00  0.00000000000E+00  0.33696699887E+03  0.33696699887E+03  0.00000000000E+00 0.  1.
         21   -1    0    0  501  502 -0.00000000000E+00 -0.00000000000E+00 -0.16159707005E+03  0.16159707005E+03  0.00000000000E+00 0.  1.
         25    1    1    2    0    0  0.44094024117E+02 -0.65789157286E+02  0.35146836088E+02  0.15209469506E+03  0.12500000000E+03 0.  0.
         25    1    1    2    0    0 -0.99611418589E+02 -0.38283601278E+01  0.45944104226E+02  0.16635189139E+03  0.12500000000E+03 0.  0.
         25    1    1    2    0    0  0.55517394472E+02  0.69617517414E+02  0.94278988506E+02  0.18011748248E+03  0.12500000000E+03 0.  0.
</event>
<event>
 5    0  0.5481966E-005  0.2333310E+03  0.7546771E-02  0.1124317E+00
         21   -1    0    0  502  501  0.00000000000E+00  0.00000000000E+00  0.30641267297E+03  0.30641267297E+03  0.00000000000E+00 0. -1.
         21   -1    0    0  501  502 -0.00000000000E+00 -0.00000000000E+00 -0.17767983768E+03  0.17767983768E+03  0.00000000000E+00 0. -1.
         25    1    1    2    0    0  0.74669534403E+02  0.60790924348E+02  0.10936803294E+03  0.19198292237E+03  0.12500000000E+03 0.  0.
         25    1    1    2    0    0 -0.16993369232E+02 -0.41136436634E+02  0.62281042409E+02  0.14657731496E+03  0.12500000000E+03 0.  0.
         25    1    1    2    0    0 -0.57676165171E+02 -0.19654487714E+02 -0.42916240065E+02  0.14553227332E+03  0.12500000000E+03 0.  0.
</event>
<event>
 5    0  0.5481966E-005  0.2172373E+03  0.7546771E-02  0.1135960E+00
         21   -1    0    0  502  501  0.00000000000E+00  0.00000000000E+00  0.10153995456E+03  0.10153995456E+03  0.00000000000E+00 0.  1.
         21   -1    0    0  501  502 -0.00000000000E+00 -0.00000000000E+00 -0.46476347296E+03  0.46476347296E+03  0.00000000000E+00 0.  1.
         25    1    1    2    0    0  0.30943224083E+02 -0.42924581779E+01 -0.47524208847E+02  0.13732974456E+03  0.12500000000E+03 0.  0.
         25    1    1    2    0    0 -0.21270475312E+02 -0.51919090216E+02 -0.22790690923E+03  0.26592213959E+03  0.12500000000E+03 0.  0.
         25    1    1    2    0    0 -0.96727487711E+01  0.56211548394E+02 -0.87792400318E+02  0.16305154337E+03  0.12500000000E+03 0.  0.
</event>
<event>
 5    0  0.5481966E-005  0.4521503E+03  0.7546771E-02  0.1027083E+00
         21   -1    0    0  502  501  0.00000000000E+00  0.00000000000E+00  0.66744408484E+03  0.66744408484E+03  0.00000000000E+00 0. -1.
         21   -1    0    0  501  502 -0.00000000000E+00 -0.00000000000E+00 -0.30630258691E+03  0.30630258691E+03  0.00000000000E+00 0. -1.
         25    1    1    2    0    0 -0.15377683275E+03 -0.20696515531E+03 -0.11883017094E+02  0.28678928833E+03  0.12500000000E+03 0.  0.
         25    1    1    2    0    0 -0.92920749313E+02  0.23896976685E+02 -0.34722307973E+02  0.16135665409E+03  0.12500000000E+03 0.  0.
         25    1    1    2    0    0  0.24669758207E+03  0.18306817862E+03  0.40774682300E+03  0.52560072934E+03  0.12500000000E+03 0.  0.
</event>
<event>
 5    0  0.5481966E-005  0.2955311E+03  0.7546771E-02  0.1087496E+00
         21   -1    0    0  502  501  0.00000000000E+00  0.00000000000E+00  0.93223299039E+02  0.93223299039E+02  0.00000000000E+00 0. -1.
         21   -1    0    0  501  502 -0.00000000000E+00 -0.00000000000E+00 -0.93687573336E+03  0.93687573336E+03  0.00000000000E+00 0. -1.
         25    1    1    2    0    0  0.15293294047E+03 -0.32401034619E+02 -0.41043320872E+03  0.45663851146E+03  0.12500000000E+03 0.  0.
         25    1    1    2    0    0 -0.17837409959E+03  0.88188665991E+02 -0.29650550757E+03  0.37833196565E+03  0.12500000000E+03 0.  0.
         25    1    1    2    0    0  0.25441159124E+02 -0.55787631372E+02 -0.13671371803E+03  0.19512855529E+03  0.12500000000E+03 0.  0.
</event>
<event>
 5    0  0.5481966E-005  0.2874386E+03  0.7546771E-02  0.1091694E+00
         21   -1    0    0  502  501  0.00000000000E+00  0.00000000000E+00  0.12677968871E+03  0.12677968871E+03  0.00000000000E+00 0.  1.
         21   -1    0    0  501  502 -0.00000000000E+00 -0.00000000000E+00 -0.65168896215E+03  0.65168896215E+03  0.00000000000E+00 0.  1.
         25    1    1    2    0    0  0.10620844043E+03 -0.10542788907E+03 -0.12641700813E+03  0.23238229829E+03  0.12500000000E+03 0.  0.
         25    1    1    2    0    0 -0.14740370545E+03  0.13226064434E+03 -0.29419780443E+03  0.37602935863E+03  0.12500000000E+03 0.  0.
         25    1    1    2    0    0  0.41195265028E+02 -0.26832755269E+02 -0.10429446088E+03  0.17005699394E+03  0.12500000000E+03 0.  0.
</event>
<event>
 5    0  0.5481966E-005  0.2853714E+03  0.7546771E-02  0.1092791E+00
         21   -1    0    0  502  501  0.00000000000E+00  0.00000000000E+00  0.91144548183E+03  0.91144548183E+03  0.00000000000E+00 0. -1.
         21   -1    0    0  501  502 -0.00000000000E+00 -0.00000000000E+00 -0.89349097358E+02  0.89349097358E+02  0.00000000000E+00 0. -1.
         25    1    1    2    0    0 -0.12537731041E+03 -0.15644839595E+02  0.18848401649E+03  0.25906650776E+03  0.12500000000E+03 0.  0.
         25    1    1    2    0    0  0.19203902486E+03  0.50671030987E+02  0.44674284769E+03  0.50462928216E+03  0.12500000000E+03 0.  0.
         25    1    1    2    0    0 -0.66661714458E+02 -0.35026191392E+02  0.18686952030E+03  0.23709878927E+03  0.12500000000E+03 0.  0.
</event>
<event>
 5    0  0.5481966E-005  0.3762952E+03  0.7546771E-02  0.1052312E+00
         21   -1    0    0  502  501  0.00000000000E+00  0.00000000000E+00  0.12073374717E+03  0.12073374717E+03  0.00000000000E+00 0.  1.
         21   -1    0    0  501  502 -0.00000000000E+00 -0.00000000000E+00 -0.11728127650E+04  0.11728127650E+04  0.00000000000E+00 0.  1.
         25    1    1    2    0    0 -0.25041729771E+03 -0.69286242232E+01 -0.21263910423E+03  0.35156395929E+03  0.12500000000E+03 0.  0.
         25    1    1    2    0    0  0.24460050204E+02  0.61101722882E+02 -0.44940819274E+03  0.47108856736E+03  0.12500000000E+03 0.  0.
         25    1    1    2    0    0  0.22595724750E+03 -0.54173098659E+02 -0.39003172087E+03  0.47089398552E+03  0.12500000000E+03 0.  0.
</event>
<event>
 5    0  0.5481966E-005  0.2645522E+03  0.7546771E-02  0.1104439E+00
         21   -1    0    0  502  501  0.00000000000E+00  0.00000000000E+00  0.12230719551E+03  0.12230719551E+03  0.00000000000E+00 0.  1.
         21   -1    0    0  501  502 -0.00000000000E+00 -0.00000000000E+00 -0.57223035362E+03  0.57223035362E+03  0.00000000000E+00 0.  1.
         25    1    1    2    0    0  0.46591664045E+02 -0.71818625164E+01 -0.10432611160E+03  0.16950309693E+03  0.12500000000E+03 0.  0.
         25    1    1    2    0    0  0.11415799652E+03  0.66463942622E+02 -0.18086798950E+03  0.25649119568E+03  0.12500000000E+03 0.  0.
         25    1    1    2    0    0 -0.16074966056E+03 -0.59282080106E+02 -0.16472905701E+03  0.26854325651E+03  0.12500000000E+03 0.  0.
</event>
<event>
 5    0  0.5611220E-005  0.3551703E+03  0.7546771E-02  0.1060513E+00
         21   -1    0    0  502  501  0.00000000000E+00  0.00000000000E+00  0.74525443172E+03  0.74525443172E+03  0.00000000000E+00 0.  1.
         21   -1    0    0  501  502 -0.00000000000E+00 -0.00000000000E+00 -0.16926564811E+03  0.16926564811E+03  0.00000000000E+00 0.  1.
         25    1    1    2    0    0 -0.13701818580E+02 -0.11126045798E+03 -0.46029792139E+02  0.17409873953E+03  0.12500000000E+03 0.  0.
         25    1    1    2    0    0 -0.12136307918E+03 -0.97478267889E+01  0.20832986893E+03  0.27175421138E+03  0.12500000000E+03 0.  0.
         25    1    1    2    0    0  0.13506489776E+03  0.12100828476E+03  0.41368870681E+03  0.46866712892E+03  0.12500000000E+03 0.  0.
</event>
<event>
 5    0  0.5481966E-005  0.2366564E+03  0.7546771E-02  0.1122040E+00
         21   -1    0    0  502  501  0.00000000000E+00  0.00000000000E+00  0.12731269519E+04  0.12731269519E+04  0.00000000000E+00 0. -1.
         21   -1    0    0  501  502 -0.00000000000E+00 -0.00000000000E+00 -0.43991111703E+02  0.43991111703E+02  0.00000000000E+00 0. -1.
         25    1    1    2    0    0 -0.39176841076E+01 -0.32590460549E+02  0.69897749927E+03  0.71082489465E+03  0.12500000000E+03 0.  0.
         25    1    1    2    0    0  0.56180574961E+02 -0.34300610788E+02  0.28953999227E+03  0.32216641046E+03  0.12500000000E+03 0.  0.
         25    1    1    2    0    0 -0.52262890853E+02  0.66891071337E+02  0.24061834868E+03  0.28412675852E+03  0.12500000000E+03 0.  0.
</event>
<event>
 5    0  0.5481966E-005  0.2487711E+03  0.7546771E-02  0.1114084E+00
         21   -1    0    0  502  501  0.00000000000E+00  0.00000000000E+00  0.44288143147E+02  0.44288143147E+02  0.00000000000E+00 0.  1.
         21   -1    0    0  501  502 -0.00000000000E+00 -0.00000000000E+00 -0.13973735410E+04  0.13973735410E+04  0.00000000000E+00 0.  1.
         25    1    1    2    0    0  0.82162967804E+02  0.16675996432E+02 -0.54831677569E+03  0.56859926894E+03  0.12500000000E+03 0.  0.
         25    1    1    2    0    0 -0.30535593948E+02  0.31352907284E+01 -0.66584267473E+03  0.67816938889E+03  0.12500000000E+03 0.  0.
         25    1    1    2    0    0 -0.51627373856E+02 -0.19811287160E+02 -0.13892594739E+03  0.19489302627E+03  0.12500000000E+03 0.  0.
</event>
<event>
 5    0  0.5481966E-005  0.2568778E+03  0.7546771E-02  0.1109034E+00
         21   -1    0    0  502  501  0.00000000000E+00  0.00000000000E+00  0.73965098457E+03  0.73965098457E+03  0.00000000000E+00 0. -1.
         21   -1    0    0  501  502 -0.00000000000E+00 -0.00000000000E+00 -0.89212606060E+02  0.89212606060E+02  0.00000000000E+00 0. -1.
         25    1    1    2    0    0 -0.15372059485E+02  0.80760794765E+01  0.33645797814E+00  0.12620077843E+03  0.12500000000E+03 0.  0.
         25    1    1    2    0    0 -0.15535740492E+02  0.34181518885E+02  0.34275370687E+03  0.36676264673E+03  0.12500000000E+03 0.  0.
         25    1    1    2    0    0  0.30907799978E+02 -0.42257598361E+02  0.30734821366E+03  0.33590016546E+03  0.12500000000E+03 0.  0.
</event>
<event>
 5    0  0.5481966E-005  0.3580356E+03  0.7546771E-02  0.1059364E+00
         21   -1    0    0  502  501  0.00000000000E+00  0.00000000000E+00  0.53427658783E+03  0.53427658783E+03  0.00000000000E+00 0.  1.
         21   -1    0    0  501  502 -0.00000000000E+00 -0.00000000000E+00 -0.23993092742E+03  0.23993092742E+03  0.00000000000E+00 0.  1.
         25    1    1    2    0    0 -0.57861759017E+02  0.14734792319E+03  0.83554391112E+02  0.21832482658E+03  0.12500000000E+03 0.  0.
         25    1    1    2    0    0  0.66965836826E+02  0.10764821132E+03  0.20523506708E+03  0.27169650985E+03  0.12500000000E+03 0.  0.
         25    1    1    2    0    0 -0.91040778095E+01 -0.25499613451E+03  0.55562022161E+01  0.28418617882E+03  0.12500000000E+03 0.  0.
</event>
<event>
 5    0  0.5481966E-005  0.2882404E+03  0.7546771E-02  0.1091271E+00
         21   -1    0    0  502  501  0.00000000000E+00  0.00000000000E+00  0.26607807706E+03  0.26607807706E+03  0.00000000000E+00 0. -1.
         21   -1    0    0  501  502 -0.00000000000E+00 -0.00000000000E+00 -0.31224876661E+03  0.31224876661E+03  0.00000000000E+00 0. -1.
         25    1    1    2    0    0  0.37115397822E+02  0.18977165732E+02 -0.42761601024E+02  0.13853245142E+03  0.12500000000E+03 0.  0.
         25    1    1    2    0    0  0.14484335335E+03  0.23126870275E+02 -0.70579728831E+02  0.20523388429E+03  0.12500000000E+03 0.  0.
         25    1    1    2    0    0 -0.18195875117E+03 -0.42104036007E+02  0.67170640303E+02  0.23456050796E+03  0.12500000000E+03 0.  0.
</event>
<event>
 5    0  0.5481966E-005  0.4372474E+03  0.7546771E-02  0.1031595E+00
         21   -1    0    0  502  501  0.00000000000E+00  0.00000000000E+00  0.23460595444E+03  0.23460595444E+03  0.00000000000E+00 0.  1.
         21   -1    0    0  501  502 -0.00000000000E+00 -0.00000000000E+00 -0.81492078610E+03  0.81492078610E+03  0.00000000000E+00 0.  1.
         25    1    1    2    0    0 -0.44189617441E+02 -0.44395795423E+02 -0.24528315667E+03  0.28233408559E+03  0.12500000000E+03 0.  0.
         25    1    1    2    0    0  0.18088192797E+03  0.41653408329E+02  0.13543097187E+03  0.26157183799E+03  0.12500000000E+03 0.  0.
         25    1    1    2    0    0 -0.13669231053E+03  0.27423870940E+01 -0.47046264686E+03  0.50562081695E+03  0.12500000000E+03 0.  0.
</event>
<event>
 5    0  0.5683614E-005  0.2894090E+03  0.7546771E-02  0.1090658E+00
         21   -1    0    0  502  501  0.00000000000E+00  0.00000000000E+00  0.16050200616E+03  0.16050200616E+03  0.00000000000E+00 0. -1.
         21   -1    0    0  501  502 -0.00000000000E+00 -0.00000000000E+00 -0.52184745923E+03  0.52184745923E+03  0.00000000000E+00 0. -1.
         25    1    1    2    0    0 -0.28641741867E+02  0.19664166717E+03 -0.19978250943E+03  0.30826343559E+03  0.12500000000E+03 0.  0.
         25    1    1    2    0    0  0.48398450615E+02 -0.85022978694E+02 -0.12346324549E+03  0.20109572326E+03  0.12500000000E+03 0.  0.
         25    1    1    2    0    0 -0.19756708748E+02 -0.11161868848E+03 -0.38099698151E+02  0.17299030654E+03  0.12500000000E+03 0.  0.
</event>
<event>
 5    0  0.5481966E-005  0.2900921E+03  0.7546771E-02  0.1090301E+00
         21   -1    0    0  502  501  0.00000000000E+00  0.00000000000E+00  0.76407922574E+02  0.76407922574E+02  0.00000000000E+00 0.  1.
         21   -1    0    0  501  502 -0.00000000000E+00 -0.00000000000E+00 -0.11013702020E+04  0.11013702020E+04  0.00000000000E+00 0.  1.
         25    1    1    2    0    0  0.71593480388E+02 -0.16326066671E+03 -0.39550164257E+03  0.45147117406E+03  0.12500000000E+03 0.  0.
         25    1    1    2    0    0 -0.57584357508E+02  0.78089208429E+02 -0.50720442440E+03  0.53131460626E+03  0.12500000000E+03 0.  0.
         25    1    1    2    0    0 -0.14009122881E+02  0.85171458281E+02 -0.12225621244E+03  0.19499234423E+03  0.12500000000E+03 0.  0.
</event>
<event>
 5    0  0.5481966E-005  0.2459977E+03  0.7546771E-02  0.1115861E+00
         21   -1    0    0  502  501  0.00000000000E+00  0.00000000000E+00  0.60389138305E+02  0.60389138305E+02  0.00000000000E+00 0. -1.
         21   -1    0    0  501  502 -0.00000000000E+00 -0.00000000000E+00 -0.10020817503E+04  0.10020817503E+04  0.00000000000E+00 0. -1.
         25    1    1    2    0    0 -0.37961642133E+02 -0.75240358855E+02 -0.18784084116E+03  0.24085551578E+03  0.12500000000E+03 0.  0.
         25    1    1    2    0    0  0.91842616915E+01  0.12958799167E+03 -0.33837771616E+03  0.38340823809E+03  0.12500000000E+03 0.  0.
         25    1    1    2    0    0  0.28777380442E+02 -0.54347632811E+02 -0.41547405464E+03  0.43820713469E+03  0.12500000000E+03 0.  0.
</event>
<event>
 5    0  0.5481966E-005  0.2655575E+03  0.7546771E-02  0.1103849E+00
         21   -1    0    0  502  501  0.00000000000E+00  0.00000000000E+00  0.46445226171E+03  0.46445226171E+03  0.00000000000E+00 0. -1.
         21   -1    0    0  501  502 -0.00000000000E+00 -0.00000000000E+00 -0.15183648197E+03  0.15183648197E+03  0.00000000000E+00 0. -1.
         25    1    1    2    0    0 -0.29352250079E+02 -0.44038447594E+02  0.73883816016E+02  0.15454694342E+03  0.12500000000E+03 0.  0.
         25    1    1    2    0    0 -0.78268014925E+02 -0.84557196110E+02  0.17289524510E+03  0.24247384880E+03  0.12500000000E+03 0.  0.
         25    1    1    2    0    0  0.10762026500E+03  0.12859564370E+03  0.65836718613E+02  0.21926795146E+03  0.12500000000E+03 0.  0.
</event>
<event>
 5    0  0.5481966E-005  0.5833047E+03  0.7546771E-02  0.9940662E-01
         21   -1    0    0  502  501  0.00000000000E+00  0.00000000000E+00  0.30846967541E+03  0.30846967541E+03  0.00000000000E+00 0.  1.
         21   -1    0    0  501  502 -0.00000000000E+00 -0.00000000000E+00 -0.11030074040E+04  0.11030074040E+04  0.00000000000E+00 0.  1.
         25    1    1    2    0    0  0.10432341381E+03 -0.15826649553E+03 -0.35937431363E+03  0.42509593691E+03  0.12500000000E+03 0.  0.
         25    1    1    2    0    0 -0.33098364766E+03  0.11763372755E+03 -0.57810839112E+03  0.68791146287E+03  0.12500000000E+03 0.  0.
         25    1    1    2    0    0  0.22666023385E+03  0.40632767983E+02  0.14294497616E+03  0.29846967962E+03  0.12500000000E+03 0.  0.
</event>
<event>
 5    0  0.5481966E-005  0.2552028E+03  0.7546771E-02  0.1110060E+00
         21   -1    0    0  502  501  0.00000000000E+00  0.00000000000E+00  0.11268939763E+03  0.11268939763E+03  0.00000000000E+00 0.  1.
         21   -1    0    0  501  502 -0.00000000000E+00 -0.00000000000E+00 -0.57794669540E+03  0.57794669540E+03  0.00000000000E+00 0.  1.
         25    1    1    2    0    0  0.39477367380E+02  0.24602314696E+02 -0.10924792884E+03  0.17240605088E+03  0.12500000000E+03 0.  0.
         25    1    1    2    0    0 -0.98933849219E+02  0.48464476493E+02 -0.49083035307E+02  0.17369760032E+03  0.12500000000E+03 0.  0.
         25    1    1    2    0    0  0.59456481839E+02 -0.73066791190E+02 -0.30692633361E+03  0.34453244183E+03  0.12500000000E+03 0.  0.
</event>
<event>
 5    0  0.5481966E-005  0.2329159E+03  0.7546771E-02  0.1124604E+00
         21   -1    0    0  502  501  0.00000000000E+00  0.00000000000E+00  0.60604053347E+03  0.60604053347E+03  0.00000000000E+00 0.  1.
         21   -1    0    0  501  502 -0.00000000000E+00 -0.00000000000E+00 -0.89515160097E+02  0.89515160097E+02  0.00000000000E+00 0.  1.
         25    1    1    2    0    0 -0.96189873700E+01  0.14291934627E+02  0.12771553509E+03  0.17953562938E+03  0.12500000000E+03 0.  0.
         25    1    1    2    0    0  0.74825799050E+01  0.38145320778E+02  0.35198314339E+03  0.37553719887E+03  0.12500000000E+03 0.  0.
         25    1    1    2    0    0  0.21364074650E+01 -0.52437255405E+02  0.36826694885E+02  0.14048286532E+03  0.12500000000E+03 0.  0.
</event>
<event>
 5    0  0.5481966E-005  0.5424200E+03  0.7546771E-02  0.1003264E+00
         21   -1    0    0  502  501  0.00000000000E+00  0.00000000000E+00  0.13414967292E+03  0.13414967292E+03  0.00000000000E+00 0.  1.
         21   -1    0    0  501  502 -0.00000000000E+00 -0.00000000000E+00 -0.21932176299E+04  0.21932176299E+04  0.00000000000E+00 0.  1.
         25    1    1    2    0    0 -0.27631233602E+03 -0.20026370474E+02 -0.62298506758E+03  0.69317022222E+03  0.12500000000E+03 0.  0.
         25    1    1    2    0    0  0.33257543709E+03  0.23107090832E+03 -0.45694572106E+03  0.62323717638E+03  0.12500000000E+03 0.  0.
         25    1    1    2    0    0 -0.56263101065E+02 -0.21104453785E+03 -0.97913716834E+03  0.10109599042E+04  0.12500000000E+03 0.  0.
</event>
<event>
 5    0  0.5481966E-005  0.4564433E+03  0.7546771E-02  0.1025818E+00
         21   -1    0    0  502  501  0.00000000000E+00  0.00000000000E+00  0.34820077579E+03  0.34820077579E+03  0.00000000000E+00 0.  1.
         21   -1    0    0  501  502 -0.00000000000E+00 -0.00000000000E+00 -0.59833434939E+03  0.59833434939E+03  0.00000000000E+00 0.  1.
         25    1    1    2    0    0 -0.18821044350E+02 -0.12229773041E+03 -0.20566850106E+02  0.17708461790E+03  0.12500000000E+03 0.  0.
         25    1    1    2    0    0  0.27216880575E+03  0.23658908456E+03 -0.26204935064E+03  0.46297420655E+03  0.12500000000E+03 0.  0.
         25    1    1    2    0    0 -0.25334776140E+03 -0.11429135415E+03  0.32482627159E+02  0.30647630073E+03  0.12500000000E+03 0.  0.
</event>
<event>
 5    0  0.5481966E-005  0.5880495E+03  0.7546771E-02  0.9930514E-01
         21   -1    0    0  502  501  0.00000000000E+00  0.00000000000E+00  0.28180231353E+04  0.28180231353E+04  0.00000000000E+00 0.  1.
         21   -1    0    0  501  502 -0.00000000000E+00 -0.00000000000E+00 -0.12271092708E+03  0.12271092708E+03  0.00000000000E+00 0.  1.
         25    1    1    2    0    0 -0.40945889650E+03 -0.23530676523E+03  0.84715040312E+03  0.97791342520E+03  0.12500000000E+03 0.  0.
         25    1    1    2    0    0  0.39505028314E+03  0.30671785253E+03  0.14824901500E+04  0.15695676513E+04  0.12500000000E+03 0.  0.
         25    1    1    2    0    0  0.14408613362E+02 -0.71411087295E+02  0.36567165512E+03  0.39325298586E+03  0.12500000000E+03 0.  0.
</event>
<event>
 5    0  0.5481966E-005  0.4449288E+03  0.7546771E-02  0.1029245E+00
         21   -1    0    0  502  501  0.00000000000E+00  0.00000000000E+00  0.37151319760E+03  0.37151319760E+03  0.00000000000E+00 0.  1.
         21   -1    0    0  501  502 -0.00000000000E+00 -0.00000000000E+00 -0.53285227467E+03  0.53285227467E+03  0.00000000000E+00 0.  1.
         25    1    1    2    0    0  0.14741019263E+03 -0.63848336049E+02  0.76032932920E+02  0.21728410387E+03  0.12500000000E+03 0.  0.
         25    1    1    2    0    0 -0.13254170567E+03 -0.21784543600E+03  0.20837693109E+02  0.28475102666E+03  0.12500000000E+03 0.  0.
         25    1    1    2    0    0 -0.14868486955E+02  0.28169377205E+03 -0.25820970310E+03  0.40233034175E+03  0.12500000000E+03 0.  0.
</event>
<event>
 5    0  0.5481966E-005  0.5158521E+03  0.7546771E-02  0.1009722E+00
         21   -1    0    0  502  501  0.00000000000E+00  0.00000000000E+00  0.23272372038E+04  0.23272372038E+04  0.00000000000E+00 0.  1.
         21   -1    0    0  501  502 -0.00000000000E+00 -0.00000000000E+00 -0.11434305006E+03  0.11434305006E+03  0.00000000000E+00 0.  1.
         25    1    1    2    0    0 -0.13543080252E+03  0.26147700179E+03  0.60319681274E+03  0.68277603914E+03  0.12500000000E+03 0.  0.
         25    1    1    2    0    0 -0.17643553527E+03 -0.14720819251E+03  0.28262403531E+03  0.38509881249E+03  0.12500000000E+03 0.  0.
         25    1    1    2    0    0  0.31186633779E+03 -0.11426880928E+03  0.13270733057E+04  0.13737054022E+04  0.12500000000E+03 0.  0.
</event>
<event>
 5    0  0.5481966E-005  0.2335688E+03  0.7546771E-02  0.1124153E+00
         21   -1    0    0  502  501  0.00000000000E+00  0.00000000000E+00  0.18438894311E+03  0.18438894311E+03  0.00000000000E+00 0. -1.
         21   -1    0    0  501  502 -0.00000000000E+00 -0.00000000000E+00 -0.29586586052E+03  0.29586586052E+03  0.00000000000E+00 0. -1.
         25    1    1    2    0    0  0.86796264775E+01  0.75821047706E+02  0.13373121653E+01  0.14646144747E+03  0.12500000000E+03 0.  0.
         25    1    1    2    0    0  0.60711876932E+01  0.50913070389E+02 -0.39994949120E+02  0.14090278923E+03  0.12500000000E+03 0.  0.
         25    1    1    2    0    0 -0.14750814171E+02 -0.12673411809E+03 -0.72819280457E+02  0.19289056694E+03  0.12500000000E+03 0.  0.
</event>
<event>
 5    0  0.5481966E-005  0.4255500E+03  0.7546771E-02  0.1035275E+00
         21   -1    0    0  502  501  0.00000000000E+00  0.00000000000E+00  0.21085246272E+03  0.21085246272E+03  0.00000000000E+00 0. -1.
         21   -1    0    0  501  502 -0.00000000000E+00 -0.00000000000E+00 -0.85886020906E+03  0.85886020906E+03  0.00000000000E+00 0. -1.
         25    1    1    2    0    0 -0.62075347110E+02  0.18647732933E+03 -0.83823274192E+02  0.24754491384E+03  0.12500000000E+03 0.  0.
         25    1    1    2    0    0  0.14940618940E+03  0.54743638659E+02 -0.48574922703E+03  0.52620945161E+03  0.12500000000E+03 0.  0.
         25    1    1    2    0    0 -0.87330842287E+02 -0.24122096799E+03 -0.78435245119E+02  0.29595830633E+03  0.12500000000E+03 0.  0.
</event>
<event>
 5    0  0.5481966E-005  0.2670012E+03  0.7546771E-02  0.1103008E+00
         21   -1    0    0  502  501  0.00000000000E+00  0.00000000000E+00  0.16243383371E+04  0.16243383371E+04  0.00000000000E+00 0. -1.
         21   -1    0    0  501  502 -0.00000000000E+00 -0.00000000000E+00 -0.43888423554E+02  0.43888423554E+02  0.00000000000E+00 0. -1.
         25    1    1    2    0    0  0.16191001726E+02  0.15829650728E+02  0.14312175250E+03  0.19136761068E+03  0.12500000000E+03 0.  0.
         25    1    1    2    0    0 -0.80868303925E+02 -0.15226736817E+02  0.35268868103E+03  0.38312640450E+03  0.12500000000E+03 0.  0.
         25    1    1    2    0    0  0.64677302200E+02 -0.60291391092E+00  0.10846394800E+04  0.10937327455E+04  0.12500000000E+03 0.  0.
</event>
<event>
 5    0  0.5481966E-005  0.3083613E+03  0.7546771E-02  0.1081134E+00
         21   -1    0    0  502  501  0.00000000000E+00  0.00000000000E+00  0.43491613475E+03  0.43491613475E+03  0.00000000000E+00 0. -1.
         21   -1    0    0  501  502 -0.00000000000E+00 -0.00000000000E+00 -0.21863229496E+03  0.21863229496E+03  0.00000000000E+00 0. -1.
         25    1    1    2    0    0 -0.97767027613E+02  0.10229661190E+03  0.20666875501E+03  0.27992849585E+03  0.12500000000E+03 0.  0.
         25    1    1    2    0    0  0.16485567637E+03 -0.81061427361E+02 -0.31439610097E+02  0.22441434473E+03  0.12500000000E+03 0.  0.
         25    1    1    2    0    0 -0.67088648758E+02 -0.21235184534E+02  0.41054694884E+02  0.14920558913E+03  0.12500000000E+03 0.  0.
</event>
<event>
 5    0  0.5481966E-005  0.4246347E+03  0.7546771E-02  0.1035568E+00
         21   -1    0    0  502  501  0.00000000000E+00  0.00000000000E+00  0.59641017826E+03  0.59641017826E+03  0.00000000000E+00 0.  1.
         21   -1    0    0  501  502 -0.00000000000E+00 -0.00000000000E+00 -0.30233325497E+03  0.30233325497E+03  0.00000000000E+00 0. -1.
         25    1    1    2    0    0  0.70295665269E+02 -0.26254159874E+03  0.36747775578E+02  0.30140499437E+03  0.12500000000E+03 0.  0.
         25    1    1    2    0    0 -0.30818528814E+02 -0.54919370206E+02 -0.37266426589E+02  0.14484372783E+03  0.12500000000E+03 0.  0.
         25    1    1    2    0    0 -0.39477136455E+02  0.31746096895E+03  0.29459557430E+03  0.45249471103E+03  0.12500000000E+03 0.  0.
</event>
<event>
 5    0  0.5481966E-005  0.2177878E+03  0.7546771E-02  0.1135543E+00
         21   -1    0    0  502  501  0.00000000000E+00  0.00000000000E+00  0.55933786793E+03  0.55933786793E+03  0.00000000000E+00 0.  1.
         21   -1    0    0  501  502 -0.00000000000E+00 -0.00000000000E+00 -0.84799412462E+02  0.84799412462E+02  0.00000000000E+00 0.  1.
         25    1    1    2    0    0  0.23996908690E+02  0.94093747141E+02  0.16241827371E+03  0.22679105033E+03  0.12500000000E+03 0.  0.
         25    1    1    2    0    0  0.73097690803E+01 -0.18803561965E+02  0.16264567542E+03  0.20612040753E+03  0.12500000000E+03 0.  0.
         25    1    1    2    0    0 -0.31306677770E+02 -0.75290185176E+02  0.14947450633E+03  0.21122582252E+03  0.12500000000E+03 0.  0.
</event>
<event>
 5    0  0.5481966E-005  0.2716130E+03  0.7546771E-02  0.1100360E+00
         21   -1    0    0  502  501  0.00000000000E+00  0.00000000000E+00  0.65210270449E+02  0.65210270449E+02  0.00000000000E+00 0.  1.
         21   -1    0    0  501  502 -0.00000000000E+00 -0.00000000000E+00 -0.11313189551E+04  0.11313189551E+04  0.00000000000E+00 0.  1.
         25    1    1    2    0    0  0.24635643758E+02 -0.15932962462E+03 -0.46639388230E+03  0.50905903162E+03  0.12500000000E+03 0.  0.
         25    1    1    2    0    0  0.56358078245E+02  0.77681366270E+02 -0.21180512225E+03  0.26400196488E+03  0.12500000000E+03 0.  0.
         25    1    1    2    0    0 -0.80993722003E+02  0.81648258351E+02 -0.38790968006E+03  0.42346822901E+03  0.12500000000E+03 0.  0.
</event>
<event>
 5    0  0.5481966E-005  0.4328801E+03  0.7546771E-02  0.1032954E+00
         21   -1    0    0  502  501  0.00000000000E+00  0.00000000000E+00  0.10187238225E+04  0.10187238225E+04  0.00000000000E+00 0.  1.
         21   -1    0    0  501  502 -0.00000000000E+00 -0.00000000000E+00 -0.18394107403E+03  0.18394107403E+03  0.00000000000E+00 0.  1.
         25    1    1    2    0    0  0.88830319427E+02 -0.70657027707E+02  0.34069426013E+03  0.38023784675E+03  0.12500000000E+03 0.  0.
         25    1    1    2    0    0 -0.49922747912E+02 -0.12974137829E+03 -0.77778333571E+02  0.20248351828E+03  0.12500000000E+03 0.  0.
         25    1    1    2    0    0 -0.38907571515E+02  0.20039840600E+03  0.57186682187E+03  0.61994353146E+03  0.12500000000E+03 0.  0.
</event>
<event>
 5    0  0.5481966E-005  0.2261743E+03  0.7546771E-02  0.1129362E+00
         21   -1    0    0  502  501  0.00000000000E+00  0.00000000000E+00  0.79792412423E+03  0.79792412423E+03  0.00000000000E+00 0. -1.
         21   -1    0    0  501  502 -0.00000000000E+00 -0.00000000000E+00 -0.64109880358E+02  0.64109880358E+02  0.00000000000E+00 0. -1.
         25    1    1    2    0    0 -0.79741612873E+02 -0.24294626955E+02  0.39565017288E+03  0.42321745359E+03  0.12500000000E+03 0.  0.
         25    1    1    2    0    0  0.90688089792E+01  0.89784015642E+01  0.10128537242E+03  0.16138953391E+03  0.12500000000E+03 0.  0.
         25    1    1    2    0    0  0.70672803894E+02  0.15316225390E+02  0.23687869857E+03  0.27742701708E+03  0.12500000000E+03 0.  0.
</event>
<event>
 5    0  0.5481966E-005  0.2763316E+03  0.7546771E-02  0.1097710E+00
         21   -1    0    0  502  501  0.00000000000E+00  0.00000000000E+00  0.14025447840E+03  0.14025447840E+03  0.00000000000E+00 0. -1.
         21   -1    0    0  501  502 -0.00000000000E+00 -0.00000000000E+00 -0.54443272708E+03  0.54443272708E+03  0.00000000000E+00 0. -1.
         25    1    1    2    0    0 -0.20378550018E+02 -0.42803397392E+02 -0.31008936375E+03  0.33768006995E+03  0.12500000000E+03 0.  0.
         25    1    1    2    0    0 -0.35376730869E+02 -0.11019078654E+01 -0.14484293587E+03  0.19456927650E+03  0.12500000000E+03 0.  0.
         25    1    1    2    0    0  0.55755280887E+02  0.43905305258E+02  0.50754050938E+02  0.15243785902E+03  0.12500000000E+03 0.  0.
</event>
<event>
 5    0  0.5481966E-005  0.2683841E+03  0.7546771E-02  0.1102208E+00
         21   -1    0    0  502  501  0.00000000000E+00  0.00000000000E+00  0.16890725323E+03  0.16890725323E+03  0.00000000000E+00 0. -1.
         21   -1    0    0  501  502 -0.00000000000E+00 -0.00000000000E+00 -0.42644708752E+03  0.42644708752E+03  0.00000000000E+00 0. -1.
         25    1    1    2    0    0 -0.83151521465E+02  0.85380507039E+02 -0.96017384399E+01  0.17297745485E+03  0.12500000000E+03 0.  0.
         25    1    1    2    0    0  0.16216451944E+02 -0.74843648461E+02 -0.12226702079E+02  0.14710213211E+03  0.12500000000E+03 0.  0.
         25    1    1    2    0    0  0.66935069521E+02 -0.10536858578E+02 -0.23571139378E+03  0.27527475379E+03  0.12500000000E+03 0.  0.
</event>
<event>
 5    0  0.5481966E-005  0.4360315E+03  0.7546771E-02  0.1031971E+00
         21   -1    0    0  502  501  0.00000000000E+00  0.00000000000E+00  0.98671459913E+03  0.98671459913E+03  0.00000000000E+00 0.  1.
         21   -1    0    0  501  502 -0.00000000000E+00 -0.00000000000E+00 -0.19268331338E+03  0.19268331338E+03  0.00000000000E+00 0. -1.
         25    1    1    2    0    0 -0.24004939044E+02  0.62388842353E+02  0.37714747614E+02  0.14668335603E+03  0.12500000000E+03 0.  0.
         25    1    1    2    0    0  0.14432690994E+03  0.23942876886E+03  0.54590836257E+03  0.62593716347E+03  0.12500000000E+03 0.  0.
         25    1    1    2    0    0 -0.12032197090E+03 -0.30181761121E+03  0.21040817556E+03  0.40677739300E+03  0.12500000000E+03 0.  0.
</event>
<event>
 5    0  0.5481966E-005  0.3096281E+03  0.7546771E-02  0.1080524E+00
         21   -1    0    0  502  501  0.00000000000E+00  0.00000000000E+00  0.10213260789E+03  0.10213260789E+03  0.00000000000E+00 0. -1.
         21   -1    0    0  501  502 -0.00000000000E+00 -0.00000000000E+00 -0.93867749498E+03  0.93867749498E+03  0.00000000000E+00 0. -1.
         25    1    1    2    0    0 -0.50052522647E+02 -0.52556862709E+02 -0.17959159194E+03  0.23053333541E+03  0.12500000000E+03 0.  0.
         25    1    1    2    0    0  0.82336177907E+02  0.19410650683E+03 -0.51969792396E+03  0.57460204868E+03  0.12500000000E+03 0.  0.
         25    1    1    2    0    0 -0.32283655260E+02 -0.14154964412E+03 -0.13725537119E+03  0.23567471877E+03  0.12500000000E+03 0.  0.
</event>
<event>
 5    0  0.5481966E-005  0.2951349E+03  0.7546771E-02  0.1087698E+00
         21   -1    0    0  502  501  0.00000000000E+00  0.00000000000E+00  0.91681383355E+03  0.91681383355E+03  0.00000000000E+00 0.  1.
         21   -1    0    0  501  502 -0.00000000000E+00 -0.00000000000E+00 -0.95007961526E+02  0.95007961526E+02  0.00000000000E+00 0.  1.
         25    1    1    2    0    0 -0.97632648654E+02  0.40104672088E+01  0.41521609187E+03  0.44449704260E+03  0.12500000000E+03 0.  0.
         25    1    1    2    0    0  0.72806336357E+02  0.10941506479E+03  0.78718883386E+02  0.19772223349E+03  0.12500000000E+03 0.  0.
         25    1    1    2    0    0  0.24826312298E+02 -0.11342553200E+03  0.32787089677E+03  0.36960251898E+03  0.12500000000E+03 0.  0.
</event>
<event>
 5    0  0.5481966E-005  0.4494690E+03  0.7546771E-02  0.1027881E+00
         21   -1    0    0  502  501  0.00000000000E+00  0.00000000000E+00  0.23688144621E+04  0.23688144621E+04  0.00000000000E+00 0. -1.
         21   -1    0    0  501  502 -0.00000000000E+00 -0.00000000000E+00 -0.85284169793E+02  0.85284169793E+02  0.00000000000E+00 0. -1.
         25    1    1    2    0    0 -0.20639734075E+03 -0.90269179885E+02  0.85638425102E+03  0.89429713883E+03  0.12500000000E+03 0.  0.
         25    1    1    2    0    0  0.23252180996E+03  0.28086197157E+03  0.10481316900E+04  0.11167608870E+04  0.12500000000E+03 0.  0.
         25    1    1    2    0    0 -0.26124469209E+02 -0.19059279168E+03  0.37901435127E+03  0.44304060604E+03  0.12500000000E+03 0.  0.
</event>
<event>
 5    0  0.5481966E-005  0.2890247E+03  0.7546771E-02  0.1090859E+00
         21   -1    0    0  502  501  0.00000000000E+00  0.00000000000E+00  0.40406298804E+03  0.40406298804E+03  0.00000000000E+00 0.  1.
         21   -1    0    0  501  502 -0.00000000000E+00 -0.00000000000E+00 -0.20673823800E+03  0.20673823800E+03  0.00000000000E+00 0.  1.
         25    1    1    2    0    0  0.11516169441E+03 -0.11969739455E+02  0.13664421225E+03  0.21840817582E+03  0.12500000000E+03 0.  0.
         25    1    1    2    0    0 -0.67213156439E+02  0.53292401506E+02 -0.98146027746E+02  0.18059715175E+03  0.12500000000E+03 0.  0.
         25    1    1    2    0    0 -0.47948537972E+02 -0.41322662051E+02  0.15882656553E+03  0.21179589847E+03  0.12500000000E+03 0.  0.
</event>
<event>
 5    0  0.5481966E-005  0.2947102E+03  0.7546771E-02  0.1087915E+00
         21   -1    0    0  502  501  0.00000000000E+00  0.00000000000E+00  0.16155203018E+04  0.16155203018E+04  0.00000000000E+00 0.  1.
         21   -1    0    0  501  502 -0.00000000000E+00 -0.00000000000E+00 -0.53762324585E+02  0.53762324585E+02  0.00000000000E+00 0.  1.
         25    1    1    2    0    0  0.13031319044E+03 -0.13080162045E+03  0.81068538455E+03  0.84078914375E+03  0.12500000000E+03 0.  0.
         25    1    1    2    0    0  0.16265376435E+02  0.21384532539E+02  0.25843853283E+03  0.28833545733E+03  0.12500000000E+03 0.  0.
         25    1    1    2    0    0 -0.14657856688E+03  0.10941708791E+03  0.49263405979E+03  0.54015802527E+03  0.12500000000E+03 0.  0.
</event>
<event>
 5    0  0.5481966E-005  0.3086205E+03  0.7546771E-02  0.1081009E+00
         21   -1    0    0  502  501  0.00000000000E+00  0.00000000000E+00  0.11102652855E+04  0.11102652855E+04  0.00000000000E+00 0.  1.
         21   -1    0    0  501  502 -0.00000000000E+00 -0.00000000000E+00 -0.85787280422E+02  0.85787280422E+02  0.00000000000E+00 0.  1.
         25    1    1    2    0    0 -0.71189950600E+02 -0.10801153288E+03  0.39455855790E+03  0.43363112885E+03  0.12500000000E+03 0.  0.
         25    1    1    2    0    0  0.16893666325E+03  0.10877135442E+03  0.51416819189E+03  0.56600771486E+03  0.12500000000E+03 0.  0.
         25    1    1    2    0    0 -0.97746712650E+02 -0.75982154513E+00  0.11575125525E+03  0.19641372217E+03  0.12500000000E+03 0.  0.
</event>
<event>
 5    0  0.5735534E-005  0.3483258E+03  0.7546771E-02  0.1063304E+00
         21   -1    0    0  502  501  0.00000000000E+00  0.00000000000E+00  0.54466300236E+03  0.54466300236E+03  0.00000000000E+00 0.  1.
         21   -1    0    0  501  502 -0.00000000000E+00 -0.00000000000E+00 -0.22276322820E+03  0.22276322820E+03  0.00000000000E+00 0.  1.
         25    1    1    2    0    0 -0.12353430884E+03  0.59004570263E+01  0.14872477583E+02  0.17647019987E+03  0.12500000000E+03 0.  0.
         25    1    1    2    0    0  0.11574116499E+03 -0.14813115963E+03  0.33023839142E+03  0.40002656524E+03  0.12500000000E+03 0.  0.
         25    1    1    2    0    0  0.77931438486E+01  0.14223070261E+03 -0.23211094840E+02  0.19092946545E+03  0.12500000000E+03 0.  0.
</event>
<event>
 5    0  0.5481966E-005  0.2802097E+03  0.7546771E-02  0.1095574E+00
         21   -1    0    0  502  501  0.00000000000E+00  0.00000000000E+00  0.11130383966E+04  0.11130383966E+04  0.00000000000E+00 0.  1.
         21   -1    0    0  501  502 -0.00000000000E+00 -0.00000000000E+00 -0.70543353444E+02  0.70543353444E+02  0.00000000000E+00 0.  1.
         25    1    1    2    0    0  0.11988674653E+03  0.50125966366E+02  0.33590954379E+03  0.38124226694E+03  0.12500000000E+03 0.  0.
         25    1    1    2    0    0 -0.50771425880E+02 -0.12767632448E+03  0.53347022754E+03  0.56488447066E+03  0.12500000000E+03 0.  0.
         25    1    1    2    0    0 -0.69115320646E+02  0.77550358116E+02  0.17311527181E+03  0.23745501242E+03  0.12500000000E+03 0.  0.
</event>
<event>
 5    0  0.5481966E-005  0.2881961E+03  0.7546771E-02  0.1091295E+00
         21   -1    0    0  502  501  0.00000000000E+00  0.00000000000E+00  0.12465068867E+03  0.12465068867E+03  0.00000000000E+00 0. -1.
         21   -1    0    0  501  502 -0.00000000000E+00 -0.00000000000E+00 -0.66631808393E+03  0.66631808393E+03  0.00000000000E+00 0. -1.
         25    1    1    2    0    0  0.61821236317E+02  0.90603110617E+02 -0.15572983882E+03  0.22783233223E+03  0.12500000000E+03 0.  0.
         25    1    1    2    0    0 -0.12675436977E+03 -0.37021196619E+02 -0.40544061746E+02  0.18629562582E+03  0.12500000000E+03 0.  0.
         25    1    1    2    0    0  0.64933133458E+02 -0.53581913998E+02 -0.34539349470E+03  0.37684081455E+03  0.12500000000E+03 0.  0.
</event>
<event>
 5    0  0.5481966E-005  0.3948685E+03  0.7546771E-02  0.1045571E+00
         21   -1    0    0  502  501  0.00000000000E+00  0.00000000000E+00  0.22559393786E+03  0.22559393786E+03  0.00000000000E+00 0.  1.
         21   -1    0    0  501  502 -0.00000000000E+00 -0.00000000000E+00 -0.69115838405E+03  0.69115838405E+03  0.00000000000E+00 0.  1.
         25    1    1    2    0    0 -0.19901780404E+03  0.68213022056E+02 -0.11012914189E+03  0.26835523210E+03  0.12500000000E+03 0.  0.
         25    1    1    2    0    0  0.22535579511E+03 -0.19565955771E+03 -0.10589716411E+03  0.34045132733E+03  0.12500000000E+03 0.  0.
         25    1    1    2    0    0 -0.26337991071E+02  0.12744653565E+03 -0.24953814018E+03  0.30794576248E+03  0.12500000000E+03 0.  0.
</event>
<event>
 5    0  0.5481966E-005  0.2747776E+03  0.7546771E-02  0.1098576E+00
         21   -1    0    0  502  501  0.00000000000E+00  0.00000000000E+00  0.39084834247E+04  0.39084834247E+04  0.00000000000E+00 0.  1.
         21   -1    0    0  501  502 -0.00000000000E+00 -0.00000000000E+00 -0.19317652961E+02  0.19317652961E+02  0.00000000000E+00 0. -1.
         25    1    1    2    0    0  0.79104903677E+02  0.76931061389E+02  0.61566097025E+03  0.63783963837E+03  0.12500000000E+03 0.  0.
         25    1    1    2    0    0 -0.62540647570E+02 -0.64422207778E+02  0.89904187326E+03  0.91211997200E+03  0.12500000000E+03 0.  0.
         25    1    1    2    0    0 -0.16564256107E+02 -0.12508853611E+02  0.23744629282E+04  0.23778414673E+04  0.12500000000E+03 0.  0.
</event>
<event>
 5    0  0.5481966E-005  0.2283130E+03  0.7546771E-02  0.1127833E+00
         21   -1    0    0  502  501  0.00000000000E+00  0.00000000000E+00  0.11606507669E+03  0.11606507669E+03  0.00000000000E+00 0. -1.
         21   -1    0    0  501  502 -0.00000000000E+00 -0.00000000000E+00 -0.44911726681E+03  0.44911726681E+03  0.00000000000E+00 0. -1.
         25    1    1    2    0    0 -0.23128556118E+02  0.36223157879E+02 -0.10130137098E+03  0.16653532669E+03  0.12500000000E+03 0.  0.
         25    1    1    2    0    0 -0.47048589454E+02 -0.79566996710E+02 -0.18523165974E+03  0.24182688954E+03  0.12500000000E+03 0.  0.
         25    1    1    2    0    0  0.70177145572E+02  0.43343838831E+02 -0.46519159408E+02  0.15682012727E+03  0.12500000000E+03 0.  0.
</event>
<event>
 5    0  0.5481966E-005  0.2931217E+03  0.7546771E-02  0.1088730E+00
         21   -1    0    0  502  501  0.00000000000E+00  0.00000000000E+00  0.30114663428E+03  0.30114663428E+03  0.00000000000E+00 0.  1.
         21   -1    0    0  501  502 -0.00000000000E+00 -0.00000000000E+00 -0.28531060565E+03  0.28531060565E+03  0.00000000000E+00 0.  1.
         25    1    1    2    0    0  0.91466364886E+02 -0.78336175208E+02 -0.12600907361E+03  0.21448995054E+03  0.12500000000E+03 0.  0.
         25    1    1    2    0    0 -0.64809522098E+02 -0.10056324183E+02  0.16244528909E+03  0.21520891189E+03  0.12500000000E+03 0.  0.
         25    1    1    2    0    0 -0.26656842788E+02  0.88392499391E+02 -0.20600186852E+02  0.15675837749E+03  0.12500000000E+03 0.  0.
</event>
<event>
 5    0  0.5481966E-005  0.2372159E+03  0.7546771E-02  0.1121662E+00
         21   -1    0    0  502  501  0.00000000000E+00  0.00000000000E+00  0.94799333970E+02  0.94799333970E+02  0.00000000000E+00 0.  1.
         21   -1    0    0  501  502 -0.00000000000E+00 -0.00000000000E+00 -0.59358422617E+03  0.59358422617E+03  0.00000000000E+00 0.  1.
         25    1    1    2    0    0 -0.16606143538E+01  0.92810302618E+02 -0.75621549433E+02  0.17308994382E+03  0.12500000000E+03 0.  0.
         25    1    1    2    0    0 -0.47463467889E+02 -0.50412963645E+02 -0.14539632383E+03  0.20386107689E+03  0.12500000000E+03 0.  0.
         25    1    1    2    0    0  0.49124082243E+02 -0.42397338973E+02 -0.27776701894E+03  0.31143253943E+03  0.12500000000E+03 0.  0.
</event>
<event>
 5    0  0.5481966E-005  0.2998066E+03  0.7546771E-02  0.1085337E+00
         21   -1    0    0  502  501  0.00000000000E+00  0.00000000000E+00  0.16458149495E+04  0.16458149495E+04  0.00000000000E+00 0. -1.
         21   -1    0    0  501  502 -0.00000000000E+00 -0.00000000000E+00 -0.54613685689E+02  0.54613685689E+02  0.00000000000E+00 0. -1.
         25    1    1    2    0    0 -0.10988756705E+03 -0.10215302899E+03  0.44806244578E+03  0.48876934647E+03  0.12500000000E+03 0.  0.
         25    1    1    2    0    0 -0.47868760346E+02  0.58552723076E+02  0.78542546627E+03  0.79889799265E+03  0.12500000000E+03 0.  0.
         25    1    1    2    0    0  0.15775632740E+03  0.43600305918E+02  0.35771335179E+03  0.41276129610E+03  0.12500000000E+03 0.  0.
</event>
<event>
 5    0  0.5481966E-005  0.2659984E+03  0.7546771E-02  0.1103592E+00
         21   -1    0    0  502  501  0.00000000000E+00  0.00000000000E+00  0.13640092661E+04  0.13640092661E+04  0.00000000000E+00 0. -1.
         21   -1    0    0  501  502 -0.00000000000E+00 -0.00000000000E+00 -0.51872924326E+02  0.51872924326E+02  0.00000000000E+00 0. -1.
         25    1    1    2    0    0  0.48301151784E+02  0.87333012748E+01  0.25948146799E+03  0.29217272981E+03  0.12500000000E+03 0.  0.
         25    1    1    2    0    0  0.51052975935E+02  0.11887569878E+03  0.37535234882E+03  0.41623577919E+03  0.12500000000E+03 0.  0.
         25    1    1    2    0    0 -0.99354127719E+02 -0.12760900006E+03  0.67730252499E+03  0.70747368145E+03  0.12500000000E+03 0.  0.
</event>
<event>
 5    0  0.5481966E-005  0.2984922E+03  0.7546771E-02  0.1085997E+00
         21   -1    0    0  502  501  0.00000000000E+00  0.00000000000E+00  0.30627809891E+03  0.30627809891E+03  0.00000000000E+00 0. -1.
         21   -1    0    0  501  502 -0.00000000000E+00 -0.00000000000E+00 -0.29090426609E+03  0.29090426609E+03  0.00000000000E+00 0. -1.
         25    1    1    2    0    0  0.94491443757E+02 -0.26098429984E+02  0.16250563217E+03  0.22725061381E+03  0.12500000000E+03 0.  0.
         25    1    1    2    0    0  0.15107444823E+02  0.63683436470E+02  0.54057304941E+01  0.14120211362E+03  0.12500000000E+03 0.  0.
         25    1    1    2    0    0 -0.10959888858E+03 -0.37585006485E+02 -0.15253752984E+03  0.22872963757E+03  0.12500000000E+03 0.  0.
</event>
<event>
 5    0  0.5481966E-005  0.2689450E+03  0.7546771E-02  0.1101885E+00
         21   -1    0    0  502  501  0.00000000000E+00  0.00000000000E+00  0.22293193543E+03  0.22293193543E+03  0.00000000000E+00 0.  1.
         21   -1    0    0  501  502 -0.00000000000E+00 -0.00000000000E+00 -0.32445517849E+03  0.32445517849E+03  0.00000000000E+00 0.  1.
         25    1    1    2    0    0  0.50353996873E+02 -0.23852555160E+02  0.63645887006E+02  0.15093133645E+03  0.12500000000E+03 0.  0.
         25    1    1    2    0    0 -0.52836832676E+02 -0.42941765059E+02  0.39292861469E+02  0.14766399370E+03  0.12500000000E+03 0.  0.
         25    1    1    2    0    0  0.24828358020E+01  0.66794320219E+02 -0.20446199154E+03  0.24879178377E+03  0.12500000000E+03 0.  0.
</event>
<event>
 5    0  0.5481966E-005  0.4882081E+03  0.7546771E-02  0.1016903E+00
         21   -1    0    0  502  501  0.00000000000E+00  0.00000000000E+00  0.24105112920E+03  0.24105112920E+03  0.00000000000E+00 0.  1.
         21   -1    0    0  501  502 -0.00000000000E+00 -0.00000000000E+00 -0.98878236494E+03  0.98878236494E+03  0.00000000000E+00 0.  1.
         25    1    1    2    0    0  0.19848840141E+03 -0.46149349134E+02 -0.19535305794E+03  0.30873163940E+03  0.12500000000E+03 0.  0.
         25    1    1    2    0    0 -0.48929379325E+02  0.31349714564E+03 -0.90290692105E+02  0.35277748450E+03  0.12500000000E+03 0.  0.
         25    1    1    2    0    0 -0.14955902209E+03 -0.26734779651E+03 -0.46208748569E+03  0.56832437025E+03  0.12500000000E+03 0.  0.
</event>
<event>
 5    0  0.5481966E-005  0.2884930E+03  0.7546771E-02  0.1091139E+00
         21   -1    0    0  502  501  0.00000000000E+00  0.00000000000E+00  0.18469697061E+03  0.18469697061E+03  0.00000000000E+00 0.  1.
         21   -1    0    0  501  502 -0.00000000000E+00 -0.00000000000E+00 -0.45062037379E+03  0.45062037379E+03  0.00000000000E+00 0.  1.
         25    1    1    2    0    0  0.27536846210E+02  0.84667116120E+02 -0.70000840598E+02  0.16867695793E+03  0.12500000000E+03 0.  0.
         25    1    1    2    0    0  0.12292256459E+03 -0.87815269982E+02 -0.18676604925E+03  0.27079149854E+03  0.12500000000E+03 0.  0.
         25    1    1    2    0    0 -0.15045941080E+03  0.31481538622E+01 -0.91565133334E+01  0.19584888794E+03  0.12500000000E+03 0.  0.
</event>
<event>
 5    0  0.5481966E-005  0.2383456E+03  0.7546771E-02  0.1120900E+00
         21   -1    0    0  502  501  0.00000000000E+00  0.00000000000E+00  0.19752893849E+02  0.19752893849E+02  0.00000000000E+00 0.  1.
         21   -1    0    0  501  502 -0.00000000000E+00 -0.00000000000E+00 -0.28759650960E+04  0.28759650960E+04  0.00000000000E+00 0.  1.
         25    1    1    2    0    0  0.71382256746E+01  0.10821429648E+03 -0.13587523805E+04  0.13687930157E+04  0.12500000000E+03 0.  0.
         25    1    1    2    0    0 -0.12804804246E+02  0.18991081384E+01 -0.49501990196E+03  0.51072230513E+03  0.12500000000E+03 0.  0.
         25    1    1    2    0    0  0.56665785713E+01 -0.11011340462E+03 -0.10024399197E+04  0.10162026690E+04  0.12500000000E+03 0.  0.
</event>
<event>
 5    0  0.5481966E-005  0.2792006E+03  0.7546771E-02  0.1096126E+00
         21   -1    0    0  502  501  0.00000000000E+00  0.00000000000E+00  0.32009381985E+03  0.32009381985E+03  0.00000000000E+00 0.  1.
         21   -1    0    0  501  502 -0.00000000000E+00 -0.00000000000E+00 -0.24353167596E+03  0.24353167596E+03  0.00000000000E+00 0.  1.
         25    1    1    2    0    0  0.14861662394E+03 -0.55559811204E+02  0.14688762582E+03  0.24974941071E+03  0.12500000000E+03 0.  0.
         25    1    1    2    0    0 -0.74001498731E+02  0.65909107957E+02 -0.45098845854E+02  0.16576832696E+03  0.12500000000E+03 0.  0.
         25    1    1    2    0    0 -0.74615125213E+02 -0.10349296753E+02 -0.25226636065E+02  0.14810775814E+03  0.12500000000E+03 0.  0.
</event>
<event>
 5    0  0.5481966E-005  0.2951039E+03  0.7546771E-02  0.1087714E+00
         21   -1    0    0  502  501  0.00000000000E+00  0.00000000000E+00  0.17035461442E+03  0.17035461442E+03  0.00000000000E+00 0. -1.
         21   -1    0    0  501  502 -0.00000000000E+00 -0.00000000000E+00 -0.51120614409E+03  0.51120614409E+03  0.00000000000E+00 0. -1.
         25    1    1    2    0    0 -0.11081966111E+02  0.67059709830E+02 -0.62132133191E+02  0.15525854769E+03  0.12500000000E+03 0.  0.
         25    1    1    2    0    0 -0.31520377144E+00 -0.90537372635E+02 -0.34823848106E+03  0.38090964137E+03  0.12500000000E+03 0.  0.
         25    1    1    2    0    0  0.11397169883E+02  0.23477662805E+02  0.69519084583E+02  0.14539256946E+03  0.12500000000E+03 0.  0.
</event>
<event>
 5    0  0.5481966E-005  0.3869499E+03  0.7546771E-02  0.1048395E+00
         21   -1    0    0  502  501  0.00000000000E+00  0.00000000000E+00  0.29277945614E+03  0.29277945614E+03  0.00000000000E+00 0. -1.
         21   -1    0    0  501  502 -0.00000000000E+00 -0.00000000000E+00 -0.51140957775E+03  0.51140957775E+03  0.00000000000E+00 0. -1.
         25    1    1    2    0    0  0.31968696694E+02  0.24530514528E+03 -0.28219044369E+03  0.39554147491E+03  0.12500000000E+03 0.  0.
         25    1    1    2    0    0 -0.97258162063E+02 -0.56817390029E+02  0.27666370932E+02  0.17052212167E+03  0.12500000000E+03 0.  0.
         25    1    1    2    0    0  0.65289465369E+02 -0.18848775525E+03  0.35893951145E+02  0.23812543732E+03  0.12500000000E+03 0.  0.
</event>
<event>
 5    0  0.5481966E-005  0.3485038E+03  0.7546771E-02  0.1063231E+00
         21   -1    0    0  502  501  0.00000000000E+00  0.00000000000E+00  0.26039060655E+03  0.26039060655E+03  0.00000000000E+00 0. -1.
         21   -1    0    0  501  502 -0.00000000000E+00 -0.00000000000E+00 -0.46643352396E+03  0.46643352396E+03  0.00000000000E+00 0. -1.
         25    1    1    2    0    0  0.82297006999E+02  0.44764216643E+02 -0.11056465350E+03  0.19137966207E+03  0.12500000000E+03 0.  0.
         25    1    1    2    0    0  0.55285595343E+02 -0.20026338746E+03 -0.15255766277E+03  0.28646249646E+03  0.12500000000E+03 0.  0.
         25    1    1    2    0    0 -0.13758260234E+03  0.15549917082E+03  0.57079398860E+02  0.24898197197E+03  0.12500000000E+03 0.  0.
</event>
<event>
 5    0  0.5481966E-005  0.1985816E+03  0.7546771E-02  0.1150941E+00
         21   -1    0    0  502  501  0.00000000000E+00  0.00000000000E+00  0.59602553201E+02  0.59602553201E+02  0.00000000000E+00 0.  1.
         21   -1    0    0  501  502 -0.00000000000E+00 -0.00000000000E+00 -0.66162679274E+03  0.66162679274E+03  0.00000000000E+00 0.  1.
         25    1    1    2    0    0 -0.37308609004E+02 -0.87967305081E+00 -0.27369893691E+03  0.30319764873E+03  0.12500000000E+03 0.  0.
         25    1    1    2    0    0  0.15340508029E+02 -0.25294767955E+02 -0.17895316345E+03  0.22028252582E+03  0.12500000000E+03 0.  0.
         25    1    1    2    0    0  0.21968100976E+02  0.26174441006E+02 -0.14937213917E+03  0.19774917139E+03  0.12500000000E+03 0.  0.
</event>
<event>
 5    0  0.5481966E-005  0.2175241E+03  0.7546771E-02  0.1135743E+00
         21   -1    0    0  502  501  0.00000000000E+00  0.00000000000E+00  0.35481891049E+03  0.35481891049E+03  0.00000000000E+00 0.  1.
         21   -1    0    0  501  502 -0.00000000000E+00 -0.00000000000E+00 -0.13335456162E+03  0.13335456162E+03  0.00000000000E+00 0.  1.
         25    1    1    2    0    0 -0.38744124732E+01 -0.81913849589E+01  0.60839661570E+02  0.13931465924E+03  0.12500000000E+03 0.  0.
         25    1    1    2    0    0 -0.21010451107E+02 -0.31439723027E+02  0.17079221176E+03  0.21499970892E+03  0.12500000000E+03 0.  0.
         25    1    1    2    0    0  0.24884863581E+02  0.39631107986E+02 -0.10167524455E+02  0.13385910395E+03  0.12500000000E+03 0.  0.
</event>
<event>
 5    0  0.5481966E-005  0.2824637E+03  0.7546771E-02  0.1094351E+00
         21   -1    0    0  502  501  0.00000000000E+00  0.00000000000E+00  0.83456330735E+03  0.83456330735E+03  0.00000000000E+00 0.  1.
         21   -1    0    0  501  502 -0.00000000000E+00 -0.00000000000E+00 -0.95601795864E+02  0.95601795864E+02  0.00000000000E+00 0.  1.
         25    1    1    2    0    0  0.17080722752E+03  0.49655123025E+02  0.27910324840E+03  0.35378575930E+03  0.12500000000E+03 0.  0.
         25    1    1    2    0    0 -0.15381421608E+03 -0.27751687520E+01  0.18877774140E+03  0.27373079892E+03  0.12500000000E+03 0.  0.
         25    1    1    2    0    0 -0.16993011441E+02 -0.46879954273E+02  0.27108052168E+03  0.30264854499E+03  0.12500000000E+03 0.  0.
</event>
<event>
 5    0  0.5481966E-005  0.2883999E+03  0.7546771E-02  0.1091188E+00
         21   -1    0    0  502  501  0.00000000000E+00  0.00000000000E+00  0.28174710580E+03  0.28174710580E+03  0.00000000000E+00 0. -1.
         21   -1    0    0  501  502 -0.00000000000E+00 -0.00000000000E+00 -0.29520987369E+03  0.29520987369E+03  0.00000000000E+00 0. -1.
         25    1    1    2    0    0  0.13588953884E+02 -0.55664323083E+02  0.48941261865E+01  0.13759407328E+03  0.12500000000E+03 0.  0.
         25    1    1    2    0    0  0.12261620134E+03  0.76696471336E+02  0.10307714370E+03  0.21717960102E+03  0.12500000000E+03 0.  0.
         25    1    1    2    0    0 -0.13620515522E+03 -0.21032148252E+02 -0.12143403778E+03  0.22218330518E+03  0.12500000000E+03 0.  0.
</event>
<event>
 5    0  0.5481966E-005  0.3263598E+03  0.7546771E-02  0.1072759E+00
         21   -1    0    0  502  501  0.00000000000E+00  0.00000000000E+00  0.97898954560E+03  0.97898954560E+03  0.00000000000E+00 0. -1.
         21   -1    0    0  501  502 -0.00000000000E+00 -0.00000000000E+00 -0.10879657609E+03  0.10879657609E+03  0.00000000000E+00 0. -1.
         25    1    1    2    0    0 -0.10457146148E+02  0.88786987702E+02  0.23243450530E+03  0.27864543840E+03  0.12500000000E+03 0.  0.
         25    1    1    2    0    0 -0.45719418700E+02  0.26546301507E+01 -0.16787386816E+02  0.13417946439E+03  0.12500000000E+03 0.  0.
         25    1    1    2    0    0  0.56176564848E+02 -0.91441617852E+02  0.65454585103E+03  0.67496121889E+03  0.12500000000E+03 0.  0.
</event>
<event>
 5    0  0.5481966E-005  0.4326471E+03  0.7546771E-02  0.1033027E+00
         21   -1    0    0  502  501  0.00000000000E+00  0.00000000000E+00  0.29888110049E+03  0.29888110049E+03  0.00000000000E+00 0.  1.
         21   -1    0    0  501  502 -0.00000000000E+00 -0.00000000000E+00 -0.62628073231E+03  0.62628073231E+03  0.00000000000E+00 0.  1.
         25    1    1    2    0    0 -0.16029125419E+03 -0.17907726318E+03 -0.26901237794E+02  0.27223267429E+03  0.12500000000E+03 0.  0.
         25    1    1    2    0    0  0.32023979026E+03  0.10559058593E+03 -0.22504671253E+03  0.42423332958E+03  0.12500000000E+03 0.  0.
         25    1    1    2    0    0 -0.15994853608E+03  0.73486677251E+02 -0.75451681501E+02  0.22869582893E+03  0.12500000000E+03 0.  0.
</event>
<event>
 5    0  0.5481966E-005  0.2236594E+03  0.7546771E-02  0.1131184E+00
         21   -1    0    0  502  501  0.00000000000E+00  0.00000000000E+00  0.33220994239E+03  0.33220994239E+03  0.00000000000E+00 0.  1.
         21   -1    0    0  501  502 -0.00000000000E+00 -0.00000000000E+00 -0.15057807185E+03  0.15057807185E+03  0.00000000000E+00 0.  1.
         25    1    1    2    0    0  0.76864696300E+02  0.48464012767E+02 -0.28774201910E+01  0.15456461955E+03  0.12500000000E+03 0.  0.
         25    1    1    2    0    0 -0.27535236362E+02 -0.35568778906E+01  0.69222958663E+02  0.14555981117E+03  0.12500000000E+03 0.  0.
         25    1    1    2    0    0 -0.49329459938E+02 -0.44907134877E+02  0.11528633207E+03  0.18266358351E+03  0.12500000000E+03 0.  0.
</event>
<event>
 5    0  0.5481966E-005  0.3680546E+03  0.7546771E-02  0.1055439E+00
         21   -1    0    0  502  501  0.00000000000E+00  0.00000000000E+00  0.40705066088E+03  0.40705066088E+03  0.00000000000E+00 0. -1.
         21   -1    0    0  501  502 -0.00000000000E+00 -0.00000000000E+00 -0.33279434840E+03  0.33279434840E+03  0.00000000000E+00 0. -1.
         25    1    1    2    0    0 -0.40712782012E+02  0.17322466335E+03 -0.37021658424E+02  0.22058993133E+03  0.12500000000E+03 0.  0.
         25    1    1    2    0    0 -0.20904220662E+01 -0.28736069211E+03  0.21990985565E+01  0.31338534309E+03  0.12500000000E+03 0.  0.
         25    1    1    2    0    0  0.42803204079E+02  0.11413602876E+03  0.10907887235E+03  0.20586973486E+03  0.12500000000E+03 0.  0.
</event>
<event>
 5    0  0.5481966E-005  0.3168462E+03  0.7546771E-02  0.1077110E+00
         21   -1    0    0  502  501  0.00000000000E+00  0.00000000000E+00  0.69815784077E+02  0.69815784077E+02  0.00000000000E+00 0. -1.
         21   -1    0    0  501  502 -0.00000000000E+00 -0.00000000000E+00 -0.14379490964E+04  0.14379490964E+04  0.00000000000E+00 0. -1.
         25    1    1    2    0    0  0.48499450945E+02 -0.17095825480E+03 -0.29789410443E+03  0.36870695556E+03  0.12500000000E+03 0.  0.
         25    1    1    2    0    0  0.56887985790E+02  0.79996130965E+02 -0.76264679713E+03  0.77903193841E+03  0.12500000000E+03 0.  0.
         25    1    1    2    0    0 -0.10538743673E+03  0.90962123831E+02 -0.30759241071E+03  0.36002598645E+03  0.12500000000E+03 0.  0.
</event>
<event>
 5    0  0.5481966E-005  0.2340090E+03  0.7546771E-02  0.1123849E+00
         21   -1    0    0  502  501  0.00000000000E+00  0.00000000000E+00  0.17516273664E+04  0.17516273664E+04  0.00000000000E+00 0. -1.
         21   -1    0    0  501  502 -0.00000000000E+00 -0.00000000000E+00 -0.31262475677E+02  0.31262475677E+02  0.00000000000E+00 0. -1.
         25    1    1    2    0    0  0.43291484153E+02 -0.61523082239E+02  0.30527051589E+03  0.33834055347E+03  0.12500000000E+03 0.  0.
         25    1    1    2    0    0  0.28069068866E+02  0.81717383881E+01  0.47670731752E+03  0.49368969659E+03  0.12500000000E+03 0.  0.
         25    1    1    2    0    0 -0.71360553019E+02  0.53351343851E+02  0.93838705732E+03  0.95085959203E+03  0.12500000000E+03 0.  0.
</event>
<event>
 5    0  0.5481966E-005  0.3821063E+03  0.7546771E-02  0.1050158E+00
         21   -1    0    0  502  501  0.00000000000E+00  0.00000000000E+00  0.78450880490E+02  0.78450880490E+02  0.00000000000E+00 0.  1.
         21   -1    0    0  501  502 -0.00000000000E+00 -0.00000000000E+00 -0.18611039847E+04  0.18611039847E+04  0.00000000000E+00 0. -1.
         25    1    1    2    0    0 -0.43831195261E+02  0.14713333320E+03 -0.96117603012E+03  0.98135302124E+03  0.12500000000E+03 0.  0.
         25    1    1    2    0    0  0.54010709869E+02 -0.23683254876E+03 -0.72876068882E+03  0.77828269575E+03  0.12500000000E+03 0.  0.
         25    1    1    2    0    0 -0.10179514608E+02  0.89699215561E+02 -0.92716385256E+02  0.17991914819E+03  0.12500000000E+03 0.  0.
</event>
<event>
 5    0  0.5481966E-005  0.5162053E+03  0.7546771E-02  0.1009634E+00
         21   -1    0    0  502  501  0.00000000000E+00  0.00000000000E+00  0.17394381219E+03  0.17394381219E+03  0.00000000000E+00 0. -1.
         21   -1    0    0  501  502 -0.00000000000E+00 -0.00000000000E+00 -0.15319193420E+04  0.15319193420E+04  0.00000000000E+00 0. -1.
         25    1    1    2    0    0 -0.18779622788E+03  0.38269394396E+02 -0.81428560494E+03  0.84582386829E+03  0.12500000000E+03 0.  0.
         25    1    1    2    0    0  0.10290855144E+03  0.11403882338E+03  0.69906682326E+02  0.21001658847E+03  0.12500000000E+03 0.  0.
         25    1    1    2    0    0  0.84887676443E+02 -0.15230821777E+03 -0.61359660715E+03  0.65002269738E+03  0.12500000000E+03 0.  0.
</event>
<event>
 5    0  0.5779889E-005  0.3265696E+03  0.7546771E-02  0.1072665E+00
         21   -1    0    0  502  501  0.00000000000E+00  0.00000000000E+00  0.34637386240E+03  0.34637386240E+03  0.00000000000E+00 0.  1.
         21   -1    0    0  501  502 -0.00000000000E+00 -0.00000000000E+00 -0.30789766419E+03  0.30789766419E+03  0.00000000000E+00 0.  1.
         25    1    1    2    0    0 -0.88592485245E+02  0.14928506453E+03  0.27086563201E+01  0.21393222234E+03  0.12500000000E+03 0.  0.
         25    1    1    2    0    0  0.11873492701E+03 -0.56718552368E+02  0.15768389489E+03  0.24042501488E+03  0.12500000000E+03 0.  0.
         25    1    1    2    0    0 -0.30142441761E+02 -0.92566512164E+02 -0.12191635299E+03  0.19991428937E+03  0.12500000000E+03 0.  0.
</event>
<event>
 5    0  0.5481966E-005  0.3236162E+03  0.7546771E-02  0.1073997E+00
         21   -1    0    0  502  501  0.00000000000E+00  0.00000000000E+00  0.12495474115E+03  0.12495474115E+03  0.00000000000E+00 0. -1.
         21   -1    0    0  501  502 -0.00000000000E+00 -0.00000000000E+00 -0.83812295776E+03  0.83812295776E+03  0.00000000000E+00 0. -1.
         25    1    1    2    0    0 -0.55932544538E+02 -0.18577611072E+03 -0.45340105157E+03  0.50876195457E+03  0.12500000000E+03 0.  0.
         25    1    1    2    0    0 -0.60918441609E+02  0.12216909560E+03 -0.16811708462E+03  0.25004939230E+03  0.12500000000E+03 0.  0.
         25    1    1    2    0    0  0.11685098615E+03  0.63607015123E+02 -0.91650080424E+02  0.20426635205E+03  0.12500000000E+03 0.  0.
</event>
<event>
 5    0  0.5481966E-005  0.3227255E+03  0.7546771E-02  0.1074402E+00
         21   -1    0    0  502  501  0.00000000000E+00  0.00000000000E+00  0.12701019303E+04  0.12701019303E+04  0.00000000000E+00 0. -1.
         21   -1    0    0  501  502 -0.00000000000E+00 -0.00000000000E+00 -0.82002652172E+02  0.82002652172E+02  0.00000000000E+00 0. -1.
         25    1    1    2    0    0 -0.47266849183E+02 -0.47507440482E+02  0.21888215610E+03  0.26081700518E+03  0.12500000000E+03 0.  0.
         25    1    1    2    0    0 -0.10181176381E+03  0.92301660739E+02  0.82332217882E+03  0.84401992984E+03  0.12500000000E+03 0.  0.
         25    1    1    2    0    0  0.14907861299E+03 -0.44794220257E+02  0.14589494320E+03  0.24726764744E+03  0.12500000000E+03 0.  0.
</event>
<event>
 5    0  0.5481966E-005  0.2868939E+03  0.7546771E-02  0.1091982E+00
         21   -1    0    0  502  501  0.00000000000E+00  0.00000000000E+00  0.12546696758E+03  0.12546696758E+03  0.00000000000E+00 0.  1.
         21   -1    0    0  501  502 -0.00000000000E+00 -0.00000000000E+00 -0.65601417358E+03  0.65601417358E+03  0.00000000000E+00 0.  1.
         25    1    1    2    0    0  0.18545575242E+03  0.49851510100E+02 -0.13296067297E+03  0.26491989303E+03  0.12500000000E+03 0.  0.
         25    1    1    2    0    0 -0.14222074892E+03 -0.19275731194E+02 -0.26941918773E+03  0.32986359901E+03  0.12500000000E+03 0.  0.
         25    1    1    2    0    0 -0.43235003495E+02 -0.30575778906E+02 -0.12816734531E+03  0.18669764912E+03  0.12500000000E+03 0.  0.
</event>
<event>
 5    0  0.5481966E-005  0.3690707E+03  0.7546771E-02  0.1055049E+00
         21   -1    0    0  502  501  0.00000000000E+00  0.00000000000E+00  0.18321199869E+03  0.18321199869E+03  0.00000000000E+00 0. -1.
         21   -1    0    0  501  502 -0.00000000000E+00 -0.00000000000E+00 -0.74347314030E+03  0.74347314030E+03  0.00000000000E+00 0. -1.
         25    1    1    2    0    0  0.78372694159E+01  0.15710931579E+03 -0.99936991293E+02  0.22440401540E+03  0.12500000000E+03 0.  0.
         25    1    1    2    0    0 -0.22288323872E+03 -0.69292585586E+02 -0.25968591694E+03  0.37086409368E+03  0.12500000000E+03 0.  0.
         25    1    1    2    0    0  0.21504596931E+03 -0.87816730208E+02 -0.20063823338E+03  0.33141702991E+03  0.12500000000E+03 0.  0.
</event>
<event>
 5    0  0.5481966E-005  0.2949291E+03  0.7546771E-02  0.1087803E+00
         21   -1    0    0  502  501  0.00000000000E+00  0.00000000000E+00  0.18918942188E+04  0.18918942188E+04  0.00000000000E+00 0.  1.
         21   -1    0    0  501  502 -0.00000000000E+00 -0.00000000000E+00 -0.45976776803E+02  0.45976776803E+02  0.00000000000E+00 0.  1.
         25    1    1    2    0    0  0.11441342585E+03  0.14127897557E+03  0.96301069493E+03  0.98795990784E+03  0.12500000000E+03 0.  0.
         25    1    1    2    0    0 -0.96243620684E+02 -0.13250139044E+03  0.68195411247E+03  0.71239445850E+03  0.12500000000E+03 0.  0.
         25    1    1    2    0    0 -0.18169805163E+02 -0.87775851358E+01  0.20095263456E+03  0.23751662922E+03  0.12500000000E+03 0.  0.
</event>
<event>
 5    0  0.5481966E-005  0.2144412E+03  0.7546771E-02  0.1138096E+00
         21   -1    0    0  502  501  0.00000000000E+00  0.00000000000E+00  0.12231391493E+04  0.12231391493E+04  0.00000000000E+00 0. -1.
         21   -1    0    0  501  502 -0.00000000000E+00 -0.00000000000E+00 -0.37595925806E+02  0.37595925806E+02  0.00000000000E+00 0. -1.
         25    1    1    2    0    0 -0.23610066578E+01  0.11891752037E+02  0.44684333849E+03  0.46415617768E+03  0.12500000000E+03 0.  0.
         25    1    1    2    0    0 -0.20108493532E+02 -0.79394630458E+02  0.30483668945E+03  0.33949707818E+03  0.12500000000E+03 0.  0.
         25    1    1    2    0    0  0.22469500190E+02  0.67502878421E+02  0.43386319550E+03  0.45708181920E+03  0.12500000000E+03 0.  0.
</event>
<event>
 5    0  0.5481966E-005  0.2519193E+03  0.7546771E-02  0.1112098E+00
         21   -1    0    0  502  501  0.00000000000E+00  0.00000000000E+00  0.11532662123E+03  0.11532662123E+03  0.00000000000E+00 0. -1.
         21   -1    0    0  501  502 -0.00000000000E+00 -0.00000000000E+00 -0.55029201694E+03  0.55029201694E+03  0.00000000000E+00 0. -1.
         25    1    1    2    0    0 -0.15063230199E+03  0.59593446648E+02 -0.17239459433E+03  0.26755628462E+03  0.12500000000E+03 0.  0.
         25    1    1    2    0    0  0.87320151018E+02 -0.40308719315E+02 -0.13583069371E+03  0.20814557161E+03  0.12500000000E+03 0.  0.
         25    1    1    2    0    0  0.63312150976E+02 -0.19284727333E+02 -0.12674010767E+03  0.18991678194E+03  0.12500000000E+03 0.  0.
</event>
<event>
 5    0  0.5481966E-005  0.2536723E+03  0.7546771E-02  0.1111006E+00
         21   -1    0    0  502  501  0.00000000000E+00  0.00000000000E+00  0.11991420188E+03  0.11991420188E+03  0.00000000000E+00 0. -1.
         21   -1    0    0  501  502 -0.00000000000E+00 -0.00000000000E+00 -0.53663056391E+03  0.53663056391E+03  0.00000000000E+00 0. -1.
         25    1    1    2    0    0 -0.32370296317E+02 -0.13475366425E+03 -0.95645818918E+02  0.20971291994E+03  0.12500000000E+03 0.  0.
         25    1    1    2    0    0 -0.28864293619E+02  0.19178445819E+02 -0.12783479986E+03  0.18212000518E+03  0.12500000000E+03 0.  0.
         25    1    1    2    0    0  0.61234589936E+02  0.11557521843E+03 -0.19323574326E+03  0.26471184067E+03  0.12500000000E+03 0.  0.
</event>
<event>
 5    0  0.5481966E-005  0.2850079E+03  0.7546771E-02  0.1092985E+00
         21   -1    0    0  502  501  0.00000000000E+00  0.00000000000E+00  0.80712368355E+02  0.80712368355E+02  0.00000000000E+00 0.  1.
         21   -1    0    0  501  502 -0.00000000000E+00 -0.00000000000E+00 -0.10064074189E+04  0.10064074189E+04  0.00000000000E+00 0.  1.
         25    1    1    2    0    0  0.12276483697E+03 -0.33617692095E+02 -0.40778794175E+03  0.44510376302E+03  0.12500000000E+03 0.  0.
         25    1    1    2    0    0 -0.18400062790E+03  0.71029310038E+02 -0.28953369422E+03  0.37196257076E+03  0.12500000000E+03 0.  0.
         25    1    1    2    0    0  0.61235790937E+02 -0.37411617943E+02 -0.22837341453E+03  0.27005345343E+03  0.12500000000E+03 0.  0.
</event>
<event>
 5    0  0.5481966E-005  0.3295408E+03  0.7546771E-02  0.1071340E+00
         21   -1    0    0  502  501  0.00000000000E+00  0.00000000000E+00  0.79054308107E+02  0.79054308107E+02  0.00000000000E+00 0. -1.
         21   -1    0    0  501  502 -0.00000000000E+00 -0.00000000000E+00 -0.13737025704E+04  0.13737025704E+04  0.00000000000E+00 0. -1.
         25    1    1    2    0    0  0.45583678290E+02  0.79591057332E+02 -0.91247926538E+02  0.17989939475E+03  0.12500000000E+03 0.  0.
         25    1    1    2    0    0 -0.15207236587E+03  0.37270341099E+02 -0.44297599688E+03  0.48617673391E+03  0.12500000000E+03 0.  0.
         25    1    1    2    0    0  0.10648868758E+03 -0.11686139843E+03 -0.76042433892E+03  0.78668074989E+03  0.12500000000E+03 0.  0.
</event>
<event>
 5    0  0.5481966E-005  0.2648785E+03  0.7546771E-02  0.1104247E+00
         21   -1    0    0  502  501  0.00000000000E+00  0.00000000000E+00  0.42023770070E+03  0.42023770070E+03  0.00000000000E+00 0. -1.
         21   -1    0    0  501  502 -0.00000000000E+00 -0.00000000000E+00 -0.16695461368E+03  0.16695461368E+03  0.00000000000E+00 0. -1.
         25    1    1    2    0    0  0.62479138795E+02  0.12434039049E+03  0.40615162737E+02  0.19141255689E+03  0.12500000000E+03 0.  0.
         25    1    1    2    0    0  0.55146819623E+02 -0.60800559234E+02  0.78887707838E+02  0.16907439240E+03  0.12500000000E+03 0.  0.
         25    1    1    2    0    0 -0.11762595842E+03 -0.63539831251E+02  0.13378021645E+03  0.22670536509E+03  0.12500000000E+03 0.  0.
</event>
<event>
 5    0  0.5481966E-005  0.2752757E+03  0.7546771E-02  0.1098298E+00
         21   -1    0    0  502  501  0.00000000000E+00  0.00000000000E+00  0.33084873398E+03  0.33084873398E+03  0.00000000000E+00 0.  1.
         21   -1    0    0  501  502 -0.00000000000E+00 -0.00000000000E+00 -0.22903737608E+03  0.22903737608E+03  0.00000000000E+00 0.  1.
         25    1    1    2    0    0 -0.10452467884E+03 -0.17030699554E+02  0.13319131505E+03  0.21114066311E+03  0.12500000000E+03 0.  0.
         25    1    1    2    0    0  0.48326053067E+02 -0.94296818121E+02  0.19418031334E+02  0.16501320327E+03  0.12500000000E+03 0.  0.
         25    1    1    2    0    0  0.56198625778E+02  0.11132751768E+03 -0.50797988495E+02  0.18373224368E+03  0.12500000000E+03 0.  0.
</event>
<event>
 5    0  0.5481966E-005  0.4544997E+03  0.7546771E-02  0.1026389E+00
         21   -1    0    0  502  501  0.00000000000E+00  0.00000000000E+00  0.20869908602E+03  0.20869908602E+03  0.00000000000E+00 0.  1.
         21   -1    0    0  501  502 -0.00000000000E+00 -0.00000000000E+00 -0.98979807981E+03  0.98979807981E+03  0.00000000000E+00 0.  1.
         25    1    1    2    0    0  0.12554608754E+03  0.17421642411E+03 -0.51085739972E+03  0.56807874927E+03  0.12500000000E+03 0.  0.
         25    1    1    2    0    0 -0.22323587668E+03  0.81094883866E+02 -0.11332238335E+03  0.29133760382E+03  0.12500000000E+03 0.  0.
         25    1    1    2    0    0  0.97689789143E+02 -0.25531130797E+03 -0.15691921071E+03  0.33908081274E+03  0.12500000000E+03 0.  0.
</event>
<event>
 5    0  0.5481966E-005  0.2990866E+03  0.7546771E-02  0.1085698E+00
         21   -1    0    0  502  501  0.00000000000E+00  0.00000000000E+00  0.54733876880E+03  0.54733876880E+03  0.00000000000E+00 0. -1.
         21   -1    0    0  501  502 -0.00000000000E+00 -0.00000000000E+00 -0.16343219935E+03  0.16343219935E+03  0.00000000000E+00 0. -1.
         25    1    1    2    0    0 -0.32129780682E+02  0.16955583942E+03  0.18211629594E+03  0.28030849209E+03  0.12500000000E+03 0.  0.
         25    1    1    2    0    0 -0.25484921787E+02 -0.12183339956E+03 -0.62213776940E+01  0.17651222062E+03  0.12500000000E+03 0.  0.
         25    1    1    2    0    0  0.57614702469E+02 -0.47722439862E+02  0.20801165120E+03  0.25395025545E+03  0.12500000000E+03 0.  0.
</event>
<event>
 5    0  0.5481966E-005  0.3757737E+03  0.7546771E-02  0.1052507E+00
         21   -1    0    0  502  501  0.00000000000E+00  0.00000000000E+00  0.13086848177E+03  0.13086848177E+03  0.00000000000E+00 0. -1.
         21   -1    0    0  501  502 -0.00000000000E+00 -0.00000000000E+00 -0.10789906668E+04  0.10789906668E+04  0.00000000000E+00 0. -1.
         25    1    1    2    0    0  0.20688176293E+03  0.11589890168E+03 -0.22472685765E+03  0.34979962806E+03  0.12500000000E+03 0.  0.
         25    1    1    2    0    0  0.13679607975E+02 -0.53658372064E+02 -0.64165888989E+02  0.15102520941E+03  0.12500000000E+03 0.  0.
         25    1    1    2    0    0 -0.22056137091E+03 -0.62240529619E+02 -0.65922943839E+03  0.70903431109E+03  0.12500000000E+03 0.  0.
</event>
<event>
 5    0  0.5481966E-005  0.3039541E+03  0.7546771E-02  0.1083281E+00
         21   -1    0    0  502  501  0.00000000000E+00  0.00000000000E+00  0.37371036101E+03  0.37371036101E+03  0.00000000000E+00 0.  1.
         21   -1    0    0  501  502 -0.00000000000E+00 -0.00000000000E+00 -0.24721852287E+03  0.24721852287E+03  0.00000000000E+00 0.  1.
         25    1    1    2    0    0  0.24176711779E+02 -0.90100992693E+02  0.34164436965E+02  0.15967125925E+03  0.12500000000E+03 0.  0.
         25    1    1    2    0    0 -0.10773886391E+03 -0.36523462215E+02 -0.91437241001E+02  0.19216502057E+03  0.12500000000E+03 0.  0.
         25    1    1    2    0    0  0.83562152136E+02  0.12662445491E+03  0.18376464217E+03  0.26909260407E+03  0.12500000000E+03 0.  0.
</event>
<event>
 5    0  0.5481966E-005  0.4746373E+03  0.7546771E-02  0.1020619E+00
         21   -1    0    0  502  501  0.00000000000E+00  0.00000000000E+00  0.42230895559E+03  0.42230895559E+03  0.00000000000E+00 0. -1.
         21   -1    0    0  501  502 -0.00000000000E+00 -0.00000000000E+00 -0.53344974666E+03  0.53344974666E+03  0.00000000000E+00 0. -1.
         25    1    1    2    0    0 -0.44843967296E+02  0.35729715768E+03 -0.57581335567E+02  0.38550337287E+03  0.12500000000E+03 0.  0.
         25    1    1    2    0    0 -0.12292766319E+03 -0.30527501095E+03 -0.27767342835E+02  0.35312896796E+03  0.12500000000E+03 0.  0.
         25    1    1    2    0    0  0.16777163049E+03 -0.52022146729E+02 -0.25792112660E+02  0.21712636142E+03  0.12500000000E+03 0.  0.
</event>
<event>
 5    0  0.5481966E-005  0.4420202E+03  0.7546771E-02  0.1030129E+00
         21   -1    0    0  502  501  0.00000000000E+00  0.00000000000E+00  0.31951531078E+03  0.31951531078E+03  0.00000000000E+00 0.  1.
         21   -1    0    0  501  502 -0.00000000000E+00 -0.00000000000E+00 -0.61149463274E+03  0.61149463274E+03  0.00000000000E+00 0.  1.
         25    1    1    2    0    0  0.77343418765E+02  0.27964495868E+02 -0.10303612798E+03  0.18167405187E+03  0.12500000000E+03 0.  0.
         25    1    1    2    0    0  0.26580208064E+03  0.76201065000E+02  0.39721314174E+02  0.30603942749E+03  0.12500000000E+03 0.  0.
         25    1    1    2    0    0 -0.34314549941E+03 -0.10416556087E+03 -0.22866450816E+03  0.44329646415E+03  0.12500000000E+03 0.  0.
</event>
<event>
 5    0  0.5481966E-005  0.3116984E+03  0.7546771E-02  0.1079535E+00
         21   -1    0    0  502  501  0.00000000000E+00  0.00000000000E+00  0.75284411641E+02  0.75284411641E+02  0.00000000000E+00 0. -1.
         21   -1    0    0  501  502 -0.00000000000E+00 -0.00000000000E+00 -0.12905183416E+04  0.12905183416E+04  0.00000000000E+00 0. -1.
         25    1    1    2    0    0  0.12254441148E+03 -0.50162439456E+02 -0.67383462327E+03  0.69800537436E+03  0.12500000000E+03 0.  0.
         25    1    1    2    0    0  0.52968908003E+02  0.50376403322E+02 -0.98106899746E+02  0.17490983679E+03  0.12500000000E+03 0.  0.
         25    1    1    2    0    0 -0.17551331949E+03 -0.21396386609E+00 -0.44329240694E+03  0.49288754209E+03  0.12500000000E+03 0.  0.
</event>
<event>
 5    0  0.5481966E-005  0.3584241E+03  0.7546771E-02  0.1059210E+00
         21   -1    0    0  502  501  0.00000000000E+00  0.00000000000E+00  0.89887559438E+03  0.89887559438E+03  0.00000000000E+00 0.  1.
         21   -1    0    0  501  502 -0.00000000000E+00 -0.00000000000E+00 -0.14292061415E+03  0.14292061415E+03  0.00000000000E+00 0.  1.
         25    1    1    2    0    0  0.20299353629E+03  0.10539513544E+02  0.14738380310E+03  0.28047182129E+03  0.12500000000E+03 0.  0.
         25    1    1    2    0    0 -0.24844411195E+03  0.86963285675E+02  0.41392357334E+03  0.50620629627E+03  0.12500000000E+03 0.  0.
         25    1    1    2    0    0  0.45450575652E+02 -0.97502799218E+02  0.19464760380E+03  0.25511809098E+03  0.12500000000E+03 0.  0.
</event>
<event>
 5    0  0.5481966E-005  0.2264084E+03  0.7546771E-02  0.1129194E+00
         21   -1    0    0  502  501  0.00000000000E+00  0.00000000000E+00  0.85701641886E+02  0.85701641886E+02  0.00000000000E+00 0. -1.
         21   -1    0    0  501  502 -0.00000000000E+00 -0.00000000000E+00 -0.59813036004E+03  0.59813036004E+03  0.00000000000E+00 0. -1.
         25    1    1    2    0    0 -0.93569600982E+02  0.45040443522E+02 -0.15862554475E+03  0.22709243763E+03  0.12500000000E+03 0.  0.
         25    1    1    2    0    0  0.32365543760E+02 -0.15261993975E+02 -0.93784774046E+02  0.16031544132E+03  0.12500000000E+03 0.  0.
         25    1    1    2    0    0  0.61204057222E+02 -0.29778449546E+02 -0.26001839936E+03  0.29642412298E+03  0.12500000000E+03 0.  0.
</event>
<event>
 5    0  0.5481966E-005  0.3453169E+03  0.7546771E-02  0.1064554E+00
         21   -1    0    0  502  501  0.00000000000E+00  0.00000000000E+00  0.36361654930E+03  0.36361654930E+03  0.00000000000E+00 0. -1.
         21   -1    0    0  501  502 -0.00000000000E+00 -0.00000000000E+00 -0.32793818460E+03  0.32793818460E+03  0.00000000000E+00 0. -1.
         25    1    1    2    0    0 -0.37476102427E+02  0.55445829727E+02 -0.14137957170E+03  0.20022957219E+03  0.12500000000E+03 0.  0.
         25    1    1    2    0    0 -0.43355714213E+02 -0.44333831961E+02 -0.10336270693E+03  0.17364923206E+03  0.12500000000E+03 0.  0.
         25    1    1    2    0    0  0.80831816640E+02 -0.11111997765E+02  0.28042064333E+03  0.31767592965E+03  0.12500000000E+03 0.  0.
</event>
<event>
 5    0  0.5481966E-005  0.3701457E+03  0.7546771E-02  0.1054637E+00
         21   -1    0    0  502  501  0.00000000000E+00  0.00000000000E+00  0.64709607241E+02  0.64709607241E+02  0.00000000000E+00 0. -1.
         21   -1    0    0  501  502 -0.00000000000E+00 -0.00000000000E+00 -0.21172714601E+04  0.21172714601E+04  0.00000000000E+00 0. -1.
         25    1    1    2    0    0 -0.12397083120E+03 -0.28226451089E+03 -0.88799054777E+03  0.94825852700E+03  0.12500000000E+03 0.  0.
         25    1    1    2    0    0  0.37388738887E+02  0.79395254878E+02 -0.47995678071E+03  0.50367155532E+03  0.12500000000E+03 0.  0.
         25    1    1    2    0    0  0.86582092312E+02  0.20286925601E+03 -0.68461452442E+03  0.73005098506E+03  0.12500000000E+03 0.  0.
</event>
<event>
 5    0  0.5481966E-005  0.3416939E+03  0.7546771E-02  0.1066077E+00
         21   -1    0    0  502  501  0.00000000000E+00  0.00000000000E+00  0.99470100077E+02  0.99470100077E+02  0.00000000000E+00 0. -1.
         21   -1    0    0  501  502 -0.00000000000E+00 -0.00000000000E+00 -0.11737669909E+04  0.11737669909E+04  0.00000000000E+00 0. -1.
         25    1    1    2    0    0  0.12944996146E+03 -0.23891928713E+02 -0.73080400103E+03  0.75301235362E+03  0.12500000000E+03 0.  0.
         25    1    1    2    0    0 -0.10413038261E+03  0.14250812318E+03 -0.19946961381E+03  0.29421901466E+03  0.12500000000E+03 0.  0.
         25    1    1    2    0    0 -0.25319578846E+02 -0.11861619447E+03 -0.14402327596E+03  0.22600572268E+03  0.12500000000E+03 0.  0.
</event>
<event>
 5    0  0.5481966E-005  0.2964845E+03  0.7546771E-02  0.1087011E+00
         21   -1    0    0  502  501  0.00000000000E+00  0.00000000000E+00  0.16178714532E+03  0.16178714532E+03  0.00000000000E+00 0.  1.
         21   -1    0    0  501  502 -0.00000000000E+00 -0.00000000000E+00 -0.54332546494E+03  0.54332546494E+03  0.00000000000E+00 0.  1.
         25    1    1    2    0    0  0.94844113860E+02 -0.37807635235E+02 -0.31634195420E+02  0.16447050050E+03  0.12500000000E+03 0.  0.
         25    1    1    2    0    0 -0.20239970631E+03  0.60990332095E+02 -0.21195955577E+03  0.32440301325E+03  0.12500000000E+03 0.  0.
         25    1    1    2    0    0  0.10755559245E+03 -0.23182696860E+02 -0.13794456842E+03  0.21623909650E+03  0.12500000000E+03 0.  0.
</event>
<event>
 5    0  0.5481966E-005  0.2286366E+03  0.7546771E-02  0.1127603E+00
         21   -1    0    0  502  501  0.00000000000E+00  0.00000000000E+00  0.31860297811E+02  0.31860297811E+02  0.00000000000E+00 0.  1.
         21   -1    0    0  501  502 -0.00000000000E+00 -0.00000000000E+00 -0.16407471455E+04  0.16407471455E+04  0.00000000000E+00 0.  1.
         25    1    1    2    0    0  0.25389564950E+02 -0.34479532544E+02 -0.21024769791E+03  0.24831947699E+03  0.12500000000E+03 0.  0.
         25    1    1    2    0    0 -0.20763385190E+02  0.60152149466E+02 -0.79677880623E+03  0.80903081852E+03  0.12500000000E+03 0.  0.
         25    1    1    2    0    0 -0.46261797604E+01 -0.25672616922E+02 -0.60186034357E+03  0.61525714783E+03  0.12500000000E+03 0.  0.
</event>
<event>
 5    0  0.5481966E-005  0.2702708E+03  0.7546771E-02  0.1101125E+00
         21   -1    0    0  502  501  0.00000000000E+00  0.00000000000E+00  0.72057489546E+02  0.72057489546E+02  0.00000000000E+00 0. -1.
         21   -1    0    0  501  502 -0.00000000000E+00 -0.00000000000E+00 -0.10137227342E+04  0.10137227342E+04  0.00000000000E+00 0. -1.
         25    1    1    2    0    0  0.35028978105E+02  0.96838247662E+02 -0.54793336073E+03  0.57136734534E+03  0.12500000000E+03 0.  0.
         25    1    1    2    0    0 -0.98124310136E+02 -0.33378913887E+02 -0.12540554824E+03  0.20516842755E+03  0.12500000000E+03 0.  0.
         25    1    1    2    0    0  0.63095332031E+02 -0.63459333775E+02 -0.26832633566E+03  0.30924445084E+03  0.12500000000E+03 0.  0.
</event>
<event>
 5    0  0.5481966E-005  0.4378428E+03  0.7546771E-02  0.1031411E+00
         21   -1    0    0  502  501  0.00000000000E+00  0.00000000000E+00  0.16242450995E+03  0.16242450995E+03  0.00000000000E+00 0. -1.
         21   -1    0    0  501  502 -0.00000000000E+00 -0.00000000000E+00 -0.11802794342E+04  0.11802794342E+04  0.00000000000E+00 0. -1.
         25    1    1    2    0    0  0.25615414568E+03 -0.13252482384E+03 -0.28616624767E+03  0.42508104708E+03  0.12500000000E+03 0.  0.
         25    1    1    2    0    0 -0.60745061242E+02 -0.13843127417E+03 -0.28533332642E+03  0.34625610074E+03  0.12500000000E+03 0.  0.
         25    1    1    2    0    0 -0.19540908444E+03  0.27095609801E+03 -0.44635535018E+03  0.57136679635E+03  0.12500000000E+03 0.  0.
</event>
<event>
 5    0  0.5481966E-005  0.2247451E+03  0.7546771E-02  0.1130394E+00
         21   -1    0    0  502  501  0.00000000000E+00  0.00000000000E+00  0.91133353069E+03  0.91133353069E+03  0.00000000000E+00 0. -1.
         21   -1    0    0  501  502 -0.00000000000E+00 -0.00000000000E+00 -0.55424684278E+02  0.55424684278E+02  0.00000000000E+00 0. -1.
         25    1    1    2    0    0  0.85436290161E+02 -0.52303841797E+01  0.42186959649E+03  0.44824733467E+03  0.12500000000E+03 0.  0.
         25    1    1    2    0    0 -0.19657397969E+02 -0.43425319766E+02  0.22021228536E+03  0.25766377765E+03  0.12500000000E+03 0.  0.
         25    1    1    2    0    0 -0.65778892192E+02  0.48655703946E+02  0.21382696456E+03  0.26084710264E+03  0.12500000000E+03 0.  0.
</event>
<event>
 5    0  0.5481966E-005  0.2075003E+03  0.7546771E-02  0.1143561E+00
         21   -1    0    0  502  501  0.00000000000E+00  0.00000000000E+00  0.14071175887E+03  0.14071175887E+03  0.00000000000E+00 0.  1.
         21   -1    0    0  501  502 -0.00000000000E+00 -0.00000000000E+00 -0.30598990909E+03  0.30598990909E+03  0.00000000000E+00 0.  1.
         25    1    1    2    0    0  0.64057299824E+02 -0.17753249785E+02 -0.58895810701E+02  0.15333698855E+03  0.12500000000E+03 0.  0.
         25    1    1    2    0    0 -0.40591825247E+02 -0.21956101769E+02 -0.85965182040E+02  0.15857105412E+03  0.12500000000E+03 0.  0.
         25    1    1    2    0    0 -0.23465474577E+02  0.39709351554E+02 -0.20417157481E+02  0.13479362529E+03  0.12500000000E+03 0.  0.
</event>
<event>
 5    0  0.5481966E-005  0.3543435E+03  0.7546771E-02  0.1060846E+00
         21   -1    0    0  502  501  0.00000000000E+00  0.00000000000E+00  0.38893864528E+03  0.38893864528E+03  0.00000000000E+00 0. -1.
         21   -1    0    0  501  502 -0.00000000000E+00 -0.00000000000E+00 -0.32282545049E+03  0.32282545049E+03  0.00000000000E+00 0. -1.
         25    1    1    2    0    0 -0.90206846709E+02 -0.50221981858E+02 -0.16540654327E+03  0.23161141425E+03  0.12500000000E+03 0.  0.
         25    1    1    2    0    0  0.80163702680E+02  0.31190583589E+02 -0.59271692749E+02  0.16290244103E+03  0.12500000000E+03 0.  0.
         25    1    1    2    0    0  0.10043144030E+02  0.19031398269E+02  0.29079143081E+03  0.31725024049E+03  0.12500000000E+03 0.  0.
</event>
<event>
 5    0  0.5481966E-005  0.3126200E+03  0.7546771E-02  0.1079097E+00
         21   -1    0    0  502  501  0.00000000000E+00  0.00000000000E+00  0.18314828366E+03  0.18314828366E+03  0.00000000000E+00 0. -1.
         21   -1    0    0  501  502 -0.00000000000E+00 -0.00000000000E+00 -0.53361830307E+03  0.53361830307E+03  0.00000000000E+00 0. -1.
         25    1    1    2    0    0 -0.40404245536E+02 -0.43290277244E+02 -0.29425334905E+03  0.32514086884E+03  0.12500000000E+03 0.  0.
         25    1    1    2    0    0 -0.99266384844E+01  0.75969188123E+01 -0.17021226575E+03  0.21155015183E+03  0.12500000000E+03 0.  0.
         25    1    1    2    0    0  0.50330884020E+02  0.35693358432E+02  0.11399559540E+03  0.18007556606E+03  0.12500000000E+03 0.  0.
</event>
<event>
 5    0  0.5481966E-005  0.2479855E+03  0.7546771E-02  0.1114585E+00
         21   -1    0    0  502  501  0.00000000000E+00  0.00000000000E+00  0.24369932629E+03  0.24369932629E+03  0.00000000000E+00 0.  1.
         21   -1    0    0  501  502 -0.00000000000E+00 -0.00000000000E+00 -0.25234711623E+03  0.25234711623E+03  0.00000000000E+00 0.  1.
         25    1    1    2    0    0 -0.10650699860E+03  0.92124158517E+02 -0.21537047764E+02  0.18952426166E+03  0.12500000000E+03 0.  0.
         25    1    1    2    0    0  0.72468166001E+02 -0.16785227330E+02 -0.34214034498E+02  0.14942884292E+03  0.12500000000E+03 0.  0.
         25    1    1    2    0    0  0.34038832597E+02 -0.75338931187E+02  0.47103292325E+02  0.15709333794E+03  0.12500000000E+03 0.  0.
</event>
<event>
 5    0  0.5481966E-005  0.3425327E+03  0.7546771E-02  0.1065722E+00
         21   -1    0    0  502  501  0.00000000000E+00  0.00000000000E+00  0.25165822560E+03  0.25165822560E+03  0.00000000000E+00 0. -1.
         21   -1    0    0  501  502 -0.00000000000E+00 -0.00000000000E+00 -0.46622222282E+03  0.46622222282E+03  0.00000000000E+00 0. -1.
         25    1    1    2    0    0  0.12307606395E+03 -0.19240100743E+03  0.44989847759E+02  0.26422519104E+03  0.12500000000E+03 0.  0.
         25    1    1    2    0    0 -0.97927788656E+02  0.43709866349E+02 -0.63484695556E+02  0.17650980363E+03  0.12500000000E+03 0.  0.
         25    1    1    2    0    0 -0.25148275290E+02  0.14869114108E+03 -0.19606914942E+03  0.27714545376E+03  0.12500000000E+03 0.  0.
</event>
<event>
 5    0  0.5481966E-005  0.3677108E+03  0.7546771E-02  0.1055572E+00
         21   -1    0    0  502  501  0.00000000000E+00  0.00000000000E+00  0.79917481797E+03  0.79917481797E+03  0.00000000000E+00 0. -1.
         21   -1    0    0  501  502 -0.00000000000E+00 -0.00000000000E+00 -0.16918854503E+03  0.16918854503E+03  0.00000000000E+00 0. -1.
         25    1    1    2    0    0 -0.85949613362E+02  0.35012254236E+02  0.12940803113E+03  0.20244661643E+03  0.12500000000E+03 0.  0.
         25    1    1    2    0    0  0.25248669540E+03 -0.15954214827E+02  0.47869082857E+03  0.55567434500E+03  0.12500000000E+03 0.  0.
         25    1    1    2    0    0 -0.16653708204E+03 -0.19058039409E+02  0.21887413236E+02  0.21024240157E+03  0.12500000000E+03 0.  0.
</event>
<event>
 5    0  0.5481966E-005  0.3351348E+03  0.7546771E-02  0.1068887E+00
         21   -1    0    0  502  501  0.00000000000E+00  0.00000000000E+00  0.11309293765E+03  0.11309293765E+03  0.00000000000E+00 0. -1.
         21   -1    0    0  501  502 -0.00000000000E+00 -0.00000000000E+00 -0.99312436283E+03  0.99312436283E+03  0.00000000000E+00 0. -1.
         25    1    1    2    0    0  0.50084511751E+02 -0.57660739422E+01 -0.54648198487E+03  0.56285812219E+03  0.12500000000E+03 0.  0.
         25    1    1    2    0    0  0.41182704589E+02 -0.81231184294E+02  0.11731745557E+02  0.15510368891E+03  0.12500000000E+03 0.  0.
         25    1    1    2    0    0 -0.91267216340E+02  0.86997258237E+02 -0.34528118587E+03  0.38825548938E+03  0.12500000000E+03 0.  0.
</event>
