<event>
 5    0  0.5626800E-005  0.3585161E+03  0.7546771E-02  0.1059173E+00
         21   -1    0    0  502  501  0.00000000000E+00  0.00000000000E+00  0.23612144593E+04  0.23612144593E+04  0.00000000000E+00 0.  1.
         21   -1    0    0  501  502 -0.00000000000E+00 -0.00000000000E+00 -0.54435451357E+02  0.54435451357E+02  0.00000000000E+00 0.  1.
         25    1    1    2    0    0  0.12882883440E+03 -0.78641147210E+02  0.14740412653E+04  0.14870117519E+04  0.12500000000E+03 0.  0.
         25    1    1    2    0    0 -0.11054004895E+03  0.16679731137E+03  0.35146472191E+03  0.42331181917E+03  0.12500000000E+03 0.  0.
         25    1    1    2    0    0 -0.18288785443E+02 -0.88156164156E+02  0.48127302073E+03  0.50532633954E+03  0.12500000000E+03 0.  0.
</event>
<event>
 5    0  0.6517303E-005  0.2954376E+03  0.7546771E-02  0.1087544E+00
         21   -1    0    0  502  501  0.00000000000E+00  0.00000000000E+00  0.14761219342E+03  0.14761219342E+03  0.00000000000E+00 0. -1.
         21   -1    0    0  501  502 -0.00000000000E+00 -0.00000000000E+00 -0.59130177259E+03  0.59130177259E+03  0.00000000000E+00 0. -1.
         25    1    1    2    0    0  0.82966437886E+02  0.16490049744E+03 -0.20574746954E+03  0.30336879387E+03  0.12500000000E+03 0.  0.
         25    1    1    2    0    0 -0.12004131504E+03 -0.49130741790E+02 -0.69404320956E+02  0.19304327720E+03  0.12500000000E+03 0.  0.
         25    1    1    2    0    0  0.37074877155E+02 -0.11576975565E+03 -0.16853778867E+03  0.24250189494E+03  0.12500000000E+03 0.  0.
</event>
<event>
 5    0  0.5626800E-005  0.4722850E+03  0.7546771E-02  0.1021277E+00
         21   -1    0    0  502  501  0.00000000000E+00  0.00000000000E+00  0.14981367745E+03  0.14981367745E+03  0.00000000000E+00 0. -1.
         21   -1    0    0  501  502 -0.00000000000E+00 -0.00000000000E+00 -0.14888702657E+04  0.14888702657E+04  0.00000000000E+00 0. -1.
         25    1    1    2    0    0  0.92184827887E+02 -0.47481893643E+02  0.82976729010E+02  0.18238067407E+03  0.12500000000E+03 0.  0.
         25    1    1    2    0    0  0.35948376586E+02  0.23630039854E+02 -0.53684042776E+03  0.55287730052E+03  0.12500000000E+03 0.  0.
         25    1    1    2    0    0 -0.12813320447E+03  0.23851853788E+02 -0.88519288951E+03  0.90342596855E+03  0.12500000000E+03 0.  0.
</event>
<event>
 5    0  0.5626800E-005  0.3496889E+03  0.7546771E-02  0.1062743E+00
         21   -1    0    0  502  501  0.00000000000E+00  0.00000000000E+00  0.97741380180E+03  0.97741380180E+03  0.00000000000E+00 0.  1.
         21   -1    0    0  501  502 -0.00000000000E+00 -0.00000000000E+00 -0.12510805952E+03  0.12510805952E+03  0.00000000000E+00 0.  1.
         25    1    1    2    0    0  0.72161969970E+02  0.67340119331E+02  0.10932880999E+03  0.19318341097E+03  0.12500000000E+03 0.  0.
         25    1    1    2    0    0  0.47791897760E+02  0.11714612732E+03  0.58397007121E+03  0.61045337636E+03  0.12500000000E+03 0.  0.
         25    1    1    2    0    0 -0.11995386773E+03 -0.18448624665E+03  0.15900686108E+03  0.29888507399E+03  0.12500000000E+03 0.  0.
</event>
<event>
 5    0  0.5626800E-005  0.2710351E+03  0.7546771E-02  0.1100689E+00
         21   -1    0    0  502  501  0.00000000000E+00  0.00000000000E+00  0.33922943890E+03  0.33922943890E+03  0.00000000000E+00 0. -1.
         21   -1    0    0  501  502 -0.00000000000E+00 -0.00000000000E+00 -0.21654960100E+03  0.21654960100E+03  0.00000000000E+00 0. -1.
         25    1    1    2    0    0  0.13934064717E+03  0.49528909337E+02  0.86835458952E+02  0.21221292549E+03  0.12500000000E+03 0.  0.
         25    1    1    2    0    0 -0.10014212673E+03 -0.11306802857E+03  0.23089538833E+02  0.19741061632E+03  0.12500000000E+03 0.  0.
         25    1    1    2    0    0 -0.39198520434E+02  0.63539119236E+02  0.12754840108E+02  0.14615549810E+03  0.12500000000E+03 0.  0.
</event>
<event>
 5    0  0.5626800E-005  0.2728958E+03  0.7546771E-02  0.1099634E+00
         21   -1    0    0  502  501  0.00000000000E+00  0.00000000000E+00  0.42594336109E+02  0.42594336109E+02  0.00000000000E+00 0. -1.
         21   -1    0    0  501  502 -0.00000000000E+00 -0.00000000000E+00 -0.17484045529E+04  0.17484045529E+04  0.00000000000E+00 0. -1.
         25    1    1    2    0    0 -0.10290169483E+03  0.42561066776E+02 -0.64750798538E+03  0.66879876968E+03  0.12500000000E+03 0.  0.
         25    1    1    2    0    0  0.13643562353E+03 -0.92690284068E+02 -0.41075591777E+03  0.45994737972E+03  0.12500000000E+03 0.  0.
         25    1    1    2    0    0 -0.33533928702E+02  0.50129217291E+02 -0.64754631361E+03  0.66225273957E+03  0.12500000000E+03 0.  0.
</event>
<event>
 5    0  0.5626800E-005  0.2183774E+03  0.7546771E-02  0.1135099E+00
         21   -1    0    0  502  501  0.00000000000E+00  0.00000000000E+00  0.28057703248E+02  0.28057703248E+02  0.00000000000E+00 0. -1.
         21   -1    0    0  501  502 -0.00000000000E+00 -0.00000000000E+00 -0.16996649111E+04  0.16996649111E+04  0.00000000000E+00 0. -1.
         25    1    1    2    0    0 -0.30705116275E+02 -0.32020721627E+02 -0.47970600031E+03  0.49770571376E+03  0.12500000000E+03 0.  0.
         25    1    1    2    0    0  0.73146392678E+02  0.44905155288E+02 -0.41411153893E+03  0.44099913198E+03  0.12500000000E+03 0.  0.
         25    1    1    2    0    0 -0.42441276403E+02 -0.12884433660E+02 -0.77778966857E+03  0.78901776857E+03  0.12500000000E+03 0.  0.
</event>
<event>
 5    0  0.5724402E-005  0.3253413E+03  0.7546771E-02  0.1073217E+00
         21   -1    0    0  502  501  0.00000000000E+00  0.00000000000E+00  0.69086204663E+03  0.69086204663E+03  0.00000000000E+00 0. -1.
         21   -1    0    0  501  502 -0.00000000000E+00 -0.00000000000E+00 -0.15320993475E+03  0.15320993475E+03  0.00000000000E+00 0. -1.
         25    1    1    2    0    0  0.22421485780E+03 -0.82427548045E+02  0.18860253847E+03  0.32903270453E+03  0.12500000000E+03 0.  0.
         25    1    1    2    0    0 -0.10208024108E+03  0.90183172418E+02  0.25921169279E+03  0.31838511568E+03  0.12500000000E+03 0.  0.
         25    1    1    2    0    0 -0.12213461671E+03 -0.77556243729E+01  0.89837880634E+02  0.19665416117E+03  0.12500000000E+03 0.  0.
</event>
<event>
 5    0  0.5626800E-005  0.3821809E+03  0.7546771E-02  0.1050131E+00
         21   -1    0    0  502  501  0.00000000000E+00  0.00000000000E+00  0.54400846563E+03  0.54400846563E+03  0.00000000000E+00 0. -1.
         21   -1    0    0  501  502 -0.00000000000E+00 -0.00000000000E+00 -0.26849259766E+03  0.26849259766E+03  0.00000000000E+00 0. -1.
         25    1    1    2    0    0  0.21658302095E+03 -0.51045557946E+02  0.20098478266E+03  0.32485956475E+03  0.12500000000E+03 0.  0.
         25    1    1    2    0    0 -0.69585340836E+02 -0.80071280140E+02 -0.10375934072E+03  0.19402198419E+03  0.12500000000E+03 0.  0.
         25    1    1    2    0    0 -0.14699768011E+03  0.13111683809E+03  0.17829042603E+03  0.29361951434E+03  0.12500000000E+03 0.  0.
</event>
<event>
 5    0  0.5626800E-005  0.2797924E+03  0.7546771E-02  0.1095802E+00
         21   -1    0    0  502  501  0.00000000000E+00  0.00000000000E+00  0.34755169487E+02  0.34755169487E+02  0.00000000000E+00 0.  1.
         21   -1    0    0  501  502 -0.00000000000E+00 -0.00000000000E+00 -0.22524360888E+04  0.22524360888E+04  0.00000000000E+00 0.  1.
         25    1    1    2    0    0  0.22958143891E+02  0.44772554811E+02 -0.10356108826E+04  0.10443402502E+04  0.12500000000E+03 0.  0.
         25    1    1    2    0    0  0.48717359779E+02  0.76403200708E+02 -0.26533466437E+03  0.30698259615E+03  0.12500000000E+03 0.  0.
         25    1    1    2    0    0 -0.71675503670E+02 -0.12117575552E+03 -0.91673537227E+03  0.93586841187E+03  0.12500000000E+03 0.  0.
</event>
<event>
 5    0  0.5626800E-005  0.2452339E+03  0.7546771E-02  0.1116354E+00
         21   -1    0    0  502  501  0.00000000000E+00  0.00000000000E+00  0.33066431378E+03  0.33066431378E+03  0.00000000000E+00 0.  1.
         21   -1    0    0  501  502 -0.00000000000E+00 -0.00000000000E+00 -0.18187529984E+03  0.18187529984E+03  0.00000000000E+00 0.  1.
         25    1    1    2    0    0  0.71443504577E+01 -0.47827627756E+02  0.67963533663E+02  0.15027496674E+03  0.12500000000E+03 0.  0.
         25    1    1    2    0    0  0.33338352132E+02  0.11031191912E+03  0.12408030185E+03  0.21047823291E+03  0.12500000000E+03 0.  0.
         25    1    1    2    0    0 -0.40482702589E+02 -0.62484291366E+02 -0.43254821564E+02  0.15178641397E+03  0.12500000000E+03 0.  0.
</event>
<event>
 5    0  0.5626800E-005  0.5324237E+03  0.7546771E-02  0.1005646E+00
         21   -1    0    0  502  501  0.00000000000E+00  0.00000000000E+00  0.38048947553E+03  0.38048947553E+03  0.00000000000E+00 0. -1.
         21   -1    0    0  501  502 -0.00000000000E+00 -0.00000000000E+00 -0.74502711462E+03  0.74502711462E+03  0.00000000000E+00 0. -1.
         25    1    1    2    0    0 -0.21339480257E+02 -0.11232650659E+03 -0.33532550898E+03  0.37568712311E+03  0.12500000000E+03 0.  0.
         25    1    1    2    0    0 -0.20777430003E+03 -0.21112447839E+02  0.24721225515E+03  0.34692188502E+03  0.12500000000E+03 0.  0.
         25    1    1    2    0    0  0.22911378029E+03  0.13343895443E+03 -0.27642438527E+03  0.40290758202E+03  0.12500000000E+03 0.  0.
</event>
<event>
 5    0  0.5626800E-005  0.4052081E+03  0.7546771E-02  0.1041991E+00
         21   -1    0    0  502  501  0.00000000000E+00  0.00000000000E+00  0.15489935815E+04  0.15489935815E+04  0.00000000000E+00 0. -1.
         21   -1    0    0  501  502 -0.00000000000E+00 -0.00000000000E+00 -0.10600018469E+03  0.10600018469E+03  0.00000000000E+00 0. -1.
         25    1    1    2    0    0  0.12759734483E+03  0.69208973069E+02  0.11436874869E+04  0.11596193479E+04  0.12500000000E+03 0.  0.
         25    1    1    2    0    0 -0.18965504109E+03  0.10969348870E+02  0.21813669999E+03  0.31511582173E+03  0.12500000000E+03 0.  0.
         25    1    1    2    0    0  0.62057696260E+02 -0.80178321939E+02  0.81169209858E+02  0.18025859647E+03  0.12500000000E+03 0.  0.
</event>
<event>
 5    0  0.5626800E-005  0.2350834E+03  0.7546771E-02  0.1123112E+00
         21   -1    0    0  502  501  0.00000000000E+00  0.00000000000E+00  0.24723491081E+03  0.24723491081E+03  0.00000000000E+00 0. -1.
         21   -1    0    0  501  502 -0.00000000000E+00 -0.00000000000E+00 -0.22352916376E+03  0.22352916376E+03  0.00000000000E+00 0. -1.
         25    1    1    2    0    0 -0.36524495588E+02  0.42809034656E+02  0.91134103000E+01  0.13738524838E+03  0.12500000000E+03 0.  0.
         25    1    1    2    0    0 -0.76401639267E+02 -0.65298450123E+02 -0.14144941364E+02  0.16101607819E+03  0.12500000000E+03 0.  0.
         25    1    1    2    0    0  0.11292613486E+03  0.22489415466E+02  0.28737278115E+02  0.17236274799E+03  0.12500000000E+03 0.  0.
</event>
<event>
 5    0  0.5626800E-005  0.3430058E+03  0.7546771E-02  0.1065523E+00
         21   -1    0    0  502  501  0.00000000000E+00  0.00000000000E+00  0.19247132352E+04  0.19247132352E+04  0.00000000000E+00 0.  1.
         21   -1    0    0  501  502 -0.00000000000E+00 -0.00000000000E+00 -0.61127544973E+02  0.61127544973E+02  0.00000000000E+00 0.  1.
         25    1    1    2    0    0  0.18369007151E+03  0.12031733006E+02  0.11091469213E+04  0.11312465239E+04  0.12500000000E+03 0.  0.
         25    1    1    2    0    0 -0.29678744537E+02 -0.85345140125E+02  0.50265490605E+03  0.52578662535E+03  0.12500000000E+03 0.  0.
         25    1    1    2    0    0 -0.15401132697E+03  0.73313407119E+02  0.25178386287E+03  0.32880763085E+03  0.12500000000E+03 0.  0.
</event>
<event>
 5    0  0.5626800E-005  0.3438371E+03  0.7546771E-02  0.1065173E+00
         21   -1    0    0  502  501  0.00000000000E+00  0.00000000000E+00  0.33912953579E+03  0.33912953579E+03  0.00000000000E+00 0. -1.
         21   -1    0    0  501  502 -0.00000000000E+00 -0.00000000000E+00 -0.34861009955E+03  0.34861009955E+03  0.00000000000E+00 0. -1.
         25    1    1    2    0    0  0.15234629991E+03 -0.15877569770E+02 -0.18422120653E+03  0.27022943077E+03  0.12500000000E+03 0.  0.
         25    1    1    2    0    0 -0.57147773651E+02 -0.10449069359E+03  0.12578946646E+03  0.21361686017E+03  0.12500000000E+03 0.  0.
         25    1    1    2    0    0 -0.95198526264E+02  0.12036826336E+03  0.48951176318E+02  0.20389334440E+03  0.12500000000E+03 0.  0.
</event>
<event>
 5    0  0.5626800E-005  0.3530615E+03  0.7546771E-02  0.1061365E+00
         21   -1    0    0  502  501  0.00000000000E+00  0.00000000000E+00  0.34361962233E+02  0.34361962233E+02  0.00000000000E+00 0. -1.
         21   -1    0    0  501  502 -0.00000000000E+00 -0.00000000000E+00 -0.36276275827E+04  0.36276275827E+04  0.00000000000E+00 0. -1.
         25    1    1    2    0    0 -0.59586177549E+02  0.24650471599E+03 -0.11100980361E+04  0.11455381868E+04  0.12500000000E+03 0.  0.
         25    1    1    2    0    0  0.12597285396E+03 -0.10277788625E+03 -0.11580649371E+04  0.11760832676E+04  0.12500000000E+03 0.  0.
         25    1    1    2    0    0 -0.66386676410E+02 -0.14372682974E+03 -0.13251026473E+04  0.13403680906E+04  0.12500000000E+03 0.  0.
</event>
<event>
 5    0  0.5626800E-005  0.3261000E+03  0.7546771E-02  0.1072876E+00
         21   -1    0    0  502  501  0.00000000000E+00  0.00000000000E+00  0.16489874115E+03  0.16489874115E+03  0.00000000000E+00 0.  1.
         21   -1    0    0  501  502 -0.00000000000E+00 -0.00000000000E+00 -0.64488805480E+03  0.64488805480E+03  0.00000000000E+00 0.  1.
         25    1    1    2    0    0  0.17801367269E+03 -0.77522969688E+02 -0.23453049569E+03  0.32913254458E+03  0.12500000000E+03 0.  0.
         25    1    1    2    0    0 -0.73948290807E+02  0.13168497864E+03 -0.19484201368E+02  0.19701248035E+03  0.12500000000E+03 0.  0.
         25    1    1    2    0    0 -0.10406538189E+03 -0.54162008951E+02 -0.22597461659E+03  0.28364177102E+03  0.12500000000E+03 0.  0.
</event>
<event>
 5    0  0.5626800E-005  0.3633751E+03  0.7546771E-02  0.1057255E+00
         21   -1    0    0  502  501  0.00000000000E+00  0.00000000000E+00  0.41706541104E+03  0.41706541104E+03  0.00000000000E+00 0. -1.
         21   -1    0    0  501  502 -0.00000000000E+00 -0.00000000000E+00 -0.31659647103E+03  0.31659647103E+03  0.00000000000E+00 0. -1.
         25    1    1    2    0    0 -0.25133118995E+03  0.75909783742E+02 -0.38569544817E+02  0.29332963044E+03  0.12500000000E+03 0.  0.
         25    1    1    2    0    0  0.12369298162E+03 -0.17098271867E+02 -0.39453640826E+02  0.18103561632E+03  0.12500000000E+03 0.  0.
         25    1    1    2    0    0  0.12763820833E+03 -0.58811511875E+02  0.17849212565E+03  0.25929663529E+03  0.12500000000E+03 0.  0.
</event>
<event>
 5    0  0.5626800E-005  0.3455619E+03  0.7546771E-02  0.1064451E+00
         21   -1    0    0  502  501  0.00000000000E+00  0.00000000000E+00  0.10631173379E+04  0.10631173379E+04  0.00000000000E+00 0.  1.
         21   -1    0    0  501  502 -0.00000000000E+00 -0.00000000000E+00 -0.11232347054E+03  0.11232347054E+03  0.00000000000E+00 0.  1.
         25    1    1    2    0    0  0.98808325891E+02 -0.10189947156E+03  0.51545990689E+03  0.54906329615E+03  0.12500000000E+03 0.  0.
         25    1    1    2    0    0 -0.17350048258E+02  0.19901067715E+02  0.43785336097E+03  0.45611143636E+03  0.12500000000E+03 0.  0.
         25    1    1    2    0    0 -0.81458277633E+02  0.81998403848E+02 -0.25194005162E+01  0.17026607592E+03  0.12500000000E+03 0.  0.
</event>
<event>
 5    0  0.5789549E-005  0.2711085E+03  0.7546771E-02  0.1100647E+00
         21   -1    0    0  502  501  0.00000000000E+00  0.00000000000E+00  0.52909196367E+03  0.52909196367E+03  0.00000000000E+00 0. -1.
         21   -1    0    0  501  502 -0.00000000000E+00 -0.00000000000E+00 -0.13891692103E+03  0.13891692103E+03  0.00000000000E+00 0. -1.
         25    1    1    2    0    0  0.87614566604E+01 -0.25421709108E+02  0.20373433242E+03  0.24053212805E+03  0.12500000000E+03 0.  0.
         25    1    1    2    0    0 -0.70058276450E+02  0.68791693333E+02 -0.34597462407E+02  0.16267281142E+03  0.12500000000E+03 0.  0.
         25    1    1    2    0    0  0.61296819789E+02 -0.43369984226E+02  0.22103817263E+03  0.26480394522E+03  0.12500000000E+03 0.  0.
</event>
<event>
 5    0  0.5626800E-005  0.2446811E+03  0.7546771E-02  0.1116713E+00
         21   -1    0    0  502  501  0.00000000000E+00  0.00000000000E+00  0.66438459893E+02  0.66438459893E+02  0.00000000000E+00 0. -1.
         21   -1    0    0  501  502 -0.00000000000E+00 -0.00000000000E+00 -0.90111705800E+03  0.90111705800E+03  0.00000000000E+00 0. -1.
         25    1    1    2    0    0 -0.56057081149E+02  0.11524151933E+03 -0.25962235089E+03  0.31535974570E+03  0.12500000000E+03 0.  0.
         25    1    1    2    0    0 -0.27018205510E+02 -0.24094574966E+02 -0.20905439527E+03  0.24625042570E+03  0.12500000000E+03 0.  0.
         25    1    1    2    0    0  0.83075286658E+02 -0.91146944363E+02 -0.36600185194E+03  0.40594534649E+03  0.12500000000E+03 0.  0.
</event>
<event>
 5    0  0.5626800E-005  0.4098723E+03  0.7546771E-02  0.1040414E+00
         21   -1    0    0  502  501  0.00000000000E+00  0.00000000000E+00  0.43180151268E+03  0.43180151268E+03  0.00000000000E+00 0. -1.
         21   -1    0    0  501  502 -0.00000000000E+00 -0.00000000000E+00 -0.38905678782E+03  0.38905678782E+03  0.00000000000E+00 0. -1.
         25    1    1    2    0    0 -0.52128114334E+02  0.21133194970E+02  0.27128184383E+03  0.30394537507E+03  0.12500000000E+03 0.  0.
         25    1    1    2    0    0 -0.67931477541E+02 -0.14533568042E+03 -0.22549973058E+03  0.30366473970E+03  0.12500000000E+03 0.  0.
         25    1    1    2    0    0  0.12005959188E+03  0.12420248545E+03 -0.30373883804E+01  0.21324818574E+03  0.12500000000E+03 0.  0.
</event>
<event>
 5    0  0.5626800E-005  0.3893868E+03  0.7546771E-02  0.1047518E+00
         21   -1    0    0  502  501  0.00000000000E+00  0.00000000000E+00  0.17957888978E+03  0.17957888978E+03  0.00000000000E+00 0.  1.
         21   -1    0    0  501  502 -0.00000000000E+00 -0.00000000000E+00 -0.84432007363E+03  0.84432007363E+03  0.00000000000E+00 0.  1.
         25    1    1    2    0    0 -0.50308055041E+02 -0.11656816695E+03 -0.18795815719E+03  0.25898321723E+03  0.12500000000E+03 0.  0.
         25    1    1    2    0    0 -0.17309797483E+03 -0.10151054604E+03 -0.30906651662E+03  0.38912004772E+03  0.12500000000E+03 0.  0.
         25    1    1    2    0    0  0.22340602987E+03  0.21807871300E+03 -0.16771651004E+03  0.37579569846E+03  0.12500000000E+03 0.  0.
</event>
<event>
 5    0  0.5626800E-005  0.4117739E+03  0.7546771E-02  0.1039777E+00
         21   -1    0    0  502  501  0.00000000000E+00  0.00000000000E+00  0.84453531282E+03  0.84453531282E+03  0.00000000000E+00 0.  1.
         21   -1    0    0  501  502 -0.00000000000E+00 -0.00000000000E+00 -0.20077049633E+03  0.20077049633E+03  0.00000000000E+00 0.  1.
         25    1    1    2    0    0  0.97289554373E+02  0.22098253919E+03  0.30197746978E+02  0.27356067689E+03  0.12500000000E+03 0.  0.
         25    1    1    2    0    0 -0.10985601003E+03  0.28531445716E+02  0.34563180359E+03  0.38466703782E+03  0.12500000000E+03 0.  0.
         25    1    1    2    0    0  0.12566455655E+02 -0.24951398491E+03  0.26793526592E+03  0.38707809444E+03  0.12500000000E+03 0.  0.
</event>
<event>
 5    0  0.5626800E-005  0.3015927E+03  0.7546771E-02  0.1084447E+00
         21   -1    0    0  502  501  0.00000000000E+00  0.00000000000E+00  0.79123537394E+03  0.79123537394E+03  0.00000000000E+00 0. -1.
         21   -1    0    0  501  502 -0.00000000000E+00 -0.00000000000E+00 -0.11495711548E+03  0.11495711548E+03  0.00000000000E+00 0. -1.
         25    1    1    2    0    0  0.82718484710E+02  0.88062873709E+02  0.35510602913E+03  0.39537666770E+03  0.12500000000E+03 0.  0.
         25    1    1    2    0    0 -0.77924799942E+02 -0.18527145820E+03  0.16632499681E+03  0.28928669557E+03  0.12500000000E+03 0.  0.
         25    1    1    2    0    0 -0.47936847682E+01  0.97208584494E+02  0.15484723253E+03  0.22152912615E+03  0.12500000000E+03 0.  0.
</event>
<event>
 5    0  0.5626800E-005  0.2637175E+03  0.7546771E-02  0.1104930E+00
         21   -1    0    0  502  501  0.00000000000E+00  0.00000000000E+00  0.98266315254E+02  0.98266315254E+02  0.00000000000E+00 0.  1.
         21   -1    0    0  501  502 -0.00000000000E+00 -0.00000000000E+00 -0.70773900020E+03  0.70773900020E+03  0.00000000000E+00 0.  1.
         25    1    1    2    0    0  0.53409937166E+00 -0.96568308180E+02 -0.34587803907E+03  0.38023984709E+03  0.12500000000E+03 0.  0.
         25    1    1    2    0    0 -0.58442739107E+02  0.11539417343E+03 -0.83695695523E+02  0.19839692151E+03  0.12500000000E+03 0.  0.
         25    1    1    2    0    0  0.57908639736E+02 -0.18825865247E+02 -0.17989895035E+03  0.22736854685E+03  0.12500000000E+03 0.  0.
</event>
<event>
 5    0  0.5626800E-005  0.2377338E+03  0.7546771E-02  0.1121312E+00
         21   -1    0    0  502  501  0.00000000000E+00  0.00000000000E+00  0.65581380900E+03  0.65581380900E+03  0.00000000000E+00 0.  1.
         21   -1    0    0  501  502 -0.00000000000E+00 -0.00000000000E+00 -0.86178936896E+02  0.86178936896E+02  0.00000000000E+00 0.  1.
         25    1    1    2    0    0 -0.90704977597E+02 -0.62706575874E+02  0.15950778393E+03  0.23071029616E+03  0.12500000000E+03 0.  0.
         25    1    1    2    0    0  0.96434166003E+02  0.57630809491E+02  0.30295903953E+03  0.34645351522E+03  0.12500000000E+03 0.  0.
         25    1    1    2    0    0 -0.57291884059E+01  0.50757663826E+01  0.10716804863E+03  0.16482893451E+03  0.12500000000E+03 0.  0.
</event>
<event>
 5    0  0.5626800E-005  0.6347911E+03  0.7546771E-02  0.9835744E-01
         21   -1    0    0  502  501  0.00000000000E+00  0.00000000000E+00  0.16173361573E+03  0.16173361573E+03  0.00000000000E+00 0.  1.
         21   -1    0    0  501  502 -0.00000000000E+00 -0.00000000000E+00 -0.24915029599E+04  0.24915029599E+04  0.00000000000E+00 0.  1.
         25    1    1    2    0    0 -0.80186272694E+02 -0.44983983713E+02  0.94478068362E+02  0.18167141360E+03  0.12500000000E+03 0.  0.
         25    1    1    2    0    0  0.16381547320E+02  0.96596102902E+02 -0.27841788438E+03  0.32053187131E+03  0.12500000000E+03 0.  0.
         25    1    1    2    0    0  0.63804725374E+02 -0.51612119189E+02 -0.21458295281E+04  0.21510332907E+04  0.12500000000E+03 0.  0.
</event>
<event>
 5    0  0.5626800E-005  0.3912297E+03  0.7546771E-02  0.1046860E+00
         21   -1    0    0  502  501  0.00000000000E+00  0.00000000000E+00  0.23480373337E+04  0.23480373337E+04  0.00000000000E+00 0. -1.
         21   -1    0    0  501  502 -0.00000000000E+00 -0.00000000000E+00 -0.65186638566E+02  0.65186638566E+02  0.00000000000E+00 0. -1.
         25    1    1    2    0    0 -0.11721601238E+03  0.92456436183E+02  0.30845732843E+03  0.36477213382E+03  0.12500000000E+03 0.  0.
         25    1    1    2    0    0  0.19458815738E+03 -0.15407941040E+03  0.17572118824E+04  0.17790513245E+04  0.12500000000E+03 0.  0.
         25    1    1    2    0    0 -0.77372144998E+02  0.61622974213E+02  0.21718148434E+03  0.26940051394E+03  0.12500000000E+03 0.  0.
</event>
<event>
 5    0  0.5626800E-005  0.3882020E+03  0.7546771E-02  0.1047943E+00
         21   -1    0    0  502  501  0.00000000000E+00  0.00000000000E+00  0.52359099278E+03  0.52359099278E+03  0.00000000000E+00 0.  1.
         21   -1    0    0  501  502 -0.00000000000E+00 -0.00000000000E+00 -0.28782163707E+03  0.28782163707E+03  0.00000000000E+00 0.  1.
         25    1    1    2    0    0  0.22613409298E+03 -0.18359871305E+03  0.24786216861E+03  0.40237516085E+03  0.12500000000E+03 0.  0.
         25    1    1    2    0    0 -0.72530484659E+02  0.14907170514E+03  0.38708365880E+00  0.20762512929E+03  0.12500000000E+03 0.  0.
         25    1    1    2    0    0 -0.15360360832E+03  0.34527007910E+02 -0.12479896558E+02  0.20141233970E+03  0.12500000000E+03 0.  0.
</event>
<event>
 5    0  0.5626800E-005  0.2515122E+03  0.7546771E-02  0.1112353E+00
         21   -1    0    0  502  501  0.00000000000E+00  0.00000000000E+00  0.65580977634E+03  0.65580977634E+03  0.00000000000E+00 0.  1.
         21   -1    0    0  501  502 -0.00000000000E+00 -0.00000000000E+00 -0.96458412097E+02  0.96458412097E+02  0.00000000000E+00 0.  1.
         25    1    1    2    0    0 -0.11421021466E+03  0.47184137544E+02  0.31711624319E+03  0.36257141043E+03  0.12500000000E+03 0.  0.
         25    1    1    2    0    0  0.27547452432E+02 -0.63977682876E+02  0.70003278396E+02  0.15930306032E+03  0.12500000000E+03 0.  0.
         25    1    1    2    0    0  0.86662762231E+02  0.16793545332E+02  0.17223184267E+03  0.23039371769E+03  0.12500000000E+03 0.  0.
</event>
<event>
 5    0  0.5626800E-005  0.2208945E+03  0.7546771E-02  0.1133218E+00
         21   -1    0    0  502  501  0.00000000000E+00  0.00000000000E+00  0.22282659649E+03  0.22282659649E+03  0.00000000000E+00 0. -1.
         21   -1    0    0  501  502 -0.00000000000E+00 -0.00000000000E+00 -0.21897923711E+03  0.21897923711E+03  0.00000000000E+00 0. -1.
         25    1    1    2    0    0  0.28415022870E+02  0.56523400200E+02 -0.31379550955E+02  0.14356874490E+03  0.12500000000E+03 0.  0.
         25    1    1    2    0    0 -0.55681133713E+02 -0.19122037301E+02 -0.41714984113E+02  0.14433011072E+03  0.12500000000E+03 0.  0.
         25    1    1    2    0    0  0.27266110844E+02 -0.37401362899E+02  0.76941894448E+02  0.15390697797E+03  0.12500000000E+03 0.  0.
</event>
<event>
 5    0  0.5626800E-005  0.4067775E+03  0.7546771E-02  0.1041458E+00
         21   -1    0    0  502  501  0.00000000000E+00  0.00000000000E+00  0.36801622096E+03  0.36801622096E+03  0.00000000000E+00 0. -1.
         21   -1    0    0  501  502 -0.00000000000E+00 -0.00000000000E+00 -0.44962123426E+03  0.44962123426E+03  0.00000000000E+00 0. -1.
         25    1    1    2    0    0 -0.11307188714E+03 -0.13696941420E+03  0.26049542990E+02  0.21874517315E+03  0.12500000000E+03 0.  0.
         25    1    1    2    0    0 -0.23994662346E+02 -0.18040114058E+03 -0.55006166260E+02  0.22753240136E+03  0.12500000000E+03 0.  0.
         25    1    1    2    0    0  0.13706654949E+03  0.31737055478E+03 -0.52648390025E+02  0.37135988071E+03  0.12500000000E+03 0.  0.
</event>
<event>
 5    0  0.5626800E-005  0.2210174E+03  0.7546771E-02  0.1133127E+00
         21   -1    0    0  502  501  0.00000000000E+00  0.00000000000E+00  0.33995255909E+03  0.33995255909E+03  0.00000000000E+00 0.  1.
         21   -1    0    0  501  502 -0.00000000000E+00 -0.00000000000E+00 -0.14369269030E+03  0.14369269030E+03  0.00000000000E+00 0.  1.
         25    1    1    2    0    0 -0.35731291916E+02  0.95214531010E+02  0.54384826405E+02  0.17007422345E+03  0.12500000000E+03 0.  0.
         25    1    1    2    0    0  0.83063541561E+01 -0.19839583765E+02  0.38272531171E+02  0.13248543786E+03  0.12500000000E+03 0.  0.
         25    1    1    2    0    0  0.27424937760E+02 -0.75374947245E+02  0.10360251121E+03  0.18108558809E+03  0.12500000000E+03 0.  0.
</event>
<event>
 5    0  0.5626800E-005  0.3125987E+03  0.7546771E-02  0.1079107E+00
         21   -1    0    0  502  501  0.00000000000E+00  0.00000000000E+00  0.10589616164E+03  0.10589616164E+03  0.00000000000E+00 0. -1.
         21   -1    0    0  501  502 -0.00000000000E+00 -0.00000000000E+00 -0.92277165327E+03  0.92277165327E+03  0.00000000000E+00 0. -1.
         25    1    1    2    0    0  0.26879561048E+01 -0.17212446598E+03 -0.96851449225E+02  0.23375042271E+03  0.12500000000E+03 0.  0.
         25    1    1    2    0    0  0.54016380171E+02  0.12146704214E+03 -0.31185378056E+03  0.36131674761E+03  0.12500000000E+03 0.  0.
         25    1    1    2    0    0 -0.56704336275E+02  0.50657423844E+02 -0.40817026185E+03  0.43360064460E+03  0.12500000000E+03 0.  0.
</event>
<event>
 5    0  0.5626800E-005  0.2543727E+03  0.7546771E-02  0.1110572E+00
         21   -1    0    0  502  501  0.00000000000E+00  0.00000000000E+00  0.32188905518E+03  0.32188905518E+03  0.00000000000E+00 0. -1.
         21   -1    0    0  501  502 -0.00000000000E+00 -0.00000000000E+00 -0.20101799615E+03  0.20101799615E+03  0.00000000000E+00 0. -1.
         25    1    1    2    0    0 -0.60839447525E+02  0.94112231888E+02  0.87149147349E+02  0.18915211987E+03  0.12500000000E+03 0.  0.
         25    1    1    2    0    0  0.43087861004E+02 -0.11162003960E+03 -0.51371776795E+02  0.18049835583E+03  0.12500000000E+03 0.  0.
         25    1    1    2    0    0  0.17751586520E+02  0.17507807713E+02  0.85093688476E+02  0.15325657563E+03  0.12500000000E+03 0.  0.
</event>
<event>
 5    0  0.5626800E-005  0.2591416E+03  0.7546771E-02  0.1107660E+00
         21   -1    0    0  502  501  0.00000000000E+00  0.00000000000E+00  0.13917854562E+03  0.13917854562E+03  0.00000000000E+00 0.  1.
         21   -1    0    0  501  502 -0.00000000000E+00 -0.00000000000E+00 -0.48250499195E+03  0.48250499195E+03  0.00000000000E+00 0.  1.
         25    1    1    2    0    0 -0.88349698216E+02  0.96110726210E+02 -0.93944743429E+02  0.20369967031E+03  0.12500000000E+03 0.  0.
         25    1    1    2    0    0 -0.40718680929E+02 -0.73233605123E+00 -0.86306721284E+02  0.15726537264E+03  0.12500000000E+03 0.  0.
         25    1    1    2    0    0  0.12906837914E+03 -0.95378390159E+02 -0.16307498162E+03  0.26071849462E+03  0.12500000000E+03 0.  0.
</event>
<event>
 5    0  0.5626800E-005  0.3800183E+03  0.7546771E-02  0.1050927E+00
         21   -1    0    0  502  501  0.00000000000E+00  0.00000000000E+00  0.10699312131E+03  0.10699312131E+03  0.00000000000E+00 0. -1.
         21   -1    0    0  501  502 -0.00000000000E+00 -0.00000000000E+00 -0.13497497829E+04  0.13497497829E+04  0.00000000000E+00 0. -1.
         25    1    1    2    0    0  0.10573608948E+03  0.17869690597E+03 -0.22970752690E+03  0.33392102769E+03  0.12500000000E+03 0.  0.
         25    1    1    2    0    0 -0.10299550342E+03 -0.11205776093E+03 -0.94562312368E+03  0.96591568346E+03  0.12500000000E+03 0.  0.
         25    1    1    2    0    0 -0.27405860607E+01 -0.66639145038E+02 -0.67426011017E+02  0.15690619307E+03  0.12500000000E+03 0.  0.
</event>
<event>
 5    0  0.5626800E-005  0.3450338E+03  0.7546771E-02  0.1064672E+00
         21   -1    0    0  502  501  0.00000000000E+00  0.00000000000E+00  0.77998795483E+03  0.77998795483E+03  0.00000000000E+00 0. -1.
         21   -1    0    0  501  502 -0.00000000000E+00 -0.00000000000E+00 -0.15262843593E+03  0.15262843593E+03  0.00000000000E+00 0. -1.
         25    1    1    2    0    0 -0.23375264981E+03  0.60215012244E+02  0.35410039786E+03  0.44640591479E+03  0.12500000000E+03 0.  0.
         25    1    1    2    0    0  0.80672703730E+02  0.51011043730E+02  0.18510743028E+03  0.24289909932E+03  0.12500000000E+03 0.  0.
         25    1    1    2    0    0  0.15307994608E+03 -0.11122605597E+03  0.88151690773E+02  0.24331137665E+03  0.12500000000E+03 0.  0.
</event>
<event>
 5    0  0.5626800E-005  0.2302163E+03  0.7546771E-02  0.1126488E+00
         21   -1    0    0  502  501  0.00000000000E+00  0.00000000000E+00  0.15480428589E+03  0.15480428589E+03  0.00000000000E+00 0. -1.
         21   -1    0    0  501  502 -0.00000000000E+00 -0.00000000000E+00 -0.34236479477E+03  0.34236479477E+03  0.00000000000E+00 0. -1.
         25    1    1    2    0    0  0.58966403022E+02  0.49412817347E+02 -0.32607380913E+01  0.14681381276E+03  0.12500000000E+03 0.  0.
         25    1    1    2    0    0  0.26630911911E+02  0.63539748855E+01 -0.12352795881E+03  0.17785875034E+03  0.12500000000E+03 0.  0.
         25    1    1    2    0    0 -0.85597314933E+02 -0.55766792232E+02 -0.60771811982E+02  0.17249651756E+03  0.12500000000E+03 0.  0.
</event>
<event>
 5    0  0.5626800E-005  0.3599192E+03  0.7546771E-02  0.1058616E+00
         21   -1    0    0  502  501  0.00000000000E+00  0.00000000000E+00  0.45148641064E+03  0.45148641064E+03  0.00000000000E+00 0. -1.
         21   -1    0    0  501  502 -0.00000000000E+00 -0.00000000000E+00 -0.28692292077E+03  0.28692292077E+03  0.00000000000E+00 0. -1.
         25    1    1    2    0    0  0.10072220731E+03 -0.39768018263E+02  0.48970314111E+02  0.17248057858E+03  0.12500000000E+03 0.  0.
         25    1    1    2    0    0 -0.24582484058E+03  0.16673831061E+03  0.90768118157E+02  0.33480646312E+03  0.12500000000E+03 0.  0.
         25    1    1    2    0    0  0.14510263327E+03 -0.12697029235E+03  0.24825057604E+02  0.23112228972E+03  0.12500000000E+03 0.  0.
</event>
<event>
 5    0  0.5626800E-005  0.2495618E+03  0.7546771E-02  0.1113582E+00
         21   -1    0    0  502  501  0.00000000000E+00  0.00000000000E+00  0.16901409234E+04  0.16901409234E+04  0.00000000000E+00 0. -1.
         21   -1    0    0  501  502 -0.00000000000E+00 -0.00000000000E+00 -0.36849655998E+02  0.36849655998E+02  0.00000000000E+00 0. -1.
         25    1    1    2    0    0 -0.35550580429E+01 -0.14803283937E+03  0.82817874284E+03  0.85054770005E+03  0.12500000000E+03 0.  0.
         25    1    1    2    0    0 -0.15487964650E+02  0.59463184848E+02  0.34243746099E+03  0.36968116274E+03  0.12500000000E+03 0.  0.
         25    1    1    2    0    0  0.19043022693E+02  0.88569654519E+02  0.48267506354E+03  0.50676171656E+03  0.12500000000E+03 0.  0.
</event>
<event>
 5    0  0.5626800E-005  0.3511392E+03  0.7546771E-02  0.1062148E+00
         21   -1    0    0  502  501  0.00000000000E+00  0.00000000000E+00  0.75219506188E+03  0.75219506188E+03  0.00000000000E+00 0. -1.
         21   -1    0    0  501  502 -0.00000000000E+00 -0.00000000000E+00 -0.16391853311E+03  0.16391853311E+03  0.00000000000E+00 0. -1.
         25    1    1    2    0    0 -0.13156078781E+03  0.19848275393E+03  0.63144948721E+02  0.27625337834E+03  0.12500000000E+03 0.  0.
         25    1    1    2    0    0  0.63409561809E+02 -0.10337597347E+03  0.36947138392E+03  0.40846232134E+03  0.12500000000E+03 0.  0.
         25    1    1    2    0    0  0.68151226001E+02 -0.95106780459E+02  0.15566019613E+03  0.23139789531E+03  0.12500000000E+03 0.  0.
</event>
<event>
 5    0  0.5693106E-005  0.3497474E+03  0.7546771E-02  0.1062719E+00
         21   -1    0    0  502  501  0.00000000000E+00  0.00000000000E+00  0.77798394608E+03  0.77798394608E+03  0.00000000000E+00 0.  1.
         21   -1    0    0  501  502 -0.00000000000E+00 -0.00000000000E+00 -0.15723110732E+03  0.15723110732E+03  0.00000000000E+00 0.  1.
         25    1    1    2    0    0 -0.64672825876E+02  0.43020994834E+02 -0.43183713055E+02  0.15337279249E+03  0.12500000000E+03 0.  0.
         25    1    1    2    0    0  0.15091741817E+03  0.82772895822E+02  0.29774824766E+03  0.36593228660E+03  0.12500000000E+03 0.  0.
         25    1    1    2    0    0 -0.86244592293E+02 -0.12579389066E+03  0.36618830417E+03  0.41590997431E+03  0.12500000000E+03 0.  0.
</event>
<event>
 5    0  0.5626800E-005  0.4859357E+03  0.7546771E-02  0.1017517E+00
         21   -1    0    0  502  501  0.00000000000E+00  0.00000000000E+00  0.39126876218E+03  0.39126876218E+03  0.00000000000E+00 0. -1.
         21   -1    0    0  501  502 -0.00000000000E+00 -0.00000000000E+00 -0.60350717550E+03  0.60350717550E+03  0.00000000000E+00 0. -1.
         25    1    1    2    0    0 -0.11768412399E+03  0.17148931570E+03 -0.40997940809E+03  0.47640975378E+03  0.12500000000E+03 0.  0.
         25    1    1    2    0    0  0.14488290316E+03 -0.21890994396E+03  0.23841119937E+03  0.37600202018E+03  0.12500000000E+03 0.  0.
         25    1    1    2    0    0 -0.27198779168E+02  0.47420628260E+02 -0.40670204596E+02  0.14236416373E+03  0.12500000000E+03 0.  0.
</event>
<event>
 5    0  0.5626800E-005  0.8268718E+03  0.7546771E-02  0.9521916E-01
         21   -1    0    0  502  501  0.00000000000E+00  0.00000000000E+00  0.82560502007E+03  0.82560502007E+03  0.00000000000E+00 0.  1.
         21   -1    0    0  501  502 -0.00000000000E+00 -0.00000000000E+00 -0.82814050325E+03  0.82814050325E+03  0.00000000000E+00 0.  1.
         25    1    1    2    0    0  0.68845943741E+03 -0.12977515787E+03 -0.37779144141E+03  0.80571047019E+03  0.12500000000E+03 0.  0.
         25    1    1    2    0    0 -0.23806004391E+03  0.11378617365E+03  0.16355197263E+03  0.33465523389E+03  0.12500000000E+03 0.  0.
         25    1    1    2    0    0 -0.45039939350E+03  0.15988984219E+02  0.21170398561E+03  0.51337981924E+03  0.12500000000E+03 0.  0.
</event>
<event>
 5    0  0.5626800E-005  0.2279670E+03  0.7546771E-02  0.1128079E+00
         21   -1    0    0  502  501  0.00000000000E+00  0.00000000000E+00  0.55759145361E+02  0.55759145361E+02  0.00000000000E+00 0. -1.
         21   -1    0    0  501  502 -0.00000000000E+00 -0.00000000000E+00 -0.93202534524E+03  0.93202534524E+03  0.00000000000E+00 0. -1.
         25    1    1    2    0    0 -0.21658523682E+02 -0.73726575218E+02 -0.35975962218E+03  0.38853144698E+03  0.12500000000E+03 0.  0.
         25    1    1    2    0    0  0.69077398091E+02  0.54920023846E+02 -0.36803929448E+03  0.39857975140E+03  0.12500000000E+03 0.  0.
         25    1    1    2    0    0 -0.47418874409E+02  0.18806551372E+02 -0.14846728323E+03  0.20067329223E+03  0.12500000000E+03 0.  0.
</event>
<event>
 5    0  0.5626800E-005  0.2500028E+03  0.7546771E-02  0.1113303E+00
         21   -1    0    0  502  501  0.00000000000E+00  0.00000000000E+00  0.13003485764E+03  0.13003485764E+03  0.00000000000E+00 0. -1.
         21   -1    0    0  501  502 -0.00000000000E+00 -0.00000000000E+00 -0.48065129586E+03  0.48065129586E+03  0.00000000000E+00 0. -1.
         25    1    1    2    0    0 -0.32233014866E+02 -0.47709629223E+02 -0.13027010763E+03  0.18950059871E+03  0.12500000000E+03 0.  0.
         25    1    1    2    0    0 -0.84526302916E+02  0.55758651782E+02 -0.18710112479E+03  0.24674998284E+03  0.12500000000E+03 0.  0.
         25    1    1    2    0    0  0.11675931778E+03 -0.80490225590E+01 -0.33245205799E+02  0.17443557195E+03  0.12500000000E+03 0.  0.
</event>
<event>
 5    0  0.5626800E-005  0.2919369E+03  0.7546771E-02  0.1089342E+00
         21   -1    0    0  502  501  0.00000000000E+00  0.00000000000E+00  0.73945047640E+02  0.73945047640E+02  0.00000000000E+00 0. -1.
         21   -1    0    0  501  502 -0.00000000000E+00 -0.00000000000E+00 -0.11525740472E+04  0.11525740472E+04  0.00000000000E+00 0. -1.
         25    1    1    2    0    0 -0.69836422342E+02 -0.24423979236E+02 -0.11650802369E+03  0.18620627334E+03  0.12500000000E+03 0.  0.
         25    1    1    2    0    0 -0.10921419883E+03 -0.24594336150E+01 -0.30378288491E+03  0.34618323357E+03  0.12500000000E+03 0.  0.
         25    1    1    2    0    0  0.17905062118E+03  0.26883412851E+02 -0.65833809099E+03  0.69412958796E+03  0.12500000000E+03 0.  0.
</event>
<event>
 5    0  0.5626800E-005  0.3762104E+03  0.7546771E-02  0.1052343E+00
         21   -1    0    0  502  501  0.00000000000E+00  0.00000000000E+00  0.12681119089E+03  0.12681119089E+03  0.00000000000E+00 0.  1.
         21   -1    0    0  501  502 -0.00000000000E+00 -0.00000000000E+00 -0.11161026034E+04  0.11161026034E+04  0.00000000000E+00 0.  1.
         25    1    1    2    0    0  0.11734794723E+03  0.19893396541E+03 -0.90790417103E+02  0.27787256639E+03  0.12500000000E+03 0.  0.
         25    1    1    2    0    0 -0.10375955286E+03 -0.91328589842E+02 -0.45675123265E+03  0.49330887349E+03  0.12500000000E+03 0.  0.
         25    1    1    2    0    0 -0.13588394369E+02 -0.10760537557E+03 -0.44174976277E+03  0.47173235443E+03  0.12500000000E+03 0.  0.
</event>
<event>
 5    0  0.5626800E-005  0.3367535E+03  0.7546771E-02  0.1068187E+00
         21   -1    0    0  502  501  0.00000000000E+00  0.00000000000E+00  0.18101051000E+04  0.18101051000E+04  0.00000000000E+00 0. -1.
         21   -1    0    0  501  502 -0.00000000000E+00 -0.00000000000E+00 -0.62649905656E+02  0.62649905656E+02  0.00000000000E+00 0. -1.
         25    1    1    2    0    0  0.76751357056E+02 -0.89263163315E+02  0.26803115583E+03  0.31831491268E+03  0.12500000000E+03 0.  0.
         25    1    1    2    0    0 -0.10705916089E+03 -0.65148169448E+02  0.23665613459E+03  0.29552846556E+03  0.12500000000E+03 0.  0.
         25    1    1    2    0    0  0.30307803834E+02  0.15441133276E+03  0.12427679039E+04  0.12589116275E+04  0.12500000000E+03 0.  0.
</event>
<event>
 5    0  0.5626800E-005  0.2673816E+03  0.7546771E-02  0.1102788E+00
         21   -1    0    0  502  501  0.00000000000E+00  0.00000000000E+00  0.10174536792E+03  0.10174536792E+03  0.00000000000E+00 0. -1.
         21   -1    0    0  501  502 -0.00000000000E+00 -0.00000000000E+00 -0.70266501736E+03  0.70266501736E+03  0.00000000000E+00 0. -1.
         25    1    1    2    0    0  0.14081442139E+03 -0.50984808499E+02 -0.23381012573E+03  0.30450012621E+03  0.12500000000E+03 0.  0.
         25    1    1    2    0    0 -0.15948080763E+03  0.35959072552E+02 -0.27170985250E+03  0.34084956630E+03  0.12500000000E+03 0.  0.
         25    1    1    2    0    0  0.18666386237E+02  0.15025735947E+02 -0.95399671222E+02  0.15906069277E+03  0.12500000000E+03 0.  0.
</event>
<event>
 5    0  0.5626800E-005  0.3955807E+03  0.7546771E-02  0.1045321E+00
         21   -1    0    0  502  501  0.00000000000E+00  0.00000000000E+00  0.32564372620E+03  0.32564372620E+03  0.00000000000E+00 0.  1.
         21   -1    0    0  501  502 -0.00000000000E+00 -0.00000000000E+00 -0.48053774097E+03  0.48053774097E+03  0.00000000000E+00 0. -1.
         25    1    1    2    0    0  0.16094343195E+02 -0.19101498674E+03 -0.10173510559E+03  0.25044118022E+03  0.12500000000E+03 0.  0.
         25    1    1    2    0    0  0.16319202658E+03  0.22033571434E+03 -0.12144716934E+03  0.32489056542E+03  0.12500000000E+03 0.  0.
         25    1    1    2    0    0 -0.17928636978E+03 -0.29320727604E+02  0.68288260155E+02  0.23084972153E+03  0.12500000000E+03 0.  0.
</event>
<event>
 5    0  0.5626800E-005  0.3397642E+03  0.7546771E-02  0.1066896E+00
         21   -1    0    0  502  501  0.00000000000E+00  0.00000000000E+00  0.31945181838E+03  0.31945181838E+03  0.00000000000E+00 0. -1.
         21   -1    0    0  501  502 -0.00000000000E+00 -0.00000000000E+00 -0.36136814482E+03  0.36136814482E+03  0.00000000000E+00 0. -1.
         25    1    1    2    0    0 -0.12061348266E+02  0.83316793851E+02  0.20046272817E+03  0.25079367944E+03  0.12500000000E+03 0.  0.
         25    1    1    2    0    0 -0.94805250716E+02 -0.32705277398E+02 -0.41532255610E+02  0.16555240557E+03  0.12500000000E+03 0.  0.
         25    1    1    2    0    0  0.10686659898E+03 -0.50611516453E+02 -0.20084679901E+03  0.26447387820E+03  0.12500000000E+03 0.  0.
</event>
<event>
 5    0  0.5626800E-005  0.2717389E+03  0.7546771E-02  0.1100288E+00
         21   -1    0    0  502  501  0.00000000000E+00  0.00000000000E+00  0.42157552132E+02  0.42157552132E+02  0.00000000000E+00 0.  1.
         21   -1    0    0  501  502 -0.00000000000E+00 -0.00000000000E+00 -0.17515734731E+04  0.17515734731E+04  0.00000000000E+00 0.  1.
         25    1    1    2    0    0 -0.43032822310E+02 -0.41878102671E+02 -0.88492734957E+03  0.89572708639E+03  0.12500000000E+03 0.  0.
         25    1    1    2    0    0 -0.70053387715E+02 -0.17394478950E+02 -0.56361607307E+03  0.58180591510E+03  0.12500000000E+03 0.  0.
         25    1    1    2    0    0  0.11308621002E+03  0.59272581621E+02 -0.26087249833E+03  0.31619802374E+03  0.12500000000E+03 0.  0.
</event>
<event>
 5    0  0.5626800E-005  0.2550301E+03  0.7546771E-02  0.1110167E+00
         21   -1    0    0  502  501  0.00000000000E+00  0.00000000000E+00  0.78987443414E+03  0.78987443414E+03  0.00000000000E+00 0.  1.
         21   -1    0    0  501  502 -0.00000000000E+00 -0.00000000000E+00 -0.82342642677E+02  0.82342642677E+02  0.00000000000E+00 0.  1.
         25    1    1    2    0    0  0.12592421034E+03 -0.41274546594E+02  0.26798952692E+03  0.32404302413E+03  0.12500000000E+03 0.  0.
         25    1    1    2    0    0  0.35252031390E+01 -0.74240896033E+01  0.97933338688E+02  0.15900780795E+03  0.12500000000E+03 0.  0.
         25    1    1    2    0    0 -0.12944941348E+03  0.48698636197E+02  0.34160892585E+03  0.38916624473E+03  0.12500000000E+03 0.  0.
</event>
<event>
 5    0  0.5626800E-005  0.3174979E+03  0.7546771E-02  0.1076807E+00
         21   -1    0    0  502  501  0.00000000000E+00  0.00000000000E+00  0.37345669233E+03  0.37345669233E+03  0.00000000000E+00 0.  1.
         21   -1    0    0  501  502 -0.00000000000E+00 -0.00000000000E+00 -0.26992398866E+03  0.26992398866E+03  0.00000000000E+00 0.  1.
         25    1    1    2    0    0 -0.71185712228E+02  0.13474517842E+03 -0.39470782915E+02  0.20101395831E+03  0.12500000000E+03 0.  0.
         25    1    1    2    0    0  0.16699658292E+03 -0.10556167114E+03  0.97175572989E+01  0.23398836732E+03  0.12500000000E+03 0.  0.
         25    1    1    2    0    0 -0.95810870687E+02 -0.29183507277E+02  0.13328592928E+03  0.20837835536E+03  0.12500000000E+03 0.  0.
</event>
<event>
 5    0  0.5626800E-005  0.2512682E+03  0.7546771E-02  0.1112506E+00
         21   -1    0    0  502  501  0.00000000000E+00  0.00000000000E+00  0.12876048855E+03  0.12876048855E+03  0.00000000000E+00 0.  1.
         21   -1    0    0  501  502 -0.00000000000E+00 -0.00000000000E+00 -0.49033454422E+03  0.49033454422E+03  0.00000000000E+00 0.  1.
         25    1    1    2    0    0 -0.32309187295E+02  0.14232909063E+03 -0.19485395798E+03  0.27366862912E+03  0.12500000000E+03 0.  0.
         25    1    1    2    0    0  0.24354957813E+01 -0.24828248240E+02 -0.83882550416E+02  0.15258982867E+03  0.12500000000E+03 0.  0.
         25    1    1    2    0    0  0.29873691514E+02 -0.11750084239E+03 -0.82837547279E+02  0.19283657497E+03  0.12500000000E+03 0.  0.
</event>
<event>
 5    0  0.5626800E-005  0.2923320E+03  0.7546771E-02  0.1089138E+00
         21   -1    0    0  502  501  0.00000000000E+00  0.00000000000E+00  0.14431447742E+04  0.14431447742E+04  0.00000000000E+00 0.  1.
         21   -1    0    0  501  502 -0.00000000000E+00 -0.00000000000E+00 -0.59216509879E+02  0.59216509879E+02  0.00000000000E+00 0.  1.
         25    1    1    2    0    0  0.42208272486E+02 -0.27223298718E+02  0.10725446810E+04  0.10809716643E+04  0.12500000000E+03 0.  0.
         25    1    1    2    0    0  0.32280655433E+02  0.42524993345E+02  0.12715728995E+03  0.18613004100E+03  0.12500000000E+03 0.  0.
         25    1    1    2    0    0 -0.74488927919E+02 -0.15301694627E+02  0.18422629334E+03  0.23525957876E+03  0.12500000000E+03 0.  0.
</event>
<event>
 5    0  0.5626800E-005  0.4630380E+03  0.7546771E-02  0.1023904E+00
         21   -1    0    0  502  501  0.00000000000E+00  0.00000000000E+00  0.70348287280E+02  0.70348287280E+02  0.00000000000E+00 0.  1.
         21   -1    0    0  501  502 -0.00000000000E+00 -0.00000000000E+00 -0.30477530781E+04  0.30477530781E+04  0.00000000000E+00 0.  1.
         25    1    1    2    0    0  0.43130786798E+02  0.30143757104E+03 -0.23273554320E+04  0.23505176410E+04  0.12500000000E+03 0.  0.
         25    1    1    2    0    0 -0.74134222996E+02 -0.17591826008E+03 -0.35248937099E+03  0.41990102871E+03  0.12500000000E+03 0.  0.
         25    1    1    2    0    0  0.31003436198E+02 -0.12551931096E+03 -0.29755998780E+03  0.34768269560E+03  0.12500000000E+03 0.  0.
</event>
<event>
 5    0  0.5626800E-005  0.3020807E+03  0.7546771E-02  0.1084205E+00
         21   -1    0    0  502  501  0.00000000000E+00  0.00000000000E+00  0.67594445566E+03  0.67594445566E+03  0.00000000000E+00 0.  1.
         21   -1    0    0  501  502 -0.00000000000E+00 -0.00000000000E+00 -0.13500039729E+03  0.13500039729E+03  0.00000000000E+00 0.  1.
         25    1    1    2    0    0 -0.13999464615E+03 -0.13869065925E+03  0.31679380539E+03  0.39346780687E+03  0.12500000000E+03 0.  0.
         25    1    1    2    0    0 -0.59219729719E+01  0.26804026996E+02  0.61459936536E+02  0.14197129790E+03  0.12500000000E+03 0.  0.
         25    1    1    2    0    0  0.14591661912E+03  0.11188663225E+03  0.16269031644E+03  0.27550574817E+03  0.12500000000E+03 0.  0.
</event>
<event>
 5    0  0.5626800E-005  0.4535892E+03  0.7546771E-02  0.1026657E+00
         21   -1    0    0  502  501  0.00000000000E+00  0.00000000000E+00  0.29721883626E+03  0.29721883626E+03  0.00000000000E+00 0.  1.
         21   -1    0    0  501  502 -0.00000000000E+00 -0.00000000000E+00 -0.69222784875E+03  0.69222784875E+03  0.00000000000E+00 0.  1.
         25    1    1    2    0    0 -0.16808428292E+03 -0.12156186701E+03 -0.21989065555E+03  0.32711850158E+03  0.12500000000E+03 0.  0.
         25    1    1    2    0    0  0.30775356135E+03  0.20844418877E+03 -0.22178767135E+03  0.45052858458E+03  0.12500000000E+03 0.  0.
         25    1    1    2    0    0 -0.13966927843E+03 -0.86882321760E+02  0.46669314408E+02  0.21179959886E+03  0.12500000000E+03 0.  0.
</event>
<event>
 5    0  0.5626800E-005  0.3234656E+03  0.7546771E-02  0.1074065E+00
         21   -1    0    0  502  501  0.00000000000E+00  0.00000000000E+00  0.53956119035E+02  0.53956119035E+02  0.00000000000E+00 0. -1.
         21   -1    0    0  501  502 -0.00000000000E+00 -0.00000000000E+00 -0.19391683030E+04  0.19391683030E+04  0.00000000000E+00 0. -1.
         25    1    1    2    0    0  0.68836823770E+02  0.11627683224E+03 -0.12086451177E+04  0.12225820343E+04  0.12500000000E+03 0.  0.
         25    1    1    2    0    0 -0.12599380034E+03 -0.42235547844E+02 -0.20810780303E+03  0.27675284445E+03  0.12500000000E+03 0.  0.
         25    1    1    2    0    0  0.57156976573E+02 -0.74041284394E+02 -0.46845926325E+03  0.49378954331E+03  0.12500000000E+03 0.  0.
</event>
<event>
 5    0  0.5626800E-005  0.3268868E+03  0.7546771E-02  0.1072523E+00
         21   -1    0    0  502  501  0.00000000000E+00  0.00000000000E+00  0.10865820850E+04  0.10865820850E+04  0.00000000000E+00 0.  1.
         21   -1    0    0  501  502 -0.00000000000E+00 -0.00000000000E+00 -0.98340469867E+02  0.98340469867E+02  0.00000000000E+00 0.  1.
         25    1    1    2    0    0 -0.26021046443E+02  0.80666571639E+02  0.49128708384E+02  0.15881694061E+03  0.12500000000E+03 0.  0.
         25    1    1    2    0    0  0.10650828057E+03 -0.14495815361E+03  0.72660486336E+03  0.75890480799E+03  0.12500000000E+03 0.  0.
         25    1    1    2    0    0 -0.80487234127E+02  0.64291581969E+02  0.21250804343E+03  0.26720080631E+03  0.12500000000E+03 0.  0.
</event>
<event>
 5    0  0.5626800E-005  0.4971370E+03  0.7546771E-02  0.1014529E+00
         21   -1    0    0  502  501  0.00000000000E+00  0.00000000000E+00  0.21169695596E+03  0.21169695596E+03  0.00000000000E+00 0.  1.
         21   -1    0    0  501  502 -0.00000000000E+00 -0.00000000000E+00 -0.11674479937E+04  0.11674479937E+04  0.00000000000E+00 0.  1.
         25    1    1    2    0    0 -0.88241140372E+02  0.75430215359E+02 -0.77098961789E+02  0.18720434330E+03  0.12500000000E+03 0.  0.
         25    1    1    2    0    0  0.19005745462E+03 -0.12171896292E+03 -0.96807213107E+03  0.10018612643E+04  0.12500000000E+03 0.  0.
         25    1    1    2    0    0 -0.10181631425E+03  0.46288747566E+02  0.89420055144E+02  0.19007934201E+03  0.12500000000E+03 0.  0.
</event>
<event>
 5    0  0.5626800E-005  0.2803399E+03  0.7546771E-02  0.1095503E+00
         21   -1    0    0  502  501  0.00000000000E+00  0.00000000000E+00  0.97920034560E+03  0.97920034560E+03  0.00000000000E+00 0. -1.
         21   -1    0    0  501  502 -0.00000000000E+00 -0.00000000000E+00 -0.80259864458E+02  0.80259864458E+02  0.00000000000E+00 0. -1.
         25    1    1    2    0    0  0.52355101084E+02  0.24894932053E+02  0.55164646435E+02  0.14842153640E+03  0.12500000000E+03 0.  0.
         25    1    1    2    0    0  0.61208030274E+02  0.48590915801E+01  0.57951356921E+03  0.59601259269E+03  0.12500000000E+03 0.  0.
         25    1    1    2    0    0 -0.11356313136E+03 -0.29754023633E+02  0.26426226550E+03  0.31502608097E+03  0.12500000000E+03 0.  0.
</event>
<event>
 5    0  0.5626800E-005  0.3053484E+03  0.7546771E-02  0.1082597E+00
         21   -1    0    0  502  501  0.00000000000E+00  0.00000000000E+00  0.34752458328E+03  0.34752458328E+03  0.00000000000E+00 0.  1.
         21   -1    0    0  501  502 -0.00000000000E+00 -0.00000000000E+00 -0.26829083734E+03  0.26829083734E+03  0.00000000000E+00 0.  1.
         25    1    1    2    0    0  0.49212664378E+02  0.89187845083E+01  0.56556766937E+01  0.13475317336E+03  0.12500000000E+03 0.  0.
         25    1    1    2    0    0 -0.12853180851E+03 -0.38129514393E+02 -0.13211857481E+03  0.22595265760E+03  0.12500000000E+03 0.  0.
         25    1    1    2    0    0  0.79319144129E+02  0.29210729884E+02  0.20569664405E+03  0.25510958966E+03  0.12500000000E+03 0.  0.
</event>
<event>
 5    0  0.5626800E-005  0.6736625E+03  0.7546771E-02  0.9763364E-01
         21   -1    0    0  502  501  0.00000000000E+00  0.00000000000E+00  0.27461059177E+03  0.27461059177E+03  0.00000000000E+00 0. -1.
         21   -1    0    0  501  502 -0.00000000000E+00 -0.00000000000E+00 -0.16525990978E+04  0.16525990978E+04  0.00000000000E+00 0. -1.
         25    1    1    2    0    0  0.31984446450E+03  0.29662866848E+03 -0.83847850090E+01  0.45385499122E+03  0.12500000000E+03 0.  0.
         25    1    1    2    0    0 -0.30719144843E+02 -0.53367268888E+02 -0.45631238068E+03  0.47711394866E+03  0.12500000000E+03 0.  0.
         25    1    1    2    0    0 -0.28912531966E+03 -0.24326139959E+03 -0.91329134030E+03  0.99624074965E+03  0.12500000000E+03 0.  0.
</event>
<event>
 5    0  0.5626800E-005  0.2505047E+03  0.7546771E-02  0.1112986E+00
         21   -1    0    0  502  501  0.00000000000E+00  0.00000000000E+00  0.46903776091E+03  0.46903776091E+03  0.00000000000E+00 0.  1.
         21   -1    0    0  501  502 -0.00000000000E+00 -0.00000000000E+00 -0.13379004790E+03  0.13379004790E+03  0.00000000000E+00 0.  1.
         25    1    1    2    0    0 -0.28379965992E+01 -0.13158548970E+02  0.76437901247E+02  0.14713583650E+03  0.12500000000E+03 0.  0.
         25    1    1    2    0    0  0.47754132226E+02  0.68462437390E+02  0.27245707421E+03  0.31116783215E+03  0.12500000000E+03 0.  0.
         25    1    1    2    0    0 -0.44916135627E+02 -0.55303888420E+02 -0.13647262449E+02  0.14452414015E+03  0.12500000000E+03 0.  0.
</event>
<event>
 5    0  0.5626800E-005  0.3134180E+03  0.7546771E-02  0.1078719E+00
         21   -1    0    0  502  501  0.00000000000E+00  0.00000000000E+00  0.43711599123E+03  0.43711599123E+03  0.00000000000E+00 0.  1.
         21   -1    0    0  501  502 -0.00000000000E+00 -0.00000000000E+00 -0.22472484915E+03  0.22472484915E+03  0.00000000000E+00 0.  1.
         25    1    1    2    0    0  0.76999242809E+01  0.18920976070E+03 -0.55955917334E+02  0.23369999371E+03  0.12500000000E+03 0.  0.
         25    1    1    2    0    0 -0.12926266656E+02 -0.15916473342E+03  0.14014985414E+03  0.24651061306E+03  0.12500000000E+03 0.  0.
         25    1    1    2    0    0  0.52263423747E+01 -0.30045027277E+02  0.12819720527E+03  0.18163023360E+03  0.12500000000E+03 0.  0.
</event>
<event>
 5    0  0.5626800E-005  0.3324389E+03  0.7546771E-02  0.1070063E+00
         21   -1    0    0  502  501  0.00000000000E+00  0.00000000000E+00  0.11115764023E+04  0.11115764023E+04  0.00000000000E+00 0. -1.
         21   -1    0    0  501  502 -0.00000000000E+00 -0.00000000000E+00 -0.99422401217E+02  0.99422401217E+02  0.00000000000E+00 0. -1.
         25    1    1    2    0    0 -0.98599021581E+02 -0.90192910615E+02  0.64492564647E+03  0.67038094965E+03  0.12500000000E+03 0.  0.
         25    1    1    2    0    0  0.17032015315E+03  0.82902893187E+02  0.12615313816E+03  0.25965642402E+03  0.12500000000E+03 0.  0.
         25    1    1    2    0    0 -0.71721131572E+02  0.72900174274E+01  0.24107521642E+03  0.28096142980E+03  0.12500000000E+03 0.  0.
</event>
<event>
 5    0  0.5626800E-005  0.3287935E+03  0.7546771E-02  0.1071672E+00
         21   -1    0    0  502  501  0.00000000000E+00  0.00000000000E+00  0.97755004970E+03  0.97755004970E+03  0.00000000000E+00 0. -1.
         21   -1    0    0  501  502 -0.00000000000E+00 -0.00000000000E+00 -0.11058786626E+03  0.11058786626E+03  0.00000000000E+00 0. -1.
         25    1    1    2    0    0 -0.18574525747E+03  0.70084739034E+01  0.18120804902E+03  0.28811764335E+03  0.12500000000E+03 0.  0.
         25    1    1    2    0    0  0.27186204667E+02  0.10490232211E+03  0.18235847558E+03  0.24621779083E+03  0.12500000000E+03 0.  0.
         25    1    1    2    0    0  0.15855905281E+03 -0.11191079601E+03  0.50339565884E+03  0.55380248178E+03  0.12500000000E+03 0.  0.
</event>
<event>
 5    0  0.5626800E-005  0.3292130E+03  0.7546771E-02  0.1071486E+00
         21   -1    0    0  502  501  0.00000000000E+00  0.00000000000E+00  0.33988522161E+03  0.33988522161E+03  0.00000000000E+00 0. -1.
         21   -1    0    0  501  502 -0.00000000000E+00 -0.00000000000E+00 -0.31887586347E+03  0.31887586347E+03  0.00000000000E+00 0. -1.
         25    1    1    2    0    0 -0.22187509060E+03  0.78212043496E+02 -0.84888745734E+02  0.27960110645E+03  0.12500000000E+03 0.  0.
         25    1    1    2    0    0  0.10549557463E+03 -0.27801635955E+02 -0.10783266416E+02  0.16626342371E+03  0.12500000000E+03 0.  0.
         25    1    1    2    0    0  0.11637951597E+03 -0.50410407542E+02  0.11668137029E+03  0.21289655493E+03  0.12500000000E+03 0.  0.
</event>
<event>
 5    0  0.5626800E-005  0.3940367E+03  0.7546771E-02  0.1045864E+00
         21   -1    0    0  502  501  0.00000000000E+00  0.00000000000E+00  0.12621344102E+04  0.12621344102E+04  0.00000000000E+00 0.  1.
         21   -1    0    0  501  502 -0.00000000000E+00 -0.00000000000E+00 -0.12301774771E+03  0.12301774771E+03  0.00000000000E+00 0.  1.
         25    1    1    2    0    0  0.53715186453E+02  0.28474529600E+03  0.55145651822E+03  0.63536957461E+03  0.12500000000E+03 0.  0.
         25    1    1    2    0    0  0.84370551881E+02 -0.21735192812E+03  0.29327416807E+03  0.39496200873E+03  0.12500000000E+03 0.  0.
         25    1    1    2    0    0 -0.13808573833E+03 -0.67393367880E+02  0.29438597620E+03  0.35482057458E+03  0.12500000000E+03 0.  0.
</event>
<event>
 5    0  0.5626800E-005  0.4273639E+03  0.7546771E-02  0.1034696E+00
         21   -1    0    0  502  501  0.00000000000E+00  0.00000000000E+00  0.12741474036E+03  0.12741474036E+03  0.00000000000E+00 0.  1.
         21   -1    0    0  501  502 -0.00000000000E+00 -0.00000000000E+00 -0.14334281335E+04  0.14334281335E+04  0.00000000000E+00 0.  1.
         25    1    1    2    0    0  0.88049736542E+02 -0.98925724885E+02 -0.44613008658E+03  0.48186731504E+03  0.12500000000E+03 0.  0.
         25    1    1    2    0    0  0.39562033704E+02 -0.22532004923E+03 -0.22650728720E+03  0.34534740516E+03  0.12500000000E+03 0.  0.
         25    1    1    2    0    0 -0.12761177025E+03  0.32424577412E+03 -0.63337601933E+03  0.73362815363E+03  0.12500000000E+03 0.  0.
</event>
<event>
 5    0  0.5626800E-005  0.5518857E+03  0.7546771E-02  0.1001058E+00
         21   -1    0    0  502  501  0.00000000000E+00  0.00000000000E+00  0.31764641209E+03  0.31764641209E+03  0.00000000000E+00 0. -1.
         21   -1    0    0  501  502 -0.00000000000E+00 -0.00000000000E+00 -0.95885810597E+03  0.95885810597E+03  0.00000000000E+00 0. -1.
         25    1    1    2    0    0  0.25333525810E+03 -0.17004980942E+01 -0.20463772959E+03  0.34883125586E+03  0.12500000000E+03 0.  0.
         25    1    1    2    0    0 -0.24419658167E+02  0.16815424618E+03  0.15385057312E+03  0.26108843150E+03  0.12500000000E+03 0.  0.
         25    1    1    2    0    0 -0.22891559994E+03 -0.16645374808E+03 -0.59042453741E+03  0.66658483070E+03  0.12500000000E+03 0.  0.
</event>
<event>
 5    0  0.5626800E-005  0.4737760E+03  0.7546771E-02  0.1020860E+00
         21   -1    0    0  502  501  0.00000000000E+00  0.00000000000E+00  0.77378183807E+03  0.77378183807E+03  0.00000000000E+00 0.  1.
         21   -1    0    0  501  502 -0.00000000000E+00 -0.00000000000E+00 -0.29008659060E+03  0.29008659060E+03  0.00000000000E+00 0.  1.
         25    1    1    2    0    0 -0.91528121863E+02  0.66355317851E+02  0.26508945041E+03  0.31413029465E+03  0.12500000000E+03 0.  0.
         25    1    1    2    0    0 -0.26631896402E+03  0.20781943669E+02 -0.16280074171E+02  0.29537725132E+03  0.12500000000E+03 0.  0.
         25    1    1    2    0    0  0.35784708589E+03 -0.87137261520E+02  0.23488587124E+03  0.45436088270E+03  0.12500000000E+03 0.  0.
</event>
<event>
 5    0  0.5626800E-005  0.2967900E+03  0.7546771E-02  0.1086856E+00
         21   -1    0    0  502  501  0.00000000000E+00  0.00000000000E+00  0.13562807581E+03  0.13562807581E+03  0.00000000000E+00 0. -1.
         21   -1    0    0  501  502 -0.00000000000E+00 -0.00000000000E+00 -0.64945464010E+03  0.64945464010E+03  0.00000000000E+00 0. -1.
         25    1    1    2    0    0 -0.19839889981E+02 -0.99940553487E+01 -0.43868112713E+03  0.45668329691E+03  0.12500000000E+03 0.  0.
         25    1    1    2    0    0 -0.62325449495E+02 -0.29947633489E+02 -0.96090486865E+02  0.17216185429E+03  0.12500000000E+03 0.  0.
         25    1    1    2    0    0  0.82165339475E+02  0.39941688838E+02  0.20945049704E+02  0.15623756471E+03  0.12500000000E+03 0.  0.
</event>
<event>
 5    0  0.5626800E-005  0.2741104E+03  0.7546771E-02  0.1098950E+00
         21   -1    0    0  502  501  0.00000000000E+00  0.00000000000E+00  0.10346508774E+03  0.10346508774E+03  0.00000000000E+00 0. -1.
         21   -1    0    0  501  502 -0.00000000000E+00 -0.00000000000E+00 -0.72620153866E+03  0.72620153866E+03  0.00000000000E+00 0. -1.
         25    1    1    2    0    0 -0.14675450205E+02 -0.54539147896E+02 -0.16452233199E+03  0.21420197295E+03  0.12500000000E+03 0.  0.
         25    1    1    2    0    0 -0.55718723465E+02 -0.68530634993E+02 -0.38225488448E+03  0.41175820670E+03  0.12500000000E+03 0.  0.
         25    1    1    2    0    0  0.70394173670E+02  0.12306978289E+03 -0.75959234451E+02  0.20370644674E+03  0.12500000000E+03 0.  0.
</event>
<event>
 5    0  0.5626800E-005  0.3436402E+03  0.7546771E-02  0.1065256E+00
         21   -1    0    0  502  501  0.00000000000E+00  0.00000000000E+00  0.36416289867E+03  0.36416289867E+03  0.00000000000E+00 0. -1.
         21   -1    0    0  501  502 -0.00000000000E+00 -0.00000000000E+00 -0.32427413052E+03  0.32427413052E+03  0.00000000000E+00 0. -1.
         25    1    1    2    0    0 -0.40332374282E+02 -0.57059483445E+02  0.90282849580E+02  0.16928815078E+03  0.12500000000E+03 0.  0.
         25    1    1    2    0    0  0.22028712900E+03 -0.22982279427E+02  0.59651164993E+02  0.26122378501E+03  0.12500000000E+03 0.  0.
         25    1    1    2    0    0 -0.17995475471E+03  0.80041762872E+02 -0.11004524643E+03  0.25792509341E+03  0.12500000000E+03 0.  0.
</event>
<event>
 5    0  0.5626800E-005  0.9265241E+03  0.7546771E-02  0.9393019E-01
         21   -1    0    0  502  501  0.00000000000E+00  0.00000000000E+00  0.24814550282E+04  0.24814550282E+04  0.00000000000E+00 0. -1.
         21   -1    0    0  501  502 -0.00000000000E+00 -0.00000000000E+00 -0.34594499449E+03  0.34594499449E+03  0.00000000000E+00 0. -1.
         25    1    1    2    0    0 -0.49657722160E+03 -0.57538538322E+02  0.57500367883E+03  0.77210999933E+03  0.12500000000E+03 0.  0.
         25    1    1    2    0    0  0.57765632921E+03 -0.19699097244E+03  0.16362087139E+04  0.17507987415E+04  0.12500000000E+03 0.  0.
         25    1    1    2    0    0 -0.81079107614E+02  0.25452951076E+03 -0.75702359025E+02  0.30449128182E+03  0.12500000000E+03 0.  0.
</event>
<event>
 5    0  0.5626800E-005  0.5071720E+03  0.7546771E-02  0.1011924E+00
         21   -1    0    0  502  501  0.00000000000E+00  0.00000000000E+00  0.48809041786E+03  0.48809041786E+03  0.00000000000E+00 0. -1.
         21   -1    0    0  501  502 -0.00000000000E+00 -0.00000000000E+00 -0.52699947487E+03  0.52699947487E+03  0.00000000000E+00 0. -1.
         25    1    1    2    0    0  0.40205005795E+03 -0.95802111342E+02  0.70344439997E+02  0.43748786712E+03  0.12500000000E+03 0.  0.
         25    1    1    2    0    0 -0.23407271471E+03  0.61795335356E+02  0.89630254710E+02  0.28682273586E+03  0.12500000000E+03 0.  0.
         25    1    1    2    0    0 -0.16797734324E+03  0.34006775987E+02 -0.19888375172E+03  0.29077928976E+03  0.12500000000E+03 0.  0.
</event>
<event>
 5    0  0.5626800E-005  0.3508494E+03  0.7546771E-02  0.1062267E+00
         21   -1    0    0  502  501  0.00000000000E+00  0.00000000000E+00  0.71285706114E+03  0.71285706114E+03  0.00000000000E+00 0.  1.
         21   -1    0    0  501  502 -0.00000000000E+00 -0.00000000000E+00 -0.17267880981E+03  0.17267880981E+03  0.00000000000E+00 0.  1.
         25    1    1    2    0    0  0.80982345408E+02 -0.14618635567E+03  0.67518528930E+02  0.21934525890E+03  0.12500000000E+03 0.  0.
         25    1    1    2    0    0 -0.19721421426E+03  0.45012735882E+02  0.13203826675E+03  0.27199025090E+03  0.12500000000E+03 0.  0.
         25    1    1    2    0    0  0.11623186886E+03  0.10117361979E+03  0.34062145565E+03  0.39420036115E+03  0.12500000000E+03 0.  0.
</event>
<event>
 5    0  0.5626800E-005  0.4212805E+03  0.7546771E-02  0.1036650E+00
         21   -1    0    0  502  501  0.00000000000E+00  0.00000000000E+00  0.10936906922E+04  0.10936906922E+04  0.00000000000E+00 0.  1.
         21   -1    0    0  501  502 -0.00000000000E+00 -0.00000000000E+00 -0.16227371986E+03  0.16227371986E+03  0.00000000000E+00 0.  1.
         25    1    1    2    0    0  0.13874386653E+03 -0.17821584142E+03  0.50977760997E+03  0.57140962388E+03  0.12500000000E+03 0.  0.
         25    1    1    2    0    0 -0.11437048494E+03  0.65783247794E+02  0.47329495300E+03  0.50699226429E+03  0.12500000000E+03 0.  0.
         25    1    1    2    0    0 -0.24373381586E+02  0.11243259362E+03 -0.51655590652E+02  0.17756252387E+03  0.12500000000E+03 0.  0.
</event>
<event>
 5    0  0.5626800E-005  0.3838051E+03  0.7546771E-02  0.1049536E+00
         21   -1    0    0  502  501  0.00000000000E+00  0.00000000000E+00  0.28278984253E+03  0.28278984253E+03  0.00000000000E+00 0.  1.
         21   -1    0    0  501  502 -0.00000000000E+00 -0.00000000000E+00 -0.52090411297E+03  0.52090411297E+03  0.00000000000E+00 0.  1.
         25    1    1    2    0    0  0.21126821498E+03  0.43256978021E+02  0.48799062136E+02  0.25399167954E+03  0.12500000000E+03 0.  0.
         25    1    1    2    0    0 -0.12982059527E+03 -0.64497063413E+02 -0.33979224150E+03  0.38999618656E+03  0.12500000000E+03 0.  0.
         25    1    1    2    0    0 -0.81447619709E+02  0.21240085392E+02  0.52878908930E+02  0.15970608941E+03  0.12500000000E+03 0.  0.
</event>
<event>
 5    0  0.5626800E-005  0.3600557E+03  0.7546771E-02  0.1058562E+00
         21   -1    0    0  502  501  0.00000000000E+00  0.00000000000E+00  0.63191753728E+03  0.63191753728E+03  0.00000000000E+00 0. -1.
         21   -1    0    0  501  502 -0.00000000000E+00 -0.00000000000E+00 -0.20515354392E+03  0.20515354392E+03  0.00000000000E+00 0. -1.
         25    1    1    2    0    0 -0.94103134089E+02  0.72077813274E+02 -0.12745414875E+03  0.21428992288E+03  0.12500000000E+03 0.  0.
         25    1    1    2    0    0  0.56133765729E+02 -0.23941523715E+02  0.21466641949E+03  0.25579458139E+03  0.12500000000E+03 0.  0.
         25    1    1    2    0    0  0.37969368360E+02 -0.48136289560E+02  0.33955172263E+03  0.36698657693E+03  0.12500000000E+03 0.  0.
</event>
<event>
 5    0  0.5626800E-005  0.2884844E+03  0.7546771E-02  0.1091143E+00
         21   -1    0    0  502  501  0.00000000000E+00  0.00000000000E+00  0.17913643781E+03  0.17913643781E+03  0.00000000000E+00 0.  1.
         21   -1    0    0  501  502 -0.00000000000E+00 -0.00000000000E+00 -0.46458015400E+03  0.46458015400E+03  0.00000000000E+00 0.  1.
         25    1    1    2    0    0 -0.76856194457E+02 -0.30679792114E+02 -0.10850787707E+03  0.18505967593E+03  0.12500000000E+03 0.  0.
         25    1    1    2    0    0 -0.11963618664E+03  0.90887041981E+01 -0.14435407568E+02  0.17386432264E+03  0.12500000000E+03 0.  0.
         25    1    1    2    0    0  0.19649238109E+03  0.21591087916E+02 -0.16250043155E+03  0.28479259323E+03  0.12500000000E+03 0.  0.
</event>
<event>
 5    0  0.5626800E-005  0.2486111E+03  0.7546771E-02  0.1114186E+00
         21   -1    0    0  502  501  0.00000000000E+00  0.00000000000E+00  0.26574041943E+03  0.26574041943E+03  0.00000000000E+00 0. -1.
         21   -1    0    0  501  502 -0.00000000000E+00 -0.00000000000E+00 -0.23258582389E+03  0.23258582389E+03  0.00000000000E+00 0. -1.
         25    1    1    2    0    0  0.59875117303E+02 -0.34326926763E+02  0.39946779958E+02  0.14827040434E+03  0.12500000000E+03 0.  0.
         25    1    1    2    0    0  0.44168434387E+02  0.18728670440E+02 -0.95203549801E+02  0.16428733849E+03  0.12500000000E+03 0.  0.
         25    1    1    2    0    0 -0.10404355169E+03  0.15598256322E+02  0.88411365387E+02  0.18576850050E+03  0.12500000000E+03 0.  0.
</event>
<event>
 5    0  0.5626800E-005  0.3395830E+03  0.7546771E-02  0.1066974E+00
         21   -1    0    0  502  501  0.00000000000E+00  0.00000000000E+00  0.14477009554E+03  0.14477009554E+03  0.00000000000E+00 0.  1.
         21   -1    0    0  501  502 -0.00000000000E+00 -0.00000000000E+00 -0.79654989894E+03  0.79654989894E+03  0.00000000000E+00 0.  1.
         25    1    1    2    0    0 -0.21467138198E+03 -0.26915142219E+02 -0.52228948282E+03  0.57898145997E+03  0.12500000000E+03 0.  0.
         25    1    1    2    0    0  0.10363434663E+03  0.47238953614E+02 -0.51825167655E+02  0.17686843851E+03  0.12500000000E+03 0.  0.
         25    1    1    2    0    0  0.11103703536E+03 -0.20323811396E+02 -0.77665152922E+02  0.18547009600E+03  0.12500000000E+03 0.  0.
</event>
<event>
 5    0  0.5626800E-005  0.3004610E+03  0.7546771E-02  0.1085010E+00
         21   -1    0    0  502  501  0.00000000000E+00  0.00000000000E+00  0.45695730809E+02  0.45695730809E+02  0.00000000000E+00 0. -1.
         21   -1    0    0  501  502 -0.00000000000E+00 -0.00000000000E+00 -0.19756068594E+04  0.19756068594E+04  0.00000000000E+00 0. -1.
         25    1    1    2    0    0  0.12049096061E+03 -0.74484765713E+01 -0.83355411491E+03  0.85147578584E+03  0.12500000000E+03 0.  0.
         25    1    1    2    0    0 -0.93854622224E+01 -0.72386987073E+02 -0.16191291870E+03  0.21718369193E+03  0.12500000000E+03 0.  0.
         25    1    1    2    0    0 -0.11110549839E+03  0.79835463645E+02 -0.93444409502E+03  0.95264311247E+03  0.12500000000E+03 0.  0.
</event>
<event>
 5    0  0.5626800E-005  0.2554694E+03  0.7546771E-02  0.1109896E+00
         21   -1    0    0  502  501  0.00000000000E+00  0.00000000000E+00  0.10793248427E+03  0.10793248427E+03  0.00000000000E+00 0.  1.
         21   -1    0    0  501  502 -0.00000000000E+00 -0.00000000000E+00 -0.60467983740E+03  0.60467983740E+03  0.00000000000E+00 0.  1.
         25    1    1    2    0    0  0.41328873820E+02  0.32632752279E+02 -0.22029744738E+03  0.25870627679E+03  0.12500000000E+03 0.  0.
         25    1    1    2    0    0 -0.73397293515E+02  0.99097928170E+02 -0.13638832705E+03  0.22233834086E+03  0.12500000000E+03 0.  0.
         25    1    1    2    0    0  0.32068419695E+02 -0.13173068045E+03 -0.14006157870E+03  0.23156770401E+03  0.12500000000E+03 0.  0.
</event>
<event>
 5    0  0.5626800E-005  0.3300232E+03  0.7546771E-02  0.1071127E+00
         21   -1    0    0  502  501  0.00000000000E+00  0.00000000000E+00  0.12775029350E+03  0.12775029350E+03  0.00000000000E+00 0. -1.
         21   -1    0    0  501  502 -0.00000000000E+00 -0.00000000000E+00 -0.85256388682E+03  0.85256388682E+03  0.00000000000E+00 0. -1.
         25    1    1    2    0    0  0.11076265884E+03 -0.83851126894E+02 -0.16785191922E+03  0.25119443636E+03  0.12500000000E+03 0.  0.
         25    1    1    2    0    0 -0.71750776741E+02 -0.38709778296E+02 -0.52644283245E+03  0.54718705827E+03  0.12500000000E+03 0.  0.
         25    1    1    2    0    0 -0.39011882100E+02  0.12256090519E+03 -0.30518841662E+02  0.18193268569E+03  0.12500000000E+03 0.  0.
</event>
<event>
 5    0  0.5626800E-005  0.2475882E+03  0.7546771E-02  0.1114839E+00
         21   -1    0    0  502  501  0.00000000000E+00  0.00000000000E+00  0.19661410796E+03  0.19661410796E+03  0.00000000000E+00 0.  1.
         21   -1    0    0  501  502 -0.00000000000E+00 -0.00000000000E+00 -0.31177779773E+03  0.31177779773E+03  0.00000000000E+00 0.  1.
         25    1    1    2    0    0 -0.20519271873E+02  0.41152496453E+02  0.33626162873E+01  0.13323241224E+03  0.12500000000E+03 0.  0.
         25    1    1    2    0    0 -0.15776316050E+02 -0.55279624240E+01 -0.18565331867E+03  0.22443619416E+03  0.12500000000E+03 0.  0.
         25    1    1    2    0    0  0.36295587923E+02 -0.35624534029E+02  0.67127012612E+02  0.15072329929E+03  0.12500000000E+03 0.  0.
</event>
<event>
 5    0  0.5626800E-005  0.2926366E+03  0.7546771E-02  0.1088981E+00
         21   -1    0    0  502  501  0.00000000000E+00  0.00000000000E+00  0.18270910266E+03  0.18270910266E+03  0.00000000000E+00 0.  1.
         21   -1    0    0  501  502 -0.00000000000E+00 -0.00000000000E+00 -0.46870234617E+03  0.46870234617E+03  0.00000000000E+00 0.  1.
         25    1    1    2    0    0 -0.50158027865E+02  0.40650472809E+01 -0.22251818863E+03  0.26013784162E+03  0.12500000000E+03 0.  0.
         25    1    1    2    0    0 -0.53295630474E+02 -0.67702893822E+02 -0.13472849837E+03  0.20297998506E+03  0.12500000000E+03 0.  0.
         25    1    1    2    0    0  0.10345365834E+03  0.63637846541E+02  0.71253443491E+02  0.18829362216E+03  0.12500000000E+03 0.  0.
</event>
<event>
 5    0  0.5626800E-005  0.2701900E+03  0.7546771E-02  0.1101171E+00
         21   -1    0    0  502  501  0.00000000000E+00  0.00000000000E+00  0.17493504460E+03  0.17493504460E+03  0.00000000000E+00 0. -1.
         21   -1    0    0  501  502 -0.00000000000E+00 -0.00000000000E+00 -0.41731274519E+03  0.41731274519E+03  0.00000000000E+00 0. -1.
         25    1    1    2    0    0 -0.66715633944E+01 -0.12335271232E+03  0.51474097037E+02  0.18312559641E+03  0.12500000000E+03 0.  0.
         25    1    1    2    0    0 -0.16422106756E+02  0.64716427799E+02 -0.17722827909E+03  0.22692017215E+03  0.12500000000E+03 0.  0.
         25    1    1    2    0    0  0.23093670150E+02  0.58636284521E+02 -0.11662351853E+03  0.18220202123E+03  0.12500000000E+03 0.  0.
</event>
<event>
 5    0  0.6383627E-005  0.5483145E+03  0.7546771E-02  0.1001885E+00
         21   -1    0    0  502  501  0.00000000000E+00  0.00000000000E+00  0.27525486328E+03  0.27525486328E+03  0.00000000000E+00 0. -1.
         21   -1    0    0  501  502 -0.00000000000E+00 -0.00000000000E+00 -0.10922559429E+04  0.10922559429E+04  0.00000000000E+00 0. -1.
         25    1    1    2    0    0  0.16807419777E+03  0.21508187788E+03  0.17069023614E+02  0.30070833330E+03  0.12500000000E+03 0.  0.
         25    1    1    2    0    0  0.64702447094E+02 -0.14338187909E+03 -0.75581641722E+03  0.78206663811E+03  0.12500000000E+03 0.  0.
         25    1    1    2    0    0 -0.23277664487E+03 -0.71699998794E+02 -0.78253686013E+02  0.28473583476E+03  0.12500000000E+03 0.  0.
</event>
<event>
 5    0  0.5626800E-005  0.2230873E+03  0.7546771E-02  0.1131602E+00
         21   -1    0    0  502  501  0.00000000000E+00  0.00000000000E+00  0.18633355897E+03  0.18633355897E+03  0.00000000000E+00 0.  1.
         21   -1    0    0  501  502 -0.00000000000E+00 -0.00000000000E+00 -0.26709061529E+03  0.26709061529E+03  0.00000000000E+00 0.  1.
         25    1    1    2    0    0  0.36826932466E+02  0.91526231522E+01 -0.34876867798E+02  0.13520868823E+03  0.12500000000E+03 0.  0.
         25    1    1    2    0    0 -0.18573553525E+02  0.71240524153E+02  0.33284940252E+02  0.14883909574E+03  0.12500000000E+03 0.  0.
         25    1    1    2    0    0 -0.18253378941E+02 -0.80393147305E+02 -0.79165128766E+02  0.16937639029E+03  0.12500000000E+03 0.  0.
</event>
<event>
 5    0  0.5626800E-005  0.3150233E+03  0.7546771E-02  0.1077963E+00
         21   -1    0    0  502  501  0.00000000000E+00  0.00000000000E+00  0.35825416714E+03  0.35825416714E+03  0.00000000000E+00 0.  1.
         21   -1    0    0  501  502 -0.00000000000E+00 -0.00000000000E+00 -0.27700908907E+03  0.27700908907E+03  0.00000000000E+00 0.  1.
         25    1    1    2    0    0  0.10816164153E+03  0.45982635727E+02 -0.12518066495E+03  0.21238771707E+03  0.12500000000E+03 0.  0.
         25    1    1    2    0    0 -0.81503123114E+02 -0.10443047261E+03  0.11407692044E+02  0.18249278924E+03  0.12500000000E+03 0.  0.
         25    1    1    2    0    0 -0.26658518420E+02  0.58447836879E+02  0.19501805098E+03  0.24038274989E+03  0.12500000000E+03 0.  0.
</event>
<event>
 5    0  0.5626800E-005  0.2860654E+03  0.7546771E-02  0.1092422E+00
         21   -1    0    0  502  501  0.00000000000E+00  0.00000000000E+00  0.14331122315E+04  0.14331122315E+04  0.00000000000E+00 0.  1.
         21   -1    0    0  501  502 -0.00000000000E+00 -0.00000000000E+00 -0.57101871100E+02  0.57101871100E+02  0.00000000000E+00 0.  1.
         25    1    1    2    0    0 -0.91095386146E+02  0.34567509994E+02  0.30727459837E+03  0.34573973004E+03  0.12500000000E+03 0.  0.
         25    1    1    2    0    0 -0.57092596414E+02  0.10177796567E+03  0.40181794895E+03  0.43669323668E+03  0.12500000000E+03 0.  0.
         25    1    1    2    0    0  0.14818798256E+03 -0.13634547567E+03  0.66691781312E+03  0.70778113592E+03  0.12500000000E+03 0.  0.
</event>
<event>
 5    0  0.5626800E-005  0.2558058E+03  0.7546771E-02  0.1109690E+00
         21   -1    0    0  502  501  0.00000000000E+00  0.00000000000E+00  0.57519892089E+03  0.57519892089E+03  0.00000000000E+00 0. -1.
         21   -1    0    0  501  502 -0.00000000000E+00 -0.00000000000E+00 -0.11376346948E+03  0.11376346948E+03  0.00000000000E+00 0. -1.
         25    1    1    2    0    0  0.11572816475E+02 -0.69403926216E+02  0.10400115941E+03  0.17717809180E+03  0.12500000000E+03 0.  0.
         25    1    1    2    0    0  0.48438014288E+02 -0.81833895282E+02  0.19308156500E+03  0.24889459293E+03  0.12500000000E+03 0.  0.
         25    1    1    2    0    0 -0.60010830764E+02  0.15123782150E+03  0.16435272700E+03  0.26288970564E+03  0.12500000000E+03 0.  0.
</event>
<event>
 5    0  0.5626800E-005  0.3331118E+03  0.7546771E-02  0.1069768E+00
         21   -1    0    0  502  501  0.00000000000E+00  0.00000000000E+00  0.16781838121E+03  0.16781838121E+03  0.00000000000E+00 0. -1.
         21   -1    0    0  501  502 -0.00000000000E+00 -0.00000000000E+00 -0.66121181543E+03  0.66121181543E+03  0.00000000000E+00 0. -1.
         25    1    1    2    0    0 -0.14630158807E+03 -0.73622778938E+02 -0.88951215280E+02  0.22441431984E+03  0.12500000000E+03 0.  0.
         25    1    1    2    0    0  0.12186494470E+03  0.19656846579E+03 -0.17933125548E+03  0.31823721606E+03  0.12500000000E+03 0.  0.
         25    1    1    2    0    0  0.24436643372E+02 -0.12294568686E+03 -0.22511096346E+03  0.28637866073E+03  0.12500000000E+03 0.  0.
</event>
<event>
 5    0  0.5626800E-005  0.3723105E+03  0.7546771E-02  0.1053813E+00
         21   -1    0    0  502  501  0.00000000000E+00  0.00000000000E+00  0.79380531138E+02  0.79380531138E+02  0.00000000000E+00 0.  1.
         21   -1    0    0  501  502 -0.00000000000E+00 -0.00000000000E+00 -0.17462099867E+04  0.17462099867E+04  0.00000000000E+00 0.  1.
         25    1    1    2    0    0 -0.22989946375E+03 -0.35409955371E+02 -0.36058540011E+03  0.44693898817E+03  0.12500000000E+03 0.  0.
         25    1    1    2    0    0  0.10968079123E+03  0.15172723308E+03 -0.55479498069E+03  0.59872656515E+03  0.12500000000E+03 0.  0.
         25    1    1    2    0    0  0.12021867252E+03 -0.11631727771E+03 -0.75144907479E+03  0.77992496455E+03  0.12500000000E+03 0.  0.
</event>
<event>
 5    0  0.5626800E-005  0.8146603E+03  0.7546771E-02  0.9539036E-01
         21   -1    0    0  502  501  0.00000000000E+00  0.00000000000E+00  0.42555809410E+03  0.42555809410E+03  0.00000000000E+00 0. -1.
         21   -1    0    0  501  502 -0.00000000000E+00 -0.00000000000E+00 -0.15595317944E+04  0.15595317944E+04  0.00000000000E+00 0. -1.
         25    1    1    2    0    0 -0.39889436920E+03 -0.60549153115E+03 -0.74512377578E+03  0.10471729338E+04  0.12500000000E+03 0.  0.
         25    1    1    2    0    0  0.51149544035E+02  0.28889194087E+03 -0.31040095386E+03  0.44502649530E+03  0.12500000000E+03 0.  0.
         25    1    1    2    0    0  0.34774482516E+03  0.31659959027E+03 -0.78448970674E+02  0.49289045942E+03  0.12500000000E+03 0.  0.
</event>
<event>
 5    0  0.5626800E-005  0.3505002E+03  0.7546771E-02  0.1062410E+00
         21   -1    0    0  502  501  0.00000000000E+00  0.00000000000E+00  0.90208366133E+03  0.90208366133E+03  0.00000000000E+00 0.  1.
         21   -1    0    0  501  502 -0.00000000000E+00 -0.00000000000E+00 -0.13618512160E+03  0.13618512160E+03  0.00000000000E+00 0.  1.
         25    1    1    2    0    0 -0.12251029523E+03  0.15524155023E+03  0.24904551873E+03  0.34169779302E+03  0.12500000000E+03 0.  0.
         25    1    1    2    0    0  0.14059260205E+03 -0.24636821271E+03  0.36767393758E+03  0.48090820368E+03  0.12500000000E+03 0.  0.
         25    1    1    2    0    0 -0.18082306819E+02  0.91126662484E+02  0.14917908342E+03  0.21566278623E+03  0.12500000000E+03 0.  0.
</event>
<event>
 5    0  0.5626800E-005  0.4359820E+03  0.7546771E-02  0.1031987E+00
         21   -1    0    0  502  501  0.00000000000E+00  0.00000000000E+00  0.12083718428E+04  0.12083718428E+04  0.00000000000E+00 0.  1.
         21   -1    0    0  501  502 -0.00000000000E+00 -0.00000000000E+00 -0.15730283067E+03  0.15730283067E+03  0.00000000000E+00 0.  1.
         25    1    1    2    0    0 -0.19702165799E+03  0.33804280290E+02  0.38614328647E+02  0.23890652871E+03  0.12500000000E+03 0.  0.
         25    1    1    2    0    0 -0.42502173317E+02 -0.21904166706E+02  0.80074886518E+02  0.15595901611E+03  0.12500000000E+03 0.  0.
         25    1    1    2    0    0  0.23952383131E+03 -0.11900113584E+02  0.93237979693E+03  0.97080912861E+03  0.12500000000E+03 0.  0.
</event>
<event>
 5    0  0.5626800E-005  0.4041240E+03  0.7546771E-02  0.1042361E+00
         21   -1    0    0  502  501  0.00000000000E+00  0.00000000000E+00  0.23017224535E+04  0.23017224535E+04  0.00000000000E+00 0.  1.
         21   -1    0    0  501  502 -0.00000000000E+00 -0.00000000000E+00 -0.70953912040E+02  0.70953912040E+02  0.00000000000E+00 0.  1.
         25    1    1    2    0    0  0.10326849698E+03 -0.18833616301E+03  0.44248946214E+03  0.50750055849E+03  0.12500000000E+03 0.  0.
         25    1    1    2    0    0  0.36727554927E+02  0.47463079178E+02  0.12900967228E+03  0.18939417287E+03  0.12500000000E+03 0.  0.
         25    1    1    2    0    0 -0.13999605191E+03  0.14087308383E+03  0.16592694070E+04  0.16757816342E+04  0.12500000000E+03 0.  0.
</event>
<event>
 5    0  0.5626800E-005  0.2663429E+03  0.7546771E-02  0.1103391E+00
         21   -1    0    0  502  501  0.00000000000E+00  0.00000000000E+00  0.11037147223E+04  0.11037147223E+04  0.00000000000E+00 0. -1.
         21   -1    0    0  501  502 -0.00000000000E+00 -0.00000000000E+00 -0.64272538632E+02  0.64272538632E+02  0.00000000000E+00 0. -1.
         25    1    1    2    0    0 -0.95287534074E+02  0.16792215766E+02  0.20651781849E+03  0.26006980220E+03  0.12500000000E+03 0.  0.
         25    1    1    2    0    0  0.54192623174E+02  0.57896769046E+02  0.66757481057E+03  0.68379090662E+03  0.12500000000E+03 0.  0.
         25    1    1    2    0    0  0.41094910900E+02 -0.74688984812E+02  0.16534955461E+03  0.22412655212E+03  0.12500000000E+03 0.  0.
</event>
<event>
 5    0  0.5626800E-005  0.2995305E+03  0.7546771E-02  0.1085476E+00
         21   -1    0    0  502  501  0.00000000000E+00  0.00000000000E+00  0.15098159892E+04  0.15098159892E+04  0.00000000000E+00 0. -1.
         21   -1    0    0  501  502 -0.00000000000E+00 -0.00000000000E+00 -0.59423494116E+02  0.59423494116E+02  0.00000000000E+00 0. -1.
         25    1    1    2    0    0 -0.10340712442E+03 -0.17592790923E+02  0.11143090237E+03  0.19759652243E+03  0.12500000000E+03 0.  0.
         25    1    1    2    0    0  0.50824009021E+02  0.28412462463E+02  0.94149058830E+03  0.95153553574E+03  0.12500000000E+03 0.  0.
         25    1    1    2    0    0  0.52583115396E+02 -0.10819671540E+02  0.39747100445E+03  0.42010742518E+03  0.12500000000E+03 0.  0.
</event>
<event>
 5    0  0.5626800E-005  0.4030329E+03  0.7546771E-02  0.1042735E+00
         21   -1    0    0  502  501  0.00000000000E+00  0.00000000000E+00  0.18404592511E+03  0.18404592511E+03  0.00000000000E+00 0. -1.
         21   -1    0    0  501  502 -0.00000000000E+00 -0.00000000000E+00 -0.88258135874E+03  0.88258135874E+03  0.00000000000E+00 0. -1.
         25    1    1    2    0    0 -0.93463655249E+02  0.10275587254E+03 -0.47351157083E+03  0.50905052000E+03  0.12500000000E+03 0.  0.
         25    1    1    2    0    0  0.17063858595E+03 -0.16181832955E+03  0.18656119331E+02  0.26697518533E+03  0.12500000000E+03 0.  0.
         25    1    1    2    0    0 -0.77174930700E+02  0.59062457005E+02 -0.24367998212E+03  0.29060157853E+03  0.12500000000E+03 0.  0.
</event>
<event>
 5    0  0.5626800E-005  0.2532975E+03  0.7546771E-02  0.1111238E+00
         21   -1    0    0  502  501  0.00000000000E+00  0.00000000000E+00  0.75677670347E+02  0.75677670347E+02  0.00000000000E+00 0. -1.
         21   -1    0    0  501  502 -0.00000000000E+00 -0.00000000000E+00 -0.84780104727E+03  0.84780104727E+03  0.00000000000E+00 0. -1.
         25    1    1    2    0    0  0.12291393570E+03 -0.17731781479E+02 -0.38951462088E+03  0.42751478518E+03  0.12500000000E+03 0.  0.
         25    1    1    2    0    0 -0.62097737013E+02  0.39061789241E+01 -0.30667294300E+03  0.33696391668E+03  0.12500000000E+03 0.  0.
         25    1    1    2    0    0 -0.60816198689E+02  0.13825602555E+02 -0.75935813039E+02  0.15900001576E+03  0.12500000000E+03 0.  0.
</event>
<event>
 5    0  0.5626800E-005  0.2021794E+03  0.7546771E-02  0.1147913E+00
         21   -1    0    0  502  501  0.00000000000E+00  0.00000000000E+00  0.29940683101E+02  0.29940683101E+02  0.00000000000E+00 0. -1.
         21   -1    0    0  501  502 -0.00000000000E+00 -0.00000000000E+00 -0.13652491400E+04  0.13652491400E+04  0.00000000000E+00 0. -1.
         25    1    1    2    0    0 -0.16565025440E+02 -0.96588036652E+01 -0.26563140559E+03  0.29419846395E+03  0.12500000000E+03 0.  0.
         25    1    1    2    0    0  0.33278026098E+02  0.13410725492E+02 -0.64449568682E+03  0.65748533437E+03  0.12500000000E+03 0.  0.
         25    1    1    2    0    0 -0.16713000657E+02 -0.37519218265E+01 -0.42518136447E+03  0.44350602476E+03  0.12500000000E+03 0.  0.
</event>
<event>
 5    0  0.5626800E-005  0.3001021E+03  0.7546771E-02  0.1085190E+00
         21   -1    0    0  502  501  0.00000000000E+00  0.00000000000E+00  0.10746761137E+04  0.10746761137E+04  0.00000000000E+00 0.  1.
         21   -1    0    0  501  502 -0.00000000000E+00 -0.00000000000E+00 -0.83803182801E+02  0.83803182801E+02  0.00000000000E+00 0.  1.
         25    1    1    2    0    0  0.42175541726E+02  0.96209665195E+02  0.38132404702E+03  0.41481092661E+03  0.12500000000E+03 0.  0.
         25    1    1    2    0    0  0.78740114671E+02  0.87945228816E+02  0.22437422642E+03  0.28267147435E+03  0.12500000000E+03 0.  0.
         25    1    1    2    0    0 -0.12091565640E+03 -0.18415489401E+03  0.38517465745E+03  0.46099689554E+03  0.12500000000E+03 0.  0.
</event>
<event>
 5    0  0.5626800E-005  0.4488856E+03  0.7546771E-02  0.1028055E+00
         21   -1    0    0  502  501  0.00000000000E+00  0.00000000000E+00  0.22471667076E+03  0.22471667076E+03  0.00000000000E+00 0. -1.
         21   -1    0    0  501  502 -0.00000000000E+00 -0.00000000000E+00 -0.89667702011E+03  0.89667702011E+03  0.00000000000E+00 0. -1.
         25    1    1    2    0    0 -0.95315792631E+01  0.53407791435E+02 -0.34529836404E+03  0.37121315090E+03  0.12500000000E+03 0.  0.
         25    1    1    2    0    0 -0.60122814528E+02 -0.19837763748E+03 -0.45077062453E+03  0.51165183066E+03  0.12500000000E+03 0.  0.
         25    1    1    2    0    0  0.69654393791E+02  0.14496984605E+03  0.12410863922E+03  0.23852870931E+03  0.12500000000E+03 0.  0.
</event>
<event>
 5    0  0.5626800E-005  0.6080236E+03  0.7546771E-02  0.9888898E-01
         21   -1    0    0  502  501  0.00000000000E+00  0.00000000000E+00  0.58222907970E+03  0.58222907970E+03  0.00000000000E+00 0. -1.
         21   -1    0    0  501  502 -0.00000000000E+00 -0.00000000000E+00 -0.63496096528E+03  0.63496096528E+03  0.00000000000E+00 0. -1.
         25    1    1    2    0    0 -0.53351983465E+03  0.89705728797E+02 -0.19050821711E+03  0.58703399605E+03  0.12500000000E+03 0.  0.
         25    1    1    2    0    0  0.25817637665E+03 -0.42639162813E+02  0.14460387325E+03  0.32405002673E+03  0.12500000000E+03 0.  0.
         25    1    1    2    0    0  0.27534345800E+03 -0.47066565984E+02 -0.68275417240E+01  0.30610602219E+03  0.12500000000E+03 0.  0.
</event>
<event>
 5    0  0.5626800E-005  0.2854117E+03  0.7546771E-02  0.1092769E+00
         21   -1    0    0  502  501  0.00000000000E+00  0.00000000000E+00  0.52226423352E+03  0.52226423352E+03  0.00000000000E+00 0. -1.
         21   -1    0    0  501  502 -0.00000000000E+00 -0.00000000000E+00 -0.15597438033E+03  0.15597438033E+03  0.00000000000E+00 0. -1.
         25    1    1    2    0    0 -0.96689720399E+02  0.59252464263E+02  0.87635489065E+02  0.19017028026E+03  0.12500000000E+03 0.  0.
         25    1    1    2    0    0 -0.65769221380E+02  0.39457188122E+02  0.27540403071E+02  0.14921774015E+03  0.12500000000E+03 0.  0.
         25    1    1    2    0    0  0.16245894178E+03 -0.98709652385E+02  0.25111396105E+03  0.33885059343E+03  0.12500000000E+03 0.  0.
</event>
<event>
 5    0  0.5626800E-005  0.3726955E+03  0.7546771E-02  0.1053667E+00
         21   -1    0    0  502  501  0.00000000000E+00  0.00000000000E+00  0.63230131422E+03  0.63230131422E+03  0.00000000000E+00 0. -1.
         21   -1    0    0  501  502 -0.00000000000E+00 -0.00000000000E+00 -0.21967676013E+03  0.21967676013E+03  0.00000000000E+00 0. -1.
         25    1    1    2    0    0  0.15132528819E+03  0.41423194704E+02  0.46491711852E+03  0.50634785573E+03  0.12500000000E+03 0.  0.
         25    1    1    2    0    0 -0.32779052114E+02 -0.42261861966E+02  0.50477827985E+02  0.14502945340E+03  0.12500000000E+03 0.  0.
         25    1    1    2    0    0 -0.11854623608E+03  0.83866726208E+00 -0.10277039242E+03  0.20060076523E+03  0.12500000000E+03 0.  0.
</event>
<event>
 5    0  0.5919438E-005  0.3428654E+03  0.7546771E-02  0.1065582E+00
         21   -1    0    0  502  501  0.00000000000E+00  0.00000000000E+00  0.26011453239E+03  0.26011453239E+03  0.00000000000E+00 0. -1.
         21   -1    0    0  501  502 -0.00000000000E+00 -0.00000000000E+00 -0.45194187180E+03  0.45194187180E+03  0.00000000000E+00 0. -1.
         25    1    1    2    0    0  0.24129259787E+03  0.13766771099E+02 -0.21461271535E+03  0.34654762928E+03  0.12500000000E+03 0.  0.
         25    1    1    2    0    0 -0.17193695787E+03 -0.44156969490E+02 -0.28577568486E+01  0.21712973590E+03  0.12500000000E+03 0.  0.
         25    1    1    2    0    0 -0.69355639998E+02  0.30390198390E+02  0.25643132790E+02  0.14837903901E+03  0.12500000000E+03 0.  0.
</event>
<event>
 5    0  0.5809024E-005  0.2985882E+03  0.7546771E-02  0.1085948E+00
         21   -1    0    0  502  501  0.00000000000E+00  0.00000000000E+00  0.92892960792E+02  0.92892960792E+02  0.00000000000E+00 0. -1.
         21   -1    0    0  501  502 -0.00000000000E+00 -0.00000000000E+00 -0.95975989251E+03  0.95975989251E+03  0.00000000000E+00 0. -1.
         25    1    1    2    0    0 -0.38094112159E+02 -0.45904276415E+02 -0.67332738782E+02  0.15400344699E+03  0.12500000000E+03 0.  0.
         25    1    1    2    0    0  0.13635081724E+03 -0.66498680989E+02 -0.53657791015E+03  0.57144944973E+03  0.12500000000E+03 0.  0.
         25    1    1    2    0    0 -0.98256705083E+02  0.11240295740E+03 -0.26295628278E+03  0.32719995657E+03  0.12500000000E+03 0.  0.
</event>
<event>
 5    0  0.5626800E-005  0.2449023E+03  0.7546771E-02  0.1116569E+00
         21   -1    0    0  502  501  0.00000000000E+00  0.00000000000E+00  0.22048425335E+03  0.22048425335E+03  0.00000000000E+00 0. -1.
         21   -1    0    0  501  502 -0.00000000000E+00 -0.00000000000E+00 -0.27202461357E+03  0.27202461357E+03  0.00000000000E+00 0. -1.
         25    1    1    2    0    0  0.62092014729E+02  0.90710183858E+00  0.62480688781E+02  0.15292180223E+03  0.12500000000E+03 0.  0.
         25    1    1    2    0    0  0.12225965632E+02  0.39144545576E+01  0.35881381701E+02  0.13068003192E+03  0.12500000000E+03 0.  0.
         25    1    1    2    0    0 -0.74317980362E+02 -0.48215563961E+01 -0.14990243070E+03  0.20890703277E+03  0.12500000000E+03 0.  0.
</event>
<event>
 5    0  0.5626800E-005  0.3579057E+03  0.7546771E-02  0.1059416E+00
         21   -1    0    0  502  501  0.00000000000E+00  0.00000000000E+00  0.10919069636E+03  0.10919069636E+03  0.00000000000E+00 0. -1.
         21   -1    0    0  501  502 -0.00000000000E+00 -0.00000000000E+00 -0.11731444303E+04  0.11731444303E+04  0.00000000000E+00 0. -1.
         25    1    1    2    0    0 -0.22049622038E+03 -0.16140776724E+03 -0.36765758059E+03  0.47483486297E+03  0.12500000000E+03 0.  0.
         25    1    1    2    0    0  0.12894615051E+03  0.17556193304E+03 -0.38835422546E+03  0.46248579058E+03  0.12500000000E+03 0.  0.
         25    1    1    2    0    0  0.91550069876E+02 -0.14154165801E+02 -0.30794192791E+03  0.34501447313E+03  0.12500000000E+03 0.  0.
</event>
<event>
 5    0  0.5626800E-005  0.3073711E+03  0.7546771E-02  0.1081613E+00
         21   -1    0    0  502  501  0.00000000000E+00  0.00000000000E+00  0.11467087453E+04  0.11467087453E+04  0.00000000000E+00 0.  1.
         21   -1    0    0  501  502 -0.00000000000E+00 -0.00000000000E+00 -0.82389684919E+02  0.82389684919E+02  0.00000000000E+00 0.  1.
         25    1    1    2    0    0 -0.17125903964E+03 -0.37408698450E+02  0.67754722173E+03  0.71093199889E+03  0.12500000000E+03 0.  0.
         25    1    1    2    0    0 -0.56823377136E+01  0.18738680230E+01  0.13322872818E+03  0.18278592494E+03  0.12500000000E+03 0.  0.
         25    1    1    2    0    0  0.17694137735E+03  0.35534830427E+02  0.25354311045E+03  0.33538050637E+03  0.12500000000E+03 0.  0.
</event>
<event>
 5    0  0.5626800E-005  0.2975241E+03  0.7546771E-02  0.1086485E+00
         21   -1    0    0  502  501  0.00000000000E+00  0.00000000000E+00  0.19432684813E+04  0.19432684813E+04  0.00000000000E+00 0. -1.
         21   -1    0    0  501  502 -0.00000000000E+00 -0.00000000000E+00 -0.45552425106E+02  0.45552425106E+02  0.00000000000E+00 0. -1.
         25    1    1    2    0    0  0.97400304433E+02 -0.16242486293E+02  0.62481586898E+03  0.64480268904E+03  0.12500000000E+03 0.  0.
         25    1    1    2    0    0  0.62797010976E+02  0.13575690043E+03  0.61541785231E+03  0.64555211528E+03  0.12500000000E+03 0.  0.
         25    1    1    2    0    0 -0.16019731541E+03 -0.11951441413E+03  0.65748233490E+03  0.69846610208E+03  0.12500000000E+03 0.  0.
</event>
<event>
 5    0  0.5907465E-005  0.2512157E+03  0.7546771E-02  0.1112539E+00
         21   -1    0    0  502  501  0.00000000000E+00  0.00000000000E+00  0.18807761543E+03  0.18807761543E+03  0.00000000000E+00 0.  1.
         21   -1    0    0  501  502 -0.00000000000E+00 -0.00000000000E+00 -0.33554946643E+03  0.33554946643E+03  0.00000000000E+00 0.  1.
         25    1    1    2    0    0  0.10252526814E+03  0.10560471324E+03 -0.10085289428E+03  0.21785337351E+03  0.12500000000E+03 0.  0.
         25    1    1    2    0    0 -0.21432900798E+02 -0.51671516541E+02  0.10462616190E+02  0.13734548116E+03  0.12500000000E+03 0.  0.
         25    1    1    2    0    0 -0.81092367341E+02 -0.53933196704E+02 -0.57081572918E+02  0.16842822719E+03  0.12500000000E+03 0.  0.
</event>
<event>
 5    0  0.5821476E-005  0.4193573E+03  0.7546771E-02  0.1037276E+00
         21   -1    0    0  502  501  0.00000000000E+00  0.00000000000E+00  0.27829734510E+03  0.27829734510E+03  0.00000000000E+00 0.  1.
         21   -1    0    0  501  502 -0.00000000000E+00 -0.00000000000E+00 -0.63191610020E+03  0.63191610020E+03  0.00000000000E+00 0.  1.
         25    1    1    2    0    0 -0.83891489259E+02  0.13812687459E+03 -0.26002701028E+03  0.33068997797E+03  0.12500000000E+03 0.  0.
         25    1    1    2    0    0 -0.86449120380E+02  0.57850984715E+02  0.13526606607E+03  0.21152327408E+03  0.12500000000E+03 0.  0.
         25    1    1    2    0    0  0.17034060964E+03 -0.19597785930E+03 -0.22885781090E+03  0.36800019326E+03  0.12500000000E+03 0.  0.
</event>
<event>
 5    0  0.5626800E-005  0.2597579E+03  0.7546771E-02  0.1107289E+00
         21   -1    0    0  502  501  0.00000000000E+00  0.00000000000E+00  0.71100353875E+03  0.71100353875E+03  0.00000000000E+00 0.  1.
         21   -1    0    0  501  502 -0.00000000000E+00 -0.00000000000E+00 -0.94899882426E+02  0.94899882426E+02  0.00000000000E+00 0.  1.
         25    1    1    2    0    0  0.37303548188E+02 -0.86425024361E+02  0.17036877112E+03  0.23132522067E+03  0.12500000000E+03 0.  0.
         25    1    1    2    0    0  0.17706619524E+02 -0.63317800405E+02  0.97363623797E+02  0.17154399862E+03  0.12500000000E+03 0.  0.
         25    1    1    2    0    0 -0.55010167712E+02  0.14974282477E+03  0.34837126141E+03  0.40303420189E+03  0.12500000000E+03 0.  0.
</event>
<event>
 5    0  0.5626800E-005  0.2525082E+03  0.7546771E-02  0.1111730E+00
         21   -1    0    0  502  501  0.00000000000E+00  0.00000000000E+00  0.90939069881E+02  0.90939069881E+02  0.00000000000E+00 0.  1.
         21   -1    0    0  501  502 -0.00000000000E+00 -0.00000000000E+00 -0.70113324515E+03  0.70113324515E+03  0.00000000000E+00 0.  1.
         25    1    1    2    0    0 -0.40038241218E+01 -0.22550974456E+02 -0.38472235649E+02  0.13277684276E+03  0.12500000000E+03 0.  0.
         25    1    1    2    0    0 -0.46143654715E+01 -0.72254794010E+02 -0.40598339006E+03  0.43091711574E+03  0.12500000000E+03 0.  0.
         25    1    1    2    0    0  0.86181895933E+01  0.94805768466E+02 -0.16573854955E+03  0.22837835654E+03  0.12500000000E+03 0.  0.
</event>
<event>
 5    0  0.5626800E-005  0.3225976E+03  0.7546771E-02  0.1074460E+00
         21   -1    0    0  502  501  0.00000000000E+00  0.00000000000E+00  0.68462423432E+03  0.68462423432E+03  0.00000000000E+00 0. -1.
         21   -1    0    0  501  502 -0.00000000000E+00 -0.00000000000E+00 -0.15200922104E+03  0.15200922104E+03  0.00000000000E+00 0. -1.
         25    1    1    2    0    0  0.56340646826E+02 -0.19774240295E+03  0.21717443258E+03  0.32413895258E+03  0.12500000000E+03 0.  0.
         25    1    1    2    0    0 -0.11920209614E+03  0.59819878688E+02  0.24081643462E+03  0.30233278485E+03  0.12500000000E+03 0.  0.
         25    1    1    2    0    0  0.62861449314E+02  0.13792252426E+03  0.74624146077E+02  0.21016171794E+03  0.12500000000E+03 0.  0.
</event>
<event>
 5    0  0.5626800E-005  0.2668122E+03  0.7546771E-02  0.1103118E+00
         21   -1    0    0  502  501  0.00000000000E+00  0.00000000000E+00  0.10547762499E+04  0.10547762499E+04  0.00000000000E+00 0.  1.
         21   -1    0    0  501  502 -0.00000000000E+00 -0.00000000000E+00 -0.67491793156E+02  0.67491793156E+02  0.00000000000E+00 0.  1.
         25    1    1    2    0    0 -0.10297525563E+03  0.17241727535E+02  0.14856769031E+03  0.22045076331E+03  0.12500000000E+03 0.  0.
         25    1    1    2    0    0 -0.40859952694E+02 -0.35497614115E+02  0.28353759524E+03  0.31456030305E+03  0.12500000000E+03 0.  0.
         25    1    1    2    0    0  0.14383520832E+03  0.18255886580E+02  0.55517917123E+03  0.58725697672E+03  0.12500000000E+03 0.  0.
</event>
<event>
 5    0  0.5626800E-005  0.3145104E+03  0.7546771E-02  0.1078204E+00
         21   -1    0    0  502  501  0.00000000000E+00  0.00000000000E+00  0.68465267589E+02  0.68465267589E+02  0.00000000000E+00 0.  1.
         21   -1    0    0  501  502 -0.00000000000E+00 -0.00000000000E+00 -0.14447730214E+04  0.14447730214E+04  0.00000000000E+00 0.  1.
         25    1    1    2    0    0 -0.12969962015E+03  0.13572804774E+02 -0.59000771161E+03  0.61704158065E+03  0.12500000000E+03 0.  0.
         25    1    1    2    0    0 -0.82140209700E+02  0.88523016382E+01 -0.14304329828E+03  0.20715154471E+03  0.12500000000E+03 0.  0.
         25    1    1    2    0    0  0.21183982985E+03 -0.22425106412E+02 -0.64325674392E+03  0.68904516362E+03  0.12500000000E+03 0.  0.
</event>
<event>
 5    0  0.5626800E-005  0.4347047E+03  0.7546771E-02  0.1032384E+00
         21   -1    0    0  502  501  0.00000000000E+00  0.00000000000E+00  0.43432920485E+03  0.43432920485E+03  0.00000000000E+00 0.  1.
         21   -1    0    0  501  502 -0.00000000000E+00 -0.00000000000E+00 -0.43508054148E+03  0.43508054148E+03  0.00000000000E+00 0.  1.
         25    1    1    2    0    0  0.71815990522E+02  0.21604878925E+02 -0.13573388685E+03  0.19918081064E+03  0.12500000000E+03 0.  0.
         25    1    1    2    0    0  0.23020429575E+03  0.79766706201E+02 -0.54280544204E+02  0.27915609017E+03  0.12500000000E+03 0.  0.
         25    1    1    2    0    0 -0.30202028627E+03 -0.10137158513E+03  0.18926309443E+03  0.39107284552E+03  0.12500000000E+03 0.  0.
</event>
<event>
 5    0  0.5626800E-005  0.1996303E+03  0.7546771E-02  0.1150051E+00
         21   -1    0    0  502  501  0.00000000000E+00  0.00000000000E+00  0.13983374124E+03  0.13983374124E+03  0.00000000000E+00 0. -1.
         21   -1    0    0  501  502 -0.00000000000E+00 -0.00000000000E+00 -0.28499738343E+03  0.28499738343E+03  0.00000000000E+00 0. -1.
         25    1    1    2    0    0  0.31322472718E+02 -0.21825717288E+02 -0.77720102477E+02  0.15206207141E+03  0.12500000000E+03 0.  0.
         25    1    1    2    0    0 -0.16593528299E+02 -0.16464482611E+02 -0.53183197942E+01  0.12727807704E+03  0.12500000000E+03 0.  0.
         25    1    1    2    0    0 -0.14728944419E+02  0.38290199899E+02 -0.62125219922E+02  0.14549097622E+03  0.12500000000E+03 0.  0.
</event>
<event>
 5    0  0.5626800E-005  0.2454431E+03  0.7546771E-02  0.1116219E+00
         21   -1    0    0  502  501  0.00000000000E+00  0.00000000000E+00  0.20309476845E+03  0.20309476845E+03  0.00000000000E+00 0.  1.
         21   -1    0    0  501  502 -0.00000000000E+00 -0.00000000000E+00 -0.29662177944E+03  0.29662177944E+03  0.00000000000E+00 0.  1.
         25    1    1    2    0    0  0.33966302290E+02 -0.65606207496E+02 -0.10227448257E+03  0.17760336128E+03  0.12500000000E+03 0.  0.
         25    1    1    2    0    0  0.14995859990E+02 -0.51236817816E+02 -0.31768182354E+02  0.13958619103E+03  0.12500000000E+03 0.  0.
         25    1    1    2    0    0 -0.48962162280E+02  0.11684302531E+03  0.40515653935E+02  0.18252699557E+03  0.12500000000E+03 0.  0.
</event>
<event>
 5    0  0.6080027E-005  0.3549039E+03  0.7546771E-02  0.1060620E+00
         21   -1    0    0  502  501  0.00000000000E+00  0.00000000000E+00  0.27759208917E+03  0.27759208917E+03  0.00000000000E+00 0. -1.
         21   -1    0    0  501  502 -0.00000000000E+00 -0.00000000000E+00 -0.45374763582E+03  0.45374763582E+03  0.00000000000E+00 0. -1.
         25    1    1    2    0    0  0.54576314327E+02  0.87896676754E+02 -0.19442536380E+03  0.25324024554E+03  0.12500000000E+03 0.  0.
         25    1    1    2    0    0 -0.18511013486E+03 -0.40738517881E+02 -0.10922316918E+03  0.25195255417E+03  0.12500000000E+03 0.  0.
         25    1    1    2    0    0  0.13053382053E+03 -0.47158158873E+02  0.12749298634E+03  0.22614692529E+03  0.12500000000E+03 0.  0.
</event>
<event>
 5    0  0.5626800E-005  0.2727828E+03  0.7546771E-02  0.1099697E+00
         21   -1    0    0  502  501  0.00000000000E+00  0.00000000000E+00  0.44805434076E+03  0.44805434076E+03  0.00000000000E+00 0.  1.
         21   -1    0    0  501  502 -0.00000000000E+00 -0.00000000000E+00 -0.16607461137E+03  0.16607461137E+03  0.00000000000E+00 0.  1.
         25    1    1    2    0    0 -0.77646959962E+02 -0.29346245022E+02  0.18696255427E+03  0.23972953341E+03  0.12500000000E+03 0.  0.
         25    1    1    2    0    0  0.78837389760E+02 -0.67011382868E+01  0.16910672002E+03  0.22468271414E+03  0.12500000000E+03 0.  0.
         25    1    1    2    0    0 -0.11904297973E+01  0.36047383309E+02 -0.74089544900E+02  0.14971670458E+03  0.12500000000E+03 0.  0.
</event>
<event>
 5    0  0.5626800E-005  0.7470474E+03  0.7546771E-02  0.9639994E-01
         21   -1    0    0  502  501  0.00000000000E+00  0.00000000000E+00  0.15729783334E+03  0.15729783334E+03  0.00000000000E+00 0. -1.
         21   -1    0    0  501  502 -0.00000000000E+00 -0.00000000000E+00 -0.35479184090E+04  0.35479184090E+04  0.00000000000E+00 0. -1.
         25    1    1    2    0    0  0.80865505514E+02 -0.97285107427E+02 -0.62996476410E+03  0.65458706534E+03  0.12500000000E+03 0.  0.
         25    1    1    2    0    0  0.36073365880E+03 -0.18721857704E+02 -0.24607060447E+04  0.24902165607E+04  0.12500000000E+03 0.  0.
         25    1    1    2    0    0 -0.44159916432E+03  0.11600696513E+03 -0.29994976680E+03  0.56041261628E+03  0.12500000000E+03 0.  0.
</event>
<event>
 5    0  0.5626800E-005  0.3793184E+03  0.7546771E-02  0.1051186E+00
         21   -1    0    0  502  501  0.00000000000E+00  0.00000000000E+00  0.92323212948E+02  0.92323212948E+02  0.00000000000E+00 0. -1.
         21   -1    0    0  501  502 -0.00000000000E+00 -0.00000000000E+00 -0.15584644934E+04  0.15584644934E+04  0.00000000000E+00 0. -1.
         25    1    1    2    0    0  0.94324732199E+02  0.19053513947E+03 -0.40032465134E+03  0.47019742763E+03  0.12500000000E+03 0.  0.
         25    1    1    2    0    0  0.23672384306E+02 -0.21037498456E+03 -0.92613152429E+03  0.95820802344E+03  0.12500000000E+03 0.  0.
         25    1    1    2    0    0 -0.11799711651E+03  0.19839845091E+02 -0.13968510485E+03  0.22238225530E+03  0.12500000000E+03 0.  0.
</event>
<event>
 5    0  0.5626800E-005  0.2846356E+03  0.7546771E-02  0.1093184E+00
         21   -1    0    0  502  501  0.00000000000E+00  0.00000000000E+00  0.63066273481E+03  0.63066273481E+03  0.00000000000E+00 0. -1.
         21   -1    0    0  501  502 -0.00000000000E+00 -0.00000000000E+00 -0.12846394551E+03  0.12846394551E+03  0.00000000000E+00 0. -1.
         25    1    1    2    0    0  0.11069676748E+03  0.11605794143E+03  0.14945612954E+03  0.25235957433E+03  0.12500000000E+03 0.  0.
         25    1    1    2    0    0 -0.85490159819E+02  0.38174990994E+02  0.20649267851E+03  0.25890176447E+03  0.12500000000E+03 0.  0.
         25    1    1    2    0    0 -0.25206607664E+02 -0.15423293242E+03  0.14624998125E+03  0.24786534152E+03  0.12500000000E+03 0.  0.
</event>
<event>
 5    0  0.5626800E-005  0.2695516E+03  0.7546771E-02  0.1101537E+00
         21   -1    0    0  502  501  0.00000000000E+00  0.00000000000E+00  0.25704144707E+03  0.25704144707E+03  0.00000000000E+00 0.  1.
         21   -1    0    0  501  502 -0.00000000000E+00 -0.00000000000E+00 -0.28267060372E+03  0.28267060372E+03  0.00000000000E+00 0.  1.
         25    1    1    2    0    0  0.46747019472E+02 -0.32032148631E+02 -0.22968903622E+01  0.13726477363E+03  0.12500000000E+03 0.  0.
         25    1    1    2    0    0 -0.26492046545E+02 -0.43700273787E+02 -0.15437677970E+03  0.20510663707E+03  0.12500000000E+03 0.  0.
         25    1    1    2    0    0 -0.20254972927E+02  0.75732422418E+02  0.13104451341E+03  0.19734064008E+03  0.12500000000E+03 0.  0.
</event>
<event>
 5    0  0.5626800E-005  0.2748531E+03  0.7546771E-02  0.1098534E+00
         21   -1    0    0  502  501  0.00000000000E+00  0.00000000000E+00  0.29389990805E+03  0.29389990805E+03  0.00000000000E+00 0.  1.
         21   -1    0    0  501  502 -0.00000000000E+00 -0.00000000000E+00 -0.25704075075E+03  0.25704075075E+03  0.00000000000E+00 0.  1.
         25    1    1    2    0    0 -0.53981995139E+02 -0.85004131805E+01 -0.99444516422E+02  0.16882098409E+03  0.12500000000E+03 0.  0.
         25    1    1    2    0    0 -0.21354343169E+02  0.64342148050E+02  0.17064277117E+03  0.22212580972E+03  0.12500000000E+03 0.  0.
         25    1    1    2    0    0  0.75336338309E+02 -0.55841734870E+02 -0.34339097453E+02  0.15999386500E+03  0.12500000000E+03 0.  0.
</event>
<event>
 5    0  0.5626800E-005  0.2601563E+03  0.7546771E-02  0.1107049E+00
         21   -1    0    0  502  501  0.00000000000E+00  0.00000000000E+00  0.67858653125E+03  0.67858653125E+03  0.00000000000E+00 0. -1.
         21   -1    0    0  501  502 -0.00000000000E+00 -0.00000000000E+00 -0.99738655645E+02  0.99738655645E+02  0.00000000000E+00 0. -1.
         25    1    1    2    0    0 -0.31415154626E+02  0.13519932577E+03  0.18041864968E+03  0.25969531914E+03  0.12500000000E+03 0.  0.
         25    1    1    2    0    0  0.42433570788E+02 -0.47518287250E+02  0.71128109460E+02  0.15729845361E+03  0.12500000000E+03 0.  0.
         25    1    1    2    0    0 -0.11018416162E+02 -0.87681038521E+02  0.32730111647E+03  0.36133141415E+03  0.12500000000E+03 0.  0.
</event>
<event>
 5    0  0.5626800E-005  0.3438402E+03  0.7546771E-02  0.1065172E+00
         21   -1    0    0  502  501  0.00000000000E+00  0.00000000000E+00  0.50634028483E+03  0.50634028483E+03  0.00000000000E+00 0. -1.
         21   -1    0    0  501  502 -0.00000000000E+00 -0.00000000000E+00 -0.23349134490E+03  0.23349134490E+03  0.00000000000E+00 0. -1.
         25    1    1    2    0    0  0.46856116388E+02 -0.71705063539E+02  0.40079753549E+03  0.42848661150E+03  0.12500000000E+03 0.  0.
         25    1    1    2    0    0 -0.70119054544E+02  0.51750389544E+02 -0.90826723104E+02  0.17739582368E+03  0.12500000000E+03 0.  0.
         25    1    1    2    0    0  0.23262938156E+02  0.19954673994E+02 -0.37121872466E+02  0.13394919455E+03  0.12500000000E+03 0.  0.
</event>
<event>
 5    0  0.5854061E-005  0.2967293E+03  0.7546771E-02  0.1086887E+00
         21   -1    0    0  502  501  0.00000000000E+00  0.00000000000E+00  0.60395837489E+03  0.60395837489E+03  0.00000000000E+00 0.  1.
         21   -1    0    0  501  502 -0.00000000000E+00 -0.00000000000E+00 -0.14578529918E+03  0.14578529918E+03  0.00000000000E+00 0.  1.
         25    1    1    2    0    0  0.30937089076E+02 -0.15449444139E+03  0.19842054386E+03  0.28252672109E+03  0.12500000000E+03 0.  0.
         25    1    1    2    0    0 -0.46212719982E+02  0.20469742734E+03  0.21217481660E+03  0.32354258614E+03  0.12500000000E+03 0.  0.
         25    1    1    2    0    0  0.15275630906E+02 -0.50202985948E+02  0.47577715252E+02  0.14367436684E+03  0.12500000000E+03 0.  0.
</event>
<event>
 5    0  0.5626800E-005  0.3757103E+03  0.7546771E-02  0.1052531E+00
         21   -1    0    0  502  501  0.00000000000E+00  0.00000000000E+00  0.15740103359E+03  0.15740103359E+03  0.00000000000E+00 0. -1.
         21   -1    0    0  501  502 -0.00000000000E+00 -0.00000000000E+00 -0.89680624832E+03  0.89680624832E+03  0.00000000000E+00 0. -1.
         25    1    1    2    0    0 -0.19990611669E+03  0.20499892031E+03 -0.17943229824E+03  0.36028872099E+03  0.12500000000E+03 0.  0.
         25    1    1    2    0    0  0.37683865162E+02 -0.55528334764E+02 -0.11864502052E+03  0.18494623692E+03  0.12500000000E+03 0.  0.
         25    1    1    2    0    0  0.16222225153E+03 -0.14947058555E+03 -0.44132789597E+03  0.50897232400E+03  0.12500000000E+03 0.  0.
</event>
<event>
 5    0  0.5626800E-005  0.2103684E+03  0.7546771E-02  0.1141275E+00
         21   -1    0    0  502  501  0.00000000000E+00  0.00000000000E+00  0.25841153279E+02  0.25841153279E+02  0.00000000000E+00 0.  1.
         21   -1    0    0  501  502 -0.00000000000E+00 -0.00000000000E+00 -0.17125723555E+04  0.17125723555E+04  0.00000000000E+00 0.  1.
         25    1    1    2    0    0  0.75898761485E+02  0.22838262814E+02 -0.63385011957E+03  0.65090182233E+03  0.12500000000E+03 0.  0.
         25    1    1    2    0    0 -0.67807322912E+01 -0.17602057690E+02 -0.41573048571E+03  0.43452577313E+03  0.12500000000E+03 0.  0.
         25    1    1    2    0    0 -0.69118029194E+02 -0.52362051246E+01 -0.63715059698E+03  0.65298591335E+03  0.12500000000E+03 0.  0.
</event>
<event>
 5    0  0.5626800E-005  0.2749193E+03  0.7546771E-02  0.1098497E+00
         21   -1    0    0  502  501  0.00000000000E+00  0.00000000000E+00  0.81330313110E+03  0.81330313110E+03  0.00000000000E+00 0.  1.
         21   -1    0    0  501  502 -0.00000000000E+00 -0.00000000000E+00 -0.92930462588E+02  0.92930462588E+02  0.00000000000E+00 0.  1.
         25    1    1    2    0    0  0.13999991497E+02 -0.15178238039E+03  0.33693779233E+03  0.39036645176E+03  0.12500000000E+03 0.  0.
         25    1    1    2    0    0 -0.65397519064E+01  0.16534023629E+03  0.30031765383E+03  0.36496007356E+03  0.12500000000E+03 0.  0.
         25    1    1    2    0    0 -0.74602395909E+01 -0.13557855901E+02  0.83117222356E+02  0.15090706837E+03  0.12500000000E+03 0.  0.
</event>
<event>
 5    0  0.5626800E-005  0.2711729E+03  0.7546771E-02  0.1100610E+00
         21   -1    0    0  502  501  0.00000000000E+00  0.00000000000E+00  0.14373608449E+03  0.14373608449E+03  0.00000000000E+00 0.  1.
         21   -1    0    0  501  502 -0.00000000000E+00 -0.00000000000E+00 -0.51159559652E+03  0.51159559652E+03  0.00000000000E+00 0.  1.
         25    1    1    2    0    0  0.15383024695E+03  0.50752400592E+02 -0.13423177302E+03  0.24470946024E+03  0.12500000000E+03 0.  0.
         25    1    1    2    0    0 -0.11554195815E+03 -0.68909914805E+02 -0.20563719626E+03  0.27569943224E+03  0.12500000000E+03 0.  0.
         25    1    1    2    0    0 -0.38288288800E+02  0.18157514213E+02 -0.27990542748E+02  0.13492278853E+03  0.12500000000E+03 0.  0.
</event>
<event>
 5    0  0.5626800E-005  0.6937233E+03  0.7546771E-02  0.9728027E-01
         21   -1    0    0  502  501  0.00000000000E+00  0.00000000000E+00  0.13938717903E+04  0.13938717903E+04  0.00000000000E+00 0. -1.
         21   -1    0    0  501  502 -0.00000000000E+00 -0.00000000000E+00 -0.34526275566E+03  0.34526275566E+03  0.00000000000E+00 0. -1.
         25    1    1    2    0    0  0.10840807929E+03 -0.27033536148E+03  0.23614481031E+03  0.39525041525E+03  0.12500000000E+03 0.  0.
         25    1    1    2    0    0  0.16368641432E+02 -0.28439904966E+03  0.67861771849E+03  0.74652378376E+03  0.12500000000E+03 0.  0.
         25    1    1    2    0    0 -0.12477672073E+03  0.55473441114E+03  0.13384650580E+03  0.59736034690E+03  0.12500000000E+03 0.  0.
</event>
<event>
 5    0  0.5626800E-005  0.2853609E+03  0.7546771E-02  0.1092796E+00
         21   -1    0    0  502  501  0.00000000000E+00  0.00000000000E+00  0.52061690440E+03  0.52061690440E+03  0.00000000000E+00 0. -1.
         21   -1    0    0  501  502 -0.00000000000E+00 -0.00000000000E+00 -0.15641221106E+03  0.15641221106E+03  0.00000000000E+00 0. -1.
         25    1    1    2    0    0 -0.32213315814E+02  0.44939052925E+02  0.98075627111E+02  0.16822914381E+03  0.12500000000E+03 0.  0.
         25    1    1    2    0    0  0.10914610998E+03  0.69299863686E+02  0.26805998725E+03  0.32279482832E+03  0.12500000000E+03 0.  0.
         25    1    1    2    0    0 -0.76932794165E+02 -0.11423891661E+03 -0.19309210194E+01  0.18600514332E+03  0.12500000000E+03 0.  0.
</event>
<event>
 5    0  0.5626800E-005  0.3433156E+03  0.7546771E-02  0.1065392E+00
         21   -1    0    0  502  501  0.00000000000E+00  0.00000000000E+00  0.18368012212E+04  0.18368012212E+04  0.00000000000E+00 0. -1.
         21   -1    0    0  501  502 -0.00000000000E+00 -0.00000000000E+00 -0.64168958702E+02  0.64168958702E+02  0.00000000000E+00 0. -1.
         25    1    1    2    0    0  0.11737171951E+03 -0.10811697781E+03  0.85467655296E+03  0.87838625422E+03  0.12500000000E+03 0.  0.
         25    1    1    2    0    0 -0.12122756575E+03 -0.27224921758E+02  0.14577467588E+03  0.22871942460E+03  0.12500000000E+03 0.  0.
         25    1    1    2    0    0  0.38558462417E+01  0.13534189956E+03  0.77218103370E+03  0.79386450112E+03  0.12500000000E+03 0.  0.
</event>
<event>
 5    0  0.5626800E-005  0.2525780E+03  0.7546771E-02  0.1111686E+00
         21   -1    0    0  502  501  0.00000000000E+00  0.00000000000E+00  0.63190658447E+02  0.63190658447E+02  0.00000000000E+00 0. -1.
         21   -1    0    0  501  502 -0.00000000000E+00 -0.00000000000E+00 -0.10095736436E+04  0.10095736436E+04  0.00000000000E+00 0. -1.
         25    1    1    2    0    0 -0.31402311470E+01  0.70423345137E+02 -0.21372306124E+03  0.25743320590E+03  0.12500000000E+03 0.  0.
         25    1    1    2    0    0 -0.51988107905E+01 -0.15837493787E+03 -0.36509546743E+03  0.41716825013E+03  0.12500000000E+03 0.  0.
         25    1    1    2    0    0  0.83390419374E+01  0.87951592732E+02 -0.36756445652E+03  0.39816284606E+03  0.12500000000E+03 0.  0.
</event>
<event>
 5    0  0.5626800E-005  0.4265820E+03  0.7546771E-02  0.1034945E+00
         21   -1    0    0  502  501  0.00000000000E+00  0.00000000000E+00  0.11394385168E+04  0.11394385168E+04  0.00000000000E+00 0. -1.
         21   -1    0    0  501  502 -0.00000000000E+00 -0.00000000000E+00 -0.15970340479E+03  0.15970340479E+03  0.00000000000E+00 0. -1.
         25    1    1    2    0    0  0.24019384102E+02 -0.38188833411E+02 -0.35547877649E+02  0.13756441915E+03  0.12500000000E+03 0.  0.
         25    1    1    2    0    0  0.10531602862E+03 -0.17406238947E+03  0.70740879873E+03  0.74661997685E+03  0.12500000000E+03 0.  0.
         25    1    1    2    0    0 -0.12933541272E+03  0.21225122288E+03  0.30787419089E+03  0.41495752555E+03  0.12500000000E+03 0.  0.
</event>
<event>
 5    0  0.5626800E-005  0.4351500E+03  0.7546771E-02  0.1032245E+00
         21   -1    0    0  502  501  0.00000000000E+00  0.00000000000E+00  0.26356467667E+03  0.26356467667E+03  0.00000000000E+00 0. -1.
         21   -1    0    0  501  502 -0.00000000000E+00 -0.00000000000E+00 -0.71844057287E+03  0.71844057287E+03  0.00000000000E+00 0. -1.
         25    1    1    2    0    0 -0.98474683633E+02  0.12314378350E+03 -0.43194370287E+03  0.47651024876E+03  0.12500000000E+03 0.  0.
         25    1    1    2    0    0  0.16690876244E+03  0.65294956754E+02  0.98698069494E+02  0.23976712718E+03  0.12500000000E+03 0.  0.
         25    1    1    2    0    0 -0.68434078803E+02 -0.18843874026E+03 -0.12163026282E+03  0.26572787360E+03  0.12500000000E+03 0.  0.
</event>
<event>
 5    0  0.5626800E-005  0.4477102E+03  0.7546771E-02  0.1028407E+00
         21   -1    0    0  502  501  0.00000000000E+00  0.00000000000E+00  0.86228356458E+03  0.86228356458E+03  0.00000000000E+00 0.  1.
         21   -1    0    0  501  502 -0.00000000000E+00 -0.00000000000E+00 -0.23245767374E+03  0.23245767374E+03  0.00000000000E+00 0.  1.
         25    1    1    2    0    0  0.19723625145E+03 -0.16867914392E+03 -0.78177894363E+02  0.29848211948E+03  0.12500000000E+03 0.  0.
         25    1    1    2    0    0 -0.87605188251E+02  0.64558190342E+02  0.27867298729E+03  0.32423149568E+03  0.12500000000E+03 0.  0.
         25    1    1    2    0    0 -0.10963106320E+03  0.10412095358E+03  0.42933079791E+03  0.47202762316E+03  0.12500000000E+03 0.  0.
</event>
<event>
 5    0  0.5626800E-005  0.2389951E+03  0.7546771E-02  0.1120464E+00
         21   -1    0    0  502  501  0.00000000000E+00  0.00000000000E+00  0.49008269173E+03  0.49008269173E+03  0.00000000000E+00 0.  1.
         21   -1    0    0  501  502 -0.00000000000E+00 -0.00000000000E+00 -0.11654906102E+03  0.11654906102E+03  0.00000000000E+00 0.  1.
         25    1    1    2    0    0  0.30635376293E+02  0.89301226109E+02  0.74799849889E+02  0.17358932228E+03  0.12500000000E+03 0.  0.
         25    1    1    2    0    0 -0.81114342123E+02 -0.30217031206E-01  0.17225532418E+03  0.22776398776E+03  0.12500000000E+03 0.  0.
         25    1    1    2    0    0  0.50478965830E+02 -0.89271009078E+02  0.12647845664E+03  0.20527844272E+03  0.12500000000E+03 0.  0.
</event>
<event>
 5    0  0.6825263E-005  0.3329281E+03  0.7546771E-02  0.1069849E+00
         21   -1    0    0  502  501  0.00000000000E+00  0.00000000000E+00  0.63390043733E+03  0.63390043733E+03  0.00000000000E+00 0. -1.
         21   -1    0    0  501  502 -0.00000000000E+00 -0.00000000000E+00 -0.17485574037E+03  0.17485574037E+03  0.00000000000E+00 0. -1.
         25    1    1    2    0    0  0.97087422921E+02 -0.18992949477E+03  0.71690285044E+02  0.25741732196E+03  0.12500000000E+03 0.  0.
         25    1    1    2    0    0 -0.14414029099E+03  0.70727288840E+02  0.26668564699E+03  0.33544747306E+03  0.12500000000E+03 0.  0.
         25    1    1    2    0    0  0.47052868067E+02  0.11920220593E+03  0.12066876493E+03  0.21589138270E+03  0.12500000000E+03 0.  0.
</event>
<event>
 5    0  0.5626800E-005  0.3060586E+03  0.7546771E-02  0.1082251E+00
         21   -1    0    0  502  501  0.00000000000E+00  0.00000000000E+00  0.28744082348E+04  0.28744082348E+04  0.00000000000E+00 0.  1.
         21   -1    0    0  501  502 -0.00000000000E+00 -0.00000000000E+00 -0.32588217429E+02  0.32588217429E+02  0.00000000000E+00 0.  1.
         25    1    1    2    0    0 -0.85797966588E+02 -0.14946685553E+02  0.12915094848E+04  0.13004639341E+04  0.12500000000E+03 0.  0.
         25    1    1    2    0    0  0.10444630930E+03  0.12386216581E+03  0.12138485705E+04  0.12309769371E+04  0.12500000000E+03 0.  0.
         25    1    1    2    0    0 -0.18648342714E+02 -0.10891548025E+03  0.33646196210E+03  0.37555558106E+03  0.12500000000E+03 0.  0.
</event>
<event>
 5    0  0.5626800E-005  0.4572825E+03  0.7546771E-02  0.1025572E+00
         21   -1    0    0  502  501  0.00000000000E+00  0.00000000000E+00  0.82446575554E+03  0.82446575554E+03  0.00000000000E+00 0. -1.
         21   -1    0    0  501  502 -0.00000000000E+00 -0.00000000000E+00 -0.25362763871E+03  0.25362763871E+03  0.00000000000E+00 0. -1.
         25    1    1    2    0    0 -0.28547541690E+02 -0.14631563518E+03 -0.15570847553E+02  0.19516833382E+03  0.12500000000E+03 0.  0.
         25    1    1    2    0    0  0.17084845121E+03  0.33267464583E+03  0.34626755112E+03  0.52477407540E+03  0.12500000000E+03 0.  0.
         25    1    1    2    0    0 -0.14230090952E+03 -0.18635901065E+03  0.24014141327E+03  0.35815098501E+03  0.12500000000E+03 0.  0.
</event>
<event>
 5    0  0.5626800E-005  0.2780082E+03  0.7546771E-02  0.1096782E+00
         21   -1    0    0  502  501  0.00000000000E+00  0.00000000000E+00  0.17184038396E+03  0.17184038396E+03  0.00000000000E+00 0. -1.
         21   -1    0    0  501  502 -0.00000000000E+00 -0.00000000000E+00 -0.44976937065E+03  0.44976937065E+03  0.00000000000E+00 0. -1.
         25    1    1    2    0    0 -0.82818465781E+01 -0.12899713747E+03 -0.53020532291E+02  0.18747007042E+03  0.12500000000E+03 0.  0.
         25    1    1    2    0    0 -0.28807636109E+01 -0.31608641463E+02  0.21936280701E+01  0.12898533645E+03  0.12500000000E+03 0.  0.
         25    1    1    2    0    0  0.11162610189E+02  0.16060577893E+03 -0.22710208247E+03  0.30515434775E+03  0.12500000000E+03 0.  0.
</event>
<event>
 5    0  0.5626800E-005  0.3377083E+03  0.7546771E-02  0.1067776E+00
         21   -1    0    0  502  501  0.00000000000E+00  0.00000000000E+00  0.11940896658E+04  0.11940896658E+04  0.00000000000E+00 0. -1.
         21   -1    0    0  501  502 -0.00000000000E+00 -0.00000000000E+00 -0.95509479297E+02  0.95509479297E+02  0.00000000000E+00 0. -1.
         25    1    1    2    0    0 -0.68955584420E+01  0.72224978035E+02  0.11257963966E+03  0.18320254214E+03  0.12500000000E+03 0.  0.
         25    1    1    2    0    0  0.82399428175E+02 -0.14285832954E+03  0.89862245342E+03  0.92214179054E+03  0.12500000000E+03 0.  0.
         25    1    1    2    0    0 -0.75503869733E+02  0.70633351505E+02  0.87378093426E+02  0.18425481242E+03  0.12500000000E+03 0.  0.
</event>
<event>
 5    0  0.5626800E-005  0.3527269E+03  0.7546771E-02  0.1061501E+00
         21   -1    0    0  502  501  0.00000000000E+00  0.00000000000E+00  0.51199505625E+03  0.51199505625E+03  0.00000000000E+00 0. -1.
         21   -1    0    0  501  502 -0.00000000000E+00 -0.00000000000E+00 -0.24300281214E+03  0.24300281214E+03  0.00000000000E+00 0. -1.
         25    1    1    2    0    0 -0.44947618267E+02 -0.69578931299E+02 -0.13743051363E+03  0.20340516745E+03  0.12500000000E+03 0.  0.
         25    1    1    2    0    0 -0.94269545814E+02  0.19389173071E+02  0.27651221442E+03  0.31834995214E+03  0.12500000000E+03 0.  0.
         25    1    1    2    0    0  0.13921716408E+03  0.50189758228E+02  0.12991054331E+03  0.23324274880E+03  0.12500000000E+03 0.  0.
</event>
<event>
 5    0  0.5626800E-005  0.4707175E+03  0.7546771E-02  0.1021718E+00
         21   -1    0    0  502  501  0.00000000000E+00  0.00000000000E+00  0.16310726975E+04  0.16310726975E+04  0.00000000000E+00 0.  1.
         21   -1    0    0  501  502 -0.00000000000E+00 -0.00000000000E+00 -0.13584616287E+03  0.13584616287E+03  0.00000000000E+00 0.  1.
         25    1    1    2    0    0 -0.28262643801E+03 -0.58948910719E+02  0.58417470711E+03  0.66350415670E+03  0.12500000000E+03 0.  0.
         25    1    1    2    0    0  0.11368127387E+03 -0.38818079061E+02  0.10687862800E+02  0.17369371233E+03  0.12500000000E+03 0.  0.
         25    1    1    2    0    0  0.16894516414E+03  0.97766989780E+02  0.90036396471E+03  0.92972099134E+03  0.12500000000E+03 0.  0.
</event>
<event>
 5    0  0.5626800E-005  0.2575333E+03  0.7546771E-02  0.1108634E+00
         21   -1    0    0  502  501  0.00000000000E+00  0.00000000000E+00  0.42973751443E+03  0.42973751443E+03  0.00000000000E+00 0.  1.
         21   -1    0    0  501  502 -0.00000000000E+00 -0.00000000000E+00 -0.15433471319E+03  0.15433471319E+03  0.00000000000E+00 0.  1.
         25    1    1    2    0    0 -0.10336678144E+03  0.17997853650E+02  0.25598153711E+02  0.16519346148E+03  0.12500000000E+03 0.  0.
         25    1    1    2    0    0 -0.20183719788E+02 -0.23104515107E+02  0.21148527626E+02  0.13043565994E+03  0.12500000000E+03 0.  0.
         25    1    1    2    0    0  0.12355050123E+03  0.51066614577E+01  0.22865611990E+03  0.28844310620E+03  0.12500000000E+03 0.  0.
</event>
<event>
 5    0  0.5626800E-005  0.3665611E+03  0.7546771E-02  0.1056016E+00
         21   -1    0    0  502  501  0.00000000000E+00  0.00000000000E+00  0.11504261624E+03  0.11504261624E+03  0.00000000000E+00 0. -1.
         21   -1    0    0  501  502 -0.00000000000E+00 -0.00000000000E+00 -0.11679764726E+04  0.11679764726E+04  0.00000000000E+00 0. -1.
         25    1    1    2    0    0 -0.14142509314E+03 -0.14680495187E+02 -0.33065934425E+03  0.38102122756E+03  0.12500000000E+03 0.  0.
         25    1    1    2    0    0 -0.56476342508E+02  0.42801732063E+02 -0.15536126634E+01  0.14369752692E+03  0.12500000000E+03 0.  0.
         25    1    1    2    0    0  0.19790143565E+03 -0.28121236877E+02 -0.72072089941E+03  0.75830033432E+03  0.12500000000E+03 0.  0.
</event>
<event>
 5    0  0.5626800E-005  0.4408627E+03  0.7546771E-02  0.1030482E+00
         21   -1    0    0  502  501  0.00000000000E+00  0.00000000000E+00  0.54255621324E+03  0.54255621324E+03  0.00000000000E+00 0. -1.
         21   -1    0    0  501  502 -0.00000000000E+00 -0.00000000000E+00 -0.35823004720E+03  0.35823004720E+03  0.00000000000E+00 0. -1.
         25    1    1    2    0    0 -0.20961894364E+03  0.39521499251E+01  0.24184014622E+03  0.34360933827E+03  0.12500000000E+03 0.  0.
         25    1    1    2    0    0  0.14053494436E+03  0.13191641474E+03 -0.20743000574E+03  0.30952256517E+03  0.12500000000E+03 0.  0.
         25    1    1    2    0    0  0.69083999282E+02 -0.13586856467E+03  0.14991602557E+03  0.24765435700E+03  0.12500000000E+03 0.  0.
</event>
<event>
 5    0  0.5626800E-005  0.3384441E+03  0.7546771E-02  0.1067461E+00
         21   -1    0    0  502  501  0.00000000000E+00  0.00000000000E+00  0.12578182816E+03  0.12578182816E+03  0.00000000000E+00 0. -1.
         21   -1    0    0  501  502 -0.00000000000E+00 -0.00000000000E+00 -0.91065958527E+03  0.91065958527E+03  0.00000000000E+00 0. -1.
         25    1    1    2    0    0  0.20196946237E+03  0.85321247062E+02 -0.37218724343E+03  0.44968847340E+03  0.12500000000E+03 0.  0.
         25    1    1    2    0    0 -0.15318554932E+03 -0.13283181646E+03 -0.36649994536E+03  0.43710103401E+03  0.12500000000E+03 0.  0.
         25    1    1    2    0    0 -0.48783913053E+02  0.47510569395E+02 -0.46190568321E+02  0.14965190603E+03  0.12500000000E+03 0.  0.
</event>
<event>
 5    0  0.5626800E-005  0.3334750E+03  0.7546771E-02  0.1069610E+00
         21   -1    0    0  502  501  0.00000000000E+00  0.00000000000E+00  0.80145135741E+02  0.80145135741E+02  0.00000000000E+00 0.  1.
         21   -1    0    0  501  502 -0.00000000000E+00 -0.00000000000E+00 -0.13875528027E+04  0.13875528027E+04  0.00000000000E+00 0.  1.
         25    1    1    2    0    0  0.62888931934E+02  0.47469928251E+02 -0.28126791226E+03  0.31771850798E+03  0.12500000000E+03 0.  0.
         25    1    1    2    0    0  0.10585063896E+03 -0.16960671959E+02 -0.85198091706E+02  0.18540694969E+03  0.12500000000E+03 0.  0.
         25    1    1    2    0    0 -0.16873957090E+03 -0.30509256292E+02 -0.94094166299E+03  0.96457248077E+03  0.12500000000E+03 0.  0.
</event>
<event>
 5    0  0.5626800E-005  0.3427883E+03  0.7546771E-02  0.1065615E+00
         21   -1    0    0  502  501  0.00000000000E+00  0.00000000000E+00  0.74697095907E+02  0.74697095907E+02  0.00000000000E+00 0.  1.
         21   -1    0    0  501  502 -0.00000000000E+00 -0.00000000000E+00 -0.15730704986E+04  0.15730704986E+04  0.00000000000E+00 0.  1.
         25    1    1    2    0    0  0.10723574607E+03 -0.17346602154E+03 -0.26480488737E+03  0.35684253424E+03  0.12500000000E+03 0.  0.
         25    1    1    2    0    0 -0.26602916329E+02  0.18698030831E+01 -0.69143482903E+03  0.70314887053E+03  0.12500000000E+03 0.  0.
         25    1    1    2    0    0 -0.80632829743E+02  0.17159621846E+03 -0.54213368628E+03  0.58777618974E+03  0.12500000000E+03 0.  0.
</event>
<event>
 5    0  0.6053947E-005  0.2758603E+03  0.7546771E-02  0.1097972E+00
         21   -1    0    0  502  501  0.00000000000E+00  0.00000000000E+00  0.49326614894E+03  0.49326614894E+03  0.00000000000E+00 0.  1.
         21   -1    0    0  501  502 -0.00000000000E+00 -0.00000000000E+00 -0.15427554258E+03  0.15427554258E+03  0.00000000000E+00 0.  1.
         25    1    1    2    0    0  0.10494523371E+03  0.13684223244E+03  0.21900588900E+03  0.30549611794E+03  0.12500000000E+03 0.  0.
         25    1    1    2    0    0 -0.36857068487E+02 -0.87425389513E+02  0.13434122685E+02  0.15750275515E+03  0.12500000000E+03 0.  0.
         25    1    1    2    0    0 -0.68088165227E+02 -0.49416842926E+02  0.10655059468E+03  0.18454281843E+03  0.12500000000E+03 0.  0.
</event>
<event>
 5    0  0.5626800E-005  0.3934256E+03  0.7546771E-02  0.1046080E+00
         21   -1    0    0  502  501  0.00000000000E+00  0.00000000000E+00  0.43235605941E+03  0.43235605941E+03  0.00000000000E+00 0.  1.
         21   -1    0    0  501  502 -0.00000000000E+00 -0.00000000000E+00 -0.35800052598E+03  0.35800052598E+03  0.00000000000E+00 0.  1.
         25    1    1    2    0    0  0.11536734683E+02  0.11465370262E+02 -0.19951789881E+02  0.12762297944E+03  0.12500000000E+03 0.  0.
         25    1    1    2    0    0 -0.83591419246E+01  0.95905181326E+02 -0.24161027263E+03  0.28856230333E+03  0.12500000000E+03 0.  0.
         25    1    1    2    0    0 -0.31775927585E+01 -0.10737055159E+03  0.33591759594E+03  0.37417130262E+03  0.12500000000E+03 0.  0.
</event>
<event>
 5    0  0.5626800E-005  0.2175046E+03  0.7546771E-02  0.1135757E+00
         21   -1    0    0  502  501  0.00000000000E+00  0.00000000000E+00  0.48041655907E+02  0.48041655907E+02  0.00000000000E+00 0.  1.
         21   -1    0    0  501  502 -0.00000000000E+00 -0.00000000000E+00 -0.98473375472E+03  0.98473375472E+03  0.00000000000E+00 0.  1.
         25    1    1    2    0    0  0.71081156723E+02  0.39289856364E+02 -0.31175554960E+03  0.34556149433E+03  0.12500000000E+03 0.  0.
         25    1    1    2    0    0 -0.89053021679E+02 -0.42272709938E+02 -0.36521124408E+03  0.39839888991E+03  0.12500000000E+03 0.  0.
         25    1    1    2    0    0  0.17971864956E+02  0.29828535740E+01 -0.25972530513E+03  0.28881502639E+03  0.12500000000E+03 0.  0.
</event>
<event>
 5    0  0.5626800E-005  0.3150455E+03  0.7546771E-02  0.1077952E+00
         21   -1    0    0  502  501  0.00000000000E+00  0.00000000000E+00  0.58606466245E+03  0.58606466245E+03  0.00000000000E+00 0.  1.
         21   -1    0    0  501  502 -0.00000000000E+00 -0.00000000000E+00 -0.16935621634E+03  0.16935621634E+03  0.00000000000E+00 0.  1.
         25    1    1    2    0    0 -0.89350157140E+02  0.79495134593E+02  0.17246622226E+03  0.24427960379E+03  0.12500000000E+03 0.  0.
         25    1    1    2    0    0 -0.33127943802E+02 -0.16082551404E+03  0.24214311168E+03  0.31815183979E+03  0.12500000000E+03 0.  0.
         25    1    1    2    0    0  0.12247810094E+03  0.81330379448E+02  0.20991121691E+01  0.19298943521E+03  0.12500000000E+03 0.  0.
</event>
<event>
 5    0  0.5626800E-005  0.2985718E+03  0.7546771E-02  0.1085957E+00
         21   -1    0    0  502  501  0.00000000000E+00  0.00000000000E+00  0.54095126978E+02  0.54095126978E+02  0.00000000000E+00 0.  1.
         21   -1    0    0  501  502 -0.00000000000E+00 -0.00000000000E+00 -0.16479330394E+04  0.16479330394E+04  0.00000000000E+00 0.  1.
         25    1    1    2    0    0  0.40211310722E+02  0.11564716578E+03 -0.37903343401E+03  0.41747162845E+03  0.12500000000E+03 0.  0.
         25    1    1    2    0    0 -0.72952198496E+02 -0.17275528894E+03 -0.41382608930E+03  0.47121486109E+03  0.12500000000E+03 0.  0.
         25    1    1    2    0    0  0.32740887773E+02  0.57108123165E+02 -0.80097838914E+03  0.81334167687E+03  0.12500000000E+03 0.  0.
</event>
<event>
 5    0  0.5626800E-005  0.3842035E+03  0.7546771E-02  0.1049391E+00
         21   -1    0    0  502  501  0.00000000000E+00  0.00000000000E+00  0.11062093779E+03  0.11062093779E+03  0.00000000000E+00 0.  1.
         21   -1    0    0  501  502 -0.00000000000E+00 -0.00000000000E+00 -0.13343974731E+04  0.13343974731E+04  0.00000000000E+00 0.  1.
         25    1    1    2    0    0 -0.28116672748E+02  0.68007488835E+02 -0.76371158601E+03  0.77736474864E+03  0.12500000000E+03 0.  0.
         25    1    1    2    0    0  0.13836372214E+03 -0.17819835992E+03 -0.36357842109E+03  0.44577286073E+03  0.12500000000E+03 0.  0.
         25    1    1    2    0    0 -0.11024704939E+03  0.11019087108E+03 -0.96486528242E+02  0.22188080156E+03  0.12500000000E+03 0.  0.
</event>
<event>
 5    0  0.5626800E-005  0.2389211E+03  0.7546771E-02  0.1120514E+00
         21   -1    0    0  502  501  0.00000000000E+00  0.00000000000E+00  0.84850260499E+03  0.84850260499E+03  0.00000000000E+00 0.  1.
         21   -1    0    0  501  502 -0.00000000000E+00 -0.00000000000E+00 -0.67275345777E+02  0.67275345777E+02  0.00000000000E+00 0.  1.
         25    1    1    2    0    0  0.13308322759E+02 -0.75115583451E+02  0.35914803390E+03  0.38785535008E+03  0.12500000000E+03 0.  0.
         25    1    1    2    0    0 -0.75295173837E+02  0.92164065051E+02  0.19081495730E+03  0.25729151952E+03  0.12500000000E+03 0.  0.
         25    1    1    2    0    0  0.61986851078E+02 -0.17048481599E+02  0.23126426801E+03  0.27063108116E+03  0.12500000000E+03 0.  0.
</event>
<event>
 5    0  0.5626800E-005  0.2840089E+03  0.7546771E-02  0.1093519E+00
         21   -1    0    0  502  501  0.00000000000E+00  0.00000000000E+00  0.11494966754E+04  0.11494966754E+04  0.00000000000E+00 0.  1.
         21   -1    0    0  501  502 -0.00000000000E+00 -0.00000000000E+00 -0.70170776911E+02  0.70170776911E+02  0.00000000000E+00 0.  1.
         25    1    1    2    0    0 -0.23445511099E+02 -0.94356864932E+02  0.54139336636E+03  0.56407861782E+03  0.12500000000E+03 0.  0.
         25    1    1    2    0    0  0.63815297302E+02  0.35459873454E+02  0.47837666342E+03  0.49979898649E+03  0.12500000000E+03 0.  0.
         25    1    1    2    0    0 -0.40369786203E+02  0.58896991479E+02  0.59555868731E+02  0.15578984801E+03  0.12500000000E+03 0.  0.
</event>
<event>
 5    0  0.5626800E-005  0.2649596E+03  0.7546771E-02  0.1104199E+00
         21   -1    0    0  502  501  0.00000000000E+00  0.00000000000E+00  0.62071722145E+03  0.62071722145E+03  0.00000000000E+00 0.  1.
         21   -1    0    0  501  502 -0.00000000000E+00 -0.00000000000E+00 -0.11310075890E+03  0.11310075890E+03  0.00000000000E+00 0.  1.
         25    1    1    2    0    0 -0.66497098161E+02  0.62436315586E+02  0.11541369368E+03  0.19304268507E+03  0.12500000000E+03 0.  0.
         25    1    1    2    0    0  0.42069610787E+02  0.38716491551E+02  0.25744635807E+02  0.13984493249E+03  0.12500000000E+03 0.  0.
         25    1    1    2    0    0  0.24427487374E+02 -0.10115280714E+03  0.36645813306E+03  0.40093036280E+03  0.12500000000E+03 0.  0.
</event>
<event>
 5    0  0.7554288E-005  0.3171115E+03  0.7546771E-02  0.1076986E+00
         21   -1    0    0  502  501  0.00000000000E+00  0.00000000000E+00  0.41530567838E+03  0.41530567838E+03  0.00000000000E+00 0.  1.
         21   -1    0    0  501  502 -0.00000000000E+00 -0.00000000000E+00 -0.24213413365E+03  0.24213413365E+03  0.00000000000E+00 0. -1.
         25    1    1    2    0    0 -0.12663092032E+03 -0.16334857571E+03  0.10887413254E+03  0.26494664350E+03  0.12500000000E+03 0.  0.
         25    1    1    2    0    0  0.10426952429E+03  0.42621208455E+02 -0.58927237596E+02  0.17828662439E+03  0.12500000000E+03 0.  0.
         25    1    1    2    0    0  0.22361396026E+02  0.12072736725E+03  0.12322464979E+03  0.21420654414E+03  0.12500000000E+03 0.  0.
</event>
<event>
 5    0  0.5626800E-005  0.2892465E+03  0.7546771E-02  0.1090743E+00
         21   -1    0    0  502  501  0.00000000000E+00  0.00000000000E+00  0.22884897637E+03  0.22884897637E+03  0.00000000000E+00 0.  1.
         21   -1    0    0  501  502 -0.00000000000E+00 -0.00000000000E+00 -0.36558412251E+03  0.36558412251E+03  0.00000000000E+00 0.  1.
         25    1    1    2    0    0 -0.94996536889E+02 -0.78323606072E+01 -0.12914777540E+03  0.20344492076E+03  0.12500000000E+03 0.  0.
         25    1    1    2    0    0  0.92002662384E+02 -0.12444968749E+03 -0.47741334206E+02  0.20458848842E+03  0.12500000000E+03 0.  0.
         25    1    1    2    0    0  0.29938745045E+01  0.13228204810E+03  0.40153963462E+02  0.18639968969E+03  0.12500000000E+03 0.  0.
</event>
<event>
 5    0  0.5626800E-005  0.3495143E+03  0.7546771E-02  0.1062815E+00
         21   -1    0    0  502  501  0.00000000000E+00  0.00000000000E+00  0.10457368991E+03  0.10457368991E+03  0.00000000000E+00 0.  1.
         21   -1    0    0  501  502 -0.00000000000E+00 -0.00000000000E+00 -0.11681739895E+04  0.11681739895E+04  0.00000000000E+00 0.  1.
         25    1    1    2    0    0  0.11629796857E+03 -0.91537391948E+02 -0.37005890506E+02  0.19722765412E+03  0.12500000000E+03 0.  0.
         25    1    1    2    0    0 -0.10576924732E+03  0.47575572713E+02 -0.39738914051E+03  0.43242767927E+03  0.12500000000E+03 0.  0.
         25    1    1    2    0    0 -0.10528721246E+02  0.43961819235E+02 -0.62920526858E+03  0.64309234603E+03  0.12500000000E+03 0.  0.
</event>
<event>
 5    0  0.5626800E-005  0.2564802E+03  0.7546771E-02  0.1109277E+00
         21   -1    0    0  502  501  0.00000000000E+00  0.00000000000E+00  0.47015782191E+03  0.47015782191E+03  0.00000000000E+00 0. -1.
         21   -1    0    0  501  502 -0.00000000000E+00 -0.00000000000E+00 -0.13991493673E+03  0.13991493673E+03  0.00000000000E+00 0. -1.
         25    1    1    2    0    0 -0.79578515883E+02 -0.14927777574E+02  0.12549572818E+03  0.19475563284E+03  0.12500000000E+03 0.  0.
         25    1    1    2    0    0  0.51080885483E+02 -0.11452172867E+03  0.12322505018E+03  0.21571716712E+03  0.12500000000E+03 0.  0.
         25    1    1    2    0    0  0.28497630400E+02  0.12944950624E+03  0.81522106824E+02  0.19959995868E+03  0.12500000000E+03 0.  0.
</event>
<event>
 5    0  0.5626800E-005  0.3408845E+03  0.7546771E-02  0.1066420E+00
         21   -1    0    0  502  501  0.00000000000E+00  0.00000000000E+00  0.10668711737E+04  0.10668711737E+04  0.00000000000E+00 0.  1.
         21   -1    0    0  501  502 -0.00000000000E+00 -0.00000000000E+00 -0.10891870541E+03  0.10891870541E+03  0.00000000000E+00 0.  1.
         25    1    1    2    0    0  0.24011712326E+03  0.28967520274E+02  0.25211234134E+03  0.37105388122E+03  0.12500000000E+03 0.  0.
         25    1    1    2    0    0 -0.38079558406E+02 -0.18238068479E+02  0.14774377632E+03  0.19808054764E+03  0.12500000000E+03 0.  0.
         25    1    1    2    0    0 -0.20203756485E+03 -0.10729451795E+02  0.55809635062E+03  0.60665545025E+03  0.12500000000E+03 0.  0.
</event>
<event>
 5    0  0.5626800E-005  0.3769623E+03  0.7546771E-02  0.1052062E+00
         21   -1    0    0  502  501  0.00000000000E+00  0.00000000000E+00  0.96610983473E+03  0.96610983473E+03  0.00000000000E+00 0. -1.
         21   -1    0    0  501  502 -0.00000000000E+00 -0.00000000000E+00 -0.14708528652E+03  0.14708528652E+03  0.00000000000E+00 0. -1.
         25    1    1    2    0    0 -0.19806821676E+03  0.11222977330E+02  0.37464392235E+02  0.23745642631E+03  0.12500000000E+03 0.  0.
         25    1    1    2    0    0  0.14385870728E+03  0.78355027651E+02  0.58568645169E+03  0.62087716797E+03  0.12500000000E+03 0.  0.
         25    1    1    2    0    0  0.54209509483E+02 -0.89578004981E+02  0.19587370429E+03  0.25486152697E+03  0.12500000000E+03 0.  0.
</event>
<event>
 5    0  0.5626800E-005  0.3635448E+03  0.7546771E-02  0.1057189E+00
         21   -1    0    0  502  501  0.00000000000E+00  0.00000000000E+00  0.28348606261E+03  0.28348606261E+03  0.00000000000E+00 0.  1.
         21   -1    0    0  501  502 -0.00000000000E+00 -0.00000000000E+00 -0.46621265314E+03  0.46621265314E+03  0.00000000000E+00 0.  1.
         25    1    1    2    0    0 -0.97913787631E+02 -0.96298555668E+02 -0.28950827770E+02  0.18794592856E+03  0.12500000000E+03 0.  0.
         25    1    1    2    0    0 -0.16203732521E+03  0.74241637948E+02  0.28912797393E+02  0.21961071335E+03  0.12500000000E+03 0.  0.
         25    1    1    2    0    0  0.25995111284E+03  0.22056917720E+02 -0.18268856015E+03  0.34214207384E+03  0.12500000000E+03 0.  0.
</event>
<event>
 5    0  0.5626800E-005  0.3161712E+03  0.7546771E-02  0.1077425E+00
         21   -1    0    0  502  501  0.00000000000E+00  0.00000000000E+00  0.43964561532E+02  0.43964561532E+02  0.00000000000E+00 0. -1.
         21   -1    0    0  501  502 -0.00000000000E+00 -0.00000000000E+00 -0.22737459020E+04  0.22737459020E+04  0.00000000000E+00 0. -1.
         25    1    1    2    0    0 -0.30351878201E+02  0.11937041452E+03 -0.11575172564E+04  0.11707440930E+04  0.12500000000E+03 0.  0.
         25    1    1    2    0    0 -0.90555649106E+01  0.41626877333E+02 -0.14240165328E+03  0.19421130510E+03  0.12500000000E+03 0.  0.
         25    1    1    2    0    0  0.39407443112E+02 -0.16099729186E+03 -0.92986243077E+03  0.95275506544E+03  0.12500000000E+03 0.  0.
</event>
<event>
 5    0  0.5626800E-005  0.3262891E+03  0.7546771E-02  0.1072791E+00
         21   -1    0    0  502  501  0.00000000000E+00  0.00000000000E+00  0.14163165908E+03  0.14163165908E+03  0.00000000000E+00 0.  1.
         21   -1    0    0  501  502 -0.00000000000E+00 -0.00000000000E+00 -0.75170055472E+03  0.75170055472E+03  0.00000000000E+00 0.  1.
         25    1    1    2    0    0 -0.37060808993E+02  0.18478171513E+03 -0.28893463612E+03  0.36691417219E+03  0.12500000000E+03 0.  0.
         25    1    1    2    0    0  0.15633286506E+03 -0.11031716618E+03 -0.18803318591E+03  0.29595830932E+03  0.12500000000E+03 0.  0.
         25    1    1    2    0    0 -0.11927205607E+03 -0.74464548945E+02 -0.13310107361E+03  0.23045973229E+03  0.12500000000E+03 0.  0.
</event>
<event>
 5    0  0.5626800E-005  0.3844993E+03  0.7546771E-02  0.1049283E+00
         21   -1    0    0  502  501  0.00000000000E+00  0.00000000000E+00  0.16512844889E+03  0.16512844889E+03  0.00000000000E+00 0.  1.
         21   -1    0    0  501  502 -0.00000000000E+00 -0.00000000000E+00 -0.89530144928E+03  0.89530144928E+03  0.00000000000E+00 0.  1.
         25    1    1    2    0    0 -0.15238587713E+03  0.22191380929E+03 -0.11475008636E+03  0.31821341364E+03  0.12500000000E+03 0.  0.
         25    1    1    2    0    0 -0.58003059484E+00 -0.28599473668E+02 -0.12389155940E+03  0.17830419182E+03  0.12500000000E+03 0.  0.
         25    1    1    2    0    0  0.15296590772E+03 -0.19331433562E+03 -0.49153135464E+03  0.56391229271E+03  0.12500000000E+03 0.  0.
</event>
<event>
 5    0  0.5626800E-005  0.3055042E+03  0.7546771E-02  0.1082521E+00
         21   -1    0    0  502  501  0.00000000000E+00  0.00000000000E+00  0.21883130672E+03  0.21883130672E+03  0.00000000000E+00 0. -1.
         21   -1    0    0  501  502 -0.00000000000E+00 -0.00000000000E+00 -0.42650576314E+03  0.42650576314E+03  0.00000000000E+00 0. -1.
         25    1    1    2    0    0 -0.13674215102E+03  0.21559333937E+02 -0.22884879761E+03  0.29522871289E+03  0.12500000000E+03 0.  0.
         25    1    1    2    0    0  0.74705677211E+01 -0.88144981586E+02  0.37501191541E+02  0.15766003466E+03  0.12500000000E+03 0.  0.
         25    1    1    2    0    0  0.12927158330E+03  0.66585647649E+02 -0.16326850359E+02  0.19244832232E+03  0.12500000000E+03 0.  0.
</event>
<event>
 5    0  0.5626800E-005  0.2157182E+03  0.7546771E-02  0.1137116E+00
         21   -1    0    0  502  501  0.00000000000E+00  0.00000000000E+00  0.44782299846E+02  0.44782299846E+02  0.00000000000E+00 0. -1.
         21   -1    0    0  501  502 -0.00000000000E+00 -0.00000000000E+00 -0.10391231196E+04  0.10391231196E+04  0.00000000000E+00 0. -1.
         25    1    1    2    0    0 -0.66639062319E+02 -0.16703235062E+02 -0.20429106920E+03  0.24915778864E+03  0.12500000000E+03 0.  0.
         25    1    1    2    0    0  0.64902809049E+02 -0.11056493142E+02 -0.42851480982E+03  0.45120346064E+03  0.12500000000E+03 0.  0.
         25    1    1    2    0    0  0.17362532704E+01  0.27759728204E+02 -0.36153494071E+03  0.38354417013E+03  0.12500000000E+03 0.  0.
</event>
<event>
 5    0  0.5626800E-005  0.4033941E+03  0.7546771E-02  0.1042611E+00
         21   -1    0    0  502  501  0.00000000000E+00  0.00000000000E+00  0.20454150517E+04  0.20454150517E+04  0.00000000000E+00 0. -1.
         21   -1    0    0  501  502 -0.00000000000E+00 -0.00000000000E+00 -0.79556864487E+02  0.79556864487E+02  0.00000000000E+00 0. -1.
         25    1    1    2    0    0  0.13622004628E+03 -0.67273600174E+02  0.30456283288E+03  0.36258124257E+03  0.12500000000E+03 0.  0.
         25    1    1    2    0    0 -0.28798803477E+03 -0.98152551833E+02  0.85236945928E+03  0.91363544519E+03  0.12500000000E+03 0.  0.
         25    1    1    2    0    0  0.15176798849E+03  0.16542615201E+03  0.80892589508E+03  0.84875522845E+03  0.12500000000E+03 0.  0.
</event>
<event>
 5    0  0.5626800E-005  0.3259215E+03  0.7546771E-02  0.1072956E+00
         21   -1    0    0  502  501  0.00000000000E+00  0.00000000000E+00  0.33476024517E+03  0.33476024517E+03  0.00000000000E+00 0.  1.
         21   -1    0    0  501  502 -0.00000000000E+00 -0.00000000000E+00 -0.31731613755E+03  0.31731613755E+03  0.00000000000E+00 0.  1.
         25    1    1    2    0    0 -0.74081998919E+01 -0.56526572053E+02 -0.53699902350E+02  0.14750869224E+03  0.12500000000E+03 0.  0.
         25    1    1    2    0    0 -0.12210224909E+03 -0.12963210381E+03 -0.42660870617E+02  0.22171691738E+03  0.12500000000E+03 0.  0.
         25    1    1    2    0    0  0.12951044899E+03  0.18615867586E+03  0.11380488059E+03  0.28285077309E+03  0.12500000000E+03 0.  0.
</event>
<event>
 5    0  0.5626800E-005  0.3440799E+03  0.7546771E-02  0.1065071E+00
         21   -1    0    0  502  501  0.00000000000E+00  0.00000000000E+00  0.13403205869E+04  0.13403205869E+04  0.00000000000E+00 0.  1.
         21   -1    0    0  501  502 -0.00000000000E+00 -0.00000000000E+00 -0.88330318407E+02  0.88330318407E+02  0.00000000000E+00 0.  1.
         25    1    1    2    0    0 -0.49065212585E+02  0.18821573811E+03  0.42399689382E+03  0.48293987734E+03  0.12500000000E+03 0.  0.
         25    1    1    2    0    0 -0.51226841993E+02  0.44524067343E+02  0.46153174709E+03  0.48295251887E+03  0.12500000000E+03 0.  0.
         25    1    1    2    0    0  0.10029205458E+03 -0.23273980545E+03  0.36646162762E+03  0.46275850913E+03  0.12500000000E+03 0.  0.
</event>
<event>
 5    0  0.5626800E-005  0.6323074E+03  0.7546771E-02  0.9840556E-01
         21   -1    0    0  502  501  0.00000000000E+00  0.00000000000E+00  0.30673793274E+03  0.30673793274E+03  0.00000000000E+00 0. -1.
         21   -1    0    0  501  502 -0.00000000000E+00 -0.00000000000E+00 -0.13034340793E+04  0.13034340793E+04  0.00000000000E+00 0. -1.
         25    1    1    2    0    0  0.93721599314E+02  0.38556595292E+03  0.63564311771E+02  0.42084470290E+03  0.12500000000E+03 0.  0.
         25    1    1    2    0    0  0.32969986284E+02 -0.29710887872E+03 -0.78992180780E+03  0.85379281342E+03  0.12500000000E+03 0.  0.
         25    1    1    2    0    0 -0.12669158560E+03 -0.88457074199E+02 -0.27033865052E+03  0.33553449570E+03  0.12500000000E+03 0.  0.
</event>
<event>
 5    0  0.5626800E-005  0.2962823E+03  0.7546771E-02  0.1087114E+00
         21   -1    0    0  502  501  0.00000000000E+00  0.00000000000E+00  0.59398961155E+03  0.59398961155E+03  0.00000000000E+00 0.  1.
         21   -1    0    0  501  502 -0.00000000000E+00 -0.00000000000E+00 -0.14778572289E+03  0.14778572289E+03  0.00000000000E+00 0.  1.
         25    1    1    2    0    0 -0.25290314454E+02 -0.10925440391E+03  0.23549524511E+03  0.28923888958E+03  0.12500000000E+03 0.  0.
         25    1    1    2    0    0  0.17338480695E+00  0.13163108724E+03  0.25736128013E+03  0.31493904441E+03  0.12500000000E+03 0.  0.
         25    1    1    2    0    0  0.25116929647E+02 -0.22376683327E+02 -0.46652636573E+02  0.13759740045E+03  0.12500000000E+03 0.  0.
</event>
<event>
 5    0  0.5626800E-005  0.3582588E+03  0.7546771E-02  0.1059275E+00
         21   -1    0    0  502  501  0.00000000000E+00  0.00000000000E+00  0.87234668422E+03  0.87234668422E+03  0.00000000000E+00 0.  1.
         21   -1    0    0  501  502 -0.00000000000E+00 -0.00000000000E+00 -0.14713116394E+03  0.14713116394E+03  0.00000000000E+00 0.  1.
         25    1    1    2    0    0  0.15638741231E+03  0.11451489113E+03  0.19893068013E+03  0.30458020047E+03  0.12500000000E+03 0.  0.
         25    1    1    2    0    0 -0.20299928886E+03 -0.12223856909E+03  0.13215968378E+03  0.29873426498E+03  0.12500000000E+03 0.  0.
         25    1    1    2    0    0  0.46611876549E+02  0.77236779662E+01  0.39412515636E+03  0.41616338272E+03  0.12500000000E+03 0.  0.
</event>
<event>
 5    0  0.5626800E-005  0.3263223E+03  0.7546771E-02  0.1072776E+00
         21   -1    0    0  502  501  0.00000000000E+00  0.00000000000E+00  0.49621447168E+03  0.49621447168E+03  0.00000000000E+00 0. -1.
         21   -1    0    0  501  502 -0.00000000000E+00 -0.00000000000E+00 -0.21459727537E+03  0.21459727537E+03  0.00000000000E+00 0. -1.
         25    1    1    2    0    0  0.60934219829E+02 -0.97961776634E+02 -0.12545340957E+03  0.21135999338E+03  0.12500000000E+03 0.  0.
         25    1    1    2    0    0 -0.49442206351E+02  0.91564895920E+02  0.20832875289E+03  0.26430007797E+03  0.12500000000E+03 0.  0.
         25    1    1    2    0    0 -0.11492013478E+02  0.63968807133E+01  0.19874185299E+03  0.23515167570E+03  0.12500000000E+03 0.  0.
</event>
<event>
 5    0  0.5626800E-005  0.3107332E+03  0.7546771E-02  0.1079995E+00
         21   -1    0    0  502  501  0.00000000000E+00  0.00000000000E+00  0.12618260797E+04  0.12618260797E+04  0.00000000000E+00 0.  1.
         21   -1    0    0  501  502 -0.00000000000E+00 -0.00000000000E+00 -0.76520155599E+02  0.76520155599E+02  0.00000000000E+00 0.  1.
         25    1    1    2    0    0 -0.13314289666E+02  0.12414394391E+03  0.84905771900E+03  0.86724448647E+03  0.12500000000E+03 0.  0.
         25    1    1    2    0    0  0.38440172124E+02 -0.14465433535E+03  0.15795363418E+03  0.25095193588E+03  0.12500000000E+03 0.  0.
         25    1    1    2    0    0 -0.25125882458E+02  0.20510391445E+02  0.17829457096E+03  0.22014981299E+03  0.12500000000E+03 0.  0.
</event>
<event>
 5    0  0.5626800E-005  0.3335455E+03  0.7546771E-02  0.1069579E+00
         21   -1    0    0  502  501  0.00000000000E+00  0.00000000000E+00  0.96169083798E+02  0.96169083798E+02  0.00000000000E+00 0. -1.
         21   -1    0    0  501  502 -0.00000000000E+00 -0.00000000000E+00 -0.11568436744E+04  0.11568436744E+04  0.00000000000E+00 0. -1.
         25    1    1    2    0    0  0.11356535034E+02 -0.10597856512E+03 -0.17150961555E+03  0.23748889528E+03  0.12500000000E+03 0.  0.
         25    1    1    2    0    0  0.42559556553E+02 -0.15048973839E+03 -0.35851270630E+03  0.41062737098E+03  0.12500000000E+03 0.  0.
         25    1    1    2    0    0 -0.53916091586E+02  0.25646830351E+03 -0.53065226871E+03  0.60489649191E+03  0.12500000000E+03 0.  0.
</event>
<event>
 5    0  0.5626800E-005  0.2733343E+03  0.7546771E-02  0.1099386E+00
         21   -1    0    0  502  501  0.00000000000E+00  0.00000000000E+00  0.10906971706E+04  0.10906971706E+04  0.00000000000E+00 0. -1.
         21   -1    0    0  501  502 -0.00000000000E+00 -0.00000000000E+00 -0.68498994954E+02  0.68498994954E+02  0.00000000000E+00 0. -1.
         25    1    1    2    0    0  0.12159367141E+03 -0.62330170978E+01  0.33061801828E+03  0.37384106976E+03  0.12500000000E+03 0.  0.
         25    1    1    2    0    0 -0.18555455507E+03 -0.30371208876E+02  0.38890395131E+03  0.44969343622E+03  0.12500000000E+03 0.  0.
         25    1    1    2    0    0  0.63960883659E+02  0.36604225974E+02  0.30267620610E+03  0.33566165962E+03  0.12500000000E+03 0.  0.
</event>
<event>
 5    0  0.5626800E-005  0.6760479E+03  0.7546771E-02  0.9759094E-01
         21   -1    0    0  502  501  0.00000000000E+00  0.00000000000E+00  0.39061302108E+03  0.39061302108E+03  0.00000000000E+00 0.  1.
         21   -1    0    0  501  502 -0.00000000000E+00 -0.00000000000E+00 -0.11700600867E+04  0.11700600867E+04  0.00000000000E+00 0.  1.
         25    1    1    2    0    0 -0.19268042838E+03 -0.77337490314E+02 -0.10103350704E+03  0.26256352457E+03  0.12500000000E+03 0.  0.
         25    1    1    2    0    0 -0.43841685384E+03  0.41936844772E+02 -0.34043639421E+03  0.57051728736E+03  0.12500000000E+03 0.  0.
         25    1    1    2    0    0  0.63109728222E+03  0.35400645543E+02 -0.33797716435E+03  0.72759229583E+03  0.12500000000E+03 0.  0.
</event>
<event>
 5    0  0.5626800E-005  0.3645251E+03  0.7546771E-02  0.1056806E+00
         21   -1    0    0  502  501  0.00000000000E+00  0.00000000000E+00  0.38887336953E+03  0.38887336953E+03  0.00000000000E+00 0.  1.
         21   -1    0    0  501  502 -0.00000000000E+00 -0.00000000000E+00 -0.34170132134E+03  0.34170132134E+03  0.00000000000E+00 0.  1.
         25    1    1    2    0    0  0.64423343923E+02 -0.11573964353E+03 -0.13062790041E+03  0.22413094541E+03  0.12500000000E+03 0.  0.
         25    1    1    2    0    0 -0.15173974318E+03  0.65445704140E+02 -0.63405725597E+02  0.21668727671E+03  0.12500000000E+03 0.  0.
         25    1    1    2    0    0  0.87316399258E+02  0.50293939391E+02  0.24120567419E+03  0.28975646874E+03  0.12500000000E+03 0.  0.
</event>
<event>
 5    0  0.5626800E-005  0.3527689E+03  0.7546771E-02  0.1061484E+00
         21   -1    0    0  502  501  0.00000000000E+00  0.00000000000E+00  0.33008949855E+03  0.33008949855E+03  0.00000000000E+00 0.  1.
         21   -1    0    0  501  502 -0.00000000000E+00 -0.00000000000E+00 -0.37700660113E+03  0.37700660113E+03  0.00000000000E+00 0.  1.
         25    1    1    2    0    0  0.77808086000E+02  0.15994069871E+03 -0.72121118455E+02  0.22904493244E+03  0.12500000000E+03 0.  0.
         25    1    1    2    0    0 -0.13358779688E+03  0.79040719651E+02  0.35601049282E+02  0.20244893072E+03  0.12500000000E+03 0.  0.
         25    1    1    2    0    0  0.55779710885E+02 -0.23898141836E+03 -0.10397033405E+02  0.27560223651E+03  0.12500000000E+03 0.  0.
</event>
<event>
 5    0  0.5626800E-005  0.3522894E+03  0.7546771E-02  0.1061679E+00
         21   -1    0    0  502  501  0.00000000000E+00  0.00000000000E+00  0.18353098598E+04  0.18353098598E+04  0.00000000000E+00 0.  1.
         21   -1    0    0  501  502 -0.00000000000E+00 -0.00000000000E+00 -0.67622259035E+02  0.67622259035E+02  0.00000000000E+00 0.  1.
         25    1    1    2    0    0  0.11188126242E+03 -0.18156074029E+03  0.13073569153E+04  0.13305220116E+04  0.12500000000E+03 0.  0.
         25    1    1    2    0    0 -0.51071765447E+02  0.10200507995E+03  0.30771058519E+03  0.35117540603E+03  0.12500000000E+03 0.  0.
         25    1    1    2    0    0 -0.60809496969E+02  0.79555660339E+02  0.15262010021E+03  0.22123470117E+03  0.12500000000E+03 0.  0.
</event>
<event>
 5    0  0.5626800E-005  0.4956115E+03  0.7546771E-02  0.1014931E+00
         21   -1    0    0  502  501  0.00000000000E+00  0.00000000000E+00  0.76131438644E+03  0.76131438644E+03  0.00000000000E+00 0. -1.
         21   -1    0    0  501  502 -0.00000000000E+00 -0.00000000000E+00 -0.32264035165E+03  0.32264035165E+03  0.00000000000E+00 0. -1.
         25    1    1    2    0    0  0.13130486682E+03 -0.88782630914E+02  0.87832508881E+02  0.22014284730E+03  0.12500000000E+03 0.  0.
         25    1    1    2    0    0 -0.41628316800E+03  0.17159923943E+03  0.21211984632E+03  0.51318398663E+03  0.12500000000E+03 0.  0.
         25    1    1    2    0    0  0.28497830118E+03 -0.82816608515E+02  0.13872167960E+03  0.35062790416E+03  0.12500000000E+03 0.  0.
</event>
<event>
 5    0  0.5626800E-005  0.2585870E+03  0.7546771E-02  0.1107995E+00
         21   -1    0    0  502  501  0.00000000000E+00  0.00000000000E+00  0.47010858096E+03  0.47010858096E+03  0.00000000000E+00 0.  1.
         21   -1    0    0  501  502 -0.00000000000E+00 -0.00000000000E+00 -0.14223788041E+03  0.14223788041E+03  0.00000000000E+00 0.  1.
         25    1    1    2    0    0 -0.19899059876E+02 -0.99360864967E+02  0.92698592716E+02  0.18570563579E+03  0.12500000000E+03 0.  0.
         25    1    1    2    0    0 -0.75228622940E+02  0.24131456744E+02  0.20037687023E+03  0.24903325689E+03  0.12500000000E+03 0.  0.
         25    1    1    2    0    0  0.95127682816E+02  0.75229408223E+02  0.34795237602E+02  0.17760756870E+03  0.12500000000E+03 0.  0.
</event>
<event>
 5    0  0.5626800E-005  0.2049959E+03  0.7546771E-02  0.1145591E+00
         21   -1    0    0  502  501  0.00000000000E+00  0.00000000000E+00  0.12651325768E+04  0.12651325768E+04  0.00000000000E+00 0.  1.
         21   -1    0    0  501  502 -0.00000000000E+00 -0.00000000000E+00 -0.33216533941E+02  0.33216533941E+02  0.00000000000E+00 0.  1.
         25    1    1    2    0    0 -0.36867280590E+01 -0.33581722456E+02  0.59865243838E+03  0.61249576817E+03  0.12500000000E+03 0.  0.
         25    1    1    2    0    0 -0.19961373583E+02 -0.14379941276E+02  0.31149897376E+03  0.33654397900E+03  0.12500000000E+03 0.  0.
         25    1    1    2    0    0  0.23648101642E+02  0.47961663732E+02  0.32176463074E+03  0.34930936359E+03  0.12500000000E+03 0.  0.
</event>
<event>
 5    0  0.5626800E-005  0.2682786E+03  0.7546771E-02  0.1102269E+00
         21   -1    0    0  502  501  0.00000000000E+00  0.00000000000E+00  0.62605290798E+03  0.62605290798E+03  0.00000000000E+00 0. -1.
         21   -1    0    0  501  502 -0.00000000000E+00 -0.00000000000E+00 -0.11496373953E+03  0.11496373953E+03  0.00000000000E+00 0. -1.
         25    1    1    2    0    0 -0.14064194374E+03 -0.22921752436E+01  0.11473637891E+03  0.22039702142E+03  0.12500000000E+03 0.  0.
         25    1    1    2    0    0  0.82051661033E+02  0.72703745531E+02  0.12454325578E+03  0.20773620833E+03  0.12500000000E+03 0.  0.
         25    1    1    2    0    0  0.58590282709E+02 -0.70411570288E+02  0.27180953377E+03  0.31288341776E+03  0.12500000000E+03 0.  0.
</event>
<event>
 5    0  0.5626800E-005  0.2740823E+03  0.7546771E-02  0.1098966E+00
         21   -1    0    0  502  501  0.00000000000E+00  0.00000000000E+00  0.59526033766E+03  0.59526033766E+03  0.00000000000E+00 0. -1.
         21   -1    0    0  501  502 -0.00000000000E+00 -0.00000000000E+00 -0.12619871814E+03  0.12619871814E+03  0.00000000000E+00 0. -1.
         25    1    1    2    0    0 -0.15075237766E+03  0.54224861224E+02  0.29287584009E+03  0.35646580853E+03  0.12500000000E+03 0.  0.
         25    1    1    2    0    0  0.76818928123E+02  0.89019729674E+01  0.13906211887E+03  0.20234541197E+03  0.12500000000E+03 0.  0.
         25    1    1    2    0    0  0.73933449542E+02 -0.63126834191E+02  0.37123660564E+02  0.16264783531E+03  0.12500000000E+03 0.  0.
</event>
<event>
 5    0  0.5626800E-005  0.2837304E+03  0.7546771E-02  0.1093669E+00
         21   -1    0    0  502  501  0.00000000000E+00  0.00000000000E+00  0.11264071612E+04  0.11264071612E+04  0.00000000000E+00 0.  1.
         21   -1    0    0  501  502 -0.00000000000E+00 -0.00000000000E+00 -0.71468756321E+02  0.71468756321E+02  0.00000000000E+00 0.  1.
         25    1    1    2    0    0  0.81275792746E+02 -0.63937663150E+02  0.26694388417E+03  0.31237448127E+03  0.12500000000E+03 0.  0.
         25    1    1    2    0    0 -0.10319769094E+03  0.15460318174E+03  0.60455405229E+03  0.64471893826E+03  0.12500000000E+03 0.  0.
         25    1    1    2    0    0  0.21921898189E+02 -0.90665518590E+02  0.18344046843E+03  0.24078249799E+03  0.12500000000E+03 0.  0.
</event>
<event>
 5    0  0.5626800E-005  0.3414738E+03  0.7546771E-02  0.1066170E+00
         21   -1    0    0  502  501  0.00000000000E+00  0.00000000000E+00  0.60983954370E+02  0.60983954370E+02  0.00000000000E+00 0.  1.
         21   -1    0    0  501  502 -0.00000000000E+00 -0.00000000000E+00 -0.19120500032E+04  0.19120500032E+04  0.00000000000E+00 0.  1.
         25    1    1    2    0    0  0.86393257070E+02 -0.68251986683E+02 -0.17947888387E+03  0.24486689917E+03  0.12500000000E+03 0.  0.
         25    1    1    2    0    0 -0.20969058838E+03  0.55228655416E+02 -0.11730657016E+04  0.11994700861E+04  0.12500000000E+03 0.  0.
         25    1    1    2    0    0  0.12329733131E+03  0.13023331267E+02 -0.49852146342E+03  0.52869697233E+03  0.12500000000E+03 0.  0.
</event>
<event>
 5    0  0.5626800E-005  0.2580056E+03  0.7546771E-02  0.1108347E+00
         21   -1    0    0  502  501  0.00000000000E+00  0.00000000000E+00  0.19669254853E+03  0.19669254853E+03  0.00000000000E+00 0.  1.
         21   -1    0    0  501  502 -0.00000000000E+00 -0.00000000000E+00 -0.33843110696E+03  0.33843110696E+03  0.00000000000E+00 0.  1.
         25    1    1    2    0    0  0.82888205872E+02 -0.17471787888E+02 -0.12109234318E+03  0.19355638357E+03  0.12500000000E+03 0.  0.
         25    1    1    2    0    0  0.58609100364E+02  0.53736787086E+02 -0.18527527071E+02  0.14930150097E+03  0.12500000000E+03 0.  0.
         25    1    1    2    0    0 -0.14149730624E+03 -0.36264999198E+02 -0.21186881739E+01  0.19226577095E+03  0.12500000000E+03 0.  0.
</event>
<event>
 5    0  0.5626800E-005  0.2420754E+03  0.7546771E-02  0.1118418E+00
         21   -1    0    0  502  501  0.00000000000E+00  0.00000000000E+00  0.37158443087E+03  0.37158443087E+03  0.00000000000E+00 0. -1.
         21   -1    0    0  501  502 -0.00000000000E+00 -0.00000000000E+00 -0.15770436612E+03  0.15770436612E+03  0.00000000000E+00 0. -1.
         25    1    1    2    0    0  0.54614511975E+02 -0.67161904661E+02  0.37774832645E+02  0.15666973012E+03  0.12500000000E+03 0.  0.
         25    1    1    2    0    0 -0.74169389554E+02 -0.13162261689E+02  0.16799593195E+03  0.22253533794E+03  0.12500000000E+03 0.  0.
         25    1    1    2    0    0  0.19554877578E+02  0.80324166350E+02  0.81093001486E+01  0.15008372892E+03  0.12500000000E+03 0.  0.
</event>
<event>
 5    0  0.5626800E-005  0.2654741E+03  0.7546771E-02  0.1103898E+00
         21   -1    0    0  502  501  0.00000000000E+00  0.00000000000E+00  0.54401716431E+02  0.54401716431E+02  0.00000000000E+00 0.  1.
         21   -1    0    0  501  502 -0.00000000000E+00 -0.00000000000E+00 -0.12954830876E+04  0.12954830876E+04  0.00000000000E+00 0.  1.
         25    1    1    2    0    0  0.65321226396E+02  0.31193785244E+01 -0.14510251669E+03  0.20237671183E+03  0.12500000000E+03 0.  0.
         25    1    1    2    0    0 -0.12447263156E+03 -0.37250499300E+02 -0.78533439452E+03  0.80576432468E+03  0.12500000000E+03 0.  0.
         25    1    1    2    0    0  0.59151405169E+02  0.34131120775E+02 -0.31064445994E+03  0.34174376751E+03  0.12500000000E+03 0.  0.
</event>
<event>
 5    0  0.5626800E-005  0.2657308E+03  0.7546771E-02  0.1103748E+00
         21   -1    0    0  502  501  0.00000000000E+00  0.00000000000E+00  0.42963744576E+03  0.42963744576E+03  0.00000000000E+00 0.  1.
         21   -1    0    0  501  502 -0.00000000000E+00 -0.00000000000E+00 -0.16435447064E+03  0.16435447064E+03  0.00000000000E+00 0.  1.
         25    1    1    2    0    0 -0.15139438935E+02 -0.14737815975E+03  0.22172590343E+03  0.29451129152E+03  0.12500000000E+03 0.  0.
         25    1    1    2    0    0  0.19920279686E+00  0.94626156917E+02  0.44540882718E+02  0.16298171520E+03  0.12500000000E+03 0.  0.
         25    1    1    2    0    0  0.14940236139E+02  0.52752002833E+02 -0.98381102276E+00  0.13649890968E+03  0.12500000000E+03 0.  0.
</event>
<event>
 5    0  0.5626800E-005  0.2348744E+03  0.7546771E-02  0.1123255E+00
         21   -1    0    0  502  501  0.00000000000E+00  0.00000000000E+00  0.66000043750E+02  0.66000043750E+02  0.00000000000E+00 0.  1.
         21   -1    0    0  501  502 -0.00000000000E+00 -0.00000000000E+00 -0.83584745675E+03  0.83584745675E+03  0.00000000000E+00 0.  1.
         25    1    1    2    0    0  0.10098057323E+03  0.75417396620E+00 -0.23272148141E+03  0.28281077217E+03  0.12500000000E+03 0.  0.
         25    1    1    2    0    0 -0.10379490421E+03  0.29800893607E+02 -0.20783178985E+03  0.26548169103E+03  0.12500000000E+03 0.  0.
         25    1    1    2    0    0  0.28143309790E+01 -0.30555067573E+02 -0.32929414174E+03  0.35355503730E+03  0.12500000000E+03 0.  0.
</event>
<event>
 5    0  0.5626800E-005  0.3039890E+03  0.7546771E-02  0.1083263E+00
         21   -1    0    0  502  501  0.00000000000E+00  0.00000000000E+00  0.48958367977E+02  0.48958367977E+02  0.00000000000E+00 0.  1.
         21   -1    0    0  501  502 -0.00000000000E+00 -0.00000000000E+00 -0.18875081271E+04  0.18875081271E+04  0.00000000000E+00 0.  1.
         25    1    1    2    0    0  0.72741610778E+02  0.16331262669E+03 -0.57498863603E+03  0.61497909521E+03  0.12500000000E+03 0.  0.
         25    1    1    2    0    0  0.37755993293E+02 -0.37258533057E+02 -0.23090210832E+03  0.26787029873E+03  0.12500000000E+03 0.  0.
         25    1    1    2    0    0 -0.11049760407E+03 -0.12605409364E+03 -0.10326590148E+04  0.10536171012E+04  0.12500000000E+03 0.  0.
</event>
<event>
 5    0  0.5626800E-005  0.2825786E+03  0.7546771E-02  0.1094289E+00
         21   -1    0    0  502  501  0.00000000000E+00  0.00000000000E+00  0.13465672037E+03  0.13465672037E+03  0.00000000000E+00 0.  1.
         21   -1    0    0  501  502 -0.00000000000E+00 -0.00000000000E+00 -0.59299445437E+03  0.59299445437E+03  0.00000000000E+00 0.  1.
         25    1    1    2    0    0  0.59416518397E+02  0.14198798729E+03 -0.15175146399E+03  0.24968864214E+03  0.12500000000E+03 0.  0.
         25    1    1    2    0    0  0.76105165216E+02 -0.67691341454E+02 -0.18299728326E+03  0.24389981460E+03  0.12500000000E+03 0.  0.
         25    1    1    2    0    0 -0.13552168361E+03 -0.74296645831E+02 -0.12358898674E+03  0.23406271800E+03  0.12500000000E+03 0.  0.
</event>
<event>
 5    0  0.5626800E-005  0.3762831E+03  0.7546771E-02  0.1052316E+00
         21   -1    0    0  502  501  0.00000000000E+00  0.00000000000E+00  0.91714236189E+03  0.91714236189E+03  0.00000000000E+00 0.  1.
         21   -1    0    0  501  502 -0.00000000000E+00 -0.00000000000E+00 -0.15438055741E+03  0.15438055741E+03  0.00000000000E+00 0.  1.
         25    1    1    2    0    0 -0.98897900640E+02 -0.39854184728E+02  0.11627550984E+03  0.20128125839E+03  0.12500000000E+03 0.  0.
         25    1    1    2    0    0 -0.50870317265E+02  0.12694381109E+03  0.62919573413E+03  0.65590760950E+03  0.12500000000E+03 0.  0.
         25    1    1    2    0    0  0.14976821790E+03 -0.87089626359E+02  0.17290560514E+02  0.21433405142E+03  0.12500000000E+03 0.  0.
</event>
<event>
 5    0  0.5626800E-005  0.6067750E+03  0.7546771E-02  0.9891449E-01
         21   -1    0    0  502  501  0.00000000000E+00  0.00000000000E+00  0.45892608028E+03  0.45892608028E+03  0.00000000000E+00 0.  1.
         21   -1    0    0  501  502 -0.00000000000E+00 -0.00000000000E+00 -0.80225546165E+03  0.80225546165E+03  0.00000000000E+00 0.  1.
         25    1    1    2    0    0  0.32215957021E+03  0.18754436524E+03  0.17666278563E+03  0.43103876559E+03  0.12500000000E+03 0.  0.
         25    1    1    2    0    0 -0.17293845333E+03  0.13514911950E+03 -0.30595021404E+03  0.39674113300E+03  0.12500000000E+03 0.  0.
         25    1    1    2    0    0 -0.14922111689E+03 -0.32269348474E+03 -0.21404195297E+03  0.43340164334E+03  0.12500000000E+03 0.  0.
</event>
<event>
 5    0  0.5626800E-005  0.5452555E+03  0.7546771E-02  0.1002598E+00
         21   -1    0    0  502  501  0.00000000000E+00  0.00000000000E+00  0.28269698038E+03  0.28269698038E+03  0.00000000000E+00 0. -1.
         21   -1    0    0  501  502 -0.00000000000E+00 -0.00000000000E+00 -0.10516687366E+04  0.10516687366E+04  0.00000000000E+00 0. -1.
         25    1    1    2    0    0  0.33836686828E+02  0.43000499148E+03 -0.30658742414E+03  0.54375551741E+03  0.12500000000E+03 0.  0.
         25    1    1    2    0    0 -0.89258480432E+02 -0.39979270518E+03 -0.15967525463E+03  0.45708037628E+03  0.12500000000E+03 0.  0.
         25    1    1    2    0    0  0.55421793604E+02 -0.30212286301E+02 -0.30270907744E+03  0.33352982328E+03  0.12500000000E+03 0.  0.
</event>
<event>
 5    0  0.5626800E-005  0.3316132E+03  0.7546771E-02  0.1070425E+00
         21   -1    0    0  502  501  0.00000000000E+00  0.00000000000E+00  0.14362612060E+03  0.14362612060E+03  0.00000000000E+00 0.  1.
         21   -1    0    0  501  502 -0.00000000000E+00 -0.00000000000E+00 -0.76564992513E+03  0.76564992513E+03  0.00000000000E+00 0.  1.
         25    1    1    2    0    0  0.80610710810E+02  0.12192974185E+03 -0.13175762768E+03  0.23313090978E+03  0.12500000000E+03 0.  0.
         25    1    1    2    0    0 -0.12488876085E+03  0.30016559128E+02 -0.41247532963E+02  0.18391453282E+03  0.12500000000E+03 0.  0.
         25    1    1    2    0    0  0.44278050040E+02 -0.15194630097E+03 -0.44901864388E+03  0.49223060312E+03  0.12500000000E+03 0.  0.
</event>
<event>
 5    0  0.5626800E-005  0.2692848E+03  0.7546771E-02  0.1101690E+00
         21   -1    0    0  502  501  0.00000000000E+00  0.00000000000E+00  0.11068724235E+03  0.11068724235E+03  0.00000000000E+00 0.  1.
         21   -1    0    0  501  502 -0.00000000000E+00 -0.00000000000E+00 -0.65512780602E+03  0.65512780602E+03  0.00000000000E+00 0.  1.
         25    1    1    2    0    0  0.10799441056E+03  0.11983426728E+03 -0.22735128607E+03  0.30551047708E+03  0.12500000000E+03 0.  0.
         25    1    1    2    0    0 -0.97790993656E+02 -0.63445690182E+02 -0.26058766894E+03  0.31163980369E+03  0.12500000000E+03 0.  0.
         25    1    1    2    0    0 -0.10203416907E+02 -0.56388577100E+02 -0.56501608659E+02  0.14866476760E+03  0.12500000000E+03 0.  0.
</event>
<event>
 5    0  0.5626800E-005  0.2610919E+03  0.7546771E-02  0.1106489E+00
         21   -1    0    0  502  501  0.00000000000E+00  0.00000000000E+00  0.13123206612E+03  0.13123206612E+03  0.00000000000E+00 0. -1.
         21   -1    0    0  501  502 -0.00000000000E+00 -0.00000000000E+00 -0.51945371807E+03  0.51945371807E+03  0.00000000000E+00 0. -1.
         25    1    1    2    0    0 -0.12880113304E+02  0.72779172663E+02 -0.12332037106E+03  0.19051409189E+03  0.12500000000E+03 0.  0.
         25    1    1    2    0    0 -0.54392029467E+02 -0.95294634380E+02 -0.88771699566E+01  0.16656339441E+03  0.12500000000E+03 0.  0.
         25    1    1    2    0    0  0.67272142771E+02  0.22515461716E+02 -0.25602411094E+03  0.29360829789E+03  0.12500000000E+03 0.  0.
</event>
<event>
 5    0  0.5626800E-005  0.3520559E+03  0.7546771E-02  0.1061774E+00
         21   -1    0    0  502  501  0.00000000000E+00  0.00000000000E+00  0.61723033090E+02  0.61723033090E+02  0.00000000000E+00 0. -1.
         21   -1    0    0  501  502 -0.00000000000E+00 -0.00000000000E+00 -0.20080570815E+04  0.20080570815E+04  0.00000000000E+00 0. -1.
         25    1    1    2    0    0  0.12481864048E+03 -0.16293835912E+03 -0.11626402823E+04  0.11872177677E+04  0.12500000000E+03 0.  0.
         25    1    1    2    0    0 -0.17888682370E+03  0.15136041772E+03 -0.45947282921E+03  0.53070778450E+03  0.12500000000E+03 0.  0.
         25    1    1    2    0    0  0.54068183223E+02  0.11577941400E+02 -0.32422093692E+03  0.35185456243E+03  0.12500000000E+03 0.  0.
</event>
<event>
 5    0  0.5626800E-005  0.2738727E+03  0.7546771E-02  0.1099083E+00
         21   -1    0    0  502  501  0.00000000000E+00  0.00000000000E+00  0.19070519886E+03  0.19070519886E+03  0.00000000000E+00 0.  1.
         21   -1    0    0  501  502 -0.00000000000E+00 -0.00000000000E+00 -0.39331004899E+03  0.39331004899E+03  0.00000000000E+00 0.  1.
         25    1    1    2    0    0 -0.49748823425E+02 -0.87256899643E+02  0.70197595384E+02  0.17504689190E+03  0.12500000000E+03 0.  0.
         25    1    1    2    0    0  0.84831243551E+02  0.53191959617E+01 -0.13462983878E+03  0.20242239801E+03  0.12500000000E+03 0.  0.
         25    1    1    2    0    0 -0.35082420126E+02  0.81937703681E+02 -0.13817260674E+03  0.20654595793E+03  0.12500000000E+03 0.  0.
</event>
<event>
 5    0  0.5626800E-005  0.3248671E+03  0.7546771E-02  0.1073431E+00
         21   -1    0    0  502  501  0.00000000000E+00  0.00000000000E+00  0.10270585173E+03  0.10270585173E+03  0.00000000000E+00 0.  1.
         21   -1    0    0  501  502 -0.00000000000E+00 -0.00000000000E+00 -0.10275815809E+04  0.10275815809E+04  0.00000000000E+00 0.  1.
         25    1    1    2    0    0 -0.13283438546E+03  0.84846074260E+02 -0.39351060871E+03  0.44194957794E+03  0.12500000000E+03 0.  0.
         25    1    1    2    0    0  0.16615892760E+03  0.84229256063E+01 -0.47603088239E+03  0.51952876329E+03  0.12500000000E+03 0.  0.
         25    1    1    2    0    0 -0.33324542135E+02 -0.93268999866E+02 -0.55334238116E+02  0.16880909144E+03  0.12500000000E+03 0.  0.
</event>
<event>
 5    0  0.5626800E-005  0.3740274E+03  0.7546771E-02  0.1053164E+00
         21   -1    0    0  502  501  0.00000000000E+00  0.00000000000E+00  0.13033179530E+03  0.13033179530E+03  0.00000000000E+00 0. -1.
         21   -1    0    0  501  502 -0.00000000000E+00 -0.00000000000E+00 -0.10733871833E+04  0.10733871833E+04  0.00000000000E+00 0. -1.
         25    1    1    2    0    0  0.11733390780E+03 -0.14568098141E+03 -0.34777337725E+03  0.41419985054E+03  0.12500000000E+03 0.  0.
         25    1    1    2    0    0  0.64760461543E+02 -0.39317270674E+01 -0.40556642531E+01  0.14089295323E+03  0.12500000000E+03 0.  0.
         25    1    1    2    0    0 -0.18209436935E+03  0.14961270848E+03 -0.59122634646E+03  0.64862617480E+03  0.12500000000E+03 0.  0.
</event>
<event>
 5    0  0.5626800E-005  0.5049656E+03  0.7546771E-02  0.1012491E+00
         21   -1    0    0  502  501  0.00000000000E+00  0.00000000000E+00  0.13822302773E+03  0.13822302773E+03  0.00000000000E+00 0. -1.
         21   -1    0    0  501  502 -0.00000000000E+00 -0.00000000000E+00 -0.18447742653E+04  0.18447742653E+04  0.00000000000E+00 0. -1.
         25    1    1    2    0    0 -0.40027198009E+02  0.36909780853E+03 -0.11901946461E+04  0.12530058517E+04  0.12500000000E+03 0.  0.
         25    1    1    2    0    0  0.35455996757E+02 -0.35248080150E+03 -0.30524827370E+03  0.48404684869E+03  0.12500000000E+03 0.  0.
         25    1    1    2    0    0  0.45712012522E+01 -0.16617007025E+02 -0.21110831776E+03  0.24594459260E+03  0.12500000000E+03 0.  0.
</event>
<event>
 5    0  0.5626800E-005  0.2988384E+03  0.7546771E-02  0.1085823E+00
         21   -1    0    0  502  501  0.00000000000E+00  0.00000000000E+00  0.15780604958E+03  0.15780604958E+03  0.00000000000E+00 0. -1.
         21   -1    0    0  501  502 -0.00000000000E+00 -0.00000000000E+00 -0.56591245828E+03  0.56591245828E+03  0.00000000000E+00 0. -1.
         25    1    1    2    0    0 -0.28499251828E+02 -0.24387090417E+02 -0.25491804814E+03  0.28638287100E+03  0.12500000000E+03 0.  0.
         25    1    1    2    0    0  0.15245293766E+03  0.17404739519E+02 -0.16926932184E+03  0.26042643198E+03  0.12500000000E+03 0.  0.
         25    1    1    2    0    0 -0.12395368583E+03  0.69823508986E+01  0.16080961281E+02  0.17690920488E+03  0.12500000000E+03 0.  0.
</event>
<event>
 5    0  0.5626800E-005  0.4457299E+03  0.7546771E-02  0.1029003E+00
         21   -1    0    0  502  501  0.00000000000E+00  0.00000000000E+00  0.19895130486E+03  0.19895130486E+03  0.00000000000E+00 0.  1.
         21   -1    0    0  501  502 -0.00000000000E+00 -0.00000000000E+00 -0.99861211776E+03  0.99861211776E+03  0.00000000000E+00 0.  1.
         25    1    1    2    0    0 -0.18266455135E+03 -0.23896971927E+03 -0.27668096637E+03  0.42737597288E+03  0.12500000000E+03 0.  0.
         25    1    1    2    0    0  0.11831841013E+03  0.29102884422E+03 -0.51997509164E+03  0.62023876875E+03  0.12500000000E+03 0.  0.
         25    1    1    2    0    0  0.64346141217E+02 -0.52059124949E+02 -0.30047548944E+01  0.14994868099E+03  0.12500000000E+03 0.  0.
</event>
<event>
 5    0  0.5626800E-005  0.2547815E+03  0.7546771E-02  0.1110320E+00
         21   -1    0    0  502  501  0.00000000000E+00  0.00000000000E+00  0.37942588647E+03  0.37942588647E+03  0.00000000000E+00 0.  1.
         21   -1    0    0  501  502 -0.00000000000E+00 -0.00000000000E+00 -0.17108378896E+03  0.17108378896E+03  0.00000000000E+00 0.  1.
         25    1    1    2    0    0  0.64335998231E+02 -0.10006173185E+02  0.39014167452E+02  0.14624072426E+03  0.12500000000E+03 0.  0.
         25    1    1    2    0    0 -0.10561238319E+03 -0.99018391622E+02  0.12217867817E+03  0.22696089258E+03  0.12500000000E+03 0.  0.
         25    1    1    2    0    0  0.41276384963E+02  0.10902456481E+03  0.47149251894E+02  0.17730805859E+03  0.12500000000E+03 0.  0.
</event>
<event>
 5    0  0.5626800E-005  0.4831061E+03  0.7546771E-02  0.1018285E+00
         21   -1    0    0  502  501  0.00000000000E+00  0.00000000000E+00  0.65468767412E+03  0.65468767412E+03  0.00000000000E+00 0.  1.
         21   -1    0    0  501  502 -0.00000000000E+00 -0.00000000000E+00 -0.35649294720E+03  0.35649294720E+03  0.00000000000E+00 0.  1.
         25    1    1    2    0    0 -0.24189430422E+03 -0.34141898206E+03  0.54451150603E+02  0.44007920143E+03  0.12500000000E+03 0.  0.
         25    1    1    2    0    0  0.42066372741E+02  0.83241657751E+02  0.13131122224E+03  0.20387837155E+03  0.12500000000E+03 0.  0.
         25    1    1    2    0    0  0.19982793148E+03  0.25817732431E+03  0.11243235408E+03  0.36722304834E+03  0.12500000000E+03 0.  0.
</event>
<event>
 5    0  0.5626800E-005  0.3178887E+03  0.7546771E-02  0.1076625E+00
         21   -1    0    0  502  501  0.00000000000E+00  0.00000000000E+00  0.10874199124E+03  0.10874199124E+03  0.00000000000E+00 0.  1.
         21   -1    0    0  501  502 -0.00000000000E+00 -0.00000000000E+00 -0.92929325137E+03  0.92929325137E+03  0.00000000000E+00 0.  1.
         25    1    1    2    0    0 -0.13651109846E+03  0.12521824069E+03 -0.14251368301E+03  0.26504723664E+03  0.12500000000E+03 0.  0.
         25    1    1    2    0    0  0.16059133517E+03 -0.42410739586E+02 -0.29447301867E+03  0.36045472183E+03  0.12500000000E+03 0.  0.
         25    1    1    2    0    0 -0.24080236705E+02 -0.82807501100E+02 -0.38356455844E+03  0.41253328415E+03  0.12500000000E+03 0.  0.
</event>
<event>
 5    0  0.5626800E-005  0.4646281E+03  0.7546771E-02  0.1023447E+00
         21   -1    0    0  502  501  0.00000000000E+00  0.00000000000E+00  0.40596522778E+03  0.40596522778E+03  0.00000000000E+00 0. -1.
         21   -1    0    0  501  502 -0.00000000000E+00 -0.00000000000E+00 -0.53176794799E+03  0.53176794799E+03  0.00000000000E+00 0. -1.
         25    1    1    2    0    0 -0.55783271752E+02 -0.21229706357E+03 -0.37543885272E+02  0.25537493990E+03  0.12500000000E+03 0.  0.
         25    1    1    2    0    0  0.22830604991E+02  0.40813686371E+03  0.10927361011E+02  0.42759951270E+03  0.12500000000E+03 0.  0.
         25    1    1    2    0    0  0.32952666760E+02 -0.19583980014E+03 -0.99186195949E+02  0.25475872317E+03  0.12500000000E+03 0.  0.
</event>
<event>
 5    0  0.5626800E-005  0.5052875E+03  0.7546771E-02  0.1012408E+00
         21   -1    0    0  502  501  0.00000000000E+00  0.00000000000E+00  0.18063177165E+03  0.18063177165E+03  0.00000000000E+00 0. -1.
         21   -1    0    0  501  502 -0.00000000000E+00 -0.00000000000E+00 -0.14134582916E+04  0.14134582916E+04  0.00000000000E+00 0. -1.
         25    1    1    2    0    0  0.22124596521E+03  0.10268884594E+03 -0.13902657482E+02  0.27443225045E+03  0.12500000000E+03 0.  0.
         25    1    1    2    0    0 -0.20448775290E+03 -0.22548215005E+03 -0.76297989132E+03  0.83091561283E+03  0.12500000000E+03 0.  0.
         25    1    1    2    0    0 -0.16758212304E+02  0.12279330411E+03 -0.45594397116E+03  0.48874219999E+03  0.12500000000E+03 0.  0.
</event>
<event>
 5    0  0.5626800E-005  0.2960166E+03  0.7546771E-02  0.1087249E+00
         21   -1    0    0  502  501  0.00000000000E+00  0.00000000000E+00  0.12486902062E+04  0.12486902062E+04  0.00000000000E+00 0. -1.
         21   -1    0    0  501  502 -0.00000000000E+00 -0.00000000000E+00 -0.70174190158E+02  0.70174190158E+02  0.00000000000E+00 0. -1.
         25    1    1    2    0    0  0.11014962159E+03 -0.80518874508E+02  0.15463727424E+03  0.24115122822E+03  0.12500000000E+03 0.  0.
         25    1    1    2    0    0  0.77681496614E+01  0.94713347219E+02  0.38042006666E+03  0.41155241393E+03  0.12500000000E+03 0.  0.
         25    1    1    2    0    0 -0.11791777125E+03 -0.14194472711E+02  0.64345867514E+03  0.66616075421E+03  0.12500000000E+03 0.  0.
</event>
<event>
 5    0  0.5626800E-005  0.4240541E+03  0.7546771E-02  0.1035755E+00
         21   -1    0    0  502  501  0.00000000000E+00  0.00000000000E+00  0.24326528485E+03  0.24326528485E+03  0.00000000000E+00 0.  1.
         21   -1    0    0  501  502 -0.00000000000E+00 -0.00000000000E+00 -0.73920068852E+03  0.73920068852E+03  0.00000000000E+00 0.  1.
         25    1    1    2    0    0 -0.11705403421E+03  0.13760920990E+03 -0.42122135404E+03  0.47506880625E+03  0.12500000000E+03 0.  0.
         25    1    1    2    0    0 -0.34159593876E+02 -0.86437720825E+02 -0.21160757673E+03  0.26275677720E+03  0.12500000000E+03 0.  0.
         25    1    1    2    0    0  0.15121362808E+03 -0.51171489072E+02  0.13689352711E+03  0.24464038991E+03  0.12500000000E+03 0.  0.
</event>
<event>
 5    0  0.5626800E-005  0.2579465E+03  0.7546771E-02  0.1108383E+00
         21   -1    0    0  502  501  0.00000000000E+00  0.00000000000E+00  0.72372945170E+02  0.72372945170E+02  0.00000000000E+00 0.  1.
         21   -1    0    0  501  502 -0.00000000000E+00 -0.00000000000E+00 -0.91935432253E+03  0.91935432253E+03  0.00000000000E+00 0.  1.
         25    1    1    2    0    0 -0.51446732440E+02  0.50372954266E+02 -0.88644528757E+02  0.16931347637E+03  0.12500000000E+03 0.  0.
         25    1    1    2    0    0  0.81427826672E+02 -0.10006544524E+03 -0.39979979530E+03  0.43830179171E+03  0.12500000000E+03 0.  0.
         25    1    1    2    0    0 -0.29981094233E+02  0.49692490975E+02 -0.35853705330E+03  0.38411199963E+03  0.12500000000E+03 0.  0.
</event>
<event>
 5    0  0.5626800E-005  0.2970946E+03  0.7546771E-02  0.1086702E+00
         21   -1    0    0  502  501  0.00000000000E+00  0.00000000000E+00  0.22609637434E+04  0.22609637434E+04  0.00000000000E+00 0. -1.
         21   -1    0    0  501  502 -0.00000000000E+00 -0.00000000000E+00 -0.39038740702E+02  0.39038740702E+02  0.00000000000E+00 0. -1.
         25    1    1    2    0    0 -0.19255078803E+02  0.13641802143E+03  0.99581088251E+03  0.10130374862E+04  0.12500000000E+03 0.  0.
         25    1    1    2    0    0  0.21282879452E+02  0.11244066500E+02  0.16521234324E+03  0.20856535750E+03  0.12500000000E+03 0.  0.
         25    1    1    2    0    0 -0.20278006492E+01 -0.14766208793E+03  0.10609017769E+04  0.10783996404E+04  0.12500000000E+03 0.  0.
</event>
<event>
 5    0  0.5626800E-005  0.3624588E+03  0.7546771E-02  0.1057614E+00
         21   -1    0    0  502  501  0.00000000000E+00  0.00000000000E+00  0.92364297840E+03  0.92364297840E+03  0.00000000000E+00 0.  1.
         21   -1    0    0  501  502 -0.00000000000E+00 -0.00000000000E+00 -0.14223721677E+03  0.14223721677E+03  0.00000000000E+00 0.  1.
         25    1    1    2    0    0  0.16338269700E+03  0.25184684200E+02  0.33762276307E+02  0.20998348816E+03  0.12500000000E+03 0.  0.
         25    1    1    2    0    0 -0.16931875106E+03 -0.11593366801E+03  0.58031969297E+03  0.62809664932E+03  0.12500000000E+03 0.  0.
         25    1    1    2    0    0  0.59360540594E+01  0.90748983808E+02  0.16732379236E+03  0.22780005770E+03  0.12500000000E+03 0.  0.
</event>
<event>
 5    0  0.5626800E-005  0.4773203E+03  0.7546771E-02  0.1019874E+00
         21   -1    0    0  502  501  0.00000000000E+00  0.00000000000E+00  0.24186429797E+03  0.24186429797E+03  0.00000000000E+00 0.  1.
         21   -1    0    0  501  502 -0.00000000000E+00 -0.00000000000E+00 -0.94199366247E+03  0.94199366247E+03  0.00000000000E+00 0.  1.
         25    1    1    2    0    0  0.75876307196E+02  0.10016298349E+03  0.10402551731E+03  0.20551434380E+03  0.12500000000E+03 0.  0.
         25    1    1    2    0    0  0.12245018087E+03 -0.48487143106E+01 -0.48802840468E+02  0.18172582112E+03  0.12500000000E+03 0.  0.
         25    1    1    2    0    0 -0.19832648806E+03 -0.95314269176E+02 -0.75535204134E+03  0.79661779552E+03  0.12500000000E+03 0.  0.
</event>
<event>
 5    0  0.8108466E-005  0.3321609E+03  0.7546771E-02  0.1070185E+00
         21   -1    0    0  502  501  0.00000000000E+00  0.00000000000E+00  0.91825913941E+03  0.91825913941E+03  0.00000000000E+00 0.  1.
         21   -1    0    0  501  502 -0.00000000000E+00 -0.00000000000E+00 -0.12015220181E+03  0.12015220181E+03  0.00000000000E+00 0.  1.
         25    1    1    2    0    0 -0.58799910072E+02  0.66851094159E+02  0.53164928265E+03  0.55335563425E+03  0.12500000000E+03 0.  0.
         25    1    1    2    0    0  0.12027604938E+03 -0.15383889732E+03  0.20568766411E+03  0.30994378450E+03  0.12500000000E+03 0.  0.
         25    1    1    2    0    0 -0.61476139312E+02  0.86987803160E+02  0.60769990839E+02  0.17511192247E+03  0.12500000000E+03 0.  0.
</event>
<event>
 5    0  0.5626800E-005  0.2817106E+03  0.7546771E-02  0.1094758E+00
         21   -1    0    0  502  501  0.00000000000E+00  0.00000000000E+00  0.65934902843E+03  0.65934902843E+03  0.00000000000E+00 0. -1.
         21   -1    0    0  501  502 -0.00000000000E+00 -0.00000000000E+00 -0.12036245260E+03  0.12036245260E+03  0.00000000000E+00 0. -1.
         25    1    1    2    0    0 -0.80027455218E+02  0.92789958894E+02  0.13928704756E+03  0.22369678513E+03  0.12500000000E+03 0.  0.
         25    1    1    2    0    0  0.16348770401E+03 -0.10949445421E+03  0.21318913578E+03  0.31589851611E+03  0.12500000000E+03 0.  0.
         25    1    1    2    0    0 -0.83460248796E+02  0.16704495315E+02  0.18651039249E+03  0.24011617980E+03  0.12500000000E+03 0.  0.
</event>
<event>
 5    0  0.5626800E-005  0.2500042E+03  0.7546771E-02  0.1113302E+00
         21   -1    0    0  502  501  0.00000000000E+00  0.00000000000E+00  0.42261845516E+02  0.42261845516E+02  0.00000000000E+00 0.  1.
         21   -1    0    0  501  502 -0.00000000000E+00 -0.00000000000E+00 -0.14789252474E+04  0.14789252474E+04  0.00000000000E+00 0.  1.
         25    1    1    2    0    0  0.62496171078E+02 -0.65265233468E+01 -0.70650534563E+03  0.72022438886E+03  0.12500000000E+03 0.  0.
         25    1    1    2    0    0 -0.10499204497E+03  0.75952143554E+02 -0.39287111779E+03  0.43216290078E+03  0.12500000000E+03 0.  0.
         25    1    1    2    0    0  0.42495873888E+02 -0.69425620207E+02 -0.33728693849E+03  0.36879980330E+03  0.12500000000E+03 0.  0.
</event>
<event>
 5    0  0.5626800E-005  0.2572213E+03  0.7546771E-02  0.1108824E+00
         21   -1    0    0  502  501  0.00000000000E+00  0.00000000000E+00  0.88898210950E+03  0.88898210950E+03  0.00000000000E+00 0. -1.
         21   -1    0    0  501  502 -0.00000000000E+00 -0.00000000000E+00 -0.74425321034E+02  0.74425321034E+02  0.00000000000E+00 0. -1.
         25    1    1    2    0    0  0.91375853023E+01 -0.12589230042E+03  0.34201198240E+03  0.38539533323E+03  0.12500000000E+03 0.  0.
         25    1    1    2    0    0  0.22006357320E+02 -0.29226310260E+02  0.20746395060E+03  0.24495866544E+03  0.12500000000E+03 0.  0.
         25    1    1    2    0    0 -0.31143942622E+02  0.15511861068E+03  0.26508085547E+03  0.33305343187E+03  0.12500000000E+03 0.  0.
</event>
<event>
 5    0  0.5626800E-005  0.2855381E+03  0.7546771E-02  0.1092702E+00
         21   -1    0    0  502  501  0.00000000000E+00  0.00000000000E+00  0.50823260362E+03  0.50823260362E+03  0.00000000000E+00 0. -1.
         21   -1    0    0  501  502 -0.00000000000E+00 -0.00000000000E+00 -0.16042263207E+03  0.16042263207E+03  0.00000000000E+00 0. -1.
         25    1    1    2    0    0  0.92792838261E+02 -0.51269678740E+02 -0.44724997372E+02  0.16989530947E+03  0.12500000000E+03 0.  0.
         25    1    1    2    0    0 -0.10364116714E+03 -0.15281884508E+02  0.24171248805E+03  0.29159038804E+03  0.12500000000E+03 0.  0.
         25    1    1    2    0    0  0.10848328879E+02  0.66551563248E+02  0.15082248087E+03  0.20716953817E+03  0.12500000000E+03 0.  0.
</event>
<event>
 5    0  0.5626800E-005  0.2826050E+03  0.7546771E-02  0.1094275E+00
         21   -1    0    0  502  501  0.00000000000E+00  0.00000000000E+00  0.25428361104E+03  0.25428361104E+03  0.00000000000E+00 0. -1.
         21   -1    0    0  501  502 -0.00000000000E+00 -0.00000000000E+00 -0.31408068825E+03  0.31408068825E+03  0.00000000000E+00 0. -1.
         25    1    1    2    0    0 -0.84233334128E+02  0.75149400399E+02 -0.15836602312E+03  0.23118711953E+03  0.12500000000E+03 0.  0.
         25    1    1    2    0    0  0.59312873087E+02  0.13181031453E+02 -0.22040175251E+02  0.14072144765E+03  0.12500000000E+03 0.  0.
         25    1    1    2    0    0  0.24920461041E+02 -0.88330431852E+02  0.12060912116E+03  0.19645573210E+03  0.12500000000E+03 0.  0.
</event>
<event>
 5    0  0.5626800E-005  0.3444493E+03  0.7546771E-02  0.1064917E+00
         21   -1    0    0  502  501  0.00000000000E+00  0.00000000000E+00  0.18797907139E+03  0.18797907139E+03  0.00000000000E+00 0. -1.
         21   -1    0    0  501  502 -0.00000000000E+00 -0.00000000000E+00 -0.63116224777E+03  0.63116224777E+03  0.00000000000E+00 0. -1.
         25    1    1    2    0    0  0.62541882466E+02  0.96043318602E+02 -0.40658906630E+03  0.44053998110E+03  0.12500000000E+03 0.  0.
         25    1    1    2    0    0  0.81056945580E+02  0.24531652902E+02 -0.24140743050E+02  0.15290456467E+03  0.12500000000E+03 0.  0.
         25    1    1    2    0    0 -0.14359882805E+03 -0.12057497150E+03 -0.12453367036E+02  0.22569677339E+03  0.12500000000E+03 0.  0.
</event>
<event>
 5    0  0.5626800E-005  0.3397531E+03  0.7546771E-02  0.1066901E+00
         21   -1    0    0  502  501  0.00000000000E+00  0.00000000000E+00  0.84749560371E+02  0.84749560371E+02  0.00000000000E+00 0. -1.
         21   -1    0    0  501  502 -0.00000000000E+00 -0.00000000000E+00 -0.13620382866E+04  0.13620382866E+04  0.00000000000E+00 0. -1.
         25    1    1    2    0    0 -0.54736534790E+01  0.40213824648E+02 -0.10722354640E+03  0.16961427262E+03  0.12500000000E+03 0.  0.
         25    1    1    2    0    0  0.18151983729E+03 -0.13845760916E+03 -0.45996474299E+03  0.52850026079E+03  0.12500000000E+03 0.  0.
         25    1    1    2    0    0 -0.17604618381E+03  0.98243784512E+02 -0.71010043687E+03  0.74867331359E+03  0.12500000000E+03 0.  0.
</event>
<event>
 5    0  0.5626800E-005  0.2193258E+03  0.7546771E-02  0.1134387E+00
         21   -1    0    0  502  501  0.00000000000E+00  0.00000000000E+00  0.67699261042E+02  0.67699261042E+02  0.00000000000E+00 0.  1.
         21   -1    0    0  501  502 -0.00000000000E+00 -0.00000000000E+00 -0.71055120736E+03  0.71055120736E+03  0.00000000000E+00 0.  1.
         25    1    1    2    0    0  0.63929514177E+02  0.10785395331E+01 -0.18675896449E+03  0.23364943152E+03  0.12500000000E+03 0.  0.
         25    1    1    2    0    0  0.98372328554E+01  0.59880292996E+02 -0.18926097964E+03  0.23479169290E+03  0.12500000000E+03 0.  0.
         25    1    1    2    0    0 -0.73766747032E+02 -0.60958832529E+02 -0.26683200219E+03  0.30980934399E+03  0.12500000000E+03 0.  0.
</event>
<event>
 5    0  0.5626800E-005  0.3464548E+03  0.7546771E-02  0.1064080E+00
         21   -1    0    0  502  501  0.00000000000E+00  0.00000000000E+00  0.17383762041E+03  0.17383762041E+03  0.00000000000E+00 0.  1.
         21   -1    0    0  501  502 -0.00000000000E+00 -0.00000000000E+00 -0.69047728148E+03  0.69047728148E+03  0.00000000000E+00 0.  1.
         25    1    1    2    0    0 -0.15419147369E+02 -0.48485712682E+02 -0.13466389695E+03  0.19065146100E+03  0.12500000000E+03 0.  0.
         25    1    1    2    0    0 -0.80200645337E+02  0.21994628212E+03 -0.52917688861E+02  0.27061742798E+03  0.12500000000E+03 0.  0.
         25    1    1    2    0    0  0.95619792706E+02 -0.17146056944E+03 -0.32905807527E+03  0.40304601291E+03  0.12500000000E+03 0.  0.
</event>
<event>
 5    0  0.5626800E-005  0.2829922E+03  0.7546771E-02  0.1094066E+00
         21   -1    0    0  502  501  0.00000000000E+00  0.00000000000E+00  0.45253111054E+03  0.45253111054E+03  0.00000000000E+00 0.  1.
         21   -1    0    0  501  502 -0.00000000000E+00 -0.00000000000E+00 -0.17697031556E+03  0.17697031556E+03  0.00000000000E+00 0.  1.
         25    1    1    2    0    0  0.68938695177E+02 -0.45594332132E+02  0.62385588483E+02  0.16232174366E+03  0.12500000000E+03 0.  0.
         25    1    1    2    0    0  0.95274682737E+02  0.11662414857E+03  0.12213762411E+03  0.23069689296E+03  0.12500000000E+03 0.  0.
         25    1    1    2    0    0 -0.16421337791E+03 -0.71029816437E+02  0.91037582396E+02  0.23648278947E+03  0.12500000000E+03 0.  0.
</event>
<event>
 5    0  0.5626800E-005  0.2189468E+03  0.7546771E-02  0.1134671E+00
         21   -1    0    0  502  501  0.00000000000E+00  0.00000000000E+00  0.54474492065E+03  0.54474492065E+03  0.00000000000E+00 0. -1.
         21   -1    0    0  501  502 -0.00000000000E+00 -0.00000000000E+00 -0.88000273891E+02  0.88000273891E+02  0.00000000000E+00 0. -1.
         25    1    1    2    0    0 -0.25352843636E+02  0.53660783309E+02  0.12799543660E+03  0.18849423900E+03  0.12500000000E+03 0.  0.
         25    1    1    2    0    0 -0.59039901866E+02 -0.38728824305E+02  0.12529174089E+03  0.19054829356E+03  0.12500000000E+03 0.  0.
         25    1    1    2    0    0  0.84392745502E+02 -0.14931959005E+02  0.20345746927E+03  0.25370266198E+03  0.12500000000E+03 0.  0.
</event>
<event>
 5    0  0.5626800E-005  0.3659048E+03  0.7546771E-02  0.1056270E+00
         21   -1    0    0  502  501  0.00000000000E+00  0.00000000000E+00  0.37078769832E+03  0.37078769832E+03  0.00000000000E+00 0.  1.
         21   -1    0    0  501  502 -0.00000000000E+00 -0.00000000000E+00 -0.36108627056E+03  0.36108627056E+03  0.00000000000E+00 0.  1.
         25    1    1    2    0    0 -0.16190522454E+03 -0.14775472761E+03  0.14944889588E+03  0.29326563683E+03  0.12500000000E+03 0.  0.
         25    1    1    2    0    0  0.19478436190E+03  0.21445736337E+02 -0.54239237109E+02  0.23867920330E+03  0.12500000000E+03 0.  0.
         25    1    1    2    0    0 -0.32879137358E+02  0.12630899127E+03 -0.85508231014E+02  0.19992912875E+03  0.12500000000E+03 0.  0.
</event>
<event>
 5    0  0.5626800E-005  0.4069472E+03  0.7546771E-02  0.1041400E+00
         21   -1    0    0  502  501  0.00000000000E+00  0.00000000000E+00  0.16746530476E+04  0.16746530476E+04  0.00000000000E+00 0.  1.
         21   -1    0    0  501  502 -0.00000000000E+00 -0.00000000000E+00 -0.98889766932E+02  0.98889766932E+02  0.00000000000E+00 0.  1.
         25    1    1    2    0    0  0.55787172506E+02 -0.29634925950E+01  0.47664821500E+03  0.49592288893E+03  0.12500000000E+03 0.  0.
         25    1    1    2    0    0  0.12118995680E+03 -0.19019375859E+03  0.87122709517E+03  0.90858258997E+03  0.12500000000E+03 0.  0.
         25    1    1    2    0    0 -0.17697712930E+03  0.19315725118E+03  0.22788797046E+03  0.36903733559E+03  0.12500000000E+03 0.  0.
</event>
<event>
 5    0  0.5626800E-005  0.3780003E+03  0.7546771E-02  0.1051675E+00
         21   -1    0    0  502  501  0.00000000000E+00  0.00000000000E+00  0.35631475679E+03  0.35631475679E+03  0.00000000000E+00 0.  1.
         21   -1    0    0  501  502 -0.00000000000E+00 -0.00000000000E+00 -0.40100558513E+03  0.40100558513E+03  0.00000000000E+00 0.  1.
         25    1    1    2    0    0  0.77055789512E+02 -0.25898125061E+03 -0.13286023417E+03  0.32601491483E+03  0.12500000000E+03 0.  0.
         25    1    1    2    0    0 -0.81447579026E+02  0.23039816342E+03 -0.19920866072E+01  0.27449224077E+03  0.12500000000E+03 0.  0.
         25    1    1    2    0    0  0.43917895139E+01  0.28583087197E+02  0.90161492432E+02  0.15681318633E+03  0.12500000000E+03 0.  0.
</event>
<event>
 5    0  0.5626800E-005  0.3007409E+03  0.7546771E-02  0.1084871E+00
         21   -1    0    0  502  501  0.00000000000E+00  0.00000000000E+00  0.24294736556E+03  0.24294736556E+03  0.00000000000E+00 0.  1.
         21   -1    0    0  501  502 -0.00000000000E+00 -0.00000000000E+00 -0.37228260370E+03  0.37228260370E+03  0.00000000000E+00 0.  1.
         25    1    1    2    0    0 -0.12547745682E+02  0.44418188617E+02 -0.12363892304E+03  0.18177459859E+03  0.12500000000E+03 0.  0.
         25    1    1    2    0    0  0.41922334170E+02  0.99959530914E+02 -0.12412085825E+03  0.20683417845E+03  0.12500000000E+03 0.  0.
         25    1    1    2    0    0 -0.29374588488E+02 -0.14437771953E+03  0.11842454315E+03  0.22662119223E+03  0.12500000000E+03 0.  0.
</event>
<event>
 5    0  0.5626800E-005  0.2973350E+03  0.7546771E-02  0.1086580E+00
         21   -1    0    0  502  501  0.00000000000E+00  0.00000000000E+00  0.96327872487E+02  0.96327872487E+02  0.00000000000E+00 0.  1.
         21   -1    0    0  501  502 -0.00000000000E+00 -0.00000000000E+00 -0.91778321492E+03  0.91778321492E+03  0.00000000000E+00 0.  1.
         25    1    1    2    0    0  0.16682541468E+02 -0.50627795015E+02 -0.21613416151E+03  0.25530463487E+03  0.12500000000E+03 0.  0.
         25    1    1    2    0    0  0.16926626686E+03 -0.37452065137E+02 -0.32891078487E+03  0.39225123414E+03  0.12500000000E+03 0.  0.
         25    1    1    2    0    0 -0.18594880833E+03  0.88079860152E+02 -0.27641039606E+03  0.36655521839E+03  0.12500000000E+03 0.  0.
</event>
<event>
 5    0  0.5626800E-005  0.2774304E+03  0.7546771E-02  0.1097101E+00
         21   -1    0    0  502  501  0.00000000000E+00  0.00000000000E+00  0.41202889153E+03  0.41202889153E+03  0.00000000000E+00 0. -1.
         21   -1    0    0  501  502 -0.00000000000E+00 -0.00000000000E+00 -0.18680152915E+03  0.18680152915E+03  0.00000000000E+00 0. -1.
         25    1    1    2    0    0 -0.39315954259E+02 -0.14295550623E+03  0.43074409700E+02  0.19865151847E+03  0.12500000000E+03 0.  0.
         25    1    1    2    0    0 -0.34935979941E+02  0.91274296777E+02  0.18769576034E+03  0.24577676537E+03  0.12500000000E+03 0.  0.
         25    1    1    2    0    0  0.74251934200E+02  0.51681209454E+02 -0.55428076643E+01  0.15440213684E+03  0.12500000000E+03 0.  0.
</event>
<event>
 5    0  0.5626800E-005  0.2791543E+03  0.7546771E-02  0.1096152E+00
         21   -1    0    0  502  501  0.00000000000E+00  0.00000000000E+00  0.98529730473E+03  0.98529730473E+03  0.00000000000E+00 0.  1.
         21   -1    0    0  501  502 -0.00000000000E+00 -0.00000000000E+00 -0.79089960897E+02  0.79089960897E+02  0.00000000000E+00 0.  1.
         25    1    1    2    0    0  0.48481041855E+02 -0.46185882228E+02  0.22334041101E+03  0.26455526139E+03  0.12500000000E+03 0.  0.
         25    1    1    2    0    0 -0.11763403011E+03  0.38264318859E+02  0.10566720329E+03  0.20516452176E+03  0.12500000000E+03 0.  0.
         25    1    1    2    0    0  0.69152988255E+02  0.79215633687E+01  0.57719972953E+03  0.59466748248E+03  0.12500000000E+03 0.  0.
</event>
<event>
 5    0  0.5626800E-005  0.4524041E+03  0.7546771E-02  0.1027008E+00
         21   -1    0    0  502  501  0.00000000000E+00  0.00000000000E+00  0.56804046835E+03  0.56804046835E+03  0.00000000000E+00 0. -1.
         21   -1    0    0  501  502 -0.00000000000E+00 -0.00000000000E+00 -0.36030792394E+03  0.36030792394E+03  0.00000000000E+00 0. -1.
         25    1    1    2    0    0  0.96070624374E+01  0.12752783833E+03  0.14708422806E+03  0.23154786836E+03  0.12500000000E+03 0.  0.
         25    1    1    2    0    0  0.11217975850E+03  0.94714778772E+02 -0.22410176781E+03  0.29563793713E+03  0.12500000000E+03 0.  0.
         25    1    1    2    0    0 -0.12178682094E+03 -0.22224261710E+03  0.28475008416E+03  0.40116258679E+03  0.12500000000E+03 0.  0.
</event>
<event>
 5    0  0.5626800E-005  0.4542686E+03  0.7546771E-02  0.1026457E+00
         21   -1    0    0  502  501  0.00000000000E+00  0.00000000000E+00  0.46460110731E+03  0.46460110731E+03  0.00000000000E+00 0. -1.
         21   -1    0    0  501  502 -0.00000000000E+00 -0.00000000000E+00 -0.44416582199E+03  0.44416582199E+03  0.00000000000E+00 0. -1.
         25    1    1    2    0    0 -0.29813116524E+03  0.50272928329E+02 -0.95700828285E+02  0.34087124775E+03  0.12500000000E+03 0.  0.
         25    1    1    2    0    0  0.25969162056E+03  0.13243272615E+03  0.12998790895E+03  0.34278276097E+03  0.12500000000E+03 0.  0.
         25    1    1    2    0    0  0.38439544680E+02 -0.18270565448E+03 -0.13851795352E+02  0.22511292057E+03  0.12500000000E+03 0.  0.
</event>
<event>
 5    0  0.6762479E-005  0.7945953E+03  0.7546771E-02  0.9567873E-01
         21   -1    0    0  502  501  0.00000000000E+00  0.00000000000E+00  0.98674302775E+03  0.98674302775E+03  0.00000000000E+00 0. -1.
         21   -1    0    0  501  502 -0.00000000000E+00 -0.00000000000E+00 -0.63986438473E+03  0.63986438473E+03  0.00000000000E+00 0. -1.
         25    1    1    2    0    0 -0.93265847043E+02 -0.58927842094E+03  0.79928796838E+02  0.61478548143E+03  0.12500000000E+03 0.  0.
         25    1    1    2    0    0 -0.12948057074E+03  0.23918390110E+03 -0.21132536006E+03  0.36641174183E+03  0.12500000000E+03 0.  0.
         25    1    1    2    0    0  0.22274641778E+03  0.35009451984E+03  0.47827520625E+03  0.64541018923E+03  0.12500000000E+03 0.  0.
</event>
<event>
 5    0  0.7242907E-005  0.4612129E+03  0.7546771E-02  0.1024430E+00
         21   -1    0    0  502  501  0.00000000000E+00  0.00000000000E+00  0.37655206019E+03  0.37655206019E+03  0.00000000000E+00 0.  1.
         21   -1    0    0  501  502 -0.00000000000E+00 -0.00000000000E+00 -0.56490813326E+03  0.56490813326E+03  0.00000000000E+00 0.  1.
         25    1    1    2    0    0  0.34728725026E+02  0.26476268239E+03 -0.11346008042E+03  0.31591700204E+03  0.12500000000E+03 0.  0.
         25    1    1    2    0    0 -0.18774158773E+03 -0.36111350057E+02  0.12772954131E+03  0.26170741123E+03  0.12500000000E+03 0.  0.
         25    1    1    2    0    0  0.15301286271E+03 -0.22865133233E+03 -0.20262553396E+03  0.36383578018E+03  0.12500000000E+03 0.  0.
</event>
<event>
 5    0  0.5626800E-005  0.3989244E+03  0.7546771E-02  0.1044153E+00
         21   -1    0    0  502  501  0.00000000000E+00  0.00000000000E+00  0.62986706726E+03  0.62986706726E+03  0.00000000000E+00 0. -1.
         21   -1    0    0  501  502 -0.00000000000E+00 -0.00000000000E+00 -0.25265757319E+03  0.25265757319E+03  0.00000000000E+00 0. -1.
         25    1    1    2    0    0 -0.11201691013E+03  0.90867397096E+02  0.30857775668E+03  0.36283591874E+03  0.12500000000E+03 0.  0.
         25    1    1    2    0    0  0.88064524085E+02 -0.12062154523E+03  0.23686280291E+03  0.30664948228E+03  0.12500000000E+03 0.  0.
         25    1    1    2    0    0  0.23952386044E+02  0.29754148139E+02 -0.16823106552E+03  0.21303923943E+03  0.12500000000E+03 0.  0.
</event>
<event>
 5    0  0.6155505E-005  0.3524476E+03  0.7546771E-02  0.1061615E+00
         21   -1    0    0  502  501  0.00000000000E+00  0.00000000000E+00  0.17936486226E+03  0.17936486226E+03  0.00000000000E+00 0.  1.
         21   -1    0    0  501  502 -0.00000000000E+00 -0.00000000000E+00 -0.69255106566E+03  0.69255106566E+03  0.00000000000E+00 0.  1.
         25    1    1    2    0    0 -0.51310241323E+01 -0.53170582204E+02 -0.29309538045E+03  0.32308410710E+03  0.12500000000E+03 0.  0.
         25    1    1    2    0    0 -0.20564211918E+03 -0.33172530834E+02 -0.10894023099E+03  0.26623687181E+03  0.12500000000E+03 0.  0.
         25    1    1    2    0    0  0.21077314331E+03  0.86343113037E+02 -0.11115059196E+03  0.28259494900E+03  0.12500000000E+03 0.  0.
</event>
<event>
 5    0  0.5626800E-005  0.3686945E+03  0.7546771E-02  0.1055193E+00
         21   -1    0    0  502  501  0.00000000000E+00  0.00000000000E+00  0.38330752017E+03  0.38330752017E+03  0.00000000000E+00 0. -1.
         21   -1    0    0  501  502 -0.00000000000E+00 -0.00000000000E+00 -0.35463856080E+03  0.35463856080E+03  0.00000000000E+00 0. -1.
         25    1    1    2    0    0 -0.16468950102E+03 -0.15556343408E+03 -0.77830859516E+02  0.27019484907E+03  0.12500000000E+03 0.  0.
         25    1    1    2    0    0  0.44978622453E+02  0.16769942631E+03 -0.65196810786E+02  0.22365553469E+03  0.12500000000E+03 0.  0.
         25    1    1    2    0    0  0.11971087857E+03 -0.12135992226E+02  0.17169662967E+03  0.24409569721E+03  0.12500000000E+03 0.  0.
</event>
<event>
 5    0  0.5626800E-005  0.2410522E+03  0.7546771E-02  0.1119094E+00
         21   -1    0    0  502  501  0.00000000000E+00  0.00000000000E+00  0.82502745058E+03  0.82502745058E+03  0.00000000000E+00 0. -1.
         21   -1    0    0  501  502 -0.00000000000E+00 -0.00000000000E+00 -0.70429383537E+02  0.70429383537E+02  0.00000000000E+00 0. -1.
         25    1    1    2    0    0 -0.47896958466E+02  0.54865233301E+02  0.31029924196E+03  0.34236666312E+03  0.12500000000E+03 0.  0.
         25    1    1    2    0    0 -0.66075558301E+02  0.21893962739E+02  0.17728654009E+03  0.22781756365E+03  0.12500000000E+03 0.  0.
         25    1    1    2    0    0  0.11397251677E+03 -0.76759196040E+02  0.26701228499E+03  0.32527260735E+03  0.12500000000E+03 0.  0.
</event>
<event>
 5    0  0.6177281E-005  0.2728767E+03  0.7546771E-02  0.1099644E+00
         21   -1    0    0  502  501  0.00000000000E+00  0.00000000000E+00  0.56634264435E+03  0.56634264435E+03  0.00000000000E+00 0.  1.
         21   -1    0    0  501  502 -0.00000000000E+00 -0.00000000000E+00 -0.13147815699E+03  0.13147815699E+03  0.00000000000E+00 0.  1.
         25    1    1    2    0    0 -0.14054503714E+02 -0.10663425516E+03  0.90981009953E+02  0.18833729747E+03  0.12500000000E+03 0.  0.
         25    1    1    2    0    0 -0.80145494176E+02  0.11007892468E+03  0.77351014306E+02  0.20037177773E+03  0.12500000000E+03 0.  0.
         25    1    1    2    0    0  0.94199997890E+02 -0.34446695271E+01  0.26653246309E+03  0.30911172613E+03  0.12500000000E+03 0.  0.
</event>
<event>
 5    0  0.5626800E-005  0.3959801E+03  0.7546771E-02  0.1045181E+00
         21   -1    0    0  502  501  0.00000000000E+00  0.00000000000E+00  0.18787093651E+03  0.18787093651E+03  0.00000000000E+00 0. -1.
         21   -1    0    0  501  502 -0.00000000000E+00 -0.00000000000E+00 -0.83461697094E+03  0.83461697094E+03  0.00000000000E+00 0. -1.
         25    1    1    2    0    0 -0.37531099345E+02  0.23700524269E+03 -0.40146305689E+03  0.48412565986E+03  0.12500000000E+03 0.  0.
         25    1    1    2    0    0 -0.13073642442E+03 -0.14502583866E+03 -0.19741282286E+03  0.30450177204E+03  0.12500000000E+03 0.  0.
         25    1    1    2    0    0  0.16826752376E+03 -0.91979404029E+02 -0.47870154671E+02  0.23386047555E+03  0.12500000000E+03 0.  0.
</event>
<event>
 5    0  0.5626800E-005  0.3558864E+03  0.7546771E-02  0.1060225E+00
         21   -1    0    0  502  501  0.00000000000E+00  0.00000000000E+00  0.43020420457E+03  0.43020420457E+03  0.00000000000E+00 0.  1.
         21   -1    0    0  501  502 -0.00000000000E+00 -0.00000000000E+00 -0.29440693396E+03  0.29440693396E+03  0.00000000000E+00 0.  1.
         25    1    1    2    0    0 -0.19700404470E+03 -0.27670601250E+02  0.22702028386E+03  0.32671006272E+03  0.12500000000E+03 0.  0.
         25    1    1    2    0    0  0.62952777160E+02 -0.81526837007E+02  0.89186714042E+01  0.16221658363E+03  0.12500000000E+03 0.  0.
         25    1    1    2    0    0  0.13405126754E+03  0.10919743826E+03 -0.10014168465E+03  0.23568449218E+03  0.12500000000E+03 0.  0.
</event>
<event>
 5    0  0.5626800E-005  0.2164647E+03  0.7546771E-02  0.1136547E+00
         21   -1    0    0  502  501  0.00000000000E+00  0.00000000000E+00  0.25089475248E+03  0.25089475248E+03  0.00000000000E+00 0.  1.
         21   -1    0    0  501  502 -0.00000000000E+00 -0.00000000000E+00 -0.18675950695E+03  0.18675950695E+03  0.00000000000E+00 0.  1.
         25    1    1    2    0    0  0.40063112294E+02 -0.37391850384E+02 -0.48455277642E+01  0.13657116307E+03  0.12500000000E+03 0.  0.
         25    1    1    2    0    0 -0.36224068506E+02 -0.12205605778E+02  0.98102051515E+02  0.16343247065E+03  0.12500000000E+03 0.  0.
         25    1    1    2    0    0 -0.38390437885E+01  0.49597456162E+02 -0.29121278212E+02  0.13765062571E+03  0.12500000000E+03 0.  0.
</event>
<event>
 5    0  0.5626800E-005  0.2767334E+03  0.7546771E-02  0.1097487E+00
         21   -1    0    0  502  501  0.00000000000E+00  0.00000000000E+00  0.50397183496E+03  0.50397183496E+03  0.00000000000E+00 0. -1.
         21   -1    0    0  501  502 -0.00000000000E+00 -0.00000000000E+00 -0.15195566597E+03  0.15195566597E+03  0.00000000000E+00 0. -1.
         25    1    1    2    0    0 -0.98779551882E+01  0.25943465539E+02  0.19917075149E+03  0.23677969856E+03  0.12500000000E+03 0.  0.
         25    1    1    2    0    0  0.17230301883E+02  0.13194438595E+03  0.35596110401E+02  0.18600614872E+03  0.12500000000E+03 0.  0.
         25    1    1    2    0    0 -0.73523466948E+01 -0.15788785149E+03  0.11724930711E+03  0.23314165365E+03  0.12500000000E+03 0.  0.
</event>
<event>
 5    0  0.5626800E-005  0.6946572E+03  0.7546771E-02  0.9726413E-01
         21   -1    0    0  502  501  0.00000000000E+00  0.00000000000E+00  0.26589977621E+04  0.26589977621E+04  0.00000000000E+00 0. -1.
         21   -1    0    0  501  502 -0.00000000000E+00 -0.00000000000E+00 -0.18147763612E+03  0.18147763612E+03  0.00000000000E+00 0. -1.
         25    1    1    2    0    0  0.22337916256E+02  0.15952449365E+03  0.81732090073E+03  0.84236898171E+03  0.12500000000E+03 0.  0.
         25    1    1    2    0    0 -0.13393692367E+03  0.36855832027E+02  0.17224444056E+04  0.17325522163E+04  0.12500000000E+03 0.  0.
         25    1    1    2    0    0  0.11159900741E+03 -0.19638032567E+03 -0.62245180343E+02  0.26555420020E+03  0.12500000000E+03 0.  0.
</event>
<event>
 5    0  0.5626800E-005  0.3752903E+03  0.7546771E-02  0.1052688E+00
         21   -1    0    0  502  501  0.00000000000E+00  0.00000000000E+00  0.28752392651E+03  0.28752392651E+03  0.00000000000E+00 0. -1.
         21   -1    0    0  501  502 -0.00000000000E+00 -0.00000000000E+00 -0.48984722206E+03  0.48984722206E+03  0.00000000000E+00 0. -1.
         25    1    1    2    0    0 -0.13100603673E+03  0.17798166836E+03 -0.27537023419E+03  0.37455816879E+03  0.12500000000E+03 0.  0.
         25    1    1    2    0    0  0.17209738046E+03 -0.93049296451E+02  0.81289849497E+02  0.24598520192E+03  0.12500000000E+03 0.  0.
         25    1    1    2    0    0 -0.41091343735E+02 -0.84932371910E+02 -0.82429108480E+01  0.15682777786E+03  0.12500000000E+03 0.  0.
</event>
<event>
 5    0  0.5626800E-005  0.3900865E+03  0.7546771E-02  0.1047267E+00
         21   -1    0    0  502  501  0.00000000000E+00  0.00000000000E+00  0.11308117354E+04  0.11308117354E+04  0.00000000000E+00 0.  1.
         21   -1    0    0  501  502 -0.00000000000E+00 -0.00000000000E+00 -0.13456482576E+03  0.13456482576E+03  0.00000000000E+00 0.  1.
         25    1    1    2    0    0 -0.27121786166E+02 -0.10572355768E+03  0.30554855409E+03  0.34770386946E+03  0.12500000000E+03 0.  0.
         25    1    1    2    0    0  0.65773162346E+02 -0.20514880405E+03  0.40592094364E+03  0.47624463584E+03  0.12500000000E+03 0.  0.
         25    1    1    2    0    0 -0.38651376180E+02  0.31087236172E+03  0.28477741194E+03  0.44142805588E+03  0.12500000000E+03 0.  0.
</event>
<event>
 5    0  0.5626800E-005  0.2596453E+03  0.7546771E-02  0.1107357E+00
         21   -1    0    0  502  501  0.00000000000E+00  0.00000000000E+00  0.71799919531E+03  0.71799919531E+03  0.00000000000E+00 0.  1.
         21   -1    0    0  501  502 -0.00000000000E+00 -0.00000000000E+00 -0.93893832272E+02  0.93893832272E+02  0.00000000000E+00 0.  1.
         25    1    1    2    0    0 -0.76423209492E+02 -0.13319134404E+03  0.21445100329E+03  0.29188126676E+03  0.12500000000E+03 0.  0.
         25    1    1    2    0    0  0.64836479906E+02  0.64629771241E+02  0.11659411477E+03  0.19390710161E+03  0.12500000000E+03 0.  0.
         25    1    1    2    0    0  0.11586729586E+02  0.68561572797E+02  0.29306024498E+03  0.32610465921E+03  0.12500000000E+03 0.  0.
</event>
<event>
 5    0  0.5626800E-005  0.2341552E+03  0.7546771E-02  0.1123749E+00
         21   -1    0    0  502  501  0.00000000000E+00  0.00000000000E+00  0.14293660434E+03  0.14293660434E+03  0.00000000000E+00 0.  1.
         21   -1    0    0  501  502 -0.00000000000E+00 -0.00000000000E+00 -0.38358729230E+03  0.38358729230E+03  0.00000000000E+00 0.  1.
         25    1    1    2    0    0 -0.22839067918E+01 -0.11553243699E+02  0.12005432867E+02  0.12612622284E+03  0.12500000000E+03 0.  0.
         25    1    1    2    0    0  0.78540647267E+02 -0.41870637914E+02 -0.14365879369E+03  0.21020140960E+03  0.12500000000E+03 0.  0.
         25    1    1    2    0    0 -0.76256740475E+02  0.53423881614E+02 -0.10899732713E+03  0.19019626420E+03  0.12500000000E+03 0.  0.
</event>
<event>
 5    0  0.5626800E-005  0.2487811E+03  0.7546771E-02  0.1114078E+00
         21   -1    0    0  502  501  0.00000000000E+00  0.00000000000E+00  0.40462153746E+03  0.40462153746E+03  0.00000000000E+00 0. -1.
         21   -1    0    0  501  502 -0.00000000000E+00 -0.00000000000E+00 -0.15296281637E+03  0.15296281637E+03  0.00000000000E+00 0. -1.
         25    1    1    2    0    0 -0.39518006266E+02  0.11665032394E+03  0.47212265927E+02  0.18172223020E+03  0.12500000000E+03 0.  0.
         25    1    1    2    0    0  0.37870534881E+02 -0.39008237374E+01  0.31296718950E+02  0.13436472177E+03  0.12500000000E+03 0.  0.
         25    1    1    2    0    0  0.16474713851E+01 -0.11274950021E+03  0.17314973621E+03  0.24149740187E+03  0.12500000000E+03 0.  0.
</event>
<event>
 5    0  0.5626800E-005  0.2691641E+03  0.7546771E-02  0.1101759E+00
         21   -1    0    0  502  501  0.00000000000E+00  0.00000000000E+00  0.87952503247E+02  0.87952503247E+02  0.00000000000E+00 0.  1.
         21   -1    0    0  501  502 -0.00000000000E+00 -0.00000000000E+00 -0.82373193740E+03  0.82373193740E+03  0.00000000000E+00 0.  1.
         25    1    1    2    0    0  0.86466121815E+02 -0.14917852319E+03 -0.39890046370E+03  0.45219155448E+03  0.12500000000E+03 0.  0.
         25    1    1    2    0    0 -0.73816147309E+02  0.79726033388E+02 -0.14695549357E+03  0.22141811374E+03  0.12500000000E+03 0.  0.
         25    1    1    2    0    0 -0.12649974507E+02  0.69452489799E+02 -0.18992347688E+03  0.23807477243E+03  0.12500000000E+03 0.  0.
</event>
<event>
 5    0  0.5626800E-005  0.3165021E+03  0.7546771E-02  0.1077270E+00
         21   -1    0    0  502  501  0.00000000000E+00  0.00000000000E+00  0.12903277518E+04  0.12903277518E+04  0.00000000000E+00 0. -1.
         21   -1    0    0  501  502 -0.00000000000E+00 -0.00000000000E+00 -0.77634204851E+02  0.77634204851E+02  0.00000000000E+00 0. -1.
         25    1    1    2    0    0  0.38332884095E+02  0.18348371081E+03  0.40602708364E+03  0.46434757971E+03  0.12500000000E+03 0.  0.
         25    1    1    2    0    0  0.10125269220E+03 -0.90721270562E+02  0.49485561207E+03  0.52819459805E+03  0.12500000000E+03 0.  0.
         25    1    1    2    0    0 -0.13958557629E+03 -0.92762440251E+02  0.31181085124E+03  0.37541977889E+03  0.12500000000E+03 0.  0.
</event>
<event>
 5    0  0.5626800E-005  0.5225578E+03  0.7546771E-02  0.1008053E+00
         21   -1    0    0  502  501  0.00000000000E+00  0.00000000000E+00  0.90257088152E+03  0.90257088152E+03  0.00000000000E+00 0.  1.
         21   -1    0    0  501  502 -0.00000000000E+00 -0.00000000000E+00 -0.30254321083E+03  0.30254321083E+03  0.00000000000E+00 0.  1.
         25    1    1    2    0    0  0.17264872893E+02  0.11199252157E+03  0.45637768989E+03  0.48656551106E+03  0.12500000000E+03 0.  0.
         25    1    1    2    0    0 -0.21882906176E+03  0.10787429773E+02  0.31324214240E+03  0.40217927183E+03  0.12500000000E+03 0.  0.
         25    1    1    2    0    0  0.20156418887E+03 -0.12277995134E+03 -0.16959216160E+03  0.31636930945E+03  0.12500000000E+03 0.  0.
</event>
<event>
 5    0  0.5626800E-005  0.5171429E+03  0.7546771E-02  0.1009399E+00
         21   -1    0    0  502  501  0.00000000000E+00  0.00000000000E+00  0.63223286517E+03  0.63223286517E+03  0.00000000000E+00 0. -1.
         21   -1    0    0  501  502 -0.00000000000E+00 -0.00000000000E+00 -0.42300366997E+03  0.42300366997E+03  0.00000000000E+00 0. -1.
         25    1    1    2    0    0  0.22010861678E+03  0.18556045844E+03 -0.12853143475E+03  0.33915456158E+03  0.12500000000E+03 0.  0.
         25    1    1    2    0    0 -0.54440099629E+02 -0.30697883487E+03  0.33675574721E+03  0.47563553566E+03  0.12500000000E+03 0.  0.
         25    1    1    2    0    0 -0.16566851715E+03  0.12141837643E+03  0.10048827510E+01  0.24044643790E+03  0.12500000000E+03 0.  0.
</event>
<event>
 5    0  0.5626800E-005  0.2426709E+03  0.7546771E-02  0.1118026E+00
         21   -1    0    0  502  501  0.00000000000E+00  0.00000000000E+00  0.66177427188E+03  0.66177427188E+03  0.00000000000E+00 0. -1.
         21   -1    0    0  501  502 -0.00000000000E+00 -0.00000000000E+00 -0.88986820964E+02  0.88986820964E+02  0.00000000000E+00 0. -1.
         25    1    1    2    0    0 -0.90570215903E+02 -0.10176167934E+03  0.24429649665E+03  0.30637261899E+03  0.12500000000E+03 0.  0.
         25    1    1    2    0    0  0.11608531542E+02  0.82082630895E+02  0.15780134556E+03  0.21771215161E+03  0.12500000000E+03 0.  0.
         25    1    1    2    0    0  0.78961684361E+02  0.19679048447E+02  0.17068960870E+03  0.22667632224E+03  0.12500000000E+03 0.  0.
</event>
<event>
 5    0  0.5626800E-005  0.3286561E+03  0.7546771E-02  0.1071733E+00
         21   -1    0    0  502  501  0.00000000000E+00  0.00000000000E+00  0.30495249080E+03  0.30495249080E+03  0.00000000000E+00 0.  1.
         21   -1    0    0  501  502 -0.00000000000E+00 -0.00000000000E+00 -0.35420206295E+03  0.35420206295E+03  0.00000000000E+00 0.  1.
         25    1    1    2    0    0  0.24166130313E+02  0.19190436954E+03 -0.61744917198E+02  0.23842970390E+03  0.12500000000E+03 0.  0.
         25    1    1    2    0    0  0.60762735798E+02 -0.15172675190E+03 -0.99329478847E+02  0.22848295926E+03  0.12500000000E+03 0.  0.
         25    1    1    2    0    0 -0.84928866110E+02 -0.40177617640E+02  0.11182482390E+03  0.19224189059E+03  0.12500000000E+03 0.  0.
</event>
<event>
 5    0  0.5626800E-005  0.2792466E+03  0.7546771E-02  0.1096101E+00
         21   -1    0    0  502  501  0.00000000000E+00  0.00000000000E+00  0.86992338816E+02  0.86992338816E+02  0.00000000000E+00 0.  1.
         21   -1    0    0  501  502 -0.00000000000E+00 -0.00000000000E+00 -0.89638567048E+03  0.89638567048E+03  0.00000000000E+00 0.  1.
         25    1    1    2    0    0  0.95573890276E+02  0.20903110346E+02 -0.31665267485E+03  0.35421070708E+03  0.12500000000E+03 0.  0.
         25    1    1    2    0    0 -0.39327016486E+02 -0.77994082357E+02 -0.47349498447E+02  0.15967675508E+03  0.12500000000E+03 0.  0.
         25    1    1    2    0    0 -0.56246873790E+02  0.57090972011E+02 -0.44539115838E+03  0.46949054714E+03  0.12500000000E+03 0.  0.
</event>
<event>
 5    0  0.5626800E-005  0.4135279E+03  0.7546771E-02  0.1039194E+00
         21   -1    0    0  502  501  0.00000000000E+00  0.00000000000E+00  0.33259747314E+04  0.33259747314E+04  0.00000000000E+00 0. -1.
         21   -1    0    0  501  502 -0.00000000000E+00 -0.00000000000E+00 -0.51415100374E+02  0.51415100374E+02  0.00000000000E+00 0. -1.
         25    1    1    2    0    0 -0.74692264785E+02  0.18925108037E+03  0.16413840475E+04  0.16586625628E+04  0.12500000000E+03 0.  0.
         25    1    1    2    0    0 -0.34940760810E+02 -0.18338977884E+03  0.14651335808E+04  0.14822597874E+04  0.12500000000E+03 0.  0.
         25    1    1    2    0    0  0.10963302560E+03 -0.58613015315E+01  0.16804200267E+03  0.23646748152E+03  0.12500000000E+03 0.  0.
</event>
<event>
 5    0  0.5626800E-005  0.3162117E+03  0.7546771E-02  0.1077406E+00
         21   -1    0    0  502  501  0.00000000000E+00  0.00000000000E+00  0.14383231246E+03  0.14383231246E+03  0.00000000000E+00 0.  1.
         21   -1    0    0  501  502 -0.00000000000E+00 -0.00000000000E+00 -0.69518361930E+03  0.69518361930E+03  0.00000000000E+00 0.  1.
         25    1    1    2    0    0  0.10956875668E+03  0.50997632134E+02 -0.35936318534E+03  0.39921544296E+03  0.12500000000E+03 0.  0.
         25    1    1    2    0    0 -0.18667436369E+03 -0.88380972511E+01 -0.48112173141E+02  0.22992435979E+03  0.12500000000E+03 0.  0.
         25    1    1    2    0    0  0.77105607007E+02 -0.42159534882E+02 -0.14387594835E+03  0.20987612901E+03  0.12500000000E+03 0.  0.
</event>
<event>
 5    0  0.5626800E-005  0.3028229E+03  0.7546771E-02  0.1083838E+00
         21   -1    0    0  502  501  0.00000000000E+00  0.00000000000E+00  0.77743942447E+03  0.77743942447E+03  0.00000000000E+00 0.  1.
         21   -1    0    0  501  502 -0.00000000000E+00 -0.00000000000E+00 -0.11795353144E+03  0.11795353144E+03  0.00000000000E+00 0.  1.
         25    1    1    2    0    0  0.27958716975E+02 -0.18776072063E+03  0.30335252877E+03  0.37905611032E+03  0.12500000000E+03 0.  0.
         25    1    1    2    0    0  0.26351755617E+02  0.19955623122E+03  0.23206294820E+03  0.33165541813E+03  0.12500000000E+03 0.  0.
         25    1    1    2    0    0 -0.54310472592E+02 -0.11795510596E+02  0.12407041606E+03  0.18468142745E+03  0.12500000000E+03 0.  0.
</event>
<event>
 5    0  0.5626800E-005  0.3402533E+03  0.7546771E-02  0.1066688E+00
         21   -1    0    0  502  501  0.00000000000E+00  0.00000000000E+00  0.92026350642E+03  0.92026350642E+03  0.00000000000E+00 0.  1.
         21   -1    0    0  501  502 -0.00000000000E+00 -0.00000000000E+00 -0.12580344040E+03  0.12580344040E+03  0.00000000000E+00 0.  1.
         25    1    1    2    0    0 -0.11507740169E+03  0.16499041756E+03  0.38970911780E+03  0.45602943190E+03  0.12500000000E+03 0.  0.
         25    1    1    2    0    0  0.14646104051E+03 -0.17370692500E+03  0.37754678303E+03  0.45803002691E+03  0.12500000000E+03 0.  0.
         25    1    1    2    0    0 -0.31383638814E+02  0.87165074427E+01  0.27204165195E+02  0.13200748801E+03  0.12500000000E+03 0.  0.
</event>
<event>
 5    0  0.5626800E-005  0.3636940E+03  0.7546771E-02  0.1057131E+00
         21   -1    0    0  502  501  0.00000000000E+00  0.00000000000E+00  0.24235779253E+03  0.24235779253E+03  0.00000000000E+00 0. -1.
         21   -1    0    0  501  502 -0.00000000000E+00 -0.00000000000E+00 -0.54577721530E+03  0.54577721530E+03  0.00000000000E+00 0. -1.
         25    1    1    2    0    0 -0.48898025560E+02 -0.98786589040E+02 -0.30914777917E+03  0.35120813835E+03  0.12500000000E+03 0.  0.
         25    1    1    2    0    0  0.43886313140E+02 -0.12035863941E+03 -0.31863893811E+02  0.18180351562E+03  0.12500000000E+03 0.  0.
         25    1    1    2    0    0  0.50117124201E+01  0.21914522845E+03  0.37592250209E+02  0.25512335387E+03  0.12500000000E+03 0.  0.
</event>
<event>
 5    0  0.6001404E-005  0.2765541E+03  0.7546771E-02  0.1097586E+00
         21   -1    0    0  502  501  0.00000000000E+00  0.00000000000E+00  0.43295245487E+03  0.43295245487E+03  0.00000000000E+00 0.  1.
         21   -1    0    0  501  502 -0.00000000000E+00 -0.00000000000E+00 -0.17665263967E+03  0.17665263967E+03  0.00000000000E+00 0.  1.
         25    1    1    2    0    0 -0.29220819447E+02 -0.12535544429E+03 -0.10068345416E+02  0.17970591332E+03  0.12500000000E+03 0.  0.
         25    1    1    2    0    0 -0.56387709709E+02  0.50919934580E+02  0.20164185128E+03  0.24911212281E+03  0.12500000000E+03 0.  0.
         25    1    1    2    0    0  0.85608529155E+02  0.74435509706E+02  0.64726309340E+02  0.18078705841E+03  0.12500000000E+03 0.  0.
</event>
<event>
 5    0  0.5626800E-005  0.4972817E+03  0.7546771E-02  0.1014491E+00
         21   -1    0    0  502  501  0.00000000000E+00  0.00000000000E+00  0.66717857399E+03  0.66717857399E+03  0.00000000000E+00 0. -1.
         21   -1    0    0  501  502 -0.00000000000E+00 -0.00000000000E+00 -0.37064895306E+03  0.37064895306E+03  0.00000000000E+00 0. -1.
         25    1    1    2    0    0 -0.26488078792E+01 -0.20635609580E+03 -0.27032724916E+03  0.36234193257E+03  0.12500000000E+03 0.  0.
         25    1    1    2    0    0 -0.56225402573E+02  0.37953797334E+02  0.16065359493E+03  0.21456086360E+03  0.12500000000E+03 0.  0.
         25    1    1    2    0    0  0.58874210453E+02  0.16840229847E+03  0.40620327516E+03  0.46092473088E+03  0.12500000000E+03 0.  0.
</event>
<event>
 5    0  0.5626800E-005  0.2615487E+03  0.7546771E-02  0.1106216E+00
         21   -1    0    0  502  501  0.00000000000E+00  0.00000000000E+00  0.43782530569E+03  0.43782530569E+03  0.00000000000E+00 0.  1.
         21   -1    0    0  501  502 -0.00000000000E+00 -0.00000000000E+00 -0.15624439040E+03  0.15624439040E+03  0.00000000000E+00 0.  1.
         25    1    1    2    0    0  0.14580215158E+03 -0.46822811210E+02  0.51201262817E+02  0.20419895291E+03  0.12500000000E+03 0.  0.
         25    1    1    2    0    0 -0.38684586757E+02  0.31542603050E+01  0.15705587793E+03  0.20444558054E+03  0.12500000000E+03 0.  0.
         25    1    1    2    0    0 -0.10711756482E+03  0.43668550905E+02  0.73323774546E+02  0.18542516265E+03  0.12500000000E+03 0.  0.
</event>
<event>
 5    0  0.5626800E-005  0.4296076E+03  0.7546771E-02  0.1033984E+00
         21   -1    0    0  502  501  0.00000000000E+00  0.00000000000E+00  0.15908514303E+03  0.15908514303E+03  0.00000000000E+00 0.  1.
         21   -1    0    0  501  502 -0.00000000000E+00 -0.00000000000E+00 -0.11601504801E+04  0.11601504801E+04  0.00000000000E+00 0.  1.
         25    1    1    2    0    0  0.13916390294E+02  0.10600829262E+03 -0.97721093873E+02  0.19132651727E+03  0.12500000000E+03 0.  0.
         25    1    1    2    0    0 -0.19825340544E+03  0.19222464010E+03 -0.39861393661E+03  0.50077219919E+03  0.12500000000E+03 0.  0.
         25    1    1    2    0    0  0.18433701515E+03 -0.29823293272E+03 -0.50473030660E+03  0.62713690667E+03  0.12500000000E+03 0.  0.
</event>
<event>
 5    0  0.5626800E-005  0.3185606E+03  0.7546771E-02  0.1076314E+00
         21   -1    0    0  502  501  0.00000000000E+00  0.00000000000E+00  0.23058943310E+03  0.23058943310E+03  0.00000000000E+00 0.  1.
         21   -1    0    0  501  502 -0.00000000000E+00 -0.00000000000E+00 -0.44009321945E+03  0.44009321945E+03  0.00000000000E+00 0.  1.
         25    1    1    2    0    0 -0.90370864349E+02 -0.82676188475E+02 -0.14397418513E+03  0.22661820590E+03  0.12500000000E+03 0.  0.
         25    1    1    2    0    0  0.20277547959E+03 -0.24018751181E+02 -0.48067828439E+02  0.24419318512E+03  0.12500000000E+03 0.  0.
         25    1    1    2    0    0 -0.11240461524E+03  0.10669493966E+03 -0.17461772780E+02  0.19987126153E+03  0.12500000000E+03 0.  0.
</event>
<event>
 5    0  0.5626800E-005  0.2899882E+03  0.7546771E-02  0.1090355E+00
         21   -1    0    0  502  501  0.00000000000E+00  0.00000000000E+00  0.17112817515E+03  0.17112817515E+03  0.00000000000E+00 0.  1.
         21   -1    0    0  501  502 -0.00000000000E+00 -0.00000000000E+00 -0.49140437586E+03  0.49140437586E+03  0.00000000000E+00 0.  1.
         25    1    1    2    0    0 -0.78122842006E+02 -0.98436460685E+02  0.19941195964E+02  0.17836918605E+03  0.12500000000E+03 0.  0.
         25    1    1    2    0    0 -0.44504715381E+02  0.78558524022E+02 -0.22796301934E+03  0.27521673200E+03  0.12500000000E+03 0.  0.
         25    1    1    2    0    0  0.12262755739E+03  0.19877936662E+02 -0.11225437734E+03  0.20894663297E+03  0.12500000000E+03 0.  0.
</event>
<event>
 5    0  0.5626800E-005  0.4543653E+03  0.7546771E-02  0.1026428E+00
         21   -1    0    0  502  501  0.00000000000E+00  0.00000000000E+00  0.10808458341E+04  0.10808458341E+04  0.00000000000E+00 0.  1.
         21   -1    0    0  501  502 -0.00000000000E+00 -0.00000000000E+00 -0.19100578334E+03  0.19100578334E+03  0.00000000000E+00 0.  1.
         25    1    1    2    0    0 -0.30880240421E+02  0.28495090897E+02  0.30628336783E+03  0.33346673126E+03  0.12500000000E+03 0.  0.
         25    1    1    2    0    0  0.22929142980E+03 -0.82226154265E+02 -0.33742983151E+02  0.27586099604E+03  0.12500000000E+03 0.  0.
         25    1    1    2    0    0 -0.19841118938E+03  0.53731063368E+02  0.61729966608E+03  0.66252389012E+03  0.12500000000E+03 0.  0.
</event>
<event>
 5    0  0.5626800E-005  0.2357225E+03  0.7546771E-02  0.1122676E+00
         21   -1    0    0  502  501  0.00000000000E+00  0.00000000000E+00  0.47252235095E+03  0.47252235095E+03  0.00000000000E+00 0.  1.
         21   -1    0    0  501  502 -0.00000000000E+00 -0.00000000000E+00 -0.11759247826E+03  0.11759247826E+03  0.00000000000E+00 0.  1.
         25    1    1    2    0    0 -0.13276764078E+02 -0.13176460706E+03  0.12417901543E+03  0.22041690500E+03  0.12500000000E+03 0.  0.
         25    1    1    2    0    0  0.13754178147E+02  0.51919527571E+02  0.14290327337E+03  0.19730980792E+03  0.12500000000E+03 0.  0.
         25    1    1    2    0    0 -0.47741406884E+00  0.79845079491E+02  0.87847583894E+02  0.17238811629E+03  0.12500000000E+03 0.  0.
</event>
<event>
 5    0  0.6010767E-005  0.4999003E+03  0.7546771E-02  0.1013805E+00
         21   -1    0    0  502  501  0.00000000000E+00  0.00000000000E+00  0.87654215592E+03  0.87654215592E+03  0.00000000000E+00 0. -1.
         21   -1    0    0  501  502 -0.00000000000E+00 -0.00000000000E+00 -0.28509783057E+03  0.28509783057E+03  0.00000000000E+00 0. -1.
         25    1    1    2    0    0  0.38885265740E+01 -0.24359943688E+03  0.46136994116E+03  0.53651004547E+03  0.12500000000E+03 0.  0.
         25    1    1    2    0    0  0.96297270781E+02  0.19035085188E+03  0.29786723727E+03  0.38711303544E+03  0.12500000000E+03 0.  0.
         25    1    1    2    0    0 -0.10018579735E+03  0.53248585003E+02 -0.16779285308E+03  0.23801690558E+03  0.12500000000E+03 0.  0.
</event>
<event>
 5    0  0.5626800E-005  0.2950033E+03  0.7546771E-02  0.1087765E+00
         21   -1    0    0  502  501  0.00000000000E+00  0.00000000000E+00  0.16570313689E+04  0.16570313689E+04  0.00000000000E+00 0.  1.
         21   -1    0    0  501  502 -0.00000000000E+00 -0.00000000000E+00 -0.52519795505E+02  0.52519795505E+02  0.00000000000E+00 0.  1.
         25    1    1    2    0    0 -0.82664376772E+02 -0.12057205186E+03  0.97740595828E+03  0.99615180880E+03  0.12500000000E+03 0.  0.
         25    1    1    2    0    0  0.61095364115E+02  0.15537060413E+03  0.38820069689E+03  0.44067839658E+03  0.12500000000E+03 0.  0.
         25    1    1    2    0    0  0.21569012657E+02 -0.34798552273E+02  0.23890491825E+03  0.27272095906E+03  0.12500000000E+03 0.  0.
</event>
<event>
 5    0  0.5626800E-005  0.3740137E+03  0.7546771E-02  0.1053169E+00
         21   -1    0    0  502  501  0.00000000000E+00  0.00000000000E+00  0.18446844508E+04  0.18446844508E+04  0.00000000000E+00 0.  1.
         21   -1    0    0  501  502 -0.00000000000E+00 -0.00000000000E+00 -0.75832064329E+02  0.75832064329E+02  0.00000000000E+00 0.  1.
         25    1    1    2    0    0 -0.11557957632E+03 -0.12042063306E+03  0.93190275420E+03  0.95494895707E+03  0.12500000000E+03 0.  0.
         25    1    1    2    0    0 -0.10672981874E+03  0.93831972196E+02  0.18353838759E+03  0.26364186491E+03  0.12500000000E+03 0.  0.
         25    1    1    2    0    0  0.22230939506E+03  0.26588660869E+02  0.65341124469E+03  0.70192569315E+03  0.12500000000E+03 0.  0.
</event>
<event>
 5    0  0.5626800E-005  0.5257944E+03  0.7546771E-02  0.1007257E+00
         21   -1    0    0  502  501  0.00000000000E+00  0.00000000000E+00  0.95801967099E+03  0.95801967099E+03  0.00000000000E+00 0.  1.
         21   -1    0    0  501  502 -0.00000000000E+00 -0.00000000000E+00 -0.28857417099E+03  0.28857417099E+03  0.00000000000E+00 0.  1.
         25    1    1    2    0    0 -0.15597921571E+03 -0.33010613784E+02  0.22459517607E+03  0.30246852641E+03  0.12500000000E+03 0.  0.
         25    1    1    2    0    0  0.12027814838E+03  0.22333799349E+03 -0.13996130978E+03  0.31553266162E+03  0.12500000000E+03 0.  0.
         25    1    1    2    0    0  0.35701067330E+02 -0.19032737970E+03  0.58481163371E+03  0.62859265394E+03  0.12500000000E+03 0.  0.
</event>
<event>
 5    0  0.5626800E-005  0.4889220E+03  0.7546771E-02  0.1016712E+00
         21   -1    0    0  502  501  0.00000000000E+00  0.00000000000E+00  0.22463259388E+03  0.22463259388E+03  0.00000000000E+00 0. -1.
         21   -1    0    0  501  502 -0.00000000000E+00 -0.00000000000E+00 -0.10641588048E+04  0.10641588048E+04  0.00000000000E+00 0. -1.
         25    1    1    2    0    0  0.26255177083E+03 -0.94708855604E+02 -0.17422337093E+03  0.35196872399E+03  0.12500000000E+03 0.  0.
         25    1    1    2    0    0 -0.36277317222E+03 -0.17300993505E+02 -0.20201617861E+03  0.43398068537E+03  0.12500000000E+03 0.  0.
         25    1    1    2    0    0  0.10022140139E+03  0.11200984911E+03 -0.46328666138E+03  0.50284198930E+03  0.12500000000E+03 0.  0.
</event>
<event>
 5    0  0.5626800E-005  0.3040394E+03  0.7546771E-02  0.1083239E+00
         21   -1    0    0  502  501  0.00000000000E+00  0.00000000000E+00  0.36654361554E+03  0.36654361554E+03  0.00000000000E+00 0. -1.
         21   -1    0    0  501  502 -0.00000000000E+00 -0.00000000000E+00 -0.25219355881E+03  0.25219355881E+03  0.00000000000E+00 0. -1.
         25    1    1    2    0    0 -0.12252882437E+03 -0.49730968037E+02 -0.11034405109E+03  0.21280810979E+03  0.12500000000E+03 0.  0.
         25    1    1    2    0    0  0.34715887678E+02  0.54703254639E+02  0.83488584520E+01  0.14104021541E+03  0.12500000000E+03 0.  0.
         25    1    1    2    0    0  0.87812936689E+02 -0.49722866014E+01  0.21634524937E+03  0.26488884916E+03  0.12500000000E+03 0.  0.
</event>
<event>
 5    0  0.5626800E-005  0.3095000E+03  0.7546771E-02  0.1080586E+00
         21   -1    0    0  502  501  0.00000000000E+00  0.00000000000E+00  0.47154681419E+03  0.47154681419E+03  0.00000000000E+00 0. -1.
         21   -1    0    0  501  502 -0.00000000000E+00 -0.00000000000E+00 -0.20314048846E+03  0.20314048846E+03  0.00000000000E+00 0. -1.
         25    1    1    2    0    0  0.15796089368E+03  0.85295734747E+02  0.27667985301E+03  0.35270915406E+03  0.12500000000E+03 0.  0.
         25    1    1    2    0    0 -0.12645138493E+03 -0.71039100726E+02  0.55128367801E+01  0.19155129326E+03  0.12500000000E+03 0.  0.
         25    1    1    2    0    0 -0.31509508755E+02 -0.14256634021E+02 -0.13786364062E+02  0.13042685532E+03  0.12500000000E+03 0.  0.
</event>
<event>
 5    0  0.5626800E-005  0.2855712E+03  0.7546771E-02  0.1092684E+00
         21   -1    0    0  502  501  0.00000000000E+00  0.00000000000E+00  0.15952590091E+03  0.15952590091E+03  0.00000000000E+00 0.  1.
         21   -1    0    0  501  502 -0.00000000000E+00 -0.00000000000E+00 -0.51120787029E+03  0.51120787029E+03  0.00000000000E+00 0.  1.
         25    1    1    2    0    0 -0.29663954481E+02  0.23037085662E+02 -0.13346857010E+03  0.18668025262E+03  0.12500000000E+03 0.  0.
         25    1    1    2    0    0  0.60286814550E+00  0.11666871390E+03  0.27967718056E+02  0.17326034026E+03  0.12500000000E+03 0.  0.
         25    1    1    2    0    0  0.29061086336E+02 -0.13970579956E+03 -0.24618111733E+03  0.31079317833E+03  0.12500000000E+03 0.  0.
</event>
<event>
 5    0  0.5626800E-005  0.2594308E+03  0.7546771E-02  0.1107486E+00
         21   -1    0    0  502  501  0.00000000000E+00  0.00000000000E+00  0.24859893433E+04  0.24859893433E+04  0.00000000000E+00 0. -1.
         21   -1    0    0  501  502 -0.00000000000E+00 -0.00000000000E+00 -0.27073471878E+02  0.27073471878E+02  0.00000000000E+00 0. -1.
         25    1    1    2    0    0 -0.79811363126E+02 -0.12847680548E+03  0.13767248580E+04  0.13906374358E+04  0.12500000000E+03 0.  0.
         25    1    1    2    0    0  0.26334975993E+02  0.59763785313E+02  0.42418681064E+03  0.44701755146E+03  0.12500000000E+03 0.  0.
         25    1    1    2    0    0  0.53476387133E+02  0.68713020164E+02  0.65800420276E+03  0.67540782789E+03  0.12500000000E+03 0.  0.
</event>
<event>
 5    0  0.5668078E-005  0.4482516E+03  0.7546771E-02  0.1028245E+00
         21   -1    0    0  502  501  0.00000000000E+00  0.00000000000E+00  0.24438871290E+03  0.24438871290E+03  0.00000000000E+00 0. -1.
         21   -1    0    0  501  502 -0.00000000000E+00 -0.00000000000E+00 -0.82217191926E+03  0.82217191926E+03  0.00000000000E+00 0. -1.
         25    1    1    2    0    0 -0.27613514797E+03 -0.44500714916E+02 -0.69432157596E+02  0.31412856935E+03  0.12500000000E+03 0.  0.
         25    1    1    2    0    0  0.38780357680E+02 -0.95574428057E+02 -0.39899733060E+03  0.43065329125E+03  0.12500000000E+03 0.  0.
         25    1    1    2    0    0  0.23735479029E+03  0.14007514297E+03 -0.10935371817E+03  0.32177877156E+03  0.12500000000E+03 0.  0.
</event>
<event>
 5    0  0.5626800E-005  0.4613624E+03  0.7546771E-02  0.1024387E+00
         21   -1    0    0  502  501  0.00000000000E+00  0.00000000000E+00  0.46055483163E+03  0.46055483163E+03  0.00000000000E+00 0.  1.
         21   -1    0    0  501  502 -0.00000000000E+00 -0.00000000000E+00 -0.46217140769E+03  0.46217140769E+03  0.00000000000E+00 0.  1.
         25    1    1    2    0    0  0.18262659439E+03 -0.10873152222E+03  0.30002676014E+03  0.38835045218E+03  0.12500000000E+03 0.  0.
         25    1    1    2    0    0 -0.58435760999E+02 -0.38668526872E+02 -0.26566226459E+03  0.30184670275E+03  0.12500000000E+03 0.  0.
         25    1    1    2    0    0 -0.12419083339E+03  0.14740004909E+03 -0.35981071619E+02  0.23252908439E+03  0.12500000000E+03 0.  0.
</event>
<event>
 5    0  0.5626800E-005  0.2116397E+03  0.7546771E-02  0.1140274E+00
         21   -1    0    0  502  501  0.00000000000E+00  0.00000000000E+00  0.19039284121E+03  0.19039284121E+03  0.00000000000E+00 0.  1.
         21   -1    0    0  501  502 -0.00000000000E+00 -0.00000000000E+00 -0.23525750875E+03  0.23525750875E+03  0.00000000000E+00 0.  1.
         25    1    1    2    0    0  0.16655967053E+02  0.45185723680E+02  0.35054444881E+02  0.13846654819E+03  0.12500000000E+03 0.  0.
         25    1    1    2    0    0 -0.59029716234E+02 -0.22186708317E+02 -0.24194853648E+02  0.14208148496E+03  0.12500000000E+03 0.  0.
         25    1    1    2    0    0  0.42373749181E+02 -0.22999015363E+02 -0.55724258776E+02  0.14510231681E+03  0.12500000000E+03 0.  0.
</event>
<event>
 5    0  0.5626800E-005  0.3838332E+03  0.7546771E-02  0.1049526E+00
         21   -1    0    0  502  501  0.00000000000E+00  0.00000000000E+00  0.77413293462E+03  0.77413293462E+03  0.00000000000E+00 0.  1.
         21   -1    0    0  501  502 -0.00000000000E+00 -0.00000000000E+00 -0.19031351278E+03  0.19031351278E+03  0.00000000000E+00 0.  1.
         25    1    1    2    0    0  0.15033223426E+02  0.25492123593E+02 -0.14083427269E+03  0.19061778127E+03  0.12500000000E+03 0.  0.
         25    1    1    2    0    0 -0.49037888668E+02 -0.17142081026E+02  0.28684825495E+03  0.31718367996E+03  0.12500000000E+03 0.  0.
         25    1    1    2    0    0  0.34004665241E+02 -0.83500425667E+01  0.43780543958E+03  0.45664498617E+03  0.12500000000E+03 0.  0.
</event>
<event>
 5    0  0.5626800E-005  0.3340502E+03  0.7546771E-02  0.1069359E+00
         21   -1    0    0  502  501  0.00000000000E+00  0.00000000000E+00  0.23734911389E+03  0.23734911389E+03  0.00000000000E+00 0.  1.
         21   -1    0    0  501  502 -0.00000000000E+00 -0.00000000000E+00 -0.47014932651E+03  0.47014932651E+03  0.00000000000E+00 0.  1.
         25    1    1    2    0    0 -0.21941455326E+02  0.12115439313E+03  0.68684813768E+02  0.18842085362E+03  0.12500000000E+03 0.  0.
         25    1    1    2    0    0  0.12008694293E+03 -0.18128107374E+03 -0.20305589192E+03  0.32270791252E+03  0.12500000000E+03 0.  0.
         25    1    1    2    0    0 -0.98145487606E+02  0.60126680612E+02 -0.98429134468E+02  0.19636967427E+03  0.12500000000E+03 0.  0.
</event>
<event>
 5    0  0.5626800E-005  0.2891256E+03  0.7546771E-02  0.1090807E+00
         21   -1    0    0  502  501  0.00000000000E+00  0.00000000000E+00  0.14207654263E+04  0.14207654263E+04  0.00000000000E+00 0. -1.
         21   -1    0    0  501  502 -0.00000000000E+00 -0.00000000000E+00 -0.58837011557E+02  0.58837011557E+02  0.00000000000E+00 0. -1.
         25    1    1    2    0    0 -0.85521899594E+02  0.24047515620E+02  0.20574302433E+03  0.25660761948E+03  0.12500000000E+03 0.  0.
         25    1    1    2    0    0  0.14033462629E+03 -0.90527528157E+02  0.39377075005E+03  0.44561131526E+03  0.12500000000E+03 0.  0.
         25    1    1    2    0    0 -0.54812726699E+02  0.66480012537E+02  0.76241464041E+03  0.77738350316E+03  0.12500000000E+03 0.  0.
</event>
<event>
 5    0  0.5899688E-005  0.3016635E+03  0.7546771E-02  0.1084412E+00
         21   -1    0    0  502  501  0.00000000000E+00  0.00000000000E+00  0.13065888410E+03  0.13065888410E+03  0.00000000000E+00 0.  1.
         21   -1    0    0  501  502 -0.00000000000E+00 -0.00000000000E+00 -0.69647686410E+03  0.69647686410E+03  0.00000000000E+00 0.  1.
         25    1    1    2    0    0  0.74474522735E+02 -0.72614816467E+02 -0.38172101519E+02  0.16703734745E+03  0.12500000000E+03 0.  0.
         25    1    1    2    0    0  0.75798005628E+02  0.12360565462E+03 -0.29860900857E+03  0.35470556171E+03  0.12500000000E+03 0.  0.
         25    1    1    2    0    0 -0.15027252836E+03 -0.50990838155E+02 -0.22903686992E+03  0.30539283904E+03  0.12500000000E+03 0.  0.
</event>
<event>
 5    0  0.5626800E-005  0.2429427E+03  0.7546771E-02  0.1117848E+00
         21   -1    0    0  502  501  0.00000000000E+00  0.00000000000E+00  0.93403886768E+03  0.93403886768E+03  0.00000000000E+00 0.  1.
         21   -1    0    0  501  502 -0.00000000000E+00 -0.00000000000E+00 -0.63189199994E+02  0.63189199994E+02  0.00000000000E+00 0.  1.
         25    1    1    2    0    0  0.76547226647E+02  0.11728999739E+03  0.26202192532E+03  0.32233043720E+03  0.12500000000E+03 0.  0.
         25    1    1    2    0    0 -0.51640654299E+02 -0.83334197024E+02  0.31348631770E+03  0.35143991941E+03  0.12500000000E+03 0.  0.
         25    1    1    2    0    0 -0.24906572348E+02 -0.33955800365E+02  0.29534142467E+03  0.32345771107E+03  0.12500000000E+03 0.  0.
</event>
<event>
 5    0  0.5626800E-005  0.3307622E+03  0.7546771E-02  0.1070800E+00
         21   -1    0    0  502  501  0.00000000000E+00  0.00000000000E+00  0.28276393895E+03  0.28276393895E+03  0.00000000000E+00 0. -1.
         21   -1    0    0  501  502 -0.00000000000E+00 -0.00000000000E+00 -0.38690793958E+03  0.38690793958E+03  0.00000000000E+00 0. -1.
         25    1    1    2    0    0  0.56163182356E+02  0.31356174117E+02  0.17204211420E+03  0.22217335971E+03  0.12500000000E+03 0.  0.
         25    1    1    2    0    0  0.34903437549E+02 -0.79800222302E+02 -0.23536612028E+03  0.28037213843E+03  0.12500000000E+03 0.  0.
         25    1    1    2    0    0 -0.91066619905E+02  0.48444048185E+02 -0.40819994553E+02  0.16712638039E+03  0.12500000000E+03 0.  0.
</event>
<event>
 5    0  0.5626800E-005  0.3349326E+03  0.7546771E-02  0.1068975E+00
         21   -1    0    0  502  501  0.00000000000E+00  0.00000000000E+00  0.10725688288E+04  0.10725688288E+04  0.00000000000E+00 0.  1.
         21   -1    0    0  501  502 -0.00000000000E+00 -0.00000000000E+00 -0.10458990117E+03  0.10458990117E+03  0.00000000000E+00 0.  1.
         25    1    1    2    0    0  0.12059075813E+02 -0.59326377800E+02  0.91089626117E+02  0.16609443217E+03  0.12500000000E+03 0.  0.
         25    1    1    2    0    0  0.11031649919E+03 -0.13536728184E+03  0.23760108401E+03  0.32027067632E+03  0.12500000000E+03 0.  0.
         25    1    1    2    0    0 -0.12237557500E+03  0.19469365964E+03  0.63928821750E+03  0.69079362149E+03  0.12500000000E+03 0.  0.
</event>
<event>
 5    0  0.5626800E-005  0.3999955E+03  0.7546771E-02  0.1043781E+00
         21   -1    0    0  502  501  0.00000000000E+00  0.00000000000E+00  0.10605740873E+03  0.10605740873E+03  0.00000000000E+00 0. -1.
         21   -1    0    0  501  502 -0.00000000000E+00 -0.00000000000E+00 -0.15085832364E+04  0.15085832364E+04  0.00000000000E+00 0. -1.
         25    1    1    2    0    0 -0.14784600886E+03  0.22690818001E+03 -0.33870464626E+03  0.45132206005E+03  0.12500000000E+03 0.  0.
         25    1    1    2    0    0  0.13800600244E+03 -0.11513194356E+03 -0.24982943728E+03  0.33217581018E+03  0.12500000000E+03 0.  0.
         25    1    1    2    0    0  0.98400064236E+01 -0.11177623645E+03 -0.81399174413E+03  0.83114277490E+03  0.12500000000E+03 0.  0.
</event>
<event>
 5    0  0.5626800E-005  0.3457858E+03  0.7546771E-02  0.1064358E+00
         21   -1    0    0  502  501  0.00000000000E+00  0.00000000000E+00  0.66930420502E+03  0.66930420502E+03  0.00000000000E+00 0.  1.
         21   -1    0    0  501  502 -0.00000000000E+00 -0.00000000000E+00 -0.17864498749E+03  0.17864498749E+03  0.00000000000E+00 0.  1.
         25    1    1    2    0    0  0.12123744269E+03  0.74587133998E+02  0.43789991538E+03  0.47711958036E+03  0.12500000000E+03 0.  0.
         25    1    1    2    0    0  0.56439405250E+02 -0.56803987668E+02  0.10648025873E+02  0.14883037303E+03  0.12500000000E+03 0.  0.
         25    1    1    2    0    0 -0.17767684794E+03 -0.17783146330E+02  0.42111276278E+02  0.22199923914E+03  0.12500000000E+03 0.  0.
</event>
<event>
 5    0  0.5626800E-005  0.2670213E+03  0.7546771E-02  0.1102997E+00
         21   -1    0    0  502  501  0.00000000000E+00  0.00000000000E+00  0.27469316518E+03  0.27469316518E+03  0.00000000000E+00 0.  1.
         21   -1    0    0  501  502 -0.00000000000E+00 -0.00000000000E+00 -0.25956374372E+03  0.25956374372E+03  0.00000000000E+00 0.  1.
         25    1    1    2    0    0 -0.24757083021E+02  0.67945080321E+02  0.70538717069E+02  0.16071763346E+03  0.12500000000E+03 0.  0.
         25    1    1    2    0    0  0.10412162803E+03  0.18397369650E+02 -0.10574109738E+03  0.19489986226E+03  0.12500000000E+03 0.  0.
         25    1    1    2    0    0 -0.79364545008E+02 -0.86342449971E+02  0.50331801781E+02  0.17863941318E+03  0.12500000000E+03 0.  0.
</event>
<event>
 5    0  0.5626800E-005  0.3370135E+03  0.7546771E-02  0.1068075E+00
         21   -1    0    0  502  501  0.00000000000E+00  0.00000000000E+00  0.11179219759E+04  0.11179219759E+04  0.00000000000E+00 0.  1.
         21   -1    0    0  501  502 -0.00000000000E+00 -0.00000000000E+00 -0.10159751881E+03  0.10159751881E+03  0.00000000000E+00 0.  1.
         25    1    1    2    0    0 -0.42336104752E+02 -0.10253453279E+02  0.15932853505E+03  0.20714261066E+03  0.12500000000E+03 0.  0.
         25    1    1    2    0    0  0.10573204968E+03  0.22732574603E+03  0.46562242034E+03  0.54340178456E+03  0.12500000000E+03 0.  0.
         25    1    1    2    0    0 -0.63395944933E+02 -0.21707229275E+03  0.39137350166E+03  0.46897509946E+03  0.12500000000E+03 0.  0.
</event>
<event>
 5    0  0.5626800E-005  0.2923171E+03  0.7546771E-02  0.1089146E+00
         21   -1    0    0  502  501  0.00000000000E+00  0.00000000000E+00  0.71976874116E+02  0.71976874116E+02  0.00000000000E+00 0.  1.
         21   -1    0    0  501  502 -0.00000000000E+00 -0.00000000000E+00 -0.11871766303E+04  0.11871766303E+04  0.00000000000E+00 0.  1.
         25    1    1    2    0    0 -0.41756640563E+02 -0.13070908113E+03 -0.42536627632E+03  0.46410122813E+03  0.12500000000E+03 0.  0.
         25    1    1    2    0    0 -0.91428601492E+02  0.79345153347E+02 -0.17685637919E+03  0.24810889019E+03  0.12500000000E+03 0.  0.
         25    1    1    2    0    0  0.13318524206E+03  0.51363927786E+02 -0.51297710070E+03  0.54694338612E+03  0.12500000000E+03 0.  0.
</event>
<event>
 5    0  0.5626800E-005  0.5008897E+03  0.7546771E-02  0.1013547E+00
         21   -1    0    0  502  501  0.00000000000E+00  0.00000000000E+00  0.76139802543E+03  0.76139802543E+03  0.00000000000E+00 0.  1.
         21   -1    0    0  501  502 -0.00000000000E+00 -0.00000000000E+00 -0.32951296060E+03  0.32951296060E+03  0.00000000000E+00 0.  1.
         25    1    1    2    0    0 -0.13260486112E+03  0.17272611200E+03 -0.12326376666E+03  0.27970934044E+03  0.12500000000E+03 0.  0.
         25    1    1    2    0    0 -0.33951989988E+02  0.26811807417E+02 -0.49545102958E+02  0.14124916944E+03  0.12500000000E+03 0.  0.
         25    1    1    2    0    0  0.16655685110E+03 -0.19953791941E+03  0.60469393446E+03  0.66995247615E+03  0.12500000000E+03 0.  0.
</event>
<event>
 5    0  0.5626800E-005  0.3103688E+03  0.7546771E-02  0.1080169E+00
         21   -1    0    0  502  501  0.00000000000E+00  0.00000000000E+00  0.20967000582E+03  0.20967000582E+03  0.00000000000E+00 0.  1.
         21   -1    0    0  501  502 -0.00000000000E+00 -0.00000000000E+00 -0.45943047923E+03  0.45943047923E+03  0.00000000000E+00 0.  1.
         25    1    1    2    0    0 -0.19656743909E+02 -0.81823983105E+02 -0.62812130921E+01  0.15081778884E+03  0.12500000000E+03 0.  0.
         25    1    1    2    0    0  0.70490977398E+02 -0.13478214703E+03 -0.66835951835E+02  0.20791163871E+03  0.12500000000E+03 0.  0.
         25    1    1    2    0    0 -0.50834233488E+02  0.21660613013E+03 -0.17664330848E+03  0.31037105751E+03  0.12500000000E+03 0.  0.
</event>
<event>
 5    0  0.5626800E-005  0.2219721E+03  0.7546771E-02  0.1132421E+00
         21   -1    0    0  502  501  0.00000000000E+00  0.00000000000E+00  0.47959856383E+03  0.47959856383E+03  0.00000000000E+00 0. -1.
         21   -1    0    0  501  502 -0.00000000000E+00 -0.00000000000E+00 -0.10273508195E+03  0.10273508195E+03  0.00000000000E+00 0. -1.
         25    1    1    2    0    0  0.68432511792E+02  0.74301163249E+02  0.12423368611E+03  0.20313217445E+03  0.12500000000E+03 0.  0.
         25    1    1    2    0    0 -0.70584815724E+02 -0.34226973908E+02  0.16494856203E+03  0.22132946047E+03  0.12500000000E+03 0.  0.
         25    1    1    2    0    0  0.21523039321E+01 -0.40074189341E+02  0.87681233736E+02  0.15787201086E+03  0.12500000000E+03 0.  0.
</event>
<event>
 5    0  0.5626800E-005  0.2938275E+03  0.7546771E-02  0.1088368E+00
         21   -1    0    0  502  501  0.00000000000E+00  0.00000000000E+00  0.14773974611E+04  0.14773974611E+04  0.00000000000E+00 0. -1.
         21   -1    0    0  501  502 -0.00000000000E+00 -0.00000000000E+00 -0.58436962361E+02  0.58436962361E+02  0.00000000000E+00 0. -1.
         25    1    1    2    0    0 -0.89842777953E+02 -0.72618181758E+02  0.81204177777E+03  0.82968787741E+03  0.12500000000E+03 0.  0.
         25    1    1    2    0    0  0.15689328134E+03  0.18307959110E+02  0.41579182405E+03  0.46201571840E+03  0.12500000000E+03 0.  0.
         25    1    1    2    0    0 -0.67050503391E+02  0.54310222648E+02  0.19112689694E+03  0.24413082768E+03  0.12500000000E+03 0.  0.
</event>
<event>
 5    0  0.5626800E-005  0.3560192E+03  0.7546771E-02  0.1060171E+00
         21   -1    0    0  502  501  0.00000000000E+00  0.00000000000E+00  0.12768340249E+04  0.12768340249E+04  0.00000000000E+00 0.  1.
         21   -1    0    0  501  502 -0.00000000000E+00 -0.00000000000E+00 -0.99268693532E+02  0.99268693532E+02  0.00000000000E+00 0.  1.
         25    1    1    2    0    0 -0.11853885292E+03 -0.10687654895E+03  0.22891861573E+03  0.30578225749E+03  0.12500000000E+03 0.  0.
         25    1    1    2    0    0  0.16928895917E+01  0.15482220130E+03  0.14232755206E+03  0.24465263532E+03  0.12500000000E+03 0.  0.
         25    1    1    2    0    0  0.11684596333E+03 -0.47945652353E+02  0.80631916358E+03  0.82566782563E+03  0.12500000000E+03 0.  0.
</event>
<event>
 5    0  0.5626800E-005  0.3202716E+03  0.7546771E-02  0.1075524E+00
         21   -1    0    0  502  501  0.00000000000E+00  0.00000000000E+00  0.12272116695E+04  0.12272116695E+04  0.00000000000E+00 0.  1.
         21   -1    0    0  501  502 -0.00000000000E+00 -0.00000000000E+00 -0.83582892461E+02  0.83582892461E+02  0.00000000000E+00 0.  1.
         25    1    1    2    0    0  0.38597859035E+02 -0.24604996260E+01  0.57669317451E+02  0.14299160449E+03  0.12500000000E+03 0.  0.
         25    1    1    2    0    0 -0.18722764511E+03  0.63433037445E+01  0.70633451879E+03  0.74136892370E+03  0.12500000000E+03 0.  0.
         25    1    1    2    0    0  0.14862978607E+03 -0.38828041185E+01  0.37962494077E+03  0.42643403374E+03  0.12500000000E+03 0.  0.
</event>
<event>
 5    0  0.6028542E-005  0.5471355E+03  0.7546771E-02  0.1002159E+00
         21   -1    0    0  502  501  0.00000000000E+00  0.00000000000E+00  0.25360580528E+03  0.25360580528E+03  0.00000000000E+00 0. -1.
         21   -1    0    0  501  502 -0.00000000000E+00 -0.00000000000E+00 -0.11804039014E+04  0.11804039014E+04  0.00000000000E+00 0. -1.
         25    1    1    2    0    0  0.23401938179E+03  0.25999440523E+03 -0.23932678802E+03  0.44188739885E+03  0.12500000000E+03 0.  0.
         25    1    1    2    0    0  0.26659977968E+02 -0.51950485791E+02 -0.61288403867E+03  0.62822086264E+03  0.12500000000E+03 0.  0.
         25    1    1    2    0    0 -0.26067935976E+03 -0.20804391943E+03 -0.74587269396E+02  0.36390144514E+03  0.12500000000E+03 0.  0.
</event>
<event>
 5    0  0.5626800E-005  0.4882079E+03  0.7546771E-02  0.1016903E+00
         21   -1    0    0  502  501  0.00000000000E+00  0.00000000000E+00  0.10119329655E+03  0.10119329655E+03  0.00000000000E+00 0. -1.
         21   -1    0    0  501  502 -0.00000000000E+00 -0.00000000000E+00 -0.23553631390E+04  0.23553631390E+04  0.00000000000E+00 0. -1.
         25    1    1    2    0    0  0.59993081938E+02  0.13131797647E+03 -0.54087067865E+03  0.57359364697E+03  0.12500000000E+03 0.  0.
         25    1    1    2    0    0  0.30429875334E+03 -0.20140400735E+03 -0.94470716272E+03  0.10204204666E+04  0.12500000000E+03 0.  0.
         25    1    1    2    0    0 -0.36429183528E+03  0.70086030871E+02 -0.76859200104E+03  0.86254232188E+03  0.12500000000E+03 0.  0.
</event>
<event>
 5    0  0.5626800E-005  0.3500563E+03  0.7546771E-02  0.1062592E+00
         21   -1    0    0  502  501  0.00000000000E+00  0.00000000000E+00  0.40862821362E+02  0.40862821362E+02  0.00000000000E+00 0.  1.
         21   -1    0    0  501  502 -0.00000000000E+00 -0.00000000000E+00 -0.29987992496E+04  0.29987992496E+04  0.00000000000E+00 0. -1.
         25    1    1    2    0    0 -0.19251776325E+03  0.16295282681E+03 -0.10947865154E+04  0.11303978181E+04  0.12500000000E+03 0.  0.
         25    1    1    2    0    0  0.26550594771E+02  0.30961853356E+02 -0.51899175241E+03  0.53538865277E+03  0.12500000000E+03 0.  0.
         25    1    1    2    0    0  0.16596716848E+03 -0.19391468017E+03 -0.13441581605E+04  0.13738756001E+04  0.12500000000E+03 0.  0.
</event>
<event>
 5    0  0.5626800E-005  0.2448211E+03  0.7546771E-02  0.1116622E+00
         21   -1    0    0  502  501  0.00000000000E+00  0.00000000000E+00  0.26772391539E+03  0.26772391539E+03  0.00000000000E+00 0.  1.
         21   -1    0    0  501  502 -0.00000000000E+00 -0.00000000000E+00 -0.22387758727E+03  0.22387758727E+03  0.00000000000E+00 0.  1.
         25    1    1    2    0    0  0.76700268120E+02 -0.39228250997E+02 -0.18085310201E+02  0.15288513744E+03  0.12500000000E+03 0.  0.
         25    1    1    2    0    0 -0.11057193117E+03 -0.68907485464E+00 -0.36983793215E+02  0.17093691160E+03  0.12500000000E+03 0.  0.
         25    1    1    2    0    0  0.33871663047E+02  0.39917325852E+02  0.98915431541E+02  0.16777945362E+03  0.12500000000E+03 0.  0.
</event>
<event>
 5    0  0.5626800E-005  0.3628235E+03  0.7546771E-02  0.1057471E+00
         21   -1    0    0  502  501  0.00000000000E+00  0.00000000000E+00  0.12551283693E+03  0.12551283693E+03  0.00000000000E+00 0. -1.
         21   -1    0    0  501  502 -0.00000000000E+00 -0.00000000000E+00 -0.10488241008E+04  0.10488241008E+04  0.00000000000E+00 0. -1.
         25    1    1    2    0    0  0.52635040290E+02 -0.72100475515E+01 -0.48317492107E+03  0.50190181969E+03  0.12500000000E+03 0.  0.
         25    1    1    2    0    0 -0.19714063337E+03  0.12543360491E+03 -0.32693479396E+03  0.42084365039E+03  0.12500000000E+03 0.  0.
         25    1    1    2    0    0  0.14450559308E+03 -0.11822355736E+03 -0.11320154886E+03  0.25159146768E+03  0.12500000000E+03 0.  0.
</event>
<event>
 5    0  0.5626800E-005  0.2803152E+03  0.7546771E-02  0.1095517E+00
         21   -1    0    0  502  501  0.00000000000E+00  0.00000000000E+00  0.86490879116E+02  0.86490879116E+02  0.00000000000E+00 0.  1.
         21   -1    0    0  501  502 -0.00000000000E+00 -0.00000000000E+00 -0.90849603820E+03  0.90849603820E+03  0.00000000000E+00 0.  1.
         25    1    1    2    0    0 -0.29156103725E+02 -0.12663284048E+03 -0.11105008074E+03  0.21176183581E+03  0.12500000000E+03 0.  0.
         25    1    1    2    0    0  0.73690492328E+02  0.13195393011E+02 -0.41232398051E+03  0.43731049834E+03  0.12500000000E+03 0.  0.
         25    1    1    2    0    0 -0.44534388603E+02  0.11343744746E+03 -0.29863109782E+03  0.34591458316E+03  0.12500000000E+03 0.  0.
</event>
<event>
 5    0  0.5626800E-005  0.5635944E+03  0.7546771E-02  0.9983954E-01
         21   -1    0    0  502  501  0.00000000000E+00  0.00000000000E+00  0.16119244946E+04  0.16119244946E+04  0.00000000000E+00 0.  1.
         21   -1    0    0  501  502 -0.00000000000E+00 -0.00000000000E+00 -0.19705555017E+03  0.19705555017E+03  0.00000000000E+00 0.  1.
         25    1    1    2    0    0  0.13556558562E+03 -0.27226294737E+02  0.33338815759E+03  0.38195806413E+03  0.12500000000E+03 0.  0.
         25    1    1    2    0    0  0.18118854842E+03 -0.71885684444E+01  0.10615772925E+04  0.10841827861E+04  0.12500000000E+03 0.  0.
         25    1    1    2    0    0 -0.31675413404E+03  0.34414863181E+02  0.19903494296E+02  0.34283919456E+03  0.12500000000E+03 0.  0.
</event>
<event>
 5    0  0.5626800E-005  0.5089969E+03  0.7546771E-02  0.1011457E+00
         21   -1    0    0  502  501  0.00000000000E+00  0.00000000000E+00  0.24094593934E+03  0.24094593934E+03  0.00000000000E+00 0.  1.
         21   -1    0    0  501  502 -0.00000000000E+00 -0.00000000000E+00 -0.10752530408E+04  0.10752530408E+04  0.00000000000E+00 0.  1.
         25    1    1    2    0    0  0.18660405165E+03 -0.17393120260E+03  0.48444496613E+02  0.28817530182E+03  0.12500000000E+03 0.  0.
         25    1    1    2    0    0 -0.20405085432E+03 -0.72260268248E+02 -0.40365406032E+03  0.47478405399E+03  0.12500000000E+03 0.  0.
         25    1    1    2    0    0  0.17446802675E+02  0.24619147085E+03 -0.47909753775E+03  0.55323962432E+03  0.12500000000E+03 0.  0.
</event>
<event>
 5    0  0.5626800E-005  0.2338615E+03  0.7546771E-02  0.1123951E+00
         21   -1    0    0  502  501  0.00000000000E+00  0.00000000000E+00  0.86620699788E+03  0.86620699788E+03  0.00000000000E+00 0.  1.
         21   -1    0    0  501  502 -0.00000000000E+00 -0.00000000000E+00 -0.63138726466E+02  0.63138726466E+02  0.00000000000E+00 0.  1.
         25    1    1    2    0    0 -0.74737661788E+02 -0.78715530053E+01  0.10713838588E+03  0.18097323881E+03  0.12500000000E+03 0.  0.
         25    1    1    2    0    0  0.74178186816E+02  0.16846522522E+01  0.30442350325E+03  0.33734835227E+03  0.12500000000E+03 0.  0.
         25    1    1    2    0    0  0.55947497231E+00  0.61869007531E+01  0.39150638229E+03  0.41102413326E+03  0.12500000000E+03 0.  0.
</event>
<event>
 5    0  0.5626800E-005  0.4813905E+03  0.7546771E-02  0.1018754E+00
         21   -1    0    0  502  501  0.00000000000E+00  0.00000000000E+00  0.43036858878E+03  0.43036858878E+03  0.00000000000E+00 0. -1.
         21   -1    0    0  501  502 -0.00000000000E+00 -0.00000000000E+00 -0.53846129839E+03  0.53846129839E+03  0.00000000000E+00 0. -1.
         25    1    1    2    0    0 -0.23148306197E+03 -0.13260456970E+02 -0.21224702682E+03  0.33828101941E+03  0.12500000000E+03 0.  0.
         25    1    1    2    0    0  0.23735699712E+03  0.19615384273E+03 -0.80679882811E+02  0.34197794899E+03  0.12500000000E+03 0.  0.
         25    1    1    2    0    0 -0.58739351522E+01 -0.18289338576E+03  0.18483420002E+03  0.28857091878E+03  0.12500000000E+03 0.  0.
</event>
<event>
 5    0  0.5626800E-005  0.2995721E+03  0.7546771E-02  0.1085455E+00
         21   -1    0    0  502  501  0.00000000000E+00  0.00000000000E+00  0.14002306159E+04  0.14002306159E+04  0.00000000000E+00 0.  1.
         21   -1    0    0  501  502 -0.00000000000E+00 -0.00000000000E+00 -0.64091900949E+02  0.64091900949E+02  0.00000000000E+00 0.  1.
         25    1    1    2    0    0  0.12562870412E+03 -0.16693761820E+03  0.52159237574E+03  0.57561649221E+03  0.12500000000E+03 0.  0.
         25    1    1    2    0    0 -0.10606353744E+03  0.14056946406E+03  0.40120888377E+03  0.45563452088E+03  0.12500000000E+03 0.  0.
         25    1    1    2    0    0 -0.19565166685E+02  0.26368154147E+02  0.41333745540E+03  0.43307150372E+03  0.12500000000E+03 0.  0.
</event>
<event>
 5    0  0.5626800E-005  0.2972212E+03  0.7546771E-02  0.1086638E+00
         21   -1    0    0  502  501  0.00000000000E+00  0.00000000000E+00  0.32374615967E+03  0.32374615967E+03  0.00000000000E+00 0.  1.
         21   -1    0    0  501  502 -0.00000000000E+00 -0.00000000000E+00 -0.27286944621E+03  0.27286944621E+03  0.00000000000E+00 0.  1.
         25    1    1    2    0    0 -0.14031597076E+03  0.39933662078E+02  0.75860354125E+02  0.20655038694E+03  0.12500000000E+03 0.  0.
         25    1    1    2    0    0  0.96320230547E+02  0.10739109213E+03 -0.55691841219E+01  0.19096190535E+03  0.12500000000E+03 0.  0.
         25    1    1    2    0    0  0.43995740213E+02 -0.14732475421E+03 -0.19414456543E+02  0.19910331359E+03  0.12500000000E+03 0.  0.
</event>
<event>
 5    0  0.5626800E-005  0.3763030E+03  0.7546771E-02  0.1052309E+00
         21   -1    0    0  502  501  0.00000000000E+00  0.00000000000E+00  0.23525945214E+03  0.23525945214E+03  0.00000000000E+00 0.  1.
         21   -1    0    0  501  502 -0.00000000000E+00 -0.00000000000E+00 -0.60190544383E+03  0.60190544383E+03  0.00000000000E+00 0.  1.
         25    1    1    2    0    0 -0.71880982642E+02 -0.28071901427E+02  0.10490815895E+03  0.18051490002E+03  0.12500000000E+03 0.  0.
         25    1    1    2    0    0  0.73191090589E+02 -0.89826084211E+02 -0.45277557172E+03  0.48379373651E+03  0.12500000000E+03 0.  0.
         25    1    1    2    0    0 -0.13101079470E+01  0.11789798564E+03 -0.18778578925E+02  0.17285625944E+03  0.12500000000E+03 0.  0.
</event>
<event>
 5    0  0.5626800E-005  0.2684078E+03  0.7546771E-02  0.1102194E+00
         21   -1    0    0  502  501  0.00000000000E+00  0.00000000000E+00  0.23481583827E+03  0.23481583827E+03  0.00000000000E+00 0.  1.
         21   -1    0    0  501  502 -0.00000000000E+00 -0.00000000000E+00 -0.30680537711E+03  0.30680537711E+03  0.00000000000E+00 0.  1.
         25    1    1    2    0    0  0.73960828812E+01  0.37542148705E+02  0.18662216208E+02  0.13205072240E+03  0.12500000000E+03 0.  0.
         25    1    1    2    0    0  0.12756108101E+03 -0.23243490486E+02 -0.12846984964E+03  0.22122746553E+03  0.12500000000E+03 0.  0.
         25    1    1    2    0    0 -0.13495716389E+03 -0.14298658219E+02  0.37818094594E+02  0.18834302746E+03  0.12500000000E+03 0.  0.
</event>
<event>
 5    0  0.5626800E-005  0.2938573E+03  0.7546771E-02  0.1088352E+00
         21   -1    0    0  502  501  0.00000000000E+00  0.00000000000E+00  0.12539925975E+04  0.12539925975E+04  0.00000000000E+00 0. -1.
         21   -1    0    0  501  502 -0.00000000000E+00 -0.00000000000E+00 -0.68861723958E+02  0.68861723958E+02  0.00000000000E+00 0. -1.
         25    1    1    2    0    0  0.11636526118E+03  0.56856944998E+02  0.52889411103E+03  0.55868378076E+03  0.12500000000E+03 0.  0.
         25    1    1    2    0    0 -0.81133180340E+02  0.40839141357E+02  0.98506729114E+02  0.18324574784E+03  0.12500000000E+03 0.  0.
         25    1    1    2    0    0 -0.35232080839E+02 -0.97696086355E+02  0.55773003342E+03  0.58092479289E+03  0.12500000000E+03 0.  0.
</event>
<event>
 5    0  0.5626800E-005  0.2860529E+03  0.7546771E-02  0.1092428E+00
         21   -1    0    0  502  501  0.00000000000E+00  0.00000000000E+00  0.32168522219E+03  0.32168522219E+03  0.00000000000E+00 0.  1.
         21   -1    0    0  501  502 -0.00000000000E+00 -0.00000000000E+00 -0.25436753748E+03  0.25436753748E+03  0.00000000000E+00 0.  1.
         25    1    1    2    0    0  0.75332439961E+02 -0.59058716580E+02  0.18249668236E+03  0.24102478625E+03  0.12500000000E+03 0.  0.
         25    1    1    2    0    0 -0.66288213326E+02  0.95025147776E+02 -0.15957760992E+02  0.17118281477E+03  0.12500000000E+03 0.  0.
         25    1    1    2    0    0 -0.90442266350E+01 -0.35966431196E+02 -0.99221236657E+02  0.16384515865E+03  0.12500000000E+03 0.  0.
</event>
<event>
 5    0  0.5626800E-005  0.2522402E+03  0.7546771E-02  0.1111897E+00
         21   -1    0    0  502  501  0.00000000000E+00  0.00000000000E+00  0.45745249336E+03  0.45745249336E+03  0.00000000000E+00 0. -1.
         21   -1    0    0  501  502 -0.00000000000E+00 -0.00000000000E+00 -0.13908572739E+03  0.13908572739E+03  0.00000000000E+00 0. -1.
         25    1    1    2    0    0 -0.49318040290E+02 -0.43756642978E+02  0.21723053414E+03  0.25915442861E+03  0.12500000000E+03 0.  0.
         25    1    1    2    0    0 -0.40939187804E+02 -0.31840006112E+02 -0.51600450334E+01  0.13543053257E+03  0.12500000000E+03 0.  0.
         25    1    1    2    0    0  0.90257228094E+02  0.75596649090E+02  0.10629627687E+03  0.20195325957E+03  0.12500000000E+03 0.  0.
</event>
<event>
 5    0  0.5626800E-005  0.2484223E+03  0.7546771E-02  0.1114306E+00
         21   -1    0    0  502  501  0.00000000000E+00  0.00000000000E+00  0.21600613850E+03  0.21600613850E+03  0.00000000000E+00 0.  1.
         21   -1    0    0  501  502 -0.00000000000E+00 -0.00000000000E+00 -0.28570321267E+03  0.28570321267E+03  0.00000000000E+00 0.  1.
         25    1    1    2    0    0 -0.26630188053E+02 -0.22596482916E+02 -0.15504223558E+03  0.20219511065E+03  0.12500000000E+03 0.  0.
         25    1    1    2    0    0 -0.31922105048E+02 -0.25762077449E+02  0.28417244271E+01  0.13158944039E+03  0.12500000000E+03 0.  0.
         25    1    1    2    0    0  0.58552293101E+02  0.48358560364E+02  0.82503436976E+02  0.16792480014E+03  0.12500000000E+03 0.  0.
</event>
<event>
 5    0  0.5626800E-005  0.3068908E+03  0.7546771E-02  0.1081846E+00
         21   -1    0    0  502  501  0.00000000000E+00  0.00000000000E+00  0.52526998689E+03  0.52526998689E+03  0.00000000000E+00 0.  1.
         21   -1    0    0  501  502 -0.00000000000E+00 -0.00000000000E+00 -0.17930195251E+03  0.17930195251E+03  0.00000000000E+00 0.  1.
         25    1    1    2    0    0  0.10847972573E+03  0.57492799634E+02  0.12002516565E+03  0.21237776083E+03  0.12500000000E+03 0.  0.
         25    1    1    2    0    0 -0.83579727746E+02 -0.33551046060E+02  0.30401334294E+03  0.34082305713E+03  0.12500000000E+03 0.  0.
         25    1    1    2    0    0 -0.24899997989E+02 -0.23941753573E+02 -0.78070474211E+02  0.15137112145E+03  0.12500000000E+03 0.  0.
</event>
<event>
 5    0  0.5626800E-005  0.3018257E+03  0.7546771E-02  0.1084332E+00
         21   -1    0    0  502  501  0.00000000000E+00  0.00000000000E+00  0.32758817961E+03  0.32758817961E+03  0.00000000000E+00 0.  1.
         21   -1    0    0  501  502 -0.00000000000E+00 -0.00000000000E+00 -0.27808922904E+03  0.27808922904E+03  0.00000000000E+00 0.  1.
         25    1    1    2    0    0  0.24185458075E+02  0.34626487919E+02  0.10629759679E+02  0.13237039638E+03  0.12500000000E+03 0.  0.
         25    1    1    2    0    0 -0.91915496234E+02 -0.79608022750E+02  0.19213252023E+03  0.25947215855E+03  0.12500000000E+03 0.  0.
         25    1    1    2    0    0  0.67730038159E+02  0.44981534831E+02 -0.15326332933E+03  0.21383485371E+03  0.12500000000E+03 0.  0.
</event>
<event>
 5    0  0.5626800E-005  0.3925220E+03  0.7546771E-02  0.1046400E+00
         21   -1    0    0  502  501  0.00000000000E+00  0.00000000000E+00  0.15643005520E+03  0.15643005520E+03  0.00000000000E+00 0. -1.
         21   -1    0    0  501  502 -0.00000000000E+00 -0.00000000000E+00 -0.98493557413E+03  0.98493557413E+03  0.00000000000E+00 0. -1.
         25    1    1    2    0    0  0.36089956824E+02  0.49070092149E+01 -0.85532776805E+02  0.15578003605E+03  0.12500000000E+03 0.  0.
         25    1    1    2    0    0  0.21649549922E+03  0.17957117973E+03 -0.30793551076E+03  0.43539107542E+03  0.12500000000E+03 0.  0.
         25    1    1    2    0    0 -0.25258545604E+03 -0.18447818895E+03 -0.43503723137E+03  0.55019451785E+03  0.12500000000E+03 0.  0.
</event>
<event>
 5    0  0.5626800E-005  0.2977015E+03  0.7546771E-02  0.1086395E+00
         21   -1    0    0  502  501  0.00000000000E+00  0.00000000000E+00  0.10501344423E+04  0.10501344423E+04  0.00000000000E+00 0.  1.
         21   -1    0    0  501  502 -0.00000000000E+00 -0.00000000000E+00 -0.84395065149E+02  0.84395065149E+02  0.00000000000E+00 0.  1.
         25    1    1    2    0    0  0.15085708560E+03 -0.57025911563E+02  0.49217430762E+03  0.53279486104E+03  0.12500000000E+03 0.  0.
         25    1    1    2    0    0 -0.62980772604E+02 -0.70467959979E+02  0.12537961617E+03  0.20069220028E+03  0.12500000000E+03 0.  0.
         25    1    1    2    0    0 -0.87876312993E+02  0.12749387154E+03  0.34818545332E+03  0.40104244609E+03  0.12500000000E+03 0.  0.
</event>
<event>
 5    0  0.5626800E-005  0.2488038E+03  0.7546771E-02  0.1114063E+00
         21   -1    0    0  502  501  0.00000000000E+00  0.00000000000E+00  0.79312830852E+02  0.79312830852E+02  0.00000000000E+00 0.  1.
         21   -1    0    0  501  502 -0.00000000000E+00 -0.00000000000E+00 -0.78049567890E+03  0.78049567890E+03  0.00000000000E+00 0.  1.
         25    1    1    2    0    0 -0.28707203717E+02  0.41609280772E+02 -0.25968215965E+03  0.29260085412E+03  0.12500000000E+03 0.  0.
         25    1    1    2    0    0  0.27335311551E+02  0.20493930566E+02 -0.30464977824E+02  0.13311774984E+03  0.12500000000E+03 0.  0.
         25    1    1    2    0    0  0.13718921662E+01 -0.62103211337E+02 -0.41103571057E+03  0.43408990579E+03  0.12500000000E+03 0.  0.
</event>
<event>
 5    0  0.5626800E-005  0.3802940E+03  0.7546771E-02  0.1050825E+00
         21   -1    0    0  502  501  0.00000000000E+00  0.00000000000E+00  0.10853879531E+04  0.10853879531E+04  0.00000000000E+00 0.  1.
         21   -1    0    0  501  502 -0.00000000000E+00 -0.00000000000E+00 -0.13324592064E+03  0.13324592064E+03  0.00000000000E+00 0.  1.
         25    1    1    2    0    0  0.10811125607E+02  0.20766731854E+02  0.37355208325E+03  0.39460650842E+03  0.12500000000E+03 0.  0.
         25    1    1    2    0    0 -0.14756165203E+03 -0.91378525149E+02  0.58783575147E+03  0.62554004405E+03  0.12500000000E+03 0.  0.
         25    1    1    2    0    0  0.13675052642E+03  0.70611793295E+02 -0.92458023057E+01  0.19848732123E+03  0.12500000000E+03 0.  0.
</event>
<event>
 5    0  0.5626800E-005  0.3042127E+03  0.7546771E-02  0.1083153E+00
         21   -1    0    0  502  501  0.00000000000E+00  0.00000000000E+00  0.22723519297E+03  0.22723519297E+03  0.00000000000E+00 0. -1.
         21   -1    0    0  501  502 -0.00000000000E+00 -0.00000000000E+00 -0.40726694436E+03  0.40726694436E+03  0.00000000000E+00 0. -1.
         25    1    1    2    0    0 -0.24916305598E+02 -0.82658069122E+01 -0.85748698169E+02  0.15384077836E+03  0.12500000000E+03 0.  0.
         25    1    1    2    0    0 -0.40220098980E+02 -0.17113568138E+03  0.34843470184E+02  0.21850433684E+03  0.12500000000E+03 0.  0.
         25    1    1    2    0    0  0.65136404577E+02  0.17940148830E+03 -0.12912652341E+03  0.26215702213E+03  0.12500000000E+03 0.  0.
</event>
<event>
 5    0  0.5626800E-005  0.3339793E+03  0.7546771E-02  0.1069390E+00
         21   -1    0    0  502  501  0.00000000000E+00  0.00000000000E+00  0.74095567737E+02  0.74095567737E+02  0.00000000000E+00 0. -1.
         21   -1    0    0  501  502 -0.00000000000E+00 -0.00000000000E+00 -0.15053829157E+04  0.15053829157E+04  0.00000000000E+00 0. -1.
         25    1    1    2    0    0  0.13593093573E+03 -0.14128715151E+03 -0.40114475708E+03  0.46366086163E+03  0.12500000000E+03 0.  0.
         25    1    1    2    0    0 -0.80703408757E+02 -0.16765388313E+02 -0.75837902977E+03  0.77301867456E+03  0.12500000000E+03 0.  0.
         25    1    1    2    0    0 -0.55227526968E+02  0.15805253983E+03 -0.27176356108E+03  0.34279894722E+03  0.12500000000E+03 0.  0.
</event>
<event>
 5    0  0.5626800E-005  0.2831683E+03  0.7546771E-02  0.1093971E+00
         21   -1    0    0  502  501  0.00000000000E+00  0.00000000000E+00  0.19413954054E+04  0.19413954054E+04  0.00000000000E+00 0. -1.
         21   -1    0    0  501  502 -0.00000000000E+00 -0.00000000000E+00 -0.41302409583E+02  0.41302409583E+02  0.00000000000E+00 0. -1.
         25    1    1    2    0    0  0.14240957871E+03 -0.33320404938E+02  0.78913278276E+03  0.81224767548E+03  0.12500000000E+03 0.  0.
         25    1    1    2    0    0 -0.18491109400E+03  0.38927333635E+02  0.82298672819E+03  0.85360389219E+03  0.12500000000E+03 0.  0.
         25    1    1    2    0    0  0.42501515290E+02 -0.56069286970E+01  0.28797348491E+03  0.31684624736E+03  0.12500000000E+03 0.  0.
</event>
<event>
 5    0  0.5626800E-005  0.2165915E+03  0.7546771E-02  0.1136450E+00
         21   -1    0    0  502  501  0.00000000000E+00  0.00000000000E+00  0.44387859641E+03  0.44387859641E+03  0.00000000000E+00 0.  1.
         21   -1    0    0  501  502 -0.00000000000E+00 -0.00000000000E+00 -0.10568631934E+03  0.10568631934E+03  0.00000000000E+00 0.  1.
         25    1    1    2    0    0  0.68782389811E+02  0.13322512573E+01  0.12734993329E+03  0.19124800012E+03  0.12500000000E+03 0.  0.
         25    1    1    2    0    0 -0.60278309837E+02 -0.41251434177E+02  0.16392145717E+03  0.21870162226E+03  0.12500000000E+03 0.  0.
         25    1    1    2    0    0 -0.85040799738E+01  0.39919182920E+02  0.46920886607E+02  0.13961529336E+03  0.12500000000E+03 0.  0.
</event>
<event>
 5    0  0.5626800E-005  0.3194255E+03  0.7546771E-02  0.1075914E+00
         21   -1    0    0  502  501  0.00000000000E+00  0.00000000000E+00  0.89304478834E+03  0.89304478834E+03  0.00000000000E+00 0.  1.
         21   -1    0    0  501  502 -0.00000000000E+00 -0.00000000000E+00 -0.11425256101E+03  0.11425256101E+03  0.00000000000E+00 0.  1.
         25    1    1    2    0    0  0.13249755049E+03  0.20192467823E+03  0.39381482614E+03  0.47858572257E+03  0.12500000000E+03 0.  0.
         25    1    1    2    0    0 -0.52080087492E+02 -0.11749137447E+03  0.26468620854E+03  0.31968789089E+03  0.12500000000E+03 0.  0.
         25    1    1    2    0    0 -0.80417462996E+02 -0.84433303763E+02  0.12029119265E+03  0.20902373590E+03  0.12500000000E+03 0.  0.
</event>
<event>
 5    0  0.5626800E-005  0.2834962E+03  0.7546771E-02  0.1093795E+00
         21   -1    0    0  502  501  0.00000000000E+00  0.00000000000E+00  0.21956922846E+03  0.21956922846E+03  0.00000000000E+00 0. -1.
         21   -1    0    0  501  502 -0.00000000000E+00 -0.00000000000E+00 -0.36603537174E+03  0.36603537174E+03  0.00000000000E+00 0. -1.
         25    1    1    2    0    0  0.81825016286E+01 -0.15159388559E+03 -0.14082783531E+03  0.24187835513E+03  0.12500000000E+03 0.  0.
         25    1    1    2    0    0 -0.77184671090E+02  0.13484045910E+03  0.59579005306E+01  0.19949917153E+03  0.12500000000E+03 0.  0.
         25    1    1    2    0    0  0.69002169462E+02  0.16753426489E+02 -0.11596208493E+02  0.14422707354E+03  0.12500000000E+03 0.  0.
</event>
<event>
 5    0  0.5626800E-005  0.2854466E+03  0.7546771E-02  0.1092751E+00
         21   -1    0    0  502  501  0.00000000000E+00  0.00000000000E+00  0.41809418769E+03  0.41809418769E+03  0.00000000000E+00 0.  1.
         21   -1    0    0  501  502 -0.00000000000E+00 -0.00000000000E+00 -0.19488375632E+03  0.19488375632E+03  0.00000000000E+00 0.  1.
         25    1    1    2    0    0 -0.32608162084E+02  0.95608436623E+02  0.60186788309E+02  0.17161501937E+03  0.12500000000E+03 0.  0.
         25    1    1    2    0    0 -0.65017463016E+02 -0.17611389535E+03  0.51246089580E+02  0.23128885907E+03  0.12500000000E+03 0.  0.
         25    1    1    2    0    0  0.97625625100E+02  0.80505458730E+02  0.11177755348E+03  0.21007406557E+03  0.12500000000E+03 0.  0.
</event>
<event>
 5    0  0.5626800E-005  0.3140561E+03  0.7546771E-02  0.1078418E+00
         21   -1    0    0  502  501  0.00000000000E+00  0.00000000000E+00  0.63027017351E+03  0.63027017351E+03  0.00000000000E+00 0. -1.
         21   -1    0    0  501  502 -0.00000000000E+00 -0.00000000000E+00 -0.15649043118E+03  0.15649043118E+03  0.00000000000E+00 0. -1.
         25    1    1    2    0    0 -0.28167666941E+02 -0.44843542190E+01  0.63510529615E+02  0.14308079629E+03  0.12500000000E+03 0.  0.
         25    1    1    2    0    0  0.40132198130E+02  0.19620055824E+03  0.31933014744E+03  0.39711710546E+03  0.12500000000E+03 0.  0.
         25    1    1    2    0    0 -0.11964531188E+02 -0.19171620402E+03  0.90939065266E+02  0.24656270294E+03  0.12500000000E+03 0.  0.
</event>
<event>
 5    0  0.5626800E-005  0.5114560E+03  0.7546771E-02  0.1010831E+00
         21   -1    0    0  502  501  0.00000000000E+00  0.00000000000E+00  0.41530667337E+03  0.41530667337E+03  0.00000000000E+00 0. -1.
         21   -1    0    0  501  502 -0.00000000000E+00 -0.00000000000E+00 -0.62986518142E+03  0.62986518142E+03  0.00000000000E+00 0. -1.
         25    1    1    2    0    0  0.26259802097E+03  0.29857536777E+02 -0.13247335075E+03  0.32097255611E+03  0.12500000000E+03 0.  0.
         25    1    1    2    0    0 -0.27119371913E+03 -0.19494273313E+03  0.17231722268E+03  0.39606429747E+03  0.12500000000E+03 0.  0.
         25    1    1    2    0    0  0.85956981579E+01  0.16508519636E+03 -0.25440237998E+03  0.32813500122E+03  0.12500000000E+03 0.  0.
</event>
<event>
 5    0  0.5626800E-005  0.2670247E+03  0.7546771E-02  0.1102995E+00
         21   -1    0    0  502  501  0.00000000000E+00  0.00000000000E+00  0.12807363182E+03  0.12807363182E+03  0.00000000000E+00 0. -1.
         21   -1    0    0  501  502 -0.00000000000E+00 -0.00000000000E+00 -0.55672806737E+03  0.55672806737E+03  0.00000000000E+00 0. -1.
         25    1    1    2    0    0 -0.72623488081E+02 -0.12259305678E+03 -0.13084953501E+03  0.23032548579E+03  0.12500000000E+03 0.  0.
         25    1    1    2    0    0 -0.26664938291E+02  0.13127161699E+03 -0.16717359119E+03  0.24802271257E+03  0.12500000000E+03 0.  0.
         25    1    1    2    0    0  0.99288426372E+02 -0.86785602041E+01 -0.13063130935E+03  0.20645350082E+03  0.12500000000E+03 0.  0.
</event>
<event>
 5    0  0.5626800E-005  0.4235750E+03  0.7546771E-02  0.1035909E+00
         21   -1    0    0  502  501  0.00000000000E+00  0.00000000000E+00  0.30242062304E+03  0.30242062304E+03  0.00000000000E+00 0.  1.
         21   -1    0    0  501  502 -0.00000000000E+00 -0.00000000000E+00 -0.59326561580E+03  0.59326561580E+03  0.00000000000E+00 0.  1.
         25    1    1    2    0    0 -0.26467142316E+03 -0.84774645217E+02  0.27509425776E+02  0.30597299099E+03  0.12500000000E+03 0.  0.
         25    1    1    2    0    0  0.30866554506E+03  0.86527718160E+02 -0.29888798747E+03  0.45576363805E+03  0.12500000000E+03 0.  0.
         25    1    1    2    0    0 -0.43994121893E+02 -0.17530729428E+01 -0.19466431076E+02  0.13394960980E+03  0.12500000000E+03 0.  0.
</event>
<event>
 5    0  0.5626800E-005  0.2640795E+03  0.7546771E-02  0.1104717E+00
         21   -1    0    0  502  501  0.00000000000E+00  0.00000000000E+00  0.48675515443E+03  0.48675515443E+03  0.00000000000E+00 0. -1.
         21   -1    0    0  501  502 -0.00000000000E+00 -0.00000000000E+00 -0.14327119514E+03  0.14327119514E+03  0.00000000000E+00 0. -1.
         25    1    1    2    0    0 -0.43974692648E+02 -0.56351271088E+02  0.83682078035E+02  0.16654407684E+03  0.12500000000E+03 0.  0.
         25    1    1    2    0    0 -0.63255148179E+02  0.44775279129E+02  0.25961946868E+03  0.29838449676E+03  0.12500000000E+03 0.  0.
         25    1    1    2    0    0  0.10722984083E+03  0.11575991959E+02  0.18241258546E+00  0.16509777596E+03  0.12500000000E+03 0.  0.
</event>
<event>
 5    0  0.5626800E-005  0.4060731E+03  0.7546771E-02  0.1041697E+00
         21   -1    0    0  502  501  0.00000000000E+00  0.00000000000E+00  0.95158803482E+03  0.95158803482E+03  0.00000000000E+00 0. -1.
         21   -1    0    0  501  502 -0.00000000000E+00 -0.00000000000E+00 -0.17328441168E+03  0.17328441168E+03  0.00000000000E+00 0. -1.
         25    1    1    2    0    0 -0.19288630122E+03  0.85078307005E+02  0.35765928354E+03  0.43357652914E+03  0.12500000000E+03 0.  0.
         25    1    1    2    0    0 -0.25956634317E+02 -0.17855287716E+03  0.35038941602E+03  0.41346416974E+03  0.12500000000E+03 0.  0.
         25    1    1    2    0    0  0.21884293554E+03  0.93474570150E+02  0.70254923581E+02  0.27783174762E+03  0.12500000000E+03 0.  0.
</event>
<event>
 5    0  0.5626800E-005  0.2625490E+03  0.7546771E-02  0.1105621E+00
         21   -1    0    0  502  501  0.00000000000E+00  0.00000000000E+00  0.27209938990E+03  0.27209938990E+03  0.00000000000E+00 0. -1.
         21   -1    0    0  501  502 -0.00000000000E+00 -0.00000000000E+00 -0.25333376892E+03  0.25333376892E+03  0.00000000000E+00 0. -1.
         25    1    1    2    0    0 -0.12654112649E+03 -0.51367084511E+02 -0.53613252590E+02  0.19274494784E+03  0.12500000000E+03 0.  0.
         25    1    1    2    0    0  0.17149680004E+02  0.61933412206E+02  0.87495406735E+02  0.16556057886E+03  0.12500000000E+03 0.  0.
         25    1    1    2    0    0  0.10939144649E+03 -0.10566327694E+02 -0.15116533163E+02  0.16712763213E+03  0.12500000000E+03 0.  0.
</event>
<event>
 5    0  0.6491307E-005  0.3272920E+03  0.7546771E-02  0.1072341E+00
         21   -1    0    0  502  501  0.00000000000E+00  0.00000000000E+00  0.61863906540E+03  0.61863906540E+03  0.00000000000E+00 0. -1.
         21   -1    0    0  501  502 -0.00000000000E+00 -0.00000000000E+00 -0.17315432106E+03  0.17315432106E+03  0.00000000000E+00 0. -1.
         25    1    1    2    0    0 -0.87505971219E+02 -0.84736080063E+01  0.32701322103E+03  0.36095947662E+03  0.12500000000E+03 0.  0.
         25    1    1    2    0    0 -0.37280864162E+02 -0.53495783199E+02 -0.76627095036E+02  0.16046299681E+03  0.12500000000E+03 0.  0.
         25    1    1    2    0    0  0.12478683538E+03  0.61969391206E+02  0.19509861835E+03  0.27037091303E+03  0.12500000000E+03 0.  0.
</event>
<event>
 5    0  0.5626800E-005  0.2631632E+03  0.7546771E-02  0.1105257E+00
         21   -1    0    0  502  501  0.00000000000E+00  0.00000000000E+00  0.13463041652E+04  0.13463041652E+04  0.00000000000E+00 0.  1.
         21   -1    0    0  501  502 -0.00000000000E+00 -0.00000000000E+00 -0.51440747396E+02  0.51440747396E+02  0.00000000000E+00 0.  1.
         25    1    1    2    0    0 -0.42822212833E+02  0.60709110164E+01  0.20598490930E+03  0.24479661095E+03  0.12500000000E+03 0.  0.
         25    1    1    2    0    0 -0.51694640960E+02  0.72566866778E+02  0.23111464780E+03  0.27744777254E+03  0.12500000000E+03 0.  0.
         25    1    1    2    0    0  0.94516853793E+02 -0.78637777795E+02  0.85776386073E+03  0.87550052914E+03  0.12500000000E+03 0.  0.
</event>
<event>
 5    0  0.5626800E-005  0.2901932E+03  0.7546771E-02  0.1090248E+00
         21   -1    0    0  502  501  0.00000000000E+00  0.00000000000E+00  0.23856466998E+04  0.23856466998E+04  0.00000000000E+00 0.  1.
         21   -1    0    0  501  502 -0.00000000000E+00 -0.00000000000E+00 -0.35299472669E+02  0.35299472669E+02  0.00000000000E+00 0.  1.
         25    1    1    2    0    0 -0.81367497510E+02 -0.12701731193E+03  0.45455160497E+03  0.49497093729E+03  0.12500000000E+03 0.  0.
         25    1    1    2    0    0  0.11240898600E+03  0.63929445251E+02  0.75126171124E+03  0.77249072025E+03  0.12500000000E+03 0.  0.
         25    1    1    2    0    0 -0.31041488485E+02  0.63087866675E+02  0.11445339109E+04  0.11534845149E+04  0.12500000000E+03 0.  0.
</event>
<event>
 5    0  0.6873805E-005  0.6090211E+03  0.7546771E-02  0.9886865E-01
         21   -1    0    0  502  501  0.00000000000E+00  0.00000000000E+00  0.10106290165E+04  0.10106290165E+04  0.00000000000E+00 0.  1.
         21   -1    0    0  501  502 -0.00000000000E+00 -0.00000000000E+00 -0.36700574871E+03  0.36700574871E+03  0.00000000000E+00 0.  1.
         25    1    1    2    0    0  0.34795522655E+03 -0.98611527242E+02  0.15535072239E+03  0.41298416427E+03  0.12500000000E+03 0.  0.
         25    1    1    2    0    0 -0.27543485446E+03  0.89235973171E+02 -0.12147048049E+03  0.33794599508E+03  0.12500000000E+03 0.  0.
         25    1    1    2    0    0 -0.72520372090E+02  0.93755540716E+01  0.60974302589E+03  0.62670460586E+03  0.12500000000E+03 0.  0.
</event>
<event>
 5    0  0.5626800E-005  0.3227407E+03  0.7546771E-02  0.1074395E+00
         21   -1    0    0  502  501  0.00000000000E+00  0.00000000000E+00  0.20172000504E+04  0.20172000504E+04  0.00000000000E+00 0. -1.
         21   -1    0    0  501  502 -0.00000000000E+00 -0.00000000000E+00 -0.51636700674E+02  0.51636700674E+02  0.00000000000E+00 0. -1.
         25    1    1    2    0    0 -0.38865537805E+02  0.23306381258E+03  0.74093640100E+03  0.78768078629E+03  0.12500000000E+03 0.  0.
         25    1    1    2    0    0  0.26649162150E+02 -0.36970298001E+02  0.59894498371E+03  0.61354467994E+03  0.12500000000E+03 0.  0.
         25    1    1    2    0    0  0.12216375655E+02 -0.19609351458E+03  0.62568196497E+03  0.66761128479E+03  0.12500000000E+03 0.  0.
</event>
<event>
 5    0  0.5626800E-005  0.2433622E+03  0.7546771E-02  0.1117573E+00
         21   -1    0    0  502  501  0.00000000000E+00  0.00000000000E+00  0.44189921637E+02  0.44189921637E+02  0.00000000000E+00 0.  1.
         21   -1    0    0  501  502 -0.00000000000E+00 -0.00000000000E+00 -0.13402408533E+04  0.13402408533E+04  0.00000000000E+00 0.  1.
         25    1    1    2    0    0  0.44725204817E+01 -0.34213398632E+00 -0.26502374151E+03  0.29305750982E+03  0.12500000000E+03 0.  0.
         25    1    1    2    0    0  0.19543124709E+02 -0.11546316883E+03 -0.66822821582E+03  0.68983159213E+03  0.12500000000E+03 0.  0.
         25    1    1    2    0    0 -0.24015645191E+02  0.11580530282E+03 -0.36279897436E+03  0.40154167302E+03  0.12500000000E+03 0.  0.
</event>
<event>
 5    0  0.5626800E-005  0.3373408E+03  0.7546771E-02  0.1067934E+00
         21   -1    0    0  502  501  0.00000000000E+00  0.00000000000E+00  0.12141457138E+03  0.12141457138E+03  0.00000000000E+00 0.  1.
         21   -1    0    0  501  502 -0.00000000000E+00 -0.00000000000E+00 -0.93727471648E+03  0.93727471648E+03  0.00000000000E+00 0.  1.
         25    1    1    2    0    0 -0.11236971922E+03 -0.23241472983E+02 -0.49429054392E+03  0.52260430698E+03  0.12500000000E+03 0.  0.
         25    1    1    2    0    0 -0.18648663838E+02  0.12458159147E+03 -0.32768865858E+02  0.18046369210E+03  0.12500000000E+03 0.  0.
         25    1    1    2    0    0  0.13101838305E+03 -0.10134011848E+03 -0.28880073531E+03  0.35562128878E+03  0.12500000000E+03 0.  0.
</event>
<event>
 5    0  0.5626800E-005  0.2689005E+03  0.7546771E-02  0.1101911E+00
         21   -1    0    0  502  501  0.00000000000E+00  0.00000000000E+00  0.13905004971E+04  0.13905004971E+04  0.00000000000E+00 0. -1.
         21   -1    0    0  501  502 -0.00000000000E+00 -0.00000000000E+00 -0.52001030367E+02  0.52001030367E+02  0.00000000000E+00 0. -1.
         25    1    1    2    0    0  0.13194102572E+03 -0.60683757269E+00  0.42827700439E+03  0.46524724073E+03  0.12500000000E+03 0.  0.
         25    1    1    2    0    0  0.17568449868E+01 -0.81775811483E+02  0.30501820441E+03  0.33963432522E+03  0.12500000000E+03 0.  0.
         25    1    1    2    0    0 -0.13369787071E+03  0.82382649056E+02  0.60520425792E+03  0.63761996150E+03  0.12500000000E+03 0.  0.
</event>
<event>
 5    0  0.5626800E-005  0.4222342E+03  0.7546771E-02  0.1036342E+00
         21   -1    0    0  502  501  0.00000000000E+00  0.00000000000E+00  0.25801221876E+03  0.25801221876E+03  0.00000000000E+00 0.  1.
         21   -1    0    0  501  502 -0.00000000000E+00 -0.00000000000E+00 -0.69098185404E+03  0.69098185404E+03  0.00000000000E+00 0.  1.
         25    1    1    2    0    0  0.65323983350E+02 -0.60465894930E+02  0.86168201005E+02  0.17599234675E+03  0.12500000000E+03 0.  0.
         25    1    1    2    0    0 -0.20921660137E+03 -0.10811321265E+02 -0.51455295836E+03  0.56945431592E+03  0.12500000000E+03 0.  0.
         25    1    1    2    0    0  0.14389261802E+03  0.71277216195E+02 -0.45848779197E+01  0.20354741014E+03  0.12500000000E+03 0.  0.
</event>
<event>
 5    0  0.5626800E-005  0.2993128E+03  0.7546771E-02  0.1085585E+00
         21   -1    0    0  502  501  0.00000000000E+00  0.00000000000E+00  0.14037458194E+03  0.14037458194E+03  0.00000000000E+00 0. -1.
         21   -1    0    0  501  502 -0.00000000000E+00 -0.00000000000E+00 -0.63820780816E+03  0.63820780816E+03  0.00000000000E+00 0. -1.
         25    1    1    2    0    0 -0.78053627475E+02  0.96198192440E+02 -0.90399119653E+02  0.19784706676E+03  0.12500000000E+03 0.  0.
         25    1    1    2    0    0  0.12060129378E+03 -0.48399960080E+02 -0.36309102463E+02  0.18393090855E+03  0.12500000000E+03 0.  0.
         25    1    1    2    0    0 -0.42547666302E+02 -0.47798232360E+02 -0.37112500411E+03  0.39680441479E+03  0.12500000000E+03 0.  0.
</event>
<event>
 5    0  0.5626800E-005  0.2645308E+03  0.7546771E-02  0.1104451E+00
         21   -1    0    0  502  501  0.00000000000E+00  0.00000000000E+00  0.27444637231E+04  0.27444637231E+04  0.00000000000E+00 0. -1.
         21   -1    0    0  501  502 -0.00000000000E+00 -0.00000000000E+00 -0.25497339442E+02  0.25497339442E+02  0.00000000000E+00 0. -1.
         25    1    1    2    0    0 -0.54634336068E+02 -0.26307565703E+02  0.19288494656E+04  0.19338464933E+04  0.12500000000E+03 0.  0.
         25    1    1    2    0    0 -0.17794475818E+02  0.21156947415E+02  0.40546541793E+03  0.42519579600E+03  0.12500000000E+03 0.  0.
         25    1    1    2    0    0  0.72428811886E+02  0.51506182885E+01  0.38465150013E+03  0.41091877325E+03  0.12500000000E+03 0.  0.
</event>
<event>
 5    0  0.6657691E-005  0.4597949E+03  0.7546771E-02  0.1024841E+00
         21   -1    0    0  502  501  0.00000000000E+00  0.00000000000E+00  0.59507667148E+03  0.59507667148E+03  0.00000000000E+00 0. -1.
         21   -1    0    0  501  502 -0.00000000000E+00 -0.00000000000E+00 -0.35526743627E+03  0.35526743627E+03  0.00000000000E+00 0. -1.
         25    1    1    2    0    0 -0.11825552467E+03 -0.23913253799E+03  0.26101382016E+03  0.39360126290E+03  0.12500000000E+03 0.  0.
         25    1    1    2    0    0  0.16146322790E+03  0.22186149799E+01 -0.15293427563E+03  0.25512582950E+03  0.12500000000E+03 0.  0.
         25    1    1    2    0    0 -0.43207703230E+02  0.23691392301E+03  0.13172969069E+03  0.30161701534E+03  0.12500000000E+03 0.  0.
</event>
<event>
 5    0  0.5626800E-005  0.4587642E+03  0.7546771E-02  0.1025140E+00
         21   -1    0    0  502  501  0.00000000000E+00  0.00000000000E+00  0.24669369884E+03  0.24669369884E+03  0.00000000000E+00 0. -1.
         21   -1    0    0  501  502 -0.00000000000E+00 -0.00000000000E+00 -0.85314120898E+03  0.85314120898E+03  0.00000000000E+00 0. -1.
         25    1    1    2    0    0  0.12149305075E+03 -0.42674084279E+02 -0.16209445689E+02  0.18019263298E+03  0.12500000000E+03 0.  0.
         25    1    1    2    0    0 -0.16519468284E+03  0.15413114972E+03 -0.67805640189E+03  0.72555577228E+03  0.12500000000E+03 0.  0.
         25    1    1    2    0    0  0.43701632088E+02 -0.11145706544E+03  0.87818337430E+02  0.19408650255E+03  0.12500000000E+03 0.  0.
</event>
<event>
 5    0  0.5626800E-005  0.2215356E+03  0.7546771E-02  0.1132743E+00
         21   -1    0    0  502  501  0.00000000000E+00  0.00000000000E+00  0.51003262974E+02  0.51003262974E+02  0.00000000000E+00 0.  1.
         21   -1    0    0  501  502 -0.00000000000E+00 -0.00000000000E+00 -0.96225219355E+03  0.96225219355E+03  0.00000000000E+00 0.  1.
         25    1    1    2    0    0  0.49334322942E+02  0.91795805181E+02 -0.44131413953E+03  0.47036529954E+03  0.12500000000E+03 0.  0.
         25    1    1    2    0    0 -0.14786133746E+02 -0.47904453585E+02 -0.22169659322E+03  0.25939900900E+03  0.12500000000E+03 0.  0.
         25    1    1    2    0    0 -0.34548189196E+02 -0.43891351596E+02 -0.24823819783E+03  0.28349114798E+03  0.12500000000E+03 0.  0.
</event>
<event>
 5    0  0.5626800E-005  0.2865547E+03  0.7546771E-02  0.1092162E+00
         21   -1    0    0  502  501  0.00000000000E+00  0.00000000000E+00  0.27791032065E+03  0.27791032065E+03  0.00000000000E+00 0. -1.
         21   -1    0    0  501  502 -0.00000000000E+00 -0.00000000000E+00 -0.29546794162E+03  0.29546794162E+03  0.00000000000E+00 0. -1.
         25    1    1    2    0    0 -0.24420933889E+02  0.12955367947E+03 -0.76255770271E+02  0.19702913586E+03  0.12500000000E+03 0.  0.
         25    1    1    2    0    0 -0.87328746278E+02 -0.38016423404E+02 -0.38810783716E+02  0.16187289862E+03  0.12500000000E+03 0.  0.
         25    1    1    2    0    0  0.11174968017E+03 -0.91537256070E+02  0.97508933017E+02  0.21447622778E+03  0.12500000000E+03 0.  0.
</event>
<event>
 5    0  0.5626800E-005  0.2384142E+03  0.7546771E-02  0.1120854E+00
         21   -1    0    0  502  501  0.00000000000E+00  0.00000000000E+00  0.10936018483E+04  0.10936018483E+04  0.00000000000E+00 0. -1.
         21   -1    0    0  501  502 -0.00000000000E+00 -0.00000000000E+00 -0.51976258222E+02  0.51976258222E+02  0.00000000000E+00 0. -1.
         25    1    1    2    0    0  0.29653566775E+01  0.29647651519E+02  0.56331749767E+03  0.57778835205E+03  0.12500000000E+03 0.  0.
         25    1    1    2    0    0  0.15449716148E+02 -0.61233253462E+02  0.37888701218E+03  0.40394129903E+03  0.12500000000E+03 0.  0.
         25    1    1    2    0    0 -0.18415072826E+02  0.31585601943E+02  0.99421080208E+02  0.16384845543E+03  0.12500000000E+03 0.  0.
</event>
<event>
 5    0  0.5626800E-005  0.2449487E+03  0.7546771E-02  0.1116539E+00
         21   -1    0    0  502  501  0.00000000000E+00  0.00000000000E+00  0.63661824355E+02  0.63661824355E+02  0.00000000000E+00 0.  1.
         21   -1    0    0  501  502 -0.00000000000E+00 -0.00000000000E+00 -0.94247830555E+03  0.94247830555E+03  0.00000000000E+00 0.  1.
         25    1    1    2    0    0  0.25770164463E+02 -0.78378574251E+02 -0.20569652475E+03  0.25444717049E+03  0.12500000000E+03 0.  0.
         25    1    1    2    0    0  0.67645552768E+02  0.58874383164E+02 -0.19503395088E+03  0.24840562755E+03  0.12500000000E+03 0.  0.
         25    1    1    2    0    0 -0.93415717230E+02  0.19504191088E+02 -0.47808600557E+03  0.50328733186E+03  0.12500000000E+03 0.  0.
</event>
<event>
 5    0  0.5626800E-005  0.2774277E+03  0.7546771E-02  0.1097102E+00
         21   -1    0    0  502  501  0.00000000000E+00  0.00000000000E+00  0.62217870050E+02  0.62217870050E+02  0.00000000000E+00 0. -1.
         21   -1    0    0  501  502 -0.00000000000E+00 -0.00000000000E+00 -0.12370423336E+04  0.12370423336E+04  0.00000000000E+00 0. -1.
         25    1    1    2    0    0  0.53661947012E+02  0.46097113763E+02 -0.20959332158E+03  0.25408445231E+03  0.12500000000E+03 0.  0.
         25    1    1    2    0    0 -0.40394521744E+02 -0.22149430022E+01 -0.88541288341E+02  0.15843352897E+03  0.12500000000E+03 0.  0.
         25    1    1    2    0    0 -0.13267425268E+02 -0.43882170761E+02 -0.87668985359E+03  0.88674222233E+03  0.12500000000E+03 0.  0.
</event>
<event>
 5    0  0.5671105E-005  0.3928105E+03  0.7546771E-02  0.1046298E+00
         21   -1    0    0  502  501  0.00000000000E+00  0.00000000000E+00  0.32551982878E+03  0.32551982878E+03  0.00000000000E+00 0.  1.
         21   -1    0    0  501  502 -0.00000000000E+00 -0.00000000000E+00 -0.47401128276E+03  0.47401128276E+03  0.00000000000E+00 0.  1.
         25    1    1    2    0    0  0.13340682914E+03  0.85025358959E+02 -0.27178256129E+03  0.33840427650E+03  0.12500000000E+03 0.  0.
         25    1    1    2    0    0 -0.76282016353E+02 -0.16365849442E+03 -0.51204912384E+02  0.22549942764E+03  0.12500000000E+03 0.  0.
         25    1    1    2    0    0 -0.57124812788E+02  0.78633135458E+02  0.17449601970E+03  0.23562740740E+03  0.12500000000E+03 0.  0.
</event>
<event>
 5    0  0.5626800E-005  0.3749785E+03  0.7546771E-02  0.1052805E+00
         21   -1    0    0  502  501  0.00000000000E+00  0.00000000000E+00  0.66250471237E+02  0.66250471237E+02  0.00000000000E+00 0.  1.
         21   -1    0    0  501  502 -0.00000000000E+00 -0.00000000000E+00 -0.21223828698E+04  0.21223828698E+04  0.00000000000E+00 0.  1.
         25    1    1    2    0    0  0.12022459465E+02  0.25166039615E+03 -0.14946584191E+04  0.15208899646E+04  0.12500000000E+03 0.  0.
         25    1    1    2    0    0 -0.22616595399E+02 -0.10363259377E+03 -0.21171732484E+03  0.26776939802E+03  0.12500000000E+03 0.  0.
         25    1    1    2    0    0  0.10594135934E+02 -0.14802780238E+03 -0.34975665468E+03  0.39997397851E+03  0.12500000000E+03 0.  0.
</event>
<event>
 5    0  0.5626800E-005  0.3416052E+03  0.7546771E-02  0.1066114E+00
         21   -1    0    0  502  501  0.00000000000E+00  0.00000000000E+00  0.18816443380E+03  0.18816443380E+03  0.00000000000E+00 0. -1.
         21   -1    0    0  501  502 -0.00000000000E+00 -0.00000000000E+00 -0.62017081936E+03  0.62017081936E+03  0.00000000000E+00 0. -1.
         25    1    1    2    0    0  0.24352574950E+03  0.86165227873E+02 -0.26262508365E+03  0.38900664741E+03  0.12500000000E+03 0.  0.
         25    1    1    2    0    0 -0.13035211104E+03  0.59119904402E+01 -0.13156267971E+03  0.22351814955E+03  0.12500000000E+03 0.  0.
         25    1    1    2    0    0 -0.11317363845E+03 -0.92077218313E+02 -0.37818622189E+02  0.19581045620E+03  0.12500000000E+03 0.  0.
</event>
<event>
 5    0  0.5626800E-005  0.3178545E+03  0.7546771E-02  0.1076641E+00
         21   -1    0    0  502  501  0.00000000000E+00  0.00000000000E+00  0.14426027252E+04  0.14426027252E+04  0.00000000000E+00 0. -1.
         21   -1    0    0  501  502 -0.00000000000E+00 -0.00000000000E+00 -0.70034183495E+02  0.70034183495E+02  0.00000000000E+00 0. -1.
         25    1    1    2    0    0 -0.15745872126E+03  0.10211367363E+02  0.63143960357E+03  0.66275070267E+03  0.12500000000E+03 0.  0.
         25    1    1    2    0    0  0.21437843947E+03 -0.11735626335E+02  0.61547565761E+03  0.66372518812E+03  0.12500000000E+03 0.  0.
         25    1    1    2    0    0 -0.56919718215E+02  0.15242589724E+01  0.12565328056E+03  0.18616101795E+03  0.12500000000E+03 0.  0.
</event>
<event>
 5    0  0.5626800E-005  0.4421487E+03  0.7546771E-02  0.1030090E+00
         21   -1    0    0  502  501  0.00000000000E+00  0.00000000000E+00  0.25306209289E+03  0.25306209289E+03  0.00000000000E+00 0.  1.
         21   -1    0    0  501  502 -0.00000000000E+00 -0.00000000000E+00 -0.77251964592E+03  0.77251964592E+03  0.00000000000E+00 0.  1.
         25    1    1    2    0    0 -0.84645855589E+02 -0.83716685889E+01 -0.62356068826E+03  0.64162912780E+03  0.12500000000E+03 0.  0.
         25    1    1    2    0    0  0.15888093888E+03  0.48312287088E+02  0.14023702974E+02  0.20832401222E+03  0.12500000000E+03 0.  0.
         25    1    1    2    0    0 -0.74235083289E+02 -0.39940618500E+02  0.90079432253E+02  0.17562859879E+03  0.12500000000E+03 0.  0.
</event>
<event>
 5    0  0.5626800E-005  0.4537327E+03  0.7546771E-02  0.1026615E+00
         21   -1    0    0  502  501  0.00000000000E+00  0.00000000000E+00  0.23849948902E+04  0.23849948902E+04  0.00000000000E+00 0. -1.
         21   -1    0    0  501  502 -0.00000000000E+00 -0.00000000000E+00 -0.86320268369E+02  0.86320268369E+02  0.00000000000E+00 0. -1.
         25    1    1    2    0    0 -0.31248915087E+02  0.19177258073E+03  0.18293128708E+03  0.29468979149E+03  0.12500000000E+03 0.  0.
         25    1    1    2    0    0 -0.44937342756E+02 -0.26519692797E+03  0.84857153447E+03  0.89891458131E+03  0.12500000000E+03 0.  0.
         25    1    1    2    0    0  0.76186257843E+02  0.73424347235E+02  0.12671718003E+04  0.12777107858E+04  0.12500000000E+03 0.  0.
</event>
<event>
 5    0  0.5626800E-005  0.2499666E+03  0.7546771E-02  0.1113326E+00
         21   -1    0    0  502  501  0.00000000000E+00  0.00000000000E+00  0.14331458094E+03  0.14331458094E+03  0.00000000000E+00 0.  1.
         21   -1    0    0  501  502 -0.00000000000E+00 -0.00000000000E+00 -0.43598720771E+03  0.43598720771E+03  0.00000000000E+00 0.  1.
         25    1    1    2    0    0 -0.98471258882E+02 -0.86160873991E+02 -0.25977312022E+02  0.18281166750E+03  0.12500000000E+03 0.  0.
         25    1    1    2    0    0  0.63681279425E+01  0.37342174702E+02 -0.11672273061E+03  0.17516902382E+03  0.12500000000E+03 0.  0.
         25    1    1    2    0    0  0.92103130939E+02  0.48818699290E+02 -0.14997258414E+03  0.22132109733E+03  0.12500000000E+03 0.  0.
</event>
<event>
 5    0  0.5626800E-005  0.4623981E+03  0.7546771E-02  0.1024088E+00
         21   -1    0    0  502  501  0.00000000000E+00  0.00000000000E+00  0.17367179898E+03  0.17367179898E+03  0.00000000000E+00 0.  1.
         21   -1    0    0  501  502 -0.00000000000E+00 -0.00000000000E+00 -0.12311269707E+04  0.12311269707E+04  0.00000000000E+00 0.  1.
         25    1    1    2    0    0  0.28961863660E+02 -0.14962306470E+03 -0.21915182599E+03  0.29475137637E+03  0.12500000000E+03 0.  0.
         25    1    1    2    0    0  0.25158981745E+03  0.18825090422E+03 -0.68649563275E+03  0.76526929441E+03  0.12500000000E+03 0.  0.
         25    1    1    2    0    0 -0.28055168111E+03 -0.38627839517E+02 -0.15180771298E+03  0.34477809890E+03  0.12500000000E+03 0.  0.
</event>
<event>
 5    0  0.5626800E-005  0.2490848E+03  0.7546771E-02  0.1113885E+00
         21   -1    0    0  502  501  0.00000000000E+00  0.00000000000E+00  0.48311112405E+03  0.48311112405E+03  0.00000000000E+00 0.  1.
         21   -1    0    0  501  502 -0.00000000000E+00 -0.00000000000E+00 -0.12842433104E+03  0.12842433104E+03  0.00000000000E+00 0.  1.
         25    1    1    2    0    0  0.38075504801E+02 -0.73316777580E+02  0.84541375196E+02  0.17203876906E+03  0.12500000000E+03 0.  0.
         25    1    1    2    0    0  0.74781679571E+02  0.96747105046E+02  0.11475210341E+03  0.20915388395E+03  0.12500000000E+03 0.  0.
         25    1    1    2    0    0 -0.11285718437E+03 -0.23430327466E+02  0.15539331440E+03  0.23034280208E+03  0.12500000000E+03 0.  0.
</event>
<event>
 5    0  0.5626800E-005  0.4645850E+03  0.7546771E-02  0.1023460E+00
         21   -1    0    0  502  501  0.00000000000E+00  0.00000000000E+00  0.56115006491E+03  0.56115006491E+03  0.00000000000E+00 0. -1.
         21   -1    0    0  501  502 -0.00000000000E+00 -0.00000000000E+00 -0.38463722435E+03  0.38463722435E+03  0.00000000000E+00 0. -1.
         25    1    1    2    0    0  0.29162853097E+03 -0.13539654179E+03  0.32225041174E+01  0.34498522886E+03  0.12500000000E+03 0.  0.
         25    1    1    2    0    0 -0.27213302323E+03  0.13589937471E+03  0.28260257663E+03  0.43360608701E+03  0.12500000000E+03 0.  0.
         25    1    1    2    0    0 -0.19495507740E+02 -0.50283292616E+00 -0.10931224018E+03  0.16719597338E+03  0.12500000000E+03 0.  0.
</event>
<event>
 5    0  0.5626800E-005  0.4653210E+03  0.7546771E-02  0.1023249E+00
         21   -1    0    0  502  501  0.00000000000E+00  0.00000000000E+00  0.76310972101E+02  0.76310972101E+02  0.00000000000E+00 0. -1.
         21   -1    0    0  501  502 -0.00000000000E+00 -0.00000000000E+00 -0.28373849656E+04  0.28373849656E+04  0.00000000000E+00 0. -1.
         25    1    1    2    0    0  0.19294414227E+03  0.21917166025E+03 -0.95263597643E+03  0.10041931897E+04  0.12500000000E+03 0.  0.
         25    1    1    2    0    0 -0.34488022735E+03 -0.10933943302E+03 -0.10184798335E+04  0.10880366051E+04  0.12500000000E+03 0.  0.
         25    1    1    2    0    0  0.15193608508E+03 -0.10983222723E+03 -0.78995818357E+03  0.82146614286E+03  0.12500000000E+03 0.  0.
</event>
<event>
 5    0  0.5626800E-005  0.2442889E+03  0.7546771E-02  0.1116968E+00
         21   -1    0    0  502  501  0.00000000000E+00  0.00000000000E+00  0.13574279976E+03  0.13574279976E+03  0.00000000000E+00 0.  1.
         21   -1    0    0  501  502 -0.00000000000E+00 -0.00000000000E+00 -0.43963326232E+03  0.43963326232E+03  0.00000000000E+00 0.  1.
         25    1    1    2    0    0  0.75326766876E+02  0.40267094290E+01 -0.13512239198E+03  0.19893063367E+03  0.12500000000E+03 0.  0.
         25    1    1    2    0    0 -0.11419362322E+03 -0.28966187202E+02 -0.14183823445E+02  0.17235255853E+03  0.12500000000E+03 0.  0.
         25    1    1    2    0    0  0.38866856347E+02  0.24939477773E+02 -0.15458424713E+03  0.20409286988E+03  0.12500000000E+03 0.  0.
</event>
<event>
 5    0  0.5626800E-005  0.2127378E+03  0.7546771E-02  0.1139416E+00
         21   -1    0    0  502  501  0.00000000000E+00  0.00000000000E+00  0.12124366376E+04  0.12124366376E+04  0.00000000000E+00 0.  1.
         21   -1    0    0  501  502 -0.00000000000E+00 -0.00000000000E+00 -0.37327628017E+02  0.37327628017E+02  0.00000000000E+00 0.  1.
         25    1    1    2    0    0  0.45538756382E+02  0.29551903680E+02  0.41081842336E+03  0.43283238132E+03  0.12500000000E+03 0.  0.
         25    1    1    2    0    0  0.39165639969E+02  0.58419041011E+01  0.40192762330E+03  0.42277522346E+03  0.12500000000E+03 0.  0.
         25    1    1    2    0    0 -0.84704396351E+02 -0.35393807781E+02  0.36236296294E+03  0.39415666086E+03  0.12500000000E+03 0.  0.
</event>
<event>
 5    0  0.5626800E-005  0.4768834E+03  0.7546771E-02  0.1019995E+00
         21   -1    0    0  502  501  0.00000000000E+00  0.00000000000E+00  0.99688389443E+03  0.99688389443E+03  0.00000000000E+00 0. -1.
         21   -1    0    0  501  502 -0.00000000000E+00 -0.00000000000E+00 -0.22812869049E+03  0.22812869049E+03  0.00000000000E+00 0. -1.
         25    1    1    2    0    0 -0.68001950762E+02 -0.25393645065E+03  0.67808065260E+02  0.29888278637E+03  0.12500000000E+03 0.  0.
         25    1    1    2    0    0 -0.49932264356E+02 -0.34439037276E+02 -0.10625466303E+02  0.13934553759E+03  0.12500000000E+03 0.  0.
         25    1    1    2    0    0  0.11793421512E+03  0.28837548793E+03  0.71157260498E+03  0.78678426096E+03  0.12500000000E+03 0.  0.
</event>
<event>
 5    0  0.5697816E-005  0.3033076E+03  0.7546771E-02  0.1083599E+00
         21   -1    0    0  502  501  0.00000000000E+00  0.00000000000E+00  0.54139903535E+03  0.54139903535E+03  0.00000000000E+00 0.  1.
         21   -1    0    0  501  502 -0.00000000000E+00 -0.00000000000E+00 -0.16992177315E+03  0.16992177315E+03  0.00000000000E+00 0.  1.
         25    1    1    2    0    0 -0.97580714345E+02  0.66050758434E+02 -0.15374158472E+02  0.17247047066E+03  0.12500000000E+03 0.  0.
         25    1    1    2    0    0 -0.15427098726E+01  0.65760491849E+02  0.26065125248E+03  0.29646399049E+03  0.12500000000E+03 0.  0.
         25    1    1    2    0    0  0.99123424217E+02 -0.13181125028E+03  0.12620016820E+03  0.24238634735E+03  0.12500000000E+03 0.  0.
</event>
<event>
 5    0  0.5626800E-005  0.4817850E+03  0.7546771E-02  0.1018646E+00
         21   -1    0    0  502  501  0.00000000000E+00  0.00000000000E+00  0.87781847076E+03  0.87781847076E+03  0.00000000000E+00 0.  1.
         21   -1    0    0  501  502 -0.00000000000E+00 -0.00000000000E+00 -0.26442462656E+03  0.26442462656E+03  0.00000000000E+00 0.  1.
         25    1    1    2    0    0 -0.15199618511E+03  0.23293010657E+03  0.47996795839E+03  0.56864181689E+03  0.12500000000E+03 0.  0.
         25    1    1    2    0    0  0.11586885937E+03  0.99932434993E+02  0.75678723475E+02  0.21157588076E+03  0.12500000000E+03 0.  0.
         25    1    1    2    0    0  0.36127325744E+02 -0.33286254157E+03  0.57747162332E+02  0.36202539966E+03  0.12500000000E+03 0.  0.
</event>
<event>
 5    0  0.5626800E-005  0.3360185E+03  0.7546771E-02  0.1068504E+00
         21   -1    0    0  502  501  0.00000000000E+00  0.00000000000E+00  0.22554108541E+04  0.22554108541E+04  0.00000000000E+00 0. -1.
         21   -1    0    0  501  502 -0.00000000000E+00 -0.00000000000E+00 -0.50061142572E+02  0.50061142572E+02  0.00000000000E+00 0. -1.
         25    1    1    2    0    0 -0.61594237087E+02  0.18163458171E+03  0.11085442905E+04  0.11319365774E+04  0.12500000000E+03 0.  0.
         25    1    1    2    0    0  0.10263962973E+03 -0.11836210651E+03  0.93226504231E+03  0.95356572451E+03  0.12500000000E+03 0.  0.
         25    1    1    2    0    0 -0.41045392639E+02 -0.63272475203E+02  0.16454037874E+03  0.21996969476E+03  0.12500000000E+03 0.  0.
</event>
<event>
 5    0  0.5626800E-005  0.4995922E+03  0.7546771E-02  0.1013885E+00
         21   -1    0    0  502  501  0.00000000000E+00  0.00000000000E+00  0.82130722439E+03  0.82130722439E+03  0.00000000000E+00 0.  1.
         21   -1    0    0  501  502 -0.00000000000E+00 -0.00000000000E+00 -0.30389644801E+03  0.30389644801E+03  0.00000000000E+00 0.  1.
         25    1    1    2    0    0 -0.25775029980E+03 -0.15377057937E+02 -0.47774207297E+01  0.28691374088E+03  0.12500000000E+03 0.  0.
         25    1    1    2    0    0 -0.11413046565E+03 -0.12587195677E+03  0.29730804087E+03  0.36453612147E+03  0.12500000000E+03 0.  0.
         25    1    1    2    0    0  0.37188076544E+03  0.14124901471E+03  0.22488015624E+03  0.47375381005E+03  0.12500000000E+03 0.  0.
</event>
<event>
 5    0  0.5626800E-005  0.2590961E+03  0.7546771E-02  0.1107688E+00
         21   -1    0    0  502  501  0.00000000000E+00  0.00000000000E+00  0.35697438326E+03  0.35697438326E+03  0.00000000000E+00 0. -1.
         21   -1    0    0  501  502 -0.00000000000E+00 -0.00000000000E+00 -0.18805497195E+03  0.18805497195E+03  0.00000000000E+00 0. -1.
         25    1    1    2    0    0  0.10923430538E+03 -0.10281374490E+03 -0.13514543046E+01  0.19526808762E+03  0.12500000000E+03 0.  0.
         25    1    1    2    0    0 -0.57005209759E+02  0.90527720723E+02  0.61703539326E+02  0.17571906250E+03  0.12500000000E+03 0.  0.
         25    1    1    2    0    0 -0.52229095625E+02  0.12286024178E+02  0.10856732628E+03  0.17404220510E+03  0.12500000000E+03 0.  0.
</event>
<event>
 5    0  0.5626800E-005  0.2642239E+03  0.7546771E-02  0.1104632E+00
         21   -1    0    0  502  501  0.00000000000E+00  0.00000000000E+00  0.29663450994E+03  0.29663450994E+03  0.00000000000E+00 0. -1.
         21   -1    0    0  501  502 -0.00000000000E+00 -0.00000000000E+00 -0.23535454880E+03  0.23535454880E+03  0.00000000000E+00 0. -1.
         25    1    1    2    0    0  0.39526442022E+02 -0.10953801979E+02  0.32051677785E+02  0.13540544836E+03  0.12500000000E+03 0.  0.
         25    1    1    2    0    0  0.56651656576E+02  0.36526837076E+01 -0.11775447968E+03  0.18086975915E+03  0.12500000000E+03 0.  0.
         25    1    1    2    0    0 -0.96178098598E+02  0.73011182717E+01  0.14698276304E+03  0.21571385122E+03  0.12500000000E+03 0.  0.
</event>
<event>
 5    0  0.5626800E-005  0.4015341E+03  0.7546771E-02  0.1043250E+00
         21   -1    0    0  502  501  0.00000000000E+00  0.00000000000E+00  0.12515611744E+04  0.12515611744E+04  0.00000000000E+00 0. -1.
         21   -1    0    0  501  502 -0.00000000000E+00 -0.00000000000E+00 -0.12882280952E+03  0.12882280952E+03  0.00000000000E+00 0. -1.
         25    1    1    2    0    0 -0.80244846071E+02 -0.63896608325E+02  0.89902777221E+03  0.91345385603E+03  0.12500000000E+03 0.  0.
         25    1    1    2    0    0  0.10578778236E+03  0.17271360246E+03  0.98163951235E+02  0.25745330585E+03  0.12500000000E+03 0.  0.
         25    1    1    2    0    0 -0.25542936291E+02 -0.10881699413E+03  0.12554664147E+03  0.20947682208E+03  0.12500000000E+03 0.  0.
</event>
<event>
 5    0  0.5626800E-005  0.2688121E+03  0.7546771E-02  0.1101961E+00
         21   -1    0    0  502  501  0.00000000000E+00  0.00000000000E+00  0.73010816645E+03  0.73010816645E+03  0.00000000000E+00 0. -1.
         21   -1    0    0  501  502 -0.00000000000E+00 -0.00000000000E+00 -0.98971594089E+02  0.98971594089E+02  0.00000000000E+00 0. -1.
         25    1    1    2    0    0  0.16199904095E+03  0.84105214697E+02  0.21611842185E+03  0.30927261222E+03  0.12500000000E+03 0.  0.
         25    1    1    2    0    0 -0.89413743365E+02 -0.60198686608E+02  0.19507997828E+03  0.25553844583E+03  0.12500000000E+03 0.  0.
         25    1    1    2    0    0 -0.72585297582E+02 -0.23906528089E+02  0.21993817224E+03  0.26426870250E+03  0.12500000000E+03 0.  0.
</event>
<event>
 5    0  0.5626800E-005  0.2331603E+03  0.7546771E-02  0.1124435E+00
         21   -1    0    0  502  501  0.00000000000E+00  0.00000000000E+00  0.13195662144E+03  0.13195662144E+03  0.00000000000E+00 0.  1.
         21   -1    0    0  501  502 -0.00000000000E+00 -0.00000000000E+00 -0.41198173617E+03  0.41198173617E+03  0.00000000000E+00 0.  1.
         25    1    1    2    0    0 -0.89261357927E+02 -0.35763358374E+02 -0.15706439945E+03  0.22257770193E+03  0.12500000000E+03 0.  0.
         25    1    1    2    0    0  0.13366968368E+02  0.67734292939E+02 -0.87680270233E+02  0.16756920980E+03  0.12500000000E+03 0.  0.
         25    1    1    2    0    0  0.75894389559E+02 -0.31970934565E+02 -0.35280445049E+02  0.15379144588E+03  0.12500000000E+03 0.  0.
</event>
<event>
 5    0  0.5626800E-005  0.2336902E+03  0.7546771E-02  0.1124069E+00
         21   -1    0    0  502  501  0.00000000000E+00  0.00000000000E+00  0.47413915044E+03  0.47413915044E+03  0.00000000000E+00 0. -1.
         21   -1    0    0  501  502 -0.00000000000E+00 -0.00000000000E+00 -0.11517953050E+03  0.11517953050E+03  0.00000000000E+00 0. -1.
         25    1    1    2    0    0 -0.68384806861E+02 -0.68736996297E+02  0.10414247919E+03  0.18939881848E+03  0.12500000000E+03 0.  0.
         25    1    1    2    0    0  0.16614940055E+02 -0.15320459254E+02  0.41372970336E+02  0.13359451852E+03  0.12500000000E+03 0.  0.
         25    1    1    2    0    0  0.51769866806E+02  0.84057455551E+02  0.21344417042E+03  0.26632534394E+03  0.12500000000E+03 0.  0.
</event>
<event>
 5    0  0.5626800E-005  0.2244946E+03  0.7546771E-02  0.1130576E+00
         21   -1    0    0  502  501  0.00000000000E+00  0.00000000000E+00  0.41942778115E+03  0.41942778115E+03  0.00000000000E+00 0.  1.
         21   -1    0    0  501  502 -0.00000000000E+00 -0.00000000000E+00 -0.12015854360E+03  0.12015854360E+03  0.00000000000E+00 0.  1.
         25    1    1    2    0    0  0.37239733857E+02  0.29731182763E+01  0.24010518189E+03  0.27326019758E+03  0.12500000000E+03 0.  0.
         25    1    1    2    0    0 -0.17241622904E+01 -0.98725366632E+01  0.53729092446E+01  0.12551616577E+03  0.12500000000E+03 0.  0.
         25    1    1    2    0    0 -0.35515571566E+02  0.68994183869E+01  0.53791146414E+02  0.14080996140E+03  0.12500000000E+03 0.  0.
</event>
<event>
 5    0  0.5626800E-005  0.2500702E+03  0.7546771E-02  0.1113260E+00
         21   -1    0    0  502  501  0.00000000000E+00  0.00000000000E+00  0.16440268869E+03  0.16440268869E+03  0.00000000000E+00 0. -1.
         21   -1    0    0  501  502 -0.00000000000E+00 -0.00000000000E+00 -0.38037750591E+03  0.38037750591E+03  0.00000000000E+00 0. -1.
         25    1    1    2    0    0 -0.21083054637E+02  0.13908807996E+03 -0.66671980923E+02  0.19965004939E+03  0.12500000000E+03 0.  0.
         25    1    1    2    0    0 -0.30573830971E+02 -0.83416023071E+02 -0.29730104664E+02  0.15621098287E+03  0.12500000000E+03 0.  0.
         25    1    1    2    0    0  0.51656885608E+02 -0.55672056894E+02 -0.11957273163E+03  0.18891916234E+03  0.12500000000E+03 0.  0.
</event>
<event>
 5    0  0.5626800E-005  0.3193103E+03  0.7546771E-02  0.1075967E+00
         21   -1    0    0  502  501  0.00000000000E+00  0.00000000000E+00  0.88580195748E+03  0.88580195748E+03  0.00000000000E+00 0.  1.
         21   -1    0    0  501  502 -0.00000000000E+00 -0.00000000000E+00 -0.11510369850E+03  0.11510369850E+03  0.00000000000E+00 0.  1.
         25    1    1    2    0    0  0.11235636972E+03  0.19933475027E+02  0.29629851365E+03  0.34123174887E+03  0.12500000000E+03 0.  0.
         25    1    1    2    0    0  0.11271882232E+03 -0.87822458010E+02  0.23021860879E+03  0.29840228697E+03  0.12500000000E+03 0.  0.
         25    1    1    2    0    0 -0.22507519203E+03  0.67888982983E+02  0.24418113653E+03  0.36127162014E+03  0.12500000000E+03 0.  0.
</event>
<event>
 5    0  0.5626800E-005  0.6923547E+03  0.7546771E-02  0.9730397E-01
         21   -1    0    0  502  501  0.00000000000E+00  0.00000000000E+00  0.36793675026E+03  0.36793675026E+03  0.00000000000E+00 0. -1.
         21   -1    0    0  501  502 -0.00000000000E+00 -0.00000000000E+00 -0.13028192604E+04  0.13028192604E+04  0.00000000000E+00 0. -1.
         25    1    1    2    0    0  0.21973508156E+03 -0.46356017741E+03 -0.37809008316E+03  0.64942178523E+03  0.12500000000E+03 0.  0.
         25    1    1    2    0    0 -0.29919757953E+03  0.57862049196E+03 -0.38461286276E+03  0.76672871311E+03  0.12500000000E+03 0.  0.
         25    1    1    2    0    0  0.79462497967E+02 -0.11506031455E+03 -0.17217956419E+03  0.25460551230E+03  0.12500000000E+03 0.  0.
</event>
<event>
 5    0  0.5626800E-005  0.3219270E+03  0.7546771E-02  0.1074766E+00
         21   -1    0    0  502  501  0.00000000000E+00  0.00000000000E+00  0.80060246270E+03  0.80060246270E+03  0.00000000000E+00 0. -1.
         21   -1    0    0  501  502 -0.00000000000E+00 -0.00000000000E+00 -0.12944873961E+03  0.12944873961E+03  0.00000000000E+00 0. -1.
         25    1    1    2    0    0 -0.39624691198E+02  0.13725561151E+03  0.20054604464E+03  0.27613933994E+03  0.12500000000E+03 0.  0.
         25    1    1    2    0    0  0.90512671319E+01 -0.12829318435E+03  0.14523272736E+02  0.17993607765E+03  0.12500000000E+03 0.  0.
         25    1    1    2    0    0  0.30573424067E+02 -0.89624271512E+01  0.45608440572E+03  0.47397578472E+03  0.12500000000E+03 0.  0.
</event>
<event>
 5    0  0.5626800E-005  0.2500158E+03  0.7546771E-02  0.1113295E+00
         21   -1    0    0  502  501  0.00000000000E+00  0.00000000000E+00  0.50358036966E+03  0.50358036966E+03  0.00000000000E+00 0. -1.
         21   -1    0    0  501  502 -0.00000000000E+00 -0.00000000000E+00 -0.12412697037E+03  0.12412697037E+03  0.00000000000E+00 0. -1.
         25    1    1    2    0    0  0.76738222935E+01 -0.69763262003E+02  0.23270291651E+02  0.14523190678E+03  0.12500000000E+03 0.  0.
         25    1    1    2    0    0  0.86604259701E+02  0.39593728937E+01  0.20369639155E+03  0.25423059289E+03  0.12500000000E+03 0.  0.
         25    1    1    2    0    0 -0.94278081995E+02  0.65803889109E+02  0.15248671609E+03  0.22824484036E+03  0.12500000000E+03 0.  0.
</event>
<event>
 5    0  0.5827204E-005  0.3279292E+03  0.7546771E-02  0.1072057E+00
         21   -1    0    0  502  501  0.00000000000E+00  0.00000000000E+00  0.54843289400E+03  0.54843289400E+03  0.00000000000E+00 0. -1.
         21   -1    0    0  501  502 -0.00000000000E+00 -0.00000000000E+00 -0.19608157283E+03  0.19608157283E+03  0.00000000000E+00 0. -1.
         25    1    1    2    0    0  0.16780788549E+03  0.20758491158E+02  0.13078534546E+03  0.24762917432E+03  0.12500000000E+03 0.  0.
         25    1    1    2    0    0 -0.14817858367E+03  0.70973663454E+02  0.26381615146E+03  0.33498972422E+03  0.12500000000E+03 0.  0.
         25    1    1    2    0    0 -0.19629301824E+02 -0.91732154612E+02 -0.42250175753E+02  0.16189556829E+03  0.12500000000E+03 0.  0.
</event>
<event>
 5    0  0.5626800E-005  0.2150533E+03  0.7546771E-02  0.1137626E+00
         21   -1    0    0  502  501  0.00000000000E+00  0.00000000000E+00  0.54467114047E+02  0.54467114047E+02  0.00000000000E+00 0.  1.
         21   -1    0    0  501  502 -0.00000000000E+00 -0.00000000000E+00 -0.84909824950E+03  0.84909824950E+03  0.00000000000E+00 0.  1.
         25    1    1    2    0    0  0.29343428730E+02 -0.41881343095E+02 -0.19843768317E+03  0.24003665931E+03  0.12500000000E+03 0.  0.
         25    1    1    2    0    0 -0.72468145991E+02  0.59798576860E+02 -0.28867707906E+03  0.32830924134E+03  0.12500000000E+03 0.  0.
         25    1    1    2    0    0  0.43124717261E+02 -0.17917233765E+02 -0.30751637323E+03  0.33521946290E+03  0.12500000000E+03 0.  0.
</event>
<event>
 5    0  0.5626800E-005  0.2921072E+03  0.7546771E-02  0.1089254E+00
         21   -1    0    0  502  501  0.00000000000E+00  0.00000000000E+00  0.21656968488E+03  0.21656968488E+03  0.00000000000E+00 0. -1.
         21   -1    0    0  501  502 -0.00000000000E+00 -0.00000000000E+00 -0.39399145101E+03  0.39399145101E+03  0.00000000000E+00 0. -1.
         25    1    1    2    0    0 -0.10070528374E+03  0.13508608954E+03 -0.23040429563E+02  0.21105844488E+03  0.12500000000E+03 0.  0.
         25    1    1    2    0    0  0.66645087265E+02  0.18739123860E+02 -0.13647267749E+03  0.19759178657E+03  0.12500000000E+03 0.  0.
         25    1    1    2    0    0  0.34060196476E+02 -0.15382521340E+03 -0.17908659076E+02  0.20191090444E+03  0.12500000000E+03 0.  0.
</event>
<event>
 5    0  0.5626800E-005  0.3642954E+03  0.7546771E-02  0.1056896E+00
         21   -1    0    0  502  501  0.00000000000E+00  0.00000000000E+00  0.10760710591E+03  0.10760710591E+03  0.00000000000E+00 0.  1.
         21   -1    0    0  501  502 -0.00000000000E+00 -0.00000000000E+00 -0.12332934086E+04  0.12332934086E+04  0.00000000000E+00 0.  1.
         25    1    1    2    0    0  0.12302316968E+03  0.91069067853E+01 -0.15936026946E+03  0.23714622390E+03  0.12500000000E+03 0.  0.
         25    1    1    2    0    0 -0.28450740185E+03 -0.65343576929E+02 -0.64442327624E+03  0.71841534207E+03  0.12500000000E+03 0.  0.
         25    1    1    2    0    0  0.16148423217E+03  0.56236670143E+02 -0.32190275702E+03  0.38533894857E+03  0.12500000000E+03 0.  0.
</event>
<event>
 5    0  0.5626800E-005  0.2972800E+03  0.7546771E-02  0.1086608E+00
         21   -1    0    0  502  501  0.00000000000E+00  0.00000000000E+00  0.15454211605E+04  0.15454211605E+04  0.00000000000E+00 0.  1.
         21   -1    0    0  501  502 -0.00000000000E+00 -0.00000000000E+00 -0.57185305256E+02  0.57185305256E+02  0.00000000000E+00 0.  1.
         25    1    1    2    0    0 -0.46235417669E+02  0.11531873973E+03  0.35765025643E+03  0.39871648010E+03  0.12500000000E+03 0.  0.
         25    1    1    2    0    0  0.35418848924E+02  0.83937444110E+02  0.26490346055E+03  0.30675533050E+03  0.12500000000E+03 0.  0.
         25    1    1    2    0    0  0.10816568746E+02 -0.19925618384E+03  0.86568213824E+03  0.89713465513E+03  0.12500000000E+03 0.  0.
</event>
<event>
 5    0  0.5626800E-005  0.4000111E+03  0.7546771E-02  0.1043776E+00
         21   -1    0    0  502  501  0.00000000000E+00  0.00000000000E+00  0.17038759874E+04  0.17038759874E+04  0.00000000000E+00 0.  1.
         21   -1    0    0  501  502 -0.00000000000E+00 -0.00000000000E+00 -0.93908748086E+02  0.93908748086E+02  0.00000000000E+00 0.  1.
         25    1    1    2    0    0  0.98918507210E+02 -0.19417705142E+03  0.25027157820E+03  0.35461311485E+03  0.12500000000E+03 0.  0.
         25    1    1    2    0    0 -0.20552055921E+03  0.35098187926E+02  0.54041024518E+03  0.59256967197E+03  0.12500000000E+03 0.  0.
         25    1    1    2    0    0  0.10660205200E+03  0.15907886350E+03  0.81928541596E+03  0.85060194868E+03  0.12500000000E+03 0.  0.
</event>
<event>
 5    0  0.5626800E-005  0.4149237E+03  0.7546771E-02  0.1038731E+00
         21   -1    0    0  502  501  0.00000000000E+00  0.00000000000E+00  0.99799528448E+02  0.99799528448E+02  0.00000000000E+00 0.  1.
         21   -1    0    0  501  502 -0.00000000000E+00 -0.00000000000E+00 -0.17250751908E+04  0.17250751908E+04  0.00000000000E+00 0.  1.
         25    1    1    2    0    0 -0.13380862734E+03 -0.25649212527E+03 -0.11670937421E+04  0.12088944379E+04  0.12500000000E+03 0.  0.
         25    1    1    2    0    0  0.62244192971E+02  0.76194052344E+02 -0.93800684767E+02  0.18467117164E+03  0.12500000000E+03 0.  0.
         25    1    1    2    0    0  0.71564434369E+02  0.18029807293E+03 -0.36438123549E+03  0.43130910974E+03  0.12500000000E+03 0.  0.
</event>
<event>
 5    0  0.5626800E-005  0.3305973E+03  0.7546771E-02  0.1070873E+00
         21   -1    0    0  502  501  0.00000000000E+00  0.00000000000E+00  0.74871743917E+03  0.74871743917E+03  0.00000000000E+00 0. -1.
         21   -1    0    0  501  502 -0.00000000000E+00 -0.00000000000E+00 -0.14597576757E+03  0.14597576757E+03  0.00000000000E+00 0. -1.
         25    1    1    2    0    0  0.25211584691E+02 -0.10564132234E+03  0.35909717475E+03  0.39543835664E+03  0.12500000000E+03 0.  0.
         25    1    1    2    0    0 -0.11328463979E+03  0.10666482825E+03  0.27829112701E+03  0.34246422671E+03  0.12500000000E+03 0.  0.
         25    1    1    2    0    0  0.88073055102E+02 -0.10235059062E+01 -0.34646630166E+02  0.15679062338E+03  0.12500000000E+03 0.  0.
</event>
<event>
 5    0  0.5626800E-005  0.2148916E+03  0.7546771E-02  0.1137750E+00
         21   -1    0    0  502  501  0.00000000000E+00  0.00000000000E+00  0.28415117245E+03  0.28415117245E+03  0.00000000000E+00 0. -1.
         21   -1    0    0  501  502 -0.00000000000E+00 -0.00000000000E+00 -0.16251346039E+03  0.16251346039E+03  0.00000000000E+00 0. -1.
         25    1    1    2    0    0  0.60198171266E+02 -0.37626164644E+02  0.60514382847E+02  0.15596967212E+03  0.12500000000E+03 0.  0.
         25    1    1    2    0    0 -0.58339328761E+02  0.41591086726E+02  0.79052356286E+02  0.16433980288E+03  0.12500000000E+03 0.  0.
         25    1    1    2    0    0 -0.18588425048E+01 -0.39649220829E+01 -0.17929027077E+02  0.12635515785E+03  0.12500000000E+03 0.  0.
</event>
<event>
 5    0  0.5626800E-005  0.3956435E+03  0.7546771E-02  0.1045299E+00
         21   -1    0    0  502  501  0.00000000000E+00  0.00000000000E+00  0.65507216314E+03  0.65507216314E+03  0.00000000000E+00 0.  1.
         21   -1    0    0  501  502 -0.00000000000E+00 -0.00000000000E+00 -0.23895654774E+03  0.23895654774E+03  0.00000000000E+00 0.  1.
         25    1    1    2    0    0 -0.40062276418E+02  0.10512907815E+03  0.13947622225E+03  0.21848506960E+03  0.12500000000E+03 0.  0.
         25    1    1    2    0    0 -0.19624716850E+03  0.60518647777E+02  0.26924679565E+03  0.36096301035E+03  0.12500000000E+03 0.  0.
         25    1    1    2    0    0  0.23630944492E+03 -0.16564772593E+03  0.73925975157E+01  0.31458063094E+03  0.12500000000E+03 0.  0.
</event>
<event>
 5    0  0.5626800E-005  0.3147288E+03  0.7546771E-02  0.1078101E+00
         21   -1    0    0  502  501  0.00000000000E+00  0.00000000000E+00  0.28941412650E+03  0.28941412650E+03  0.00000000000E+00 0. -1.
         21   -1    0    0  501  502 -0.00000000000E+00 -0.00000000000E+00 -0.34225768584E+03  0.34225768584E+03  0.00000000000E+00 0. -1.
         25    1    1    2    0    0 -0.16868030777E+03  0.12276131700E+03 -0.62465218228E+02  0.25109816939E+03  0.12500000000E+03 0.  0.
         25    1    1    2    0    0  0.23426540408E+02 -0.11832712051E+03  0.57536084220E+02  0.18299046759E+03  0.12500000000E+03 0.  0.
         25    1    1    2    0    0  0.14525376736E+03 -0.44341964931E+01 -0.47914425327E+02  0.19758317536E+03  0.12500000000E+03 0.  0.
</event>
<event>
 5    0  0.5626800E-005  0.4287849E+03  0.7546771E-02  0.1034244E+00
         21   -1    0    0  502  501  0.00000000000E+00  0.00000000000E+00  0.12807144822E+04  0.12807144822E+04  0.00000000000E+00 0.  1.
         21   -1    0    0  501  502 -0.00000000000E+00 -0.00000000000E+00 -0.14355774441E+03  0.14355774441E+03  0.00000000000E+00 0.  1.
         25    1    1    2    0    0 -0.72028134931E+02 -0.22219169957E+03  0.33412862118E+03  0.42640841816E+03  0.12500000000E+03 0.  0.
         25    1    1    2    0    0  0.25042365035E+03  0.13460232963E+02  0.48043209795E+03  0.55617729481E+03  0.12500000000E+03 0.  0.
         25    1    1    2    0    0 -0.17839551542E+03  0.20873146661E+03  0.32259601865E+03  0.44168651363E+03  0.12500000000E+03 0.  0.
</event>
<event>
 5    0  0.5626800E-005  0.3326069E+03  0.7546771E-02  0.1069989E+00
         21   -1    0    0  502  501  0.00000000000E+00  0.00000000000E+00  0.11365261936E+03  0.11365261936E+03  0.00000000000E+00 0.  1.
         21   -1    0    0  501  502 -0.00000000000E+00 -0.00000000000E+00 -0.97338145172E+03  0.97338145172E+03  0.00000000000E+00 0.  1.
         25    1    1    2    0    0  0.53663284520E+02  0.19146757832E+03 -0.12373455769E+03  0.26547094459E+03  0.12500000000E+03 0.  0.
         25    1    1    2    0    0  0.67647114166E+01 -0.46681657394E+02 -0.46869292410E+03  0.48736330962E+03  0.12500000000E+03 0.  0.
         25    1    1    2    0    0 -0.60427995937E+02 -0.14478592093E+03 -0.26730135056E+03  0.33419981688E+03  0.12500000000E+03 0.  0.
</event>
<event>
 5    0  0.5626800E-005  0.2688879E+03  0.7546771E-02  0.1101918E+00
         21   -1    0    0  502  501  0.00000000000E+00  0.00000000000E+00  0.16121632159E+03  0.16121632159E+03  0.00000000000E+00 0.  1.
         21   -1    0    0  501  502 -0.00000000000E+00 -0.00000000000E+00 -0.44847016226E+03  0.44847016226E+03  0.00000000000E+00 0.  1.
         25    1    1    2    0    0  0.59457954599E+02  0.38938916349E+02 -0.13311103581E+03  0.19594651164E+03  0.12500000000E+03 0.  0.
         25    1    1    2    0    0  0.53852522206E+02  0.92998592777E+02 -0.34518121893E+02  0.16842010909E+03  0.12500000000E+03 0.  0.
         25    1    1    2    0    0 -0.11331047680E+03 -0.13193750913E+03 -0.11962468297E+03  0.24531986312E+03  0.12500000000E+03 0.  0.
</event>
<event>
 5    0  0.5626800E-005  0.2513530E+03  0.7546771E-02  0.1112453E+00
         21   -1    0    0  502  501  0.00000000000E+00  0.00000000000E+00  0.83787780908E+03  0.83787780908E+03  0.00000000000E+00 0. -1.
         21   -1    0    0  501  502 -0.00000000000E+00 -0.00000000000E+00 -0.75402793088E+02  0.75402793088E+02  0.00000000000E+00 0. -1.
         25    1    1    2    0    0  0.10072463347E+02  0.12363425570E+03  0.21476519852E+03  0.27773363893E+03  0.12500000000E+03 0.  0.
         25    1    1    2    0    0 -0.99922138547E+01 -0.12164011534E+03  0.19743892832E+03  0.26363477087E+03  0.12500000000E+03 0.  0.
         25    1    1    2    0    0 -0.80249491859E-01 -0.19941403567E+01  0.35027088915E+03  0.37191219236E+03  0.12500000000E+03 0.  0.
</event>
<event>
 5    0  0.5626800E-005  0.2747423E+03  0.7546771E-02  0.1098596E+00
         21   -1    0    0  502  501  0.00000000000E+00  0.00000000000E+00  0.54170567304E+03  0.54170567304E+03  0.00000000000E+00 0. -1.
         21   -1    0    0  501  502 -0.00000000000E+00 -0.00000000000E+00 -0.13934378575E+03  0.13934378575E+03  0.00000000000E+00 0. -1.
         25    1    1    2    0    0 -0.11779098973E+03  0.17172430138E+02  0.24819618213E+02  0.17438641882E+03  0.12500000000E+03 0.  0.
         25    1    1    2    0    0 -0.59380325217E+01  0.21988071439E+02  0.57674454505E+02  0.13953522214E+03  0.12500000000E+03 0.  0.
         25    1    1    2    0    0  0.12372902225E+03 -0.39160501576E+02  0.31986781457E+03  0.36712781783E+03  0.12500000000E+03 0.  0.
</event>
<event>
 5    0  0.5626800E-005  0.2967061E+03  0.7546771E-02  0.1086899E+00
         21   -1    0    0  502  501  0.00000000000E+00  0.00000000000E+00  0.98983398531E+03  0.98983398531E+03  0.00000000000E+00 0.  1.
         21   -1    0    0  501  502 -0.00000000000E+00 -0.00000000000E+00 -0.88938634935E+02  0.88938634935E+02  0.00000000000E+00 0.  1.
         25    1    1    2    0    0  0.17064002756E+03 -0.11615614498E+03  0.26438842858E+03  0.35796160435E+03  0.12500000000E+03 0.  0.
         25    1    1    2    0    0 -0.72523640580E+02  0.46617943156E+02  0.39732684064E+03  0.42535459250E+03  0.12500000000E+03 0.  0.
         25    1    1    2    0    0 -0.98116386975E+02  0.69538201824E+02  0.23918008116E+03  0.29545642340E+03  0.12500000000E+03 0.  0.
</event>
<event>
 5    0  0.5626800E-005  0.2193429E+03  0.7546771E-02  0.1134374E+00
         21   -1    0    0  502  501  0.00000000000E+00  0.00000000000E+00  0.71094012696E+03  0.71094012696E+03  0.00000000000E+00 0. -1.
         21   -1    0    0  501  502 -0.00000000000E+00 -0.00000000000E+00 -0.67672794925E+02  0.67672794925E+02  0.00000000000E+00 0. -1.
         25    1    1    2    0    0 -0.10393812832E+02  0.23747531983E+02  0.14334942692E+03  0.19195320997E+03  0.12500000000E+03 0.  0.
         25    1    1    2    0    0  0.35617071270E+02  0.68650886693E+02  0.27910259044E+03  0.31544377629E+03  0.12500000000E+03 0.  0.
         25    1    1    2    0    0 -0.25223258437E+02 -0.92398418676E+02  0.22081531467E+03  0.27121593562E+03  0.12500000000E+03 0.  0.
</event>
<event>
 5    0  0.5626800E-005  0.3846454E+03  0.7546771E-02  0.1049230E+00
         21   -1    0    0  502  501  0.00000000000E+00  0.00000000000E+00  0.10755239919E+03  0.10755239919E+03  0.00000000000E+00 0.  1.
         21   -1    0    0  501  502 -0.00000000000E+00 -0.00000000000E+00 -0.13756280967E+04  0.13756280967E+04  0.00000000000E+00 0.  1.
         25    1    1    2    0    0 -0.29058501004E+02  0.46282155640E+02 -0.27260687598E+03  0.30483756862E+03  0.12500000000E+03 0.  0.
         25    1    1    2    0    0  0.87573702303E+02  0.23041136866E+03 -0.25555548817E+03  0.37642019032E+03  0.12500000000E+03 0.  0.
         25    1    1    2    0    0 -0.58515201299E+02 -0.27669352430E+03 -0.73991333339E+03  0.80192273699E+03  0.12500000000E+03 0.  0.
</event>
<event>
 5    0  0.5626800E-005  0.2680031E+03  0.7546771E-02  0.1102428E+00
         21   -1    0    0  502  501  0.00000000000E+00  0.00000000000E+00  0.50584402341E+03  0.50584402341E+03  0.00000000000E+00 0.  1.
         21   -1    0    0  501  502 -0.00000000000E+00 -0.00000000000E+00 -0.14199170960E+03  0.14199170960E+03  0.00000000000E+00 0.  1.
         25    1    1    2    0    0 -0.13276354185E+03  0.73195416702E+02  0.17651844609E+03  0.26413536091E+03  0.12500000000E+03 0.  0.
         25    1    1    2    0    0  0.11887917936E+03 -0.32766039406E+02  0.17989736861E+03  0.25138404058E+03  0.12500000000E+03 0.  0.
         25    1    1    2    0    0  0.13884362487E+02 -0.40429377297E+02  0.74364991107E+01  0.13231633153E+03  0.12500000000E+03 0.  0.
</event>
<event>
 5    0  0.5626800E-005  0.2655346E+03  0.7546771E-02  0.1103863E+00
         21   -1    0    0  502  501  0.00000000000E+00  0.00000000000E+00  0.32717926542E+03  0.32717926542E+03  0.00000000000E+00 0.  1.
         21   -1    0    0  501  502 -0.00000000000E+00 -0.00000000000E+00 -0.21550460362E+03  0.21550460362E+03  0.00000000000E+00 0.  1.
         25    1    1    2    0    0 -0.32602916099E+02 -0.49041293128E+02  0.48321963446E+01  0.13826188445E+03  0.12500000000E+03 0.  0.
         25    1    1    2    0    0  0.13294000646E+03 -0.57328553099E+02  0.89782339461E+02  0.21129476283E+03  0.12500000000E+03 0.  0.
         25    1    1    2    0    0 -0.10033709036E+03  0.10636984623E+03  0.17060125999E+02  0.19312722177E+03  0.12500000000E+03 0.  0.
</event>
<event>
 5    0  0.5626800E-005  0.3271327E+03  0.7546771E-02  0.1072413E+00
         21   -1    0    0  502  501  0.00000000000E+00  0.00000000000E+00  0.13162441293E+04  0.13162441293E+04  0.00000000000E+00 0. -1.
         21   -1    0    0  501  502 -0.00000000000E+00 -0.00000000000E+00 -0.81303915985E+02  0.81303915985E+02  0.00000000000E+00 0. -1.
         25    1    1    2    0    0 -0.97712081535E+02 -0.13679893747E+03  0.55861487277E+03  0.59660470686E+03  0.12500000000E+03 0.  0.
         25    1    1    2    0    0  0.41146536695E+02 -0.89839768819E+02  0.31369806123E+03  0.35184612426E+03  0.12500000000E+03 0.  0.
         25    1    1    2    0    0  0.56565544840E+02  0.22663870629E+03  0.36262727927E+03  0.44909721411E+03  0.12500000000E+03 0.  0.
</event>
<event>
 5    0  0.5626800E-005  0.7199692E+03  0.7546771E-02  0.9683679E-01
         21   -1    0    0  502  501  0.00000000000E+00  0.00000000000E+00  0.11827129551E+04  0.11827129551E+04  0.00000000000E+00 0. -1.
         21   -1    0    0  501  502 -0.00000000000E+00 -0.00000000000E+00 -0.43827685702E+03  0.43827685702E+03  0.00000000000E+00 0. -1.
         25    1    1    2    0    0  0.10710789713E+03  0.53499134815E+02 -0.62636126938E+02  0.18407211481E+03  0.12500000000E+03 0.  0.
         25    1    1    2    0    0 -0.50103306191E+03  0.13646682263E+03  0.28081680846E+02  0.53485596529E+03  0.12500000000E+03 0.  0.
         25    1    1    2    0    0  0.39392516478E+03 -0.18996595745E+03  0.77899054413E+03  0.90206173197E+03  0.12500000000E+03 0.  0.
</event>
<event>
 5    0  0.5626800E-005  0.4060971E+03  0.7546771E-02  0.1041689E+00
         21   -1    0    0  502  501  0.00000000000E+00  0.00000000000E+00  0.31862994371E+03  0.31862994371E+03  0.00000000000E+00 0. -1.
         21   -1    0    0  501  502 -0.00000000000E+00 -0.00000000000E+00 -0.51757479235E+03  0.51757479235E+03  0.00000000000E+00 0. -1.
         25    1    1    2    0    0  0.80005556870E+02  0.12763565177E+03  0.65805780442E+02  0.20651186279E+03  0.12500000000E+03 0.  0.
         25    1    1    2    0    0 -0.29004221270E+02 -0.25925532678E+03 -0.32179797006E+03  0.43270486807E+03  0.12500000000E+03 0.  0.
         25    1    1    2    0    0 -0.51001335600E+02  0.13161967502E+03  0.57047340967E+02  0.19698800521E+03  0.12500000000E+03 0.  0.
</event>
<event>
 5    0  0.5626800E-005  0.2730749E+03  0.7546771E-02  0.1099533E+00
         21   -1    0    0  502  501  0.00000000000E+00  0.00000000000E+00  0.16812831517E+04  0.16812831517E+04  0.00000000000E+00 0.  1.
         21   -1    0    0  501  502 -0.00000000000E+00 -0.00000000000E+00 -0.44352962910E+02  0.44352962910E+02  0.00000000000E+00 0.  1.
         25    1    1    2    0    0  0.57198580856E+02  0.13944819579E+03  0.84662887688E+03  0.86897809646E+03  0.12500000000E+03 0.  0.
         25    1    1    2    0    0  0.10725309058E+02 -0.25806283580E+01  0.40081355342E+03  0.41999785297E+03  0.12500000000E+03 0.  0.
         25    1    1    2    0    0 -0.67923889914E+02 -0.13686756744E+03  0.38948775849E+03  0.43666016518E+03  0.12500000000E+03 0.  0.
</event>
<event>
 5    0  0.6889155E-005  0.3603689E+03  0.7546771E-02  0.1058438E+00
         21   -1    0    0  502  501  0.00000000000E+00  0.00000000000E+00  0.30112251544E+03  0.30112251544E+03  0.00000000000E+00 0.  1.
         21   -1    0    0  501  502 -0.00000000000E+00 -0.00000000000E+00 -0.43127220360E+03  0.43127220360E+03  0.00000000000E+00 0.  1.
         25    1    1    2    0    0  0.27856671722E+02 -0.10161877994E+03  0.10205644021E+03  0.19272490131E+03  0.12500000000E+03 0.  0.
         25    1    1    2    0    0 -0.21062248364E+03  0.41588108055E+02 -0.17302052482E+03  0.30274164456E+03  0.12500000000E+03 0.  0.
         25    1    1    2    0    0  0.18276581192E+03  0.60030671884E+02 -0.59185603550E+02  0.23692817317E+03  0.12500000000E+03 0.  0.
</event>
<event>
 5    0  0.5626800E-005  0.2667152E+03  0.7546771E-02  0.1103174E+00
         21   -1    0    0  502  501  0.00000000000E+00  0.00000000000E+00  0.43249927001E+03  0.43249927001E+03  0.00000000000E+00 0.  1.
         21   -1    0    0  501  502 -0.00000000000E+00 -0.00000000000E+00 -0.16447890329E+03  0.16447890329E+03  0.00000000000E+00 0.  1.
         25    1    1    2    0    0  0.67525281412E+02  0.39086482368E+02  0.62146751544E+01  0.14748233427E+03  0.12500000000E+03 0.  0.
         25    1    1    2    0    0 -0.12017972603E+03 -0.68534517868E+02  0.24762932413E+03  0.30997649727E+03  0.12500000000E+03 0.  0.
         25    1    1    2    0    0  0.52654444617E+02  0.29448035500E+02  0.14176367434E+02  0.13951934176E+03  0.12500000000E+03 0.  0.
</event>
<event>
 5    0  0.5626800E-005  0.7973620E+03  0.7546771E-02  0.9563843E-01
         21   -1    0    0  502  501  0.00000000000E+00  0.00000000000E+00  0.57918844186E+03  0.57918844186E+03  0.00000000000E+00 0. -1.
         21   -1    0    0  501  502 -0.00000000000E+00 -0.00000000000E+00 -0.10977188772E+04  0.10977188772E+04  0.00000000000E+00 0. -1.
         25    1    1    2    0    0 -0.43725038279E+03 -0.51680100812E+03 -0.45648265517E+03  0.82599793808E+03  0.12500000000E+03 0.  0.
         25    1    1    2    0    0  0.23713032365E+03  0.42628761603E+03 -0.22359217376E+03  0.55097221540E+03  0.12500000000E+03 0.  0.
         25    1    1    2    0    0  0.20012005914E+03  0.90513392092E+02  0.16154439357E+03  0.29993716561E+03  0.12500000000E+03 0.  0.
</event>
<event>
 5    0  0.5626800E-005  0.2578993E+03  0.7546771E-02  0.1108412E+00
         21   -1    0    0  502  501  0.00000000000E+00  0.00000000000E+00  0.63445214330E+03  0.63445214330E+03  0.00000000000E+00 0.  1.
         21   -1    0    0  501  502 -0.00000000000E+00 -0.00000000000E+00 -0.10483379747E+03  0.10483379747E+03  0.00000000000E+00 0.  1.
         25    1    1    2    0    0  0.23986971149E+02  0.45913839278E+02  0.31219047515E+03  0.34025188934E+03  0.12500000000E+03 0.  0.
         25    1    1    2    0    0 -0.65976740637E+02  0.37986472555E+02  0.19083173295E+03  0.24049460016E+03  0.12500000000E+03 0.  0.
         25    1    1    2    0    0  0.41989769488E+02 -0.83900311833E+02  0.26596137722E+02  0.15853945127E+03  0.12500000000E+03 0.  0.
</event>
<event>
 5    0  0.5626800E-005  0.2618910E+03  0.7546771E-02  0.1106012E+00
         21   -1    0    0  502  501  0.00000000000E+00  0.00000000000E+00  0.41241590611E+03  0.41241590611E+03  0.00000000000E+00 0.  1.
         21   -1    0    0  501  502 -0.00000000000E+00 -0.00000000000E+00 -0.16630517752E+03  0.16630517752E+03  0.00000000000E+00 0.  1.
         25    1    1    2    0    0 -0.10115458061E+03  0.27786576019E+01 -0.22347102798E+02  0.16237106614E+03  0.12500000000E+03 0.  0.
         25    1    1    2    0    0 -0.23466219871E+02 -0.44119369584E+02  0.13960332515E+03  0.19393625406E+03  0.12500000000E+03 0.  0.
         25    1    1    2    0    0  0.12462080048E+03  0.41340711982E+02  0.12885450624E+03  0.22241376342E+03  0.12500000000E+03 0.  0.
</event>
<event>
 5    0  0.5626800E-005  0.2338465E+03  0.7546771E-02  0.1123961E+00
         21   -1    0    0  502  501  0.00000000000E+00  0.00000000000E+00  0.15341706694E+03  0.15341706694E+03  0.00000000000E+00 0. -1.
         21   -1    0    0  501  502 -0.00000000000E+00 -0.00000000000E+00 -0.35644123577E+03  0.35644123577E+03  0.00000000000E+00 0. -1.
         25    1    1    2    0    0  0.21860658884E+02  0.72352499378E+02 -0.11041395476E+03  0.18310929517E+03  0.12500000000E+03 0.  0.
         25    1    1    2    0    0  0.57844501032E+02 -0.55950004442E+02  0.45594303387E+01  0.14873526045E+03  0.12500000000E+03 0.  0.
         25    1    1    2    0    0 -0.79705159916E+02 -0.16402494936E+02 -0.97169644416E+02  0.17801374709E+03  0.12500000000E+03 0.  0.
</event>
<event>
 5    0  0.5626800E-005  0.3019054E+03  0.7546771E-02  0.1084292E+00
         21   -1    0    0  502  501  0.00000000000E+00  0.00000000000E+00  0.17351826825E+04  0.17351826825E+04  0.00000000000E+00 0.  1.
         21   -1    0    0  501  502 -0.00000000000E+00 -0.00000000000E+00 -0.52528675077E+02  0.52528675077E+02  0.00000000000E+00 0.  1.
         25    1    1    2    0    0 -0.44618914984E+00  0.37446817628E+02  0.11181674297E+04  0.11257556858E+04  0.12500000000E+03 0.  0.
         25    1    1    2    0    0 -0.28468779423E+02 -0.82777304128E+02  0.47545360659E+03  0.49934325419E+03  0.12500000000E+03 0.  0.
         25    1    1    2    0    0  0.28914968573E+02  0.45330486500E+02  0.89032971152E+02  0.16261241763E+03  0.12500000000E+03 0.  0.
</event>
<event>
 5    0  0.5626800E-005  0.2624274E+03  0.7546771E-02  0.1105694E+00
         21   -1    0    0  502  501  0.00000000000E+00  0.00000000000E+00  0.64406750363E+03  0.64406750363E+03  0.00000000000E+00 0.  1.
         21   -1    0    0  501  502 -0.00000000000E+00 -0.00000000000E+00 -0.10692688251E+03  0.10692688251E+03  0.00000000000E+00 0.  1.
         25    1    1    2    0    0 -0.24089829951E+02  0.47372242927E+02  0.97823056576E+02  0.16738817074E+03  0.12500000000E+03 0.  0.
         25    1    1    2    0    0 -0.30017477859E+01  0.10178027255E+03  0.94887855432E+02  0.18707468957E+03  0.12500000000E+03 0.  0.
         25    1    1    2    0    0  0.27091577736E+02 -0.14915251548E+03  0.34442970911E+03  0.39653152583E+03  0.12500000000E+03 0.  0.
</event>
<event>
 5    0  0.5626800E-005  0.7106912E+03  0.7546771E-02  0.9699121E-01
         21   -1    0    0  502  501  0.00000000000E+00  0.00000000000E+00  0.38969419009E+03  0.38969419009E+03  0.00000000000E+00 0.  1.
         21   -1    0    0  501  502 -0.00000000000E+00 -0.00000000000E+00 -0.12960983654E+04  0.12960983654E+04  0.00000000000E+00 0.  1.
         25    1    1    2    0    0 -0.12469200506E+03 -0.20145594344E+03  0.96701254029E+02  0.28479593713E+03  0.12500000000E+03 0.  0.
         25    1    1    2    0    0 -0.92990631945E+02 -0.24108096818E+03 -0.12423973159E+02  0.28730932104E+03  0.12500000000E+03 0.  0.
         25    1    1    2    0    0  0.21768263700E+03  0.44253691162E+03 -0.99068145617E+03  0.11136872973E+04  0.12500000000E+03 0.  0.
</event>
<event>
 5    0  0.5626800E-005  0.3701610E+03  0.7546771E-02  0.1054631E+00
         21   -1    0    0  502  501  0.00000000000E+00  0.00000000000E+00  0.10034641954E+03  0.10034641954E+03  0.00000000000E+00 0. -1.
         21   -1    0    0  501  502 -0.00000000000E+00 -0.00000000000E+00 -0.13654613132E+04  0.13654613132E+04  0.00000000000E+00 0. -1.
         25    1    1    2    0    0 -0.13985133488E+03 -0.17365570034E+03 -0.61644243012E+03  0.66733872043E+03  0.12500000000E+03 0.  0.
         25    1    1    2    0    0  0.13847027969E+03  0.25367080450E+03 -0.40276436844E+03  0.51124067904E+03  0.12500000000E+03 0.  0.
         25    1    1    2    0    0  0.13810551847E+01 -0.80015104157E+02 -0.24590809509E+03  0.28722833328E+03  0.12500000000E+03 0.  0.
</event>
<event>
 5    0  0.5626800E-005  0.2892383E+03  0.7546771E-02  0.1090747E+00
         21   -1    0    0  502  501  0.00000000000E+00  0.00000000000E+00  0.39945359128E+03  0.39945359128E+03  0.00000000000E+00 0. -1.
         21   -1    0    0  501  502 -0.00000000000E+00 -0.00000000000E+00 -0.20943311436E+03  0.20943311436E+03  0.00000000000E+00 0. -1.
         25    1    1    2    0    0  0.71996839936E+02 -0.10239871901E+02  0.57646756842E+02  0.15568091891E+03  0.12500000000E+03 0.  0.
         25    1    1    2    0    0 -0.70393763325E+02  0.30813068754E+02 -0.10752378285E+03  0.18190956819E+03  0.12500000000E+03 0.  0.
         25    1    1    2    0    0 -0.16030766111E+01 -0.20573196853E+02  0.23989750293E+03  0.27129621854E+03  0.12500000000E+03 0.  0.
</event>
<event>
 5    0  0.6035418E-005  0.5678265E+03  0.7546771E-02  0.9974500E-01
         21   -1    0    0  502  501  0.00000000000E+00  0.00000000000E+00  0.43622497259E+03  0.43622497259E+03  0.00000000000E+00 0.  1.
         21   -1    0    0  501  502 -0.00000000000E+00 -0.00000000000E+00 -0.73912994757E+03  0.73912994757E+03  0.00000000000E+00 0.  1.
         25    1    1    2    0    0 -0.33202494216E+03 -0.83944424870E+02 -0.20740631521E+03  0.41943963603E+03  0.12500000000E+03 0.  0.
         25    1    1    2    0    0  0.24829296497E+03  0.76300290441E+02  0.24836406805E+03  0.38050077671E+03  0.12500000000E+03 0.  0.
         25    1    1    2    0    0  0.83731977188E+02  0.76441344293E+01 -0.34386272783E+03  0.37541450743E+03  0.12500000000E+03 0.  0.
</event>
<event>
 5    0  0.5626800E-005  0.2468019E+03  0.7546771E-02  0.1115343E+00
         21   -1    0    0  502  501  0.00000000000E+00  0.00000000000E+00  0.47378811896E+03  0.47378811896E+03  0.00000000000E+00 0. -1.
         21   -1    0    0  501  502 -0.00000000000E+00 -0.00000000000E+00 -0.12856206498E+03  0.12856206498E+03  0.00000000000E+00 0. -1.
         25    1    1    2    0    0 -0.44104932315E+02  0.60570062610E+02  0.17967791971E+03  0.23135066970E+03  0.12500000000E+03 0.  0.
         25    1    1    2    0    0  0.91010035098E+02 -0.84084691527E+02  0.15584583051E+03  0.23508718537E+03  0.12500000000E+03 0.  0.
         25    1    1    2    0    0 -0.46905102783E+02  0.23514628917E+02  0.97023037625E+01  0.13591232887E+03  0.12500000000E+03 0.  0.
</event>
<event>
 5    0  0.5626800E-005  0.2470938E+03  0.7546771E-02  0.1115155E+00
         21   -1    0    0  502  501  0.00000000000E+00  0.00000000000E+00  0.31657660713E+03  0.31657660713E+03  0.00000000000E+00 0.  1.
         21   -1    0    0  501  502 -0.00000000000E+00 -0.00000000000E+00 -0.19286123905E+03  0.19286123905E+03  0.00000000000E+00 0.  1.
         25    1    1    2    0    0 -0.41180170416E+02  0.93218268223E+02 -0.48664542666E+02  0.16845975685E+03  0.12500000000E+03 0.  0.
         25    1    1    2    0    0 -0.19860071022E+02 -0.72300272892E+02  0.12653983557E+03  0.19302611706E+03  0.12500000000E+03 0.  0.
         25    1    1    2    0    0  0.61040241439E+02 -0.20917995331E+02  0.45840075176E+02  0.14795197226E+03  0.12500000000E+03 0.  0.
</event>
<event>
 5    0  0.5626800E-005  0.2608685E+03  0.7546771E-02  0.1106623E+00
         21   -1    0    0  502  501  0.00000000000E+00  0.00000000000E+00  0.23334627485E+03  0.23334627485E+03  0.00000000000E+00 0.  1.
         21   -1    0    0  501  502 -0.00000000000E+00 -0.00000000000E+00 -0.29163695160E+03  0.29163695160E+03  0.00000000000E+00 0.  1.
         25    1    1    2    0    0 -0.17620831952E+02 -0.59151583339E+02 -0.20208235779E+02  0.14086438983E+03  0.12500000000E+03 0.  0.
         25    1    1    2    0    0  0.48655765880E+02  0.15773840374E+03  0.28064970600E+02  0.20895317692E+03  0.12500000000E+03 0.  0.
         25    1    1    2    0    0 -0.31034933928E+02 -0.98586820404E+02 -0.66147411561E+02  0.17516565970E+03  0.12500000000E+03 0.  0.
</event>
<event>
 5    0  0.5626800E-005  0.2679230E+03  0.7546771E-02  0.1102474E+00
         21   -1    0    0  502  501  0.00000000000E+00  0.00000000000E+00  0.21351845630E+03  0.21351845630E+03  0.00000000000E+00 0. -1.
         21   -1    0    0  501  502 -0.00000000000E+00 -0.00000000000E+00 -0.33618988469E+03  0.33618988469E+03  0.00000000000E+00 0. -1.
         25    1    1    2    0    0 -0.17866910423E+03 -0.20724579009E+01 -0.37197560555E+02  0.22121392904E+03  0.12500000000E+03 0.  0.
         25    1    1    2    0    0  0.86391957380E+02  0.27741235120E+02 -0.12601589874E+02  0.15497401877E+03  0.12500000000E+03 0.  0.
         25    1    1    2    0    0  0.92277146854E+02 -0.25668777219E+02 -0.72872277967E+02  0.17352039319E+03  0.12500000000E+03 0.  0.
</event>
<event>
 5    0  0.5626800E-005  0.2227024E+03  0.7546771E-02  0.1131884E+00
         21   -1    0    0  502  501  0.00000000000E+00  0.00000000000E+00  0.12216109514E+03  0.12216109514E+03  0.00000000000E+00 0.  1.
         21   -1    0    0  501  502 -0.00000000000E+00 -0.00000000000E+00 -0.40599138359E+03  0.40599138359E+03  0.00000000000E+00 0.  1.
         25    1    1    2    0    0 -0.36355992908E+02 -0.16820823998E+02 -0.14800871809E+02  0.13209377028E+03  0.12500000000E+03 0.  0.
         25    1    1    2    0    0  0.76015749989E+02  0.47869194812E+02 -0.16627204917E+03  0.22658607281E+03  0.12500000000E+03 0.  0.
         25    1    1    2    0    0 -0.39659757081E+02 -0.31048370813E+02 -0.10275736747E+03  0.16947263564E+03  0.12500000000E+03 0.  0.
</event>
<event>
 5    0  0.5626800E-005  0.2993214E+03  0.7546771E-02  0.1085580E+00
         21   -1    0    0  502  501  0.00000000000E+00  0.00000000000E+00  0.29423948544E+03  0.29423948544E+03  0.00000000000E+00 0.  1.
         21   -1    0    0  501  502 -0.00000000000E+00 -0.00000000000E+00 -0.30449099546E+03  0.30449099546E+03  0.00000000000E+00 0.  1.
         25    1    1    2    0    0  0.39306091213E+02 -0.47587996092E+02  0.78196554777E+02  0.15984144443E+03  0.12500000000E+03 0.  0.
         25    1    1    2    0    0  0.11532410041E+03  0.10223109293E+03  0.30608324384E+02  0.20078026302E+03  0.12500000000E+03 0.  0.
         25    1    1    2    0    0 -0.15463019162E+03 -0.54643096838E+02 -0.11905638918E+03  0.23810877346E+03  0.12500000000E+03 0.  0.
</event>
<event>
 5    0  0.5626800E-005  0.2609011E+03  0.7546771E-02  0.1106603E+00
         21   -1    0    0  502  501  0.00000000000E+00  0.00000000000E+00  0.76215221205E+03  0.76215221205E+03  0.00000000000E+00 0.  1.
         21   -1    0    0  501  502 -0.00000000000E+00 -0.00000000000E+00 -0.89312036261E+02  0.89312036261E+02  0.00000000000E+00 0.  1.
         25    1    1    2    0    0 -0.11355586398E+03 -0.96385098784E+01  0.27525435468E+03  0.32307552506E+03  0.12500000000E+03 0.  0.
         25    1    1    2    0    0  0.93384622292E+02  0.98033847005E+02  0.27592907283E+03  0.33180291752E+03  0.12500000000E+03 0.  0.
         25    1    1    2    0    0  0.20171241692E+02 -0.88395337126E+02  0.12165674827E+03  0.19658580574E+03  0.12500000000E+03 0.  0.
</event>
<event>
 5    0  0.5626800E-005  0.3751414E+03  0.7546771E-02  0.1052744E+00
         21   -1    0    0  502  501  0.00000000000E+00  0.00000000000E+00  0.18846966624E+03  0.18846966624E+03  0.00000000000E+00 0. -1.
         21   -1    0    0  501  502 -0.00000000000E+00 -0.00000000000E+00 -0.74670422464E+03  0.74670422464E+03  0.00000000000E+00 0. -1.
         25    1    1    2    0    0 -0.12621405629E+03 -0.89868287201E+01 -0.13365511397E+03  0.22248469742E+03  0.12500000000E+03 0.  0.
         25    1    1    2    0    0 -0.57136436729E+02 -0.21006770209E+03 -0.25463832240E+03  0.35757333108E+03  0.12500000000E+03 0.  0.
         25    1    1    2    0    0  0.18335049302E+03  0.21905453081E+03 -0.16994112203E+03  0.35511586238E+03  0.12500000000E+03 0.  0.
</event>
<event>
 5    0  0.5626800E-005  0.2664693E+03  0.7546771E-02  0.1103317E+00
         21   -1    0    0  502  501  0.00000000000E+00  0.00000000000E+00  0.10609498030E+03  0.10609498030E+03  0.00000000000E+00 0.  1.
         21   -1    0    0  501  502 -0.00000000000E+00 -0.00000000000E+00 -0.66926717959E+03  0.66926717959E+03  0.00000000000E+00 0.  1.
         25    1    1    2    0    0 -0.12765795848E+03 -0.97552873913E+02 -0.34010893235E+03  0.39637381780E+03  0.12500000000E+03 0.  0.
         25    1    1    2    0    0  0.10525512988E+03  0.57229537721E+02 -0.12725983076E+03  0.21488119247E+03  0.12500000000E+03 0.  0.
         25    1    1    2    0    0  0.22402828596E+02  0.40323336192E+02 -0.95803436179E+02  0.16410714961E+03  0.12500000000E+03 0.  0.
</event>
<event>
 5    0  0.5626800E-005  0.2645233E+03  0.7546771E-02  0.1104456E+00
         21   -1    0    0  502  501  0.00000000000E+00  0.00000000000E+00  0.79529860568E+02  0.79529860568E+02  0.00000000000E+00 0. -1.
         21   -1    0    0  501  502 -0.00000000000E+00 -0.00000000000E+00 -0.87982757647E+03  0.87982757647E+03  0.00000000000E+00 0. -1.
         25    1    1    2    0    0 -0.64552995475E+02  0.11824356714E+03 -0.35432728943E+03  0.39915092187E+03  0.12500000000E+03 0.  0.
         25    1    1    2    0    0  0.77371592353E+02  0.20983486045E+02 -0.16067887454E+03  0.21879070070E+03  0.12500000000E+03 0.  0.
         25    1    1    2    0    0 -0.12818596877E+02 -0.13922705318E+03 -0.28529155193E+03  0.34141581447E+03  0.12500000000E+03 0.  0.
</event>
<event>
 5    0  0.5626800E-005  0.2489726E+03  0.7546771E-02  0.1113956E+00
         21   -1    0    0  502  501  0.00000000000E+00  0.00000000000E+00  0.79667846918E+03  0.79667846918E+03  0.00000000000E+00 0. -1.
         21   -1    0    0  501  502 -0.00000000000E+00 -0.00000000000E+00 -0.77807213042E+02  0.77807213042E+02  0.00000000000E+00 0. -1.
         25    1    1    2    0    0  0.10963250080E+03 -0.10632536832E+02  0.11985724576E+03  0.20523911769E+03  0.12500000000E+03 0.  0.
         25    1    1    2    0    0  0.28739294501E+00  0.33630862081E+02  0.28762528210E+03  0.31541150959E+03  0.12500000000E+03 0.  0.
         25    1    1    2    0    0 -0.10991989374E+03 -0.22998325249E+02  0.31138872827E+03  0.35383505493E+03  0.12500000000E+03 0.  0.
</event>
<event>
 5    0  0.5626800E-005  0.2704673E+03  0.7546771E-02  0.1101012E+00
         21   -1    0    0  502  501  0.00000000000E+00  0.00000000000E+00  0.62074154705E+03  0.62074154705E+03  0.00000000000E+00 0.  1.
         21   -1    0    0  501  502 -0.00000000000E+00 -0.00000000000E+00 -0.11784703605E+03  0.11784703605E+03  0.00000000000E+00 0.  1.
         25    1    1    2    0    0  0.88218995232E+02 -0.55411778479E+02  0.65597317378E+02  0.17544533155E+03  0.12500000000E+03 0.  0.
         25    1    1    2    0    0  0.21113348776E+01 -0.12104628924E+02  0.35337199172E+03  0.37503032452E+03  0.12500000000E+03 0.  0.
         25    1    1    2    0    0 -0.90330330110E+02  0.67516407403E+02  0.83925201900E+02  0.18811292704E+03  0.12500000000E+03 0.  0.
</event>
<event>
 5    0  0.5626800E-005  0.5168321E+03  0.7546771E-02  0.1009477E+00
         21   -1    0    0  502  501  0.00000000000E+00  0.00000000000E+00  0.55249401570E+03  0.55249401570E+03  0.00000000000E+00 0. -1.
         21   -1    0    0  501  502 -0.00000000000E+00 -0.00000000000E+00 -0.48347210147E+03  0.48347210147E+03  0.00000000000E+00 0. -1.
         25    1    1    2    0    0  0.12486467609E+03 -0.14276959190E-01  0.43222881735E+03  0.46694532666E+03  0.12500000000E+03 0.  0.
         25    1    1    2    0    0 -0.15848378266E+03 -0.13457724534E+03 -0.14836584944E+03  0.28436872122E+03  0.12500000000E+03 0.  0.
         25    1    1    2    0    0  0.33619106570E+02  0.13459152230E+03 -0.21484105368E+03  0.28465206928E+03  0.12500000000E+03 0.  0.
</event>
<event>
 5    0  0.5706706E-005  0.2897797E+03  0.7546771E-02  0.1090464E+00
         21   -1    0    0  502  501  0.00000000000E+00  0.00000000000E+00  0.93450414404E+03  0.93450414404E+03  0.00000000000E+00 0.  1.
         21   -1    0    0  501  502 -0.00000000000E+00 -0.00000000000E+00 -0.89857553344E+02  0.89857553344E+02  0.00000000000E+00 0.  1.
         25    1    1    2    0    0 -0.14081521035E+03  0.40171326318E+01  0.37493022608E+03  0.41957446925E+03  0.12500000000E+03 0.  0.
         25    1    1    2    0    0  0.62308310132E+01  0.33151500926E+02  0.37106804150E+03  0.39300678962E+03  0.12500000000E+03 0.  0.
         25    1    1    2    0    0  0.13458437933E+03 -0.37168633558E+02  0.98648323120E+02  0.21178043851E+03  0.12500000000E+03 0.  0.
</event>
<event>
 5    0  0.5626800E-005  0.2129821E+03  0.7546771E-02  0.1139226E+00
         21   -1    0    0  502  501  0.00000000000E+00  0.00000000000E+00  0.13461283168E+03  0.13461283168E+03  0.00000000000E+00 0. -1.
         21   -1    0    0  501  502 -0.00000000000E+00 -0.00000000000E+00 -0.33697648399E+03  0.33697648399E+03  0.00000000000E+00 0. -1.
         25    1    1    2    0    0  0.61547021563E+02  0.34062005568E+02 -0.74912755923E+02  0.16181834595E+03  0.12500000000E+03 0.  0.
         25    1    1    2    0    0  0.21060209382E+02  0.62502115342E+01 -0.64012916311E+02  0.14214517585E+03  0.12500000000E+03 0.  0.
         25    1    1    2    0    0 -0.82607230945E+02 -0.40312217103E+02 -0.63437980085E+02  0.16762579387E+03  0.12500000000E+03 0.  0.
</event>
<event>
 5    0  0.5626800E-005  0.2982620E+03  0.7546771E-02  0.1086113E+00
         21   -1    0    0  502  501  0.00000000000E+00  0.00000000000E+00  0.92463406413E+03  0.92463406413E+03  0.00000000000E+00 0. -1.
         21   -1    0    0  501  502 -0.00000000000E+00 -0.00000000000E+00 -0.96211285119E+02  0.96211285119E+02  0.00000000000E+00 0. -1.
         25    1    1    2    0    0  0.36847553906E+02  0.12183593038E+03  0.22875727825E+03  0.29009761894E+03  0.12500000000E+03 0.  0.
         25    1    1    2    0    0  0.80962797487E+02 -0.16460057239E+03  0.22342710765E+03  0.31494919502E+03  0.12500000000E+03 0.  0.
         25    1    1    2    0    0 -0.11781035139E+03  0.42764642010E+02  0.37623839311E+03  0.41579853529E+03  0.12500000000E+03 0.  0.
</event>
<event>
 5    0  0.5626800E-005  0.3602048E+03  0.7546771E-02  0.1058503E+00
         21   -1    0    0  502  501  0.00000000000E+00  0.00000000000E+00  0.10375464222E+03  0.10375464222E+03  0.00000000000E+00 0. -1.
         21   -1    0    0  501  502 -0.00000000000E+00 -0.00000000000E+00 -0.12505222606E+04  0.12505222606E+04  0.00000000000E+00 0. -1.
         25    1    1    2    0    0  0.99394798669E+02  0.94532720461E+02 -0.19798061577E+03  0.27136154013E+03  0.12500000000E+03 0.  0.
         25    1    1    2    0    0 -0.52667706387E+02 -0.23515209193E+03 -0.77993518201E+03  0.82582945078E+03  0.12500000000E+03 0.  0.
         25    1    1    2    0    0 -0.46727092282E+02  0.14061937146E+03 -0.16885182057E+03  0.25708591189E+03  0.12500000000E+03 0.  0.
</event>
<event>
 5    0  0.6501345E-005  0.6081598E+03  0.7546771E-02  0.9888620E-01
         21   -1    0    0  502  501  0.00000000000E+00  0.00000000000E+00  0.10547347824E+04  0.10547347824E+04  0.00000000000E+00 0. -1.
         21   -1    0    0  501  502 -0.00000000000E+00 -0.00000000000E+00 -0.35066481595E+03  0.35066481595E+03  0.00000000000E+00 0. -1.
         25    1    1    2    0    0  0.40975310228E+03  0.89140450890E+02  0.52060105011E+03  0.68006917162E+03  0.12500000000E+03 0.  0.
         25    1    1    2    0    0 -0.27361489648E+03  0.84469093466E+02 -0.11567454049E+03  0.33317523714E+03  0.12500000000E+03 0.  0.
         25    1    1    2    0    0 -0.13613820580E+03 -0.17360954436E+03  0.29914345687E+03  0.39215518963E+03  0.12500000000E+03 0.  0.
</event>
<event>
 5    0  0.5626800E-005  0.4860172E+03  0.7546771E-02  0.1017494E+00
         21   -1    0    0  502  501  0.00000000000E+00  0.00000000000E+00  0.74949152003E+03  0.74949152003E+03  0.00000000000E+00 0.  1.
         21   -1    0    0  501  502 -0.00000000000E+00 -0.00000000000E+00 -0.31516399212E+03  0.31516399212E+03  0.00000000000E+00 0.  1.
         25    1    1    2    0    0 -0.14273132723E+03  0.10586267492E+03  0.12799233807E+03  0.25216299554E+03  0.12500000000E+03 0.  0.
         25    1    1    2    0    0  0.13236883351E+03  0.37862301226E+02  0.50434989907E+03  0.53753965680E+03  0.12500000000E+03 0.  0.
         25    1    1    2    0    0  0.10362493725E+02 -0.14372497615E+03 -0.19801470923E+03  0.27495285981E+03  0.12500000000E+03 0.  0.
</event>
<event>
 5    0  0.5626800E-005  0.4978844E+03  0.7546771E-02  0.1014333E+00
         21   -1    0    0  502  501  0.00000000000E+00  0.00000000000E+00  0.12377451489E+04  0.12377451489E+04  0.00000000000E+00 0. -1.
         21   -1    0    0  501  502 -0.00000000000E+00 -0.00000000000E+00 -0.20027456703E+03  0.20027456703E+03  0.00000000000E+00 0. -1.
         25    1    1    2    0    0 -0.20550176341E+03 -0.27873229503E+03  0.15988059862E+03  0.40138444523E+03  0.12500000000E+03 0.  0.
         25    1    1    2    0    0  0.19056567511E+03  0.31960738024E+03  0.77652306342E+03  0.87010184579E+03  0.12500000000E+03 0.  0.
         25    1    1    2    0    0  0.14936088300E+02 -0.40875085212E+02  0.10106691981E+03  0.16653342488E+03  0.12500000000E+03 0.  0.
</event>
<event>
 5    0  0.5626800E-005  0.3601821E+03  0.7546771E-02  0.1058512E+00
         21   -1    0    0  502  501  0.00000000000E+00  0.00000000000E+00  0.24480395349E+03  0.24480395349E+03  0.00000000000E+00 0.  1.
         21   -1    0    0  501  502 -0.00000000000E+00 -0.00000000000E+00 -0.52993883121E+03  0.52993883121E+03  0.00000000000E+00 0.  1.
         25    1    1    2    0    0 -0.17778631572E+03 -0.31595837826E+02 -0.36557241156E+02  0.22263805359E+03  0.12500000000E+03 0.  0.
         25    1    1    2    0    0 -0.16837408428E+02 -0.15112966076E+03 -0.79598339221E+02  0.21233127017E+03  0.12500000000E+03 0.  0.
         25    1    1    2    0    0  0.19462372415E+03  0.18272549859E+03 -0.16897929734E+03  0.33977346095E+03  0.12500000000E+03 0.  0.
</event>
<event>
 5    0  0.5764212E-005  0.2983868E+03  0.7546771E-02  0.1086050E+00
         21   -1    0    0  502  501  0.00000000000E+00  0.00000000000E+00  0.42985887273E+03  0.42985887273E+03  0.00000000000E+00 0. -1.
         21   -1    0    0  501  502 -0.00000000000E+00 -0.00000000000E+00 -0.20712533216E+03  0.20712533216E+03  0.00000000000E+00 0. -1.
         25    1    1    2    0    0 -0.56651033160E+02  0.73634724420E+02 -0.12925862621E+02  0.15628016548E+03  0.12500000000E+03 0.  0.
         25    1    1    2    0    0  0.65284676503E+02 -0.98687741112E+02 -0.40140993221E+02  0.17674178501E+03  0.12500000000E+03 0.  0.
         25    1    1    2    0    0 -0.86336433433E+01  0.25053016692E+02  0.27580039641E+03  0.30396225440E+03  0.12500000000E+03 0.  0.
</event>
<event>
 5    0  0.5626800E-005  0.3408018E+03  0.7546771E-02  0.1066455E+00
         21   -1    0    0  502  501  0.00000000000E+00  0.00000000000E+00  0.54169886876E+03  0.54169886876E+03  0.00000000000E+00 0.  1.
         21   -1    0    0  501  502 -0.00000000000E+00 -0.00000000000E+00 -0.21441036555E+03  0.21441036555E+03  0.00000000000E+00 0.  1.
         25    1    1    2    0    0 -0.19203909851E+03 -0.13993460659E+03  0.21755442864E+03  0.34556567957E+03  0.12500000000E+03 0.  0.
         25    1    1    2    0    0  0.12243393818E+03  0.11493004706E+03  0.15265848857E+03  0.25909187380E+03  0.12500000000E+03 0.  0.
         25    1    1    2    0    0  0.69605160332E+02  0.25004559530E+02 -0.42924413998E+02  0.15145168094E+03  0.12500000000E+03 0.  0.
</event>
<event>
 5    0  0.5626800E-005  0.2995535E+03  0.7546771E-02  0.1085464E+00
         21   -1    0    0  502  501  0.00000000000E+00  0.00000000000E+00  0.19624466489E+03  0.19624466489E+03  0.00000000000E+00 0.  1.
         21   -1    0    0  501  502 -0.00000000000E+00 -0.00000000000E+00 -0.45724702204E+03  0.45724702204E+03  0.00000000000E+00 0.  1.
         25    1    1    2    0    0 -0.60626809776E+02 -0.58607931223E+02 -0.27756419104E+03  0.31587557648E+03  0.12500000000E+03 0.  0.
         25    1    1    2    0    0  0.45572374872E+02 -0.59860877405E+02 -0.47224058768E+02  0.15334691951E+03  0.12500000000E+03 0.  0.
         25    1    1    2    0    0  0.15054434904E+02  0.11846880863E+03  0.63785892668E+02  0.18426919095E+03  0.12500000000E+03 0.  0.
</event>
<event>
 5    0  0.5626800E-005  0.3430173E+03  0.7546771E-02  0.1065518E+00
         21   -1    0    0  502  501  0.00000000000E+00  0.00000000000E+00  0.15322489300E+04  0.15322489300E+04  0.00000000000E+00 0. -1.
         21   -1    0    0  501  502 -0.00000000000E+00 -0.00000000000E+00 -0.76789634182E+02  0.76789634182E+02  0.00000000000E+00 0. -1.
         25    1    1    2    0    0 -0.10161852745E+03  0.37330130862E+02  0.57482971505E+03  0.59814217799E+03  0.12500000000E+03 0.  0.
         25    1    1    2    0    0  0.65767982137E+01  0.62592152721E+00  0.10186042504E+02  0.12558822204E+03  0.12500000000E+03 0.  0.
         25    1    1    2    0    0  0.95041729232E+02 -0.37956052389E+02  0.87044353823E+03  0.88530816412E+03  0.12500000000E+03 0.  0.
</event>
<event>
 5    0  0.5626800E-005  0.4349325E+03  0.7546771E-02  0.1032313E+00
         21   -1    0    0  502  501  0.00000000000E+00  0.00000000000E+00  0.11227519813E+04  0.11227519813E+04  0.00000000000E+00 0.  1.
         21   -1    0    0  501  502 -0.00000000000E+00 -0.00000000000E+00 -0.16848447723E+03  0.16848447723E+03  0.00000000000E+00 0.  1.
         25    1    1    2    0    0  0.67947905094E+02 -0.17207248759E+03  0.88060579236E+02  0.24001150891E+03  0.12500000000E+03 0.  0.
         25    1    1    2    0    0  0.16584762930E+03  0.18926611277E+03  0.23469695765E+03  0.36610757916E+03  0.12500000000E+03 0.  0.
         25    1    1    2    0    0 -0.23379553439E+03 -0.17193625182E+02  0.63150996714E+03  0.68511737042E+03  0.12500000000E+03 0.  0.
</event>
<event>
 5    0  0.5626800E-005  0.3484322E+03  0.7546771E-02  0.1063260E+00
         21   -1    0    0  502  501  0.00000000000E+00  0.00000000000E+00  0.10541139936E+04  0.10541139936E+04  0.00000000000E+00 0. -1.
         21   -1    0    0  501  502 -0.00000000000E+00 -0.00000000000E+00 -0.11517254756E+03  0.11517254756E+03  0.00000000000E+00 0. -1.
         25    1    1    2    0    0  0.17355019292E+02  0.16407991139E+03  0.81208121953E+02  0.22235820895E+03  0.12500000000E+03 0.  0.
         25    1    1    2    0    0  0.60142227975E+01 -0.12283996591E+02  0.64155674611E+03  0.65376381510E+03  0.12500000000E+03 0.  0.
         25    1    1    2    0    0 -0.23369242090E+02 -0.15179591480E+03  0.21617657794E+03  0.29316451708E+03  0.12500000000E+03 0.  0.
</event>
<event>
 5    0  0.5626800E-005  0.2990751E+03  0.7546771E-02  0.1085704E+00
         21   -1    0    0  502  501  0.00000000000E+00  0.00000000000E+00  0.10574993084E+03  0.10574993084E+03  0.00000000000E+00 0. -1.
         21   -1    0    0  501  502 -0.00000000000E+00 -0.00000000000E+00 -0.84582483988E+03  0.84582483988E+03  0.00000000000E+00 0. -1.
         25    1    1    2    0    0  0.55652849333E+02 -0.79278125159E+02 -0.56055367377E+03  0.58243255570E+03  0.12500000000E+03 0.  0.
         25    1    1    2    0    0 -0.29640289368E+02  0.13013169756E+03 -0.80736493240E+02  0.19989043700E+03  0.12500000000E+03 0.  0.
         25    1    1    2    0    0 -0.26012559964E+02 -0.50853572397E+02 -0.98784742031E+02  0.16925177801E+03  0.12500000000E+03 0.  0.
</event>
<event>
 5    0  0.5626800E-005  0.2895863E+03  0.7546771E-02  0.1090565E+00
         21   -1    0    0  502  501  0.00000000000E+00  0.00000000000E+00  0.22672985471E+03  0.22672985471E+03  0.00000000000E+00 0.  1.
         21   -1    0    0  501  502 -0.00000000000E+00 -0.00000000000E+00 -0.36986855669E+03  0.36986855669E+03  0.00000000000E+00 0.  1.
         25    1    1    2    0    0  0.84013339741E+01 -0.80717992233E+02 -0.19081495455E+03  0.24211840815E+03  0.12500000000E+03 0.  0.
         25    1    1    2    0    0  0.89247114593E+02  0.63424406905E+02  0.90577115619E+02  0.18925357785E+03  0.12500000000E+03 0.  0.
         25    1    1    2    0    0 -0.97648448567E+02  0.17293585329E+02 -0.42900863055E+02  0.16522642540E+03  0.12500000000E+03 0.  0.
</event>
<event>
 5    0  0.5626800E-005  0.2394592E+03  0.7546771E-02  0.1120154E+00
         21   -1    0    0  502  501  0.00000000000E+00  0.00000000000E+00  0.32563500918E+03  0.32563500918E+03  0.00000000000E+00 0. -1.
         21   -1    0    0  501  502 -0.00000000000E+00 -0.00000000000E+00 -0.17608889203E+03  0.17608889203E+03  0.00000000000E+00 0. -1.
         25    1    1    2    0    0  0.54597446307E+02  0.97626889848E+02  0.13931864845E+03  0.21805177498E+03  0.12500000000E+03 0.  0.
         25    1    1    2    0    0 -0.81075552546E+01 -0.68684880753E+02 -0.18976801647E+02  0.14411267917E+03  0.12500000000E+03 0.  0.
         25    1    1    2    0    0 -0.46489891052E+02 -0.28942009096E+02  0.29204270352E+02  0.13955944707E+03  0.12500000000E+03 0.  0.
</event>
<event>
 5    0  0.5663098E-005  0.2670609E+03  0.7546771E-02  0.1102974E+00
         21   -1    0    0  502  501  0.00000000000E+00  0.00000000000E+00  0.96262490614E+03  0.96262490614E+03  0.00000000000E+00 0.  1.
         21   -1    0    0  501  502 -0.00000000000E+00 -0.00000000000E+00 -0.74090652518E+02  0.74090652518E+02  0.00000000000E+00 0.  1.
         25    1    1    2    0    0 -0.61978144955E+02 -0.51615813514E+02  0.32739351663E+03  0.35960672600E+03  0.12500000000E+03 0.  0.
         25    1    1    2    0    0  0.13003854330E+02 -0.72442439851E+02  0.42532549892E+03  0.44938156098E+03  0.12500000000E+03 0.  0.
         25    1    1    2    0    0  0.48974290625E+02  0.12405825337E+03  0.13581523807E+03  0.22772727167E+03  0.12500000000E+03 0.  0.
</event>
<event>
 5    0  0.5626800E-005  0.2552330E+03  0.7546771E-02  0.1110042E+00
         21   -1    0    0  502  501  0.00000000000E+00  0.00000000000E+00  0.30483732403E+03  0.30483732403E+03  0.00000000000E+00 0. -1.
         21   -1    0    0  501  502 -0.00000000000E+00 -0.00000000000E+00 -0.21370053415E+03  0.21370053415E+03  0.00000000000E+00 0. -1.
         25    1    1    2    0    0  0.18268995976E+02  0.68150689131E+02 -0.51448749206E+02  0.15248031492E+03  0.12500000000E+03 0.  0.
         25    1    1    2    0    0 -0.12251030323E+00 -0.91515230120E+02  0.17485669312E+03  0.23361274683E+03  0.12500000000E+03 0.  0.
         25    1    1    2    0    0 -0.18146485673E+02  0.23364540989E+02 -0.32271154038E+02  0.13244479643E+03  0.12500000000E+03 0.  0.
</event>
<event>
 5    0  0.5626800E-005  0.2195801E+03  0.7546771E-02  0.1134196E+00
         21   -1    0    0  502  501  0.00000000000E+00  0.00000000000E+00  0.18473624092E+03  0.18473624092E+03  0.00000000000E+00 0.  1.
         21   -1    0    0  501  502 -0.00000000000E+00 -0.00000000000E+00 -0.26099611970E+03  0.26099611970E+03  0.00000000000E+00 0.  1.
         25    1    1    2    0    0 -0.20238756550E+02 -0.42446090173E+02 -0.45051049063E+01  0.13362849175E+03  0.12500000000E+03 0.  0.
         25    1    1    2    0    0  0.27802880145E+02 -0.30605237983E+02  0.29930280519E+02  0.13502037783E+03  0.12500000000E+03 0.  0.
         25    1    1    2    0    0 -0.75641235941E+01  0.73051328156E+02 -0.10168505439E+03  0.17708349104E+03  0.12500000000E+03 0.  0.
</event>
<event>
 5    0  0.5626800E-005  0.3104637E+03  0.7546771E-02  0.1080124E+00
         21   -1    0    0  502  501  0.00000000000E+00  0.00000000000E+00  0.14149720560E+03  0.14149720560E+03  0.00000000000E+00 0.  1.
         21   -1    0    0  501  502 -0.00000000000E+00 -0.00000000000E+00 -0.68119885387E+03  0.68119885387E+03  0.00000000000E+00 0.  1.
         25    1    1    2    0    0  0.15629596997E+03  0.23274595012E+02 -0.28585652019E+03  0.34972716100E+03  0.12500000000E+03 0.  0.
         25    1    1    2    0    0 -0.21246676137E+03  0.26244753859E+02 -0.12129153230E+03  0.27598468726E+03  0.12500000000E+03 0.  0.
         25    1    1    2    0    0  0.56170791404E+02 -0.49519348871E+02 -0.13255359577E+03  0.19698421122E+03  0.12500000000E+03 0.  0.
</event>
<event>
 5    0  0.5626800E-005  0.4411103E+03  0.7546771E-02  0.1030407E+00
         21   -1    0    0  502  501  0.00000000000E+00  0.00000000000E+00  0.23547296310E+03  0.23547296310E+03  0.00000000000E+00 0.  1.
         21   -1    0    0  501  502 -0.00000000000E+00 -0.00000000000E+00 -0.82632960018E+03  0.82632960018E+03  0.00000000000E+00 0.  1.
         25    1    1    2    0    0  0.47978379147E+02  0.13749158498E+02 -0.87369416694E+02  0.16046613100E+03  0.12500000000E+03 0.  0.
         25    1    1    2    0    0  0.51547058031E+02 -0.28011252111E+03 -0.15239194893E+01  0.31104251479E+03  0.12500000000E+03 0.  0.
         25    1    1    2    0    0 -0.99525437178E+02  0.26636336261E+03 -0.50196330089E+03  0.59029391749E+03  0.12500000000E+03 0.  0.
</event>
<event>
 5    0  0.5626800E-005  0.3172366E+03  0.7546771E-02  0.1076928E+00
         21   -1    0    0  502  501  0.00000000000E+00  0.00000000000E+00  0.28557402423E+03  0.28557402423E+03  0.00000000000E+00 0.  1.
         21   -1    0    0  501  502 -0.00000000000E+00 -0.00000000000E+00 -0.35240978501E+03  0.35240978501E+03  0.00000000000E+00 0.  1.
         25    1    1    2    0    0  0.38181044644E+02 -0.13370741651E+03 -0.10177097633E+03  0.21287977129E+03  0.12500000000E+03 0.  0.
         25    1    1    2    0    0 -0.39056423430E+02 -0.84825247671E+02 -0.42482600679E+02  0.16171115674E+03  0.12500000000E+03 0.  0.
         25    1    1    2    0    0  0.87537878597E+00  0.21853266418E+03  0.77417816230E+02  0.26339288121E+03  0.12500000000E+03 0.  0.
</event>
<event>
 5    0  0.5626800E-005  0.2261416E+03  0.7546771E-02  0.1129385E+00
         21   -1    0    0  502  501  0.00000000000E+00  0.00000000000E+00  0.17779115636E+04  0.17779115636E+04  0.00000000000E+00 0.  1.
         21   -1    0    0  501  502 -0.00000000000E+00 -0.00000000000E+00 -0.28764106039E+02  0.28764106039E+02  0.00000000000E+00 0.  1.
         25    1    1    2    0    0  0.36586905775E+00  0.13828351784E+02  0.48147893265E+03  0.49763271573E+03  0.12500000000E+03 0.  0.
         25    1    1    2    0    0  0.30269019069E+02  0.89542667207E+02  0.72875705178E+03  0.74541662397E+03  0.12500000000E+03 0.  0.
         25    1    1    2    0    0 -0.30634888127E+02 -0.10337101899E+03  0.53891147311E+03  0.56362632993E+03  0.12500000000E+03 0.  0.
</event>
<event>
 5    0  0.5626800E-005  0.4520878E+03  0.7546771E-02  0.1027101E+00
         21   -1    0    0  502  501  0.00000000000E+00  0.00000000000E+00  0.54640809535E+03  0.54640809535E+03  0.00000000000E+00 0. -1.
         21   -1    0    0  501  502 -0.00000000000E+00 -0.00000000000E+00 -0.37404897717E+03  0.37404897717E+03  0.00000000000E+00 0. -1.
         25    1    1    2    0    0 -0.24650338153E+03  0.14706785297E+03  0.18424891274E+03  0.36327060482E+03  0.12500000000E+03 0.  0.
         25    1    1    2    0    0  0.13248263191E+03 -0.19066467925E+03 -0.17636675636E+03  0.31723004338E+03  0.12500000000E+03 0.  0.
         25    1    1    2    0    0  0.11402074962E+03  0.43596826289E+02  0.16447696181E+03  0.23995642432E+03  0.12500000000E+03 0.  0.
</event>
<event>
 5    0  0.5652908E-005  0.3986159E+03  0.7546771E-02  0.1044260E+00
         21   -1    0    0  502  501  0.00000000000E+00  0.00000000000E+00  0.82765046079E+03  0.82765046079E+03  0.00000000000E+00 0. -1.
         21   -1    0    0  501  502 -0.00000000000E+00 -0.00000000000E+00 -0.19198278962E+03  0.19198278962E+03  0.00000000000E+00 0. -1.
         25    1    1    2    0    0 -0.91013806653E+02 -0.18548212303E+03  0.33405535280E+03  0.41219547511E+03  0.12500000000E+03 0.  0.
         25    1    1    2    0    0  0.81254550044E+02  0.38304429159E+02  0.37128109842E+03  0.40192559665E+03  0.12500000000E+03 0.  0.
         25    1    1    2    0    0  0.97592566087E+01  0.14717769387E+03 -0.69668780052E+02  0.20551217866E+03  0.12500000000E+03 0.  0.
</event>
<event>
 5    0  0.5626800E-005  0.4087902E+03  0.7546771E-02  0.1040778E+00
         21   -1    0    0  502  501  0.00000000000E+00  0.00000000000E+00  0.80773644404E+02  0.80773644404E+02  0.00000000000E+00 0.  1.
         21   -1    0    0  501  502 -0.00000000000E+00 -0.00000000000E+00 -0.20688604674E+04  0.20688604674E+04  0.00000000000E+00 0.  1.
         25    1    1    2    0    0 -0.16991613054E+03  0.18611008960E+03 -0.57270948579E+03  0.63806709050E+03  0.12500000000E+03 0.  0.
         25    1    1    2    0    0  0.20005208320E+03 -0.18794639907E+03 -0.13129997219E+04  0.13471963311E+04  0.12500000000E+03 0.  0.
         25    1    1    2    0    0 -0.30135952657E+02  0.18363094669E+01 -0.10237761536E+03  0.16437069021E+03  0.12500000000E+03 0.  0.
</event>
<event>
 5    0  0.5626800E-005  0.2311193E+03  0.7546771E-02  0.1125854E+00
         21   -1    0    0  502  501  0.00000000000E+00  0.00000000000E+00  0.36972363085E+03  0.36972363085E+03  0.00000000000E+00 0. -1.
         21   -1    0    0  501  502 -0.00000000000E+00 -0.00000000000E+00 -0.14447583204E+03  0.14447583204E+03  0.00000000000E+00 0. -1.
         25    1    1    2    0    0  0.61769378909E+00  0.10168749234E+03  0.13237751033E+03  0.20854144165E+03  0.12500000000E+03 0.  0.
         25    1    1    2    0    0 -0.18891859363E+02 -0.48231319348E+02  0.10007621455E+03  0.16829560670E+03  0.12500000000E+03 0.  0.
         25    1    1    2    0    0  0.18274165573E+02 -0.53456172991E+02 -0.72059260638E+01  0.13736241454E+03  0.12500000000E+03 0.  0.
</event>
<event>
 5    0  0.5626800E-005  0.2576647E+03  0.7546771E-02  0.1108555E+00
         21   -1    0    0  502  501  0.00000000000E+00  0.00000000000E+00  0.49054302303E+03  0.49054302303E+03  0.00000000000E+00 0. -1.
         21   -1    0    0  501  502 -0.00000000000E+00 -0.00000000000E+00 -0.13534200189E+03  0.13534200189E+03  0.00000000000E+00 0. -1.
         25    1    1    2    0    0 -0.23773800309E+02  0.11076136751E+03  0.23957845248E+03  0.29301213116E+03  0.12500000000E+03 0.  0.
         25    1    1    2    0    0  0.98408933701E+01 -0.10445452033E+03  0.19218018369E+01  0.16320626006E+03  0.12500000000E+03 0.  0.
         25    1    1    2    0    0  0.13932906939E+02 -0.63068471816E+01  0.11370076682E+03  0.16966663370E+03  0.12500000000E+03 0.  0.
</event>
<event>
 5    0  0.5626800E-005  0.2222819E+03  0.7546771E-02  0.1132193E+00
         21   -1    0    0  502  501  0.00000000000E+00  0.00000000000E+00  0.71463550274E+02  0.71463550274E+02  0.00000000000E+00 0.  1.
         21   -1    0    0  501  502 -0.00000000000E+00 -0.00000000000E+00 -0.69139087495E+03  0.69139087495E+03  0.00000000000E+00 0.  1.
         25    1    1    2    0    0  0.10325616121E+02 -0.26034629197E+02 -0.26607839337E+03  0.29530853643E+03  0.12500000000E+03 0.  0.
         25    1    1    2    0    0  0.29322400250E+02 -0.53759140140E+02 -0.10186123235E+03  0.17248350345E+03  0.12500000000E+03 0.  0.
         25    1    1    2    0    0 -0.39648016371E+02  0.79793769337E+02 -0.25198769895E+03  0.29506238535E+03  0.12500000000E+03 0.  0.
</event>
<event>
 5    0  0.5626800E-005  0.2246797E+03  0.7546771E-02  0.1130441E+00
         21   -1    0    0  502  501  0.00000000000E+00  0.00000000000E+00  0.51132680398E+03  0.51132680398E+03  0.00000000000E+00 0.  1.
         21   -1    0    0  501  502 -0.00000000000E+00 -0.00000000000E+00 -0.98725426675E+02  0.98725426675E+02  0.00000000000E+00 0.  1.
         25    1    1    2    0    0 -0.61102968590E+02 -0.65222192212E+02  0.10860344357E+03  0.18816805011E+03  0.12500000000E+03 0.  0.
         25    1    1    2    0    0 -0.14214634229E+02 -0.96854258541E+01  0.10625281617E+03  0.16495612824E+03  0.12500000000E+03 0.  0.
         25    1    1    2    0    0  0.75317602818E+02  0.74907618066E+02  0.19774511757E+03  0.25692805231E+03  0.12500000000E+03 0.  0.
</event>
<event>
 5    0  0.5626800E-005  0.2738901E+03  0.7546771E-02  0.1099074E+00
         21   -1    0    0  502  501  0.00000000000E+00  0.00000000000E+00  0.37503693282E+03  0.37503693282E+03  0.00000000000E+00 0.  1.
         21   -1    0    0  501  502 -0.00000000000E+00 -0.00000000000E+00 -0.20002236178E+03  0.20002236178E+03  0.00000000000E+00 0.  1.
         25    1    1    2    0    0 -0.81789603861E+02 -0.16113230781E+03  0.98526647621E+02  0.24080211837E+03  0.12500000000E+03 0.  0.
         25    1    1    2    0    0  0.21625206182E+02  0.89969411786E+02  0.86616046223E+02  0.17801540400E+03  0.12500000000E+03 0.  0.
         25    1    1    2    0    0  0.60164397679E+02  0.71162896021E+02 -0.10128122809E+02  0.15624177223E+03  0.12500000000E+03 0.  0.
</event>
<event>
 5    0  0.5626800E-005  0.3446234E+03  0.7546771E-02  0.1064844E+00
         21   -1    0    0  502  501  0.00000000000E+00  0.00000000000E+00  0.63221651623E+03  0.63221651623E+03  0.00000000000E+00 0. -1.
         21   -1    0    0  501  502 -0.00000000000E+00 -0.00000000000E+00 -0.18785535373E+03  0.18785535373E+03  0.00000000000E+00 0. -1.
         25    1    1    2    0    0  0.17940146968E+03 -0.72164576054E+02  0.27339744712E+02  0.23187297170E+03  0.12500000000E+03 0.  0.
         25    1    1    2    0    0 -0.44617386700E+02  0.10515542193E+03  0.50276259879E+02  0.17663826387E+03  0.12500000000E+03 0.  0.
         25    1    1    2    0    0 -0.13478408298E+03 -0.32990845874E+02  0.36674515791E+03  0.41156063440E+03  0.12500000000E+03 0.  0.
</event>
<event>
 5    0  0.5626800E-005  0.2304325E+03  0.7546771E-02  0.1126336E+00
         21   -1    0    0  502  501  0.00000000000E+00  0.00000000000E+00  0.54314896196E+03  0.54314896196E+03  0.00000000000E+00 0. -1.
         21   -1    0    0  501  502 -0.00000000000E+00 -0.00000000000E+00 -0.97761674803E+02  0.97761674803E+02  0.00000000000E+00 0. -1.
         25    1    1    2    0    0 -0.44978109157E+02 -0.87713721519E+02  0.12429967033E+03  0.20197062977E+03  0.12500000000E+03 0.  0.
         25    1    1    2    0    0 -0.40324205658E+02  0.62231520013E+02  0.16862925266E+03  0.22261991936E+03  0.12500000000E+03 0.  0.
         25    1    1    2    0    0  0.85302314815E+02  0.25482201506E+02  0.15245836416E+03  0.21632008762E+03  0.12500000000E+03 0.  0.
</event>
<event>
 5    0  0.5626800E-005  0.2574013E+03  0.7546771E-02  0.1108715E+00
         21   -1    0    0  502  501  0.00000000000E+00  0.00000000000E+00  0.63259701744E+02  0.63259701744E+02  0.00000000000E+00 0. -1.
         21   -1    0    0  501  502 -0.00000000000E+00 -0.00000000000E+00 -0.10473560818E+04  0.10473560818E+04  0.00000000000E+00 0. -1.
         25    1    1    2    0    0 -0.11593981158E+03 -0.67885670442E+02 -0.42490095853E+03  0.46283509884E+03  0.12500000000E+03 0.  0.
         25    1    1    2    0    0 -0.13185394047E+02  0.73805871724E+02 -0.28050048385E+03  0.31611182003E+03  0.12500000000E+03 0.  0.
         25    1    1    2    0    0  0.12912520562E+03 -0.59202012821E+01 -0.27869493765E+03  0.33166886466E+03  0.12500000000E+03 0.  0.
</event>
<event>
 5    0  0.5626800E-005  0.3878559E+03  0.7546771E-02  0.1048068E+00
         21   -1    0    0  502  501  0.00000000000E+00  0.00000000000E+00  0.26334077486E+03  0.26334077486E+03  0.00000000000E+00 0.  1.
         21   -1    0    0  501  502 -0.00000000000E+00 -0.00000000000E+00 -0.57124540930E+03  0.57124540930E+03  0.00000000000E+00 0.  1.
         25    1    1    2    0    0  0.89783875090E+02 -0.14198706289E+03 -0.16017766905E+03  0.26363489131E+03  0.12500000000E+03 0.  0.
         25    1    1    2    0    0  0.10374522882E+03 -0.11914844279E+03 -0.76572423915E+02  0.21551742395E+03  0.12500000000E+03 0.  0.
         25    1    1    2    0    0 -0.19352910391E+03  0.26113550568E+03 -0.71154541466E+02  0.35543386890E+03  0.12500000000E+03 0.  0.
</event>
<event>
 5    0  0.5626800E-005  0.3827952E+03  0.7546771E-02  0.1049905E+00
         21   -1    0    0  502  501  0.00000000000E+00  0.00000000000E+00  0.48301563320E+03  0.48301563320E+03  0.00000000000E+00 0. -1.
         21   -1    0    0  501  502 -0.00000000000E+00 -0.00000000000E+00 -0.30336939080E+03  0.30336939080E+03  0.00000000000E+00 0. -1.
         25    1    1    2    0    0 -0.58717799611E+02  0.19163895289E+02  0.35309830132E+02  0.14382913119E+03  0.12500000000E+03 0.  0.
         25    1    1    2    0    0  0.16259593494E+03  0.96241697600E+02 -0.16098695824E+03  0.27792391610E+03  0.12500000000E+03 0.  0.
         25    1    1    2    0    0 -0.10387813533E+03 -0.11540559289E+03  0.30532337050E+03  0.36463197672E+03  0.12500000000E+03 0.  0.
</event>
<event>
 5    0  0.5626800E-005  0.3154335E+03  0.7546771E-02  0.1077770E+00
         21   -1    0    0  502  501  0.00000000000E+00  0.00000000000E+00  0.72898019768E+03  0.72898019768E+03  0.00000000000E+00 0.  1.
         21   -1    0    0  501  502 -0.00000000000E+00 -0.00000000000E+00 -0.13648972168E+03  0.13648972168E+03  0.00000000000E+00 0.  1.
         25    1    1    2    0    0  0.12756598794E+03 -0.10629710453E+03  0.22878244441E+03  0.30909312930E+03  0.12500000000E+03 0.  0.
         25    1    1    2    0    0 -0.55446128821E+02 -0.56072565544E+01 -0.13263735745E+02  0.13750142259E+03  0.12500000000E+03 0.  0.
         25    1    1    2    0    0 -0.72119859119E+02  0.11190436109E+03  0.37697176734E+03  0.41887536748E+03  0.12500000000E+03 0.  0.
</event>
<event>
 5    0  0.5828425E-005  0.3353490E+03  0.7546771E-02  0.1068794E+00
         21   -1    0    0  502  501  0.00000000000E+00  0.00000000000E+00  0.47090529875E+03  0.47090529875E+03  0.00000000000E+00 0. -1.
         21   -1    0    0  501  502 -0.00000000000E+00 -0.00000000000E+00 -0.23881429857E+03  0.23881429857E+03  0.00000000000E+00 0. -1.
         25    1    1    2    0    0 -0.74030051809E+02 -0.10681626372E+03  0.12188239319E+03  0.21764760632E+03  0.12500000000E+03 0.  0.
         25    1    1    2    0    0 -0.10761864242E+03  0.89981398084E+01 -0.81260057257E+02  0.18409490927E+03  0.12500000000E+03 0.  0.
         25    1    1    2    0    0  0.18164869422E+03  0.97818123916E+02  0.19146866425E+03  0.30797708173E+03  0.12500000000E+03 0.  0.
</event>
<event>
 5    0  0.5626800E-005  0.6529277E+03  0.7546771E-02  0.9801301E-01
         21   -1    0    0  502  501  0.00000000000E+00  0.00000000000E+00  0.38040162035E+03  0.38040162035E+03  0.00000000000E+00 0. -1.
         21   -1    0    0  501  502 -0.00000000000E+00 -0.00000000000E+00 -0.11206960027E+04  0.11206960027E+04  0.00000000000E+00 0. -1.
         25    1    1    2    0    0  0.70704837218E+02  0.14726902267E+03 -0.41345848285E+02  0.20981377031E+03  0.12500000000E+03 0.  0.
         25    1    1    2    0    0  0.39113935336E+03 -0.34363515692E+03 -0.19691464818E+03  0.57050459550E+03  0.12500000000E+03 0.  0.
         25    1    1    2    0    0 -0.46184419058E+03  0.19636613425E+03 -0.50203388586E+03  0.72077925719E+03  0.12500000000E+03 0.  0.
</event>
<event>
 5    0  0.5626800E-005  0.2589692E+03  0.7546771E-02  0.1107764E+00
         21   -1    0    0  502  501  0.00000000000E+00  0.00000000000E+00  0.13789143933E+04  0.13789143933E+04  0.00000000000E+00 0. -1.
         21   -1    0    0  501  502 -0.00000000000E+00 -0.00000000000E+00 -0.48636112371E+02  0.48636112371E+02  0.00000000000E+00 0. -1.
         25    1    1    2    0    0  0.80579365205E+02 -0.77958411937E+02  0.24187480987E+03  0.29444689120E+03  0.12500000000E+03 0.  0.
         25    1    1    2    0    0 -0.73446882293E+02  0.11157895910E+03  0.70622883354E+03  0.72953990566E+03  0.12500000000E+03 0.  0.
         25    1    1    2    0    0 -0.71324829122E+01 -0.33620547160E+02  0.38217463756E+03  0.40356370885E+03  0.12500000000E+03 0.  0.
</event>
<event>
 5    0  0.5626800E-005  0.3541875E+03  0.7546771E-02  0.1060909E+00
         21   -1    0    0  502  501  0.00000000000E+00  0.00000000000E+00  0.26579859293E+03  0.26579859293E+03  0.00000000000E+00 0. -1.
         21   -1    0    0  501  502 -0.00000000000E+00 -0.00000000000E+00 -0.47196936478E+03  0.47196936478E+03  0.00000000000E+00 0. -1.
         25    1    1    2    0    0 -0.30272400101E+02 -0.35298588196E+02 -0.66308794991E+02  0.14894383112E+03  0.12500000000E+03 0.  0.
         25    1    1    2    0    0 -0.23129045675E+03  0.86429061362E+02 -0.83832892127E+02  0.28916813765E+03  0.12500000000E+03 0.  0.
         25    1    1    2    0    0  0.26156285685E+03 -0.51130473166E+02 -0.56029084740E+02  0.29965598894E+03  0.12500000000E+03 0.  0.
</event>
<event>
 5    0  0.5626800E-005  0.3237537E+03  0.7546771E-02  0.1073935E+00
         21   -1    0    0  502  501  0.00000000000E+00  0.00000000000E+00  0.50256601472E+03  0.50256601472E+03  0.00000000000E+00 0.  1.
         21   -1    0    0  501  502 -0.00000000000E+00 -0.00000000000E+00 -0.20856255111E+03  0.20856255111E+03  0.00000000000E+00 0.  1.
         25    1    1    2    0    0  0.19196252663E+03 -0.12158830303E+03  0.17950625300E+03  0.31540580516E+03  0.12500000000E+03 0.  0.
         25    1    1    2    0    0 -0.10587230115E+01  0.20796255531E+02  0.60797679349E+02  0.14055234951E+03  0.12500000000E+03 0.  0.
         25    1    1    2    0    0 -0.19090380362E+03  0.10079204750E+03  0.53699531266E+02  0.25517041116E+03  0.12500000000E+03 0.  0.
</event>
<event>
 5    0  0.5626800E-005  0.4595299E+03  0.7546771E-02  0.1024918E+00
         21   -1    0    0  502  501  0.00000000000E+00  0.00000000000E+00  0.77678003148E+03  0.77678003148E+03  0.00000000000E+00 0.  1.
         21   -1    0    0  501  502 -0.00000000000E+00 -0.00000000000E+00 -0.27185006277E+03  0.27185006277E+03  0.00000000000E+00 0.  1.
         25    1    1    2    0    0 -0.32876138361E+02  0.10645255229E+03  0.59948956898E+03  0.62243532168E+03  0.12500000000E+03 0.  0.
         25    1    1    2    0    0 -0.19317849529E+00 -0.11002353525E+03 -0.19933093517E+03  0.25973647673E+03  0.12500000000E+03 0.  0.
         25    1    1    2    0    0  0.33069316857E+02  0.35709829603E+01  0.10477133490E+03  0.16645829584E+03  0.12500000000E+03 0.  0.
</event>
<event>
 5    0  0.5626800E-005  0.2340872E+03  0.7546771E-02  0.1123796E+00
         21   -1    0    0  502  501  0.00000000000E+00  0.00000000000E+00  0.15620259526E+03  0.15620259526E+03  0.00000000000E+00 0. -1.
         21   -1    0    0  501  502 -0.00000000000E+00 -0.00000000000E+00 -0.35080619290E+03  0.35080619290E+03  0.00000000000E+00 0. -1.
         25    1    1    2    0    0  0.11192279679E+03  0.28477633722E+02 -0.10004083169E+03  0.19741037477E+03  0.12500000000E+03 0.  0.
         25    1    1    2    0    0 -0.78122166447E+02  0.92819654923E+01 -0.51781129523E+01  0.14778714635E+03  0.12500000000E+03 0.  0.
         25    1    1    2    0    0 -0.33800630344E+02 -0.37759599214E+02 -0.89384653004E+02  0.16181126703E+03  0.12500000000E+03 0.  0.
</event>
<event>
 5    0  0.5626800E-005  0.2334097E+03  0.7546771E-02  0.1124263E+00
         21   -1    0    0  502  501  0.00000000000E+00  0.00000000000E+00  0.79088078530E+02  0.79088078530E+02  0.00000000000E+00 0. -1.
         21   -1    0    0  501  502 -0.00000000000E+00 -0.00000000000E+00 -0.68885351137E+03  0.68885351137E+03  0.00000000000E+00 0. -1.
         25    1    1    2    0    0 -0.13719489402E+02 -0.25670333085E+02 -0.36681048456E+03  0.38861564813E+03  0.12500000000E+03 0.  0.
         25    1    1    2    0    0  0.34992628175E+02  0.80216545091E+02 -0.14052371525E+03  0.20743937109E+03  0.12500000000E+03 0.  0.
         25    1    1    2    0    0 -0.21273138773E+02 -0.54546212007E+02 -0.10243123303E+03  0.17188657067E+03  0.12500000000E+03 0.  0.
</event>
<event>
 5    0  0.5626800E-005  0.2496470E+03  0.7546771E-02  0.1113528E+00
         21   -1    0    0  502  501  0.00000000000E+00  0.00000000000E+00  0.50520199154E+03  0.50520199154E+03  0.00000000000E+00 0.  1.
         21   -1    0    0  501  502 -0.00000000000E+00 -0.00000000000E+00 -0.12336379214E+03  0.12336379214E+03  0.00000000000E+00 0.  1.
         25    1    1    2    0    0  0.12275842632E+03 -0.49953828794E+02  0.10612857069E+03  0.21083948814E+03  0.12500000000E+03 0.  0.
         25    1    1    2    0    0 -0.15646306834E+02  0.64085733526E+02  0.17212827467E+03  0.22272164488E+03  0.12500000000E+03 0.  0.
         25    1    1    2    0    0 -0.10711211949E+03 -0.14131904732E+02  0.10358135405E+03  0.19500465066E+03  0.12500000000E+03 0.  0.
</event>
<event>
 5    0  0.5626800E-005  0.2335091E+03  0.7546771E-02  0.1124194E+00
         21   -1    0    0  502  501  0.00000000000E+00  0.00000000000E+00  0.79322135597E+02  0.79322135597E+02  0.00000000000E+00 0. -1.
         21   -1    0    0  501  502 -0.00000000000E+00 -0.00000000000E+00 -0.68740558088E+03  0.68740558088E+03  0.00000000000E+00 0. -1.
         25    1    1    2    0    0  0.66155349265E+02  0.55974638328E+02 -0.20532654381E+03  0.25552628038E+03  0.12500000000E+03 0.  0.
         25    1    1    2    0    0 -0.66993284009E+02 -0.55676576254E+02 -0.96325244489E+02  0.18025408171E+03  0.12500000000E+03 0.  0.
         25    1    1    2    0    0  0.83793474462E+00 -0.29806207350E+00 -0.30643165698E+03  0.33094735439E+03  0.12500000000E+03 0.  0.
</event>
<event>
 5    0  0.5626800E-005  0.2094161E+03  0.7546771E-02  0.1142029E+00
         21   -1    0    0  502  501  0.00000000000E+00  0.00000000000E+00  0.66616059075E+02  0.66616059075E+02  0.00000000000E+00 0.  1.
         21   -1    0    0  501  502 -0.00000000000E+00 -0.00000000000E+00 -0.65832655972E+03  0.65832655972E+03  0.00000000000E+00 0.  1.
         25    1    1    2    0    0 -0.38715638137E+02 -0.26653118707E+02 -0.14822438573E+03  0.19951129767E+03  0.12500000000E+03 0.  0.
         25    1    1    2    0    0  0.49516156057E+02  0.58390324145E+02 -0.18214575331E+03  0.23380195704E+03  0.12500000000E+03 0.  0.
         25    1    1    2    0    0 -0.10800517920E+02 -0.31737205437E+02 -0.26134036160E+03  0.29162936409E+03  0.12500000000E+03 0.  0.
</event>
<event>
 5    0  0.5626800E-005  0.3271745E+03  0.7546771E-02  0.1072394E+00
         21   -1    0    0  502  501  0.00000000000E+00  0.00000000000E+00  0.39373632714E+02  0.39373632714E+02  0.00000000000E+00 0. -1.
         21   -1    0    0  501  502 -0.00000000000E+00 -0.00000000000E+00 -0.27186506147E+04  0.27186506147E+04  0.00000000000E+00 0. -1.
         25    1    1    2    0    0 -0.57153874622E+02  0.22428998933E+03 -0.13214031692E+04  0.13473321418E+04  0.12500000000E+03 0.  0.
         25    1    1    2    0    0  0.86385412241E+01 -0.91830885397E+02 -0.31847673587E+03  0.35434441889E+03  0.12500000000E+03 0.  0.
         25    1    1    2    0    0  0.48515333398E+02 -0.13245910393E+03 -0.10393970769E+04  0.10563476867E+04  0.12500000000E+03 0.  0.
</event>
<event>
 5    0  0.6731757E-005  0.2744383E+03  0.7546771E-02  0.1098766E+00
         21   -1    0    0  502  501  0.00000000000E+00  0.00000000000E+00  0.36484344883E+03  0.36484344883E+03  0.00000000000E+00 0. -1.
         21   -1    0    0  501  502 -0.00000000000E+00 -0.00000000000E+00 -0.20643474408E+03  0.20643474408E+03  0.00000000000E+00 0. -1.
         25    1    1    2    0    0 -0.11771362496E+02  0.93533535470E+02  0.13378721649E+03  0.20593957009E+03  0.12500000000E+03 0.  0.
         25    1    1    2    0    0  0.10001026342E+02 -0.16473462637E+03  0.63063052981E+02  0.21642427384E+03  0.12500000000E+03 0.  0.
         25    1    1    2    0    0  0.17703361546E+01  0.71201090903E+02 -0.38441564723E+02  0.14891434899E+03  0.12500000000E+03 0.  0.
</event>
<event>
 5    0  0.5626800E-005  0.2644447E+03  0.7546771E-02  0.1104502E+00
         21   -1    0    0  502  501  0.00000000000E+00  0.00000000000E+00  0.45369093342E+03  0.45369093342E+03  0.00000000000E+00 0.  1.
         21   -1    0    0  501  502 -0.00000000000E+00 -0.00000000000E+00 -0.15413799769E+03  0.15413799769E+03  0.00000000000E+00 0.  1.
         25    1    1    2    0    0 -0.46491190881E+02  0.99830010814E+02  0.19947922654E+03  0.25989310055E+03  0.12500000000E+03 0.  0.
         25    1    1    2    0    0 -0.59041161903E+02  0.41295603628E+01  0.27795202320E+02  0.14106908003E+03  0.12500000000E+03 0.  0.
         25    1    1    2    0    0  0.10553235278E+03 -0.10395957118E+03  0.72278506869E+02  0.20686675054E+03  0.12500000000E+03 0.  0.
</event>
<event>
 5    0  0.5626800E-005  0.2442156E+03  0.7546771E-02  0.1117016E+00
         21   -1    0    0  502  501  0.00000000000E+00  0.00000000000E+00  0.66424475889E+02  0.66424475889E+02  0.00000000000E+00 0. -1.
         21   -1    0    0  501  502 -0.00000000000E+00 -0.00000000000E+00 -0.89788087242E+03  0.89788087242E+03  0.00000000000E+00 0. -1.
         25    1    1    2    0    0  0.86551334978E+02 -0.42321520343E+02 -0.23425295915E+03  0.28245653390E+03  0.12500000000E+03 0.  0.
         25    1    1    2    0    0 -0.13488234106E+03  0.56698979625E+01 -0.40351769721E+03  0.44348272303E+03  0.12500000000E+03 0.  0.
         25    1    1    2    0    0  0.48331006077E+02  0.36651622380E+02 -0.19368574017E+03  0.23836609138E+03  0.12500000000E+03 0.  0.
</event>
<event>
 5    0  0.5626800E-005  0.3566973E+03  0.7546771E-02  0.1059899E+00
         21   -1    0    0  502  501  0.00000000000E+00  0.00000000000E+00  0.28943867823E+04  0.28943867823E+04  0.00000000000E+00 0.  1.
         21   -1    0    0  501  502 -0.00000000000E+00 -0.00000000000E+00 -0.43958530309E+02  0.43958530309E+02  0.00000000000E+00 0.  1.
         25    1    1    2    0    0  0.19954059231E+03  0.31041151152E+02  0.59043786090E+03  0.63641328445E+03  0.12500000000E+03 0.  0.
         25    1    1    2    0    0 -0.12785665106E+03 -0.13029952738E+03  0.75338474905E+03  0.78519989185E+03  0.12500000000E+03 0.  0.
         25    1    1    2    0    0 -0.71683941250E+02  0.99258376225E+02  0.15066056420E+04  0.15167321363E+04  0.12500000000E+03 0.  0.
</event>
<event>
 5    0  0.5626800E-005  0.3668491E+03  0.7546771E-02  0.1055904E+00
         21   -1    0    0  502  501  0.00000000000E+00  0.00000000000E+00  0.26594273222E+03  0.26594273222E+03  0.00000000000E+00 0.  1.
         21   -1    0    0  501  502 -0.00000000000E+00 -0.00000000000E+00 -0.50604218723E+03  0.50604218723E+03  0.00000000000E+00 0.  1.
         25    1    1    2    0    0  0.11991927837E+03  0.25531746490E+01 -0.80300760749E+02  0.19094597194E+03  0.12500000000E+03 0.  0.
         25    1    1    2    0    0  0.92174581607E+02 -0.15340202470E+03  0.50229929087E+02  0.22400084922E+03  0.12500000000E+03 0.  0.
         25    1    1    2    0    0 -0.21209385997E+03  0.15084885005E+03 -0.21002862335E+03  0.35703809829E+03  0.12500000000E+03 0.  0.
</event>
<event>
 5    0  0.5626800E-005  0.2189840E+03  0.7546771E-02  0.1134643E+00
         21   -1    0    0  502  501  0.00000000000E+00  0.00000000000E+00  0.27379556462E+03  0.27379556462E+03  0.00000000000E+00 0.  1.
         21   -1    0    0  501  502 -0.00000000000E+00 -0.00000000000E+00 -0.17514530657E+03  0.17514530657E+03  0.00000000000E+00 0.  1.
         25    1    1    2    0    0  0.28970797701E+02  0.40488231956E+02  0.44336721530E+02  0.14166632953E+03  0.12500000000E+03 0.  0.
         25    1    1    2    0    0 -0.38325785782E+02  0.26688203799E+02  0.89620681803E+02  0.16074200660E+03  0.12500000000E+03 0.  0.
         25    1    1    2    0    0  0.93549880808E+01 -0.67176435755E+02 -0.35307145289E+02  0.14653253506E+03  0.12500000000E+03 0.  0.
</event>
<event>
 5    0  0.5626800E-005  0.3234543E+03  0.7546771E-02  0.1074070E+00
         21   -1    0    0  502  501  0.00000000000E+00  0.00000000000E+00  0.21582190698E+03  0.21582190698E+03  0.00000000000E+00 0.  1.
         21   -1    0    0  501  502 -0.00000000000E+00 -0.00000000000E+00 -0.48476391834E+03  0.48476391834E+03  0.00000000000E+00 0.  1.
         25    1    1    2    0    0  0.53996826754E+02  0.24732690810E+02 -0.41774542485E+02  0.14455959219E+03  0.12500000000E+03 0.  0.
         25    1    1    2    0    0 -0.33546319419E+02 -0.16000143206E+03  0.59907027603E+02  0.21433540483E+03  0.12500000000E+03 0.  0.
         25    1    1    2    0    0 -0.20450507335E+02  0.13526874125E+03 -0.28707449648E+03  0.34169082829E+03  0.12500000000E+03 0.  0.
</event>
<event>
 5    0  0.5626800E-005  0.2648678E+03  0.7546771E-02  0.1104253E+00
         21   -1    0    0  502  501  0.00000000000E+00  0.00000000000E+00  0.43716694799E+03  0.43716694799E+03  0.00000000000E+00 0. -1.
         21   -1    0    0  501  502 -0.00000000000E+00 -0.00000000000E+00 -0.16047629081E+03  0.16047629081E+03  0.00000000000E+00 0. -1.
         25    1    1    2    0    0 -0.21742738480E+02 -0.92902536060E+02  0.21337776625E+03  0.26506357542E+03  0.12500000000E+03 0.  0.
         25    1    1    2    0    0  0.72439660768E+02 -0.11845162297E+02  0.71432231439E+02  0.16160252476E+03  0.12500000000E+03 0.  0.
         25    1    1    2    0    0 -0.50696922288E+02  0.10474769836E+03 -0.81193405154E+01  0.17097713862E+03  0.12500000000E+03 0.  0.
</event>
<event>
 5    0  0.6386412E-005  0.2941395E+03  0.7546771E-02  0.1088207E+00
         21   -1    0    0  502  501  0.00000000000E+00  0.00000000000E+00  0.64090611387E+03  0.64090611387E+03  0.00000000000E+00 0.  1.
         21   -1    0    0  501  502 -0.00000000000E+00 -0.00000000000E+00 -0.13499328456E+03  0.13499328456E+03  0.00000000000E+00 0.  1.
         25    1    1    2    0    0  0.30137464063E+02 -0.27395089259E+02  0.32377388683E+03  0.34944711682E+03  0.12500000000E+03 0.  0.
         25    1    1    2    0    0 -0.14500830590E+03  0.29404189523E+02  0.16745108471E+03  0.25604077979E+03  0.12500000000E+03 0.  0.
         25    1    1    2    0    0  0.11487084184E+03 -0.20091002637E+01  0.14687857772E+02  0.17041150183E+03  0.12500000000E+03 0.  0.
</event>
<event>
 5    0  0.5626800E-005  0.3954668E+03  0.7546771E-02  0.1045361E+00
         21   -1    0    0  502  501  0.00000000000E+00  0.00000000000E+00  0.21367516089E+04  0.21367516089E+04  0.00000000000E+00 0. -1.
         21   -1    0    0  501  502 -0.00000000000E+00 -0.00000000000E+00 -0.73192405439E+02  0.73192405439E+02  0.00000000000E+00 0. -1.
         25    1    1    2    0    0  0.15354566958E+03  0.91702176304E+02  0.41529626095E+03  0.46912849641E+03  0.12500000000E+03 0.  0.
         25    1    1    2    0    0 -0.15514776110E+03  0.13417815604E+03  0.11975293370E+04  0.12213828713E+04  0.12500000000E+03 0.  0.
         25    1    1    2    0    0  0.16020915190E+01 -0.22588033235E+03  0.45073360549E+03  0.51943264661E+03  0.12500000000E+03 0.  0.
</event>
<event>
 5    0  0.5626800E-005  0.4324088E+03  0.7546771E-02  0.1033102E+00
         21   -1    0    0  502  501  0.00000000000E+00  0.00000000000E+00  0.33951783196E+03  0.33951783196E+03  0.00000000000E+00 0.  1.
         21   -1    0    0  501  502 -0.00000000000E+00 -0.00000000000E+00 -0.55071452411E+03  0.55071452411E+03  0.00000000000E+00 0.  1.
         25    1    1    2    0    0  0.15111345770E+02  0.10181215344E+03 -0.30232447287E+03  0.34295649033E+03  0.12500000000E+03 0.  0.
         25    1    1    2    0    0  0.36750642035E+01  0.18419727227E+03  0.40207340605E+01  0.22267309562E+03  0.12500000000E+03 0.  0.
         25    1    1    2    0    0 -0.18786409974E+02 -0.28600942571E+03  0.87107046657E+02  0.32460277012E+03  0.12500000000E+03 0.  0.
</event>
<event>
 5    0  0.5626800E-005  0.3233856E+03  0.7546771E-02  0.1074102E+00
         21   -1    0    0  502  501  0.00000000000E+00  0.00000000000E+00  0.55440519890E+03  0.55440519890E+03  0.00000000000E+00 0.  1.
         21   -1    0    0  501  502 -0.00000000000E+00 -0.00000000000E+00 -0.18863144253E+03  0.18863144253E+03  0.00000000000E+00 0.  1.
         25    1    1    2    0    0 -0.21699322776E+02  0.48531570709E+02  0.66868990797E+02  0.15140223213E+03  0.12500000000E+03 0.  0.
         25    1    1    2    0    0 -0.50102300063E+02 -0.23680986783E+03  0.14106688835E+03  0.30678008566E+03  0.12500000000E+03 0.  0.
         25    1    1    2    0    0  0.71801622839E+02  0.18827829712E+03  0.15783787722E+03  0.28485432363E+03  0.12500000000E+03 0.  0.
</event>
<event>
 5    0  0.5626800E-005  0.2434924E+03  0.7546771E-02  0.1117488E+00
         21   -1    0    0  502  501  0.00000000000E+00  0.00000000000E+00  0.32503762460E+03  0.32503762460E+03  0.00000000000E+00 0.  1.
         21   -1    0    0  501  502 -0.00000000000E+00 -0.00000000000E+00 -0.18240513713E+03  0.18240513713E+03  0.00000000000E+00 0.  1.
         25    1    1    2    0    0  0.41319521008E+02  0.43880889851E+02  0.40247962737E+02  0.14449129322E+03  0.12500000000E+03 0.  0.
         25    1    1    2    0    0 -0.10688137283E+03  0.54953491976E+02  0.73041763201E+02  0.18815847924E+03  0.12500000000E+03 0.  0.
         25    1    1    2    0    0  0.65561851822E+02 -0.98834381827E+02  0.29342761536E+02  0.17479298928E+03  0.12500000000E+03 0.  0.
</event>
<event>
 5    0  0.5626800E-005  0.3614720E+03  0.7546771E-02  0.1058003E+00
         21   -1    0    0  502  501  0.00000000000E+00  0.00000000000E+00  0.52610317397E+03  0.52610317397E+03  0.00000000000E+00 0.  1.
         21   -1    0    0  501  502 -0.00000000000E+00 -0.00000000000E+00 -0.24835809724E+03  0.24835809724E+03  0.00000000000E+00 0.  1.
         25    1    1    2    0    0  0.21522083253E+03 -0.44394399271E+02  0.98865009178E+02  0.27145931460E+03  0.12500000000E+03 0.  0.
         25    1    1    2    0    0 -0.16954123985E+03  0.45265084650E+02 -0.65112222513E+02  0.22507279138E+03  0.12500000000E+03 0.  0.
         25    1    1    2    0    0 -0.45679592682E+02 -0.87068537880E+00  0.24399229007E+03  0.27792916524E+03  0.12500000000E+03 0.  0.
</event>
<event>
 5    0  0.5626800E-005  0.5103804E+03  0.7546771E-02  0.1011104E+00
         21   -1    0    0  502  501  0.00000000000E+00  0.00000000000E+00  0.64584466325E+03  0.64584466325E+03  0.00000000000E+00 0. -1.
         21   -1    0    0  501  502 -0.00000000000E+00 -0.00000000000E+00 -0.40332938785E+03  0.40332938785E+03  0.00000000000E+00 0. -1.
         25    1    1    2    0    0  0.18199680310E+02 -0.64353677222E+02  0.45912174578E+03  0.48051056345E+03  0.12500000000E+03 0.  0.
         25    1    1    2    0    0 -0.16642481524E+03  0.13534051847E+03 -0.25802006660E+03  0.35806930870E+03  0.12500000000E+03 0.  0.
         25    1    1    2    0    0  0.14822513493E+03 -0.70986841248E+02  0.41413596221E+02  0.21059417895E+03  0.12500000000E+03 0.  0.
</event>
<event>
 5    0  0.5626800E-005  0.4209274E+03  0.7546771E-02  0.1036765E+00
         21   -1    0    0  502  501  0.00000000000E+00  0.00000000000E+00  0.21111559021E+03  0.21111559021E+03  0.00000000000E+00 0. -1.
         21   -1    0    0  501  502 -0.00000000000E+00 -0.00000000000E+00 -0.83925515951E+03  0.83925515951E+03  0.00000000000E+00 0. -1.
         25    1    1    2    0    0  0.21317867039E+03 -0.93577809859E+02 -0.11298590844E+03  0.28738957447E+03  0.12500000000E+03 0.  0.
         25    1    1    2    0    0 -0.60701784503E+02  0.26585675323E+03 -0.29769204451E+03  0.42262284989E+03  0.12500000000E+03 0.  0.
         25    1    1    2    0    0 -0.15247688589E+03 -0.17227894337E+03 -0.21746161635E+03  0.34035832537E+03  0.12500000000E+03 0.  0.
</event>
<event>
 5    0  0.5626800E-005  0.3071872E+03  0.7546771E-02  0.1081702E+00
         21   -1    0    0  502  501  0.00000000000E+00  0.00000000000E+00  0.33231848832E+03  0.33231848832E+03  0.00000000000E+00 0.  1.
         21   -1    0    0  501  502 -0.00000000000E+00 -0.00000000000E+00 -0.28395652113E+03  0.28395652113E+03  0.00000000000E+00 0.  1.
         25    1    1    2    0    0 -0.38130819320E+02 -0.20493863987E+03 -0.72891289004E+02  0.25375568074E+03  0.12500000000E+03 0.  0.
         25    1    1    2    0    0  0.50426090161E+02  0.10610770609E+03  0.10673524053E+03  0.20203724269E+03  0.12500000000E+03 0.  0.
         25    1    1    2    0    0 -0.12295270841E+02  0.98830933780E+02  0.14518015664E+02  0.16048208603E+03  0.12500000000E+03 0.  0.
</event>
<event>
 5    0  0.5626800E-005  0.3025318E+03  0.7546771E-02  0.1083982E+00
         21   -1    0    0  502  501  0.00000000000E+00  0.00000000000E+00  0.30233807924E+03  0.30233807924E+03  0.00000000000E+00 0.  1.
         21   -1    0    0  501  502 -0.00000000000E+00 -0.00000000000E+00 -0.30272557596E+03  0.30272557596E+03  0.00000000000E+00 0.  1.
         25    1    1    2    0    0  0.87025606074E+01  0.13545878596E+01  0.92182597324E+02  0.15556413699E+03  0.12500000000E+03 0.  0.
         25    1    1    2    0    0  0.92829889881E+02 -0.40627296642E+02  0.10459089255E+03  0.19191722302E+03  0.12500000000E+03 0.  0.
         25    1    1    2    0    0 -0.10153245049E+03  0.39272708782E+02 -0.19716098660E+03  0.25758229518E+03  0.12500000000E+03 0.  0.
</event>
<event>
 5    0  0.5626800E-005  0.2774199E+03  0.7546771E-02  0.1097107E+00
         21   -1    0    0  502  501  0.00000000000E+00  0.00000000000E+00  0.56576940866E+03  0.56576940866E+03  0.00000000000E+00 0.  1.
         21   -1    0    0  501  502 -0.00000000000E+00 -0.00000000000E+00 -0.13603030125E+03  0.13603030125E+03  0.00000000000E+00 0.  1.
         25    1    1    2    0    0 -0.10489968088E+03  0.95336107878E+01  0.32693745189E+03  0.36552418557E+03  0.12500000000E+03 0.  0.
         25    1    1    2    0    0  0.42769512163E+02  0.49266348575E+02 -0.18516319295E+02  0.14221201902E+03  0.12500000000E+03 0.  0.
         25    1    1    2    0    0  0.62130168716E+02 -0.58799959363E+02  0.12131797482E+03  0.19406350533E+03  0.12500000000E+03 0.  0.
</event>
<event>
 5    0  0.5626800E-005  0.2496825E+03  0.7546771E-02  0.1113506E+00
         21   -1    0    0  502  501  0.00000000000E+00  0.00000000000E+00  0.18251680940E+04  0.18251680940E+04  0.00000000000E+00 0.  1.
         21   -1    0    0  501  502 -0.00000000000E+00 -0.00000000000E+00 -0.34156496052E+02  0.34156496052E+02  0.00000000000E+00 0.  1.
         25    1    1    2    0    0  0.39798914099E+02 -0.12169868898E+03  0.56587416657E+03  0.59349228879E+03  0.12500000000E+03 0.  0.
         25    1    1    2    0    0 -0.54602854169E+02  0.16301260331E+02  0.36136525416E+03  0.38659675333E+03  0.12500000000E+03 0.  0.
         25    1    1    2    0    0  0.14803940069E+02  0.10539742865E+03  0.86377217717E+03  0.87923554788E+03  0.12500000000E+03 0.  0.
</event>
<event>
 5    0  0.5626800E-005  0.2668449E+03  0.7546771E-02  0.1103099E+00
         21   -1    0    0  502  501  0.00000000000E+00  0.00000000000E+00  0.95593477797E+02  0.95593477797E+02  0.00000000000E+00 0.  1.
         21   -1    0    0  501  502 -0.00000000000E+00 -0.00000000000E+00 -0.74488561504E+03  0.74488561504E+03  0.00000000000E+00 0.  1.
         25    1    1    2    0    0 -0.93445623386E+02 -0.10616003423E+03 -0.26858677009E+03  0.32827715496E+03  0.12500000000E+03 0.  0.
         25    1    1    2    0    0  0.10160602239E+03  0.12300816818E+03 -0.30064945094E+03  0.36258776258E+03  0.12500000000E+03 0.  0.
         25    1    1    2    0    0 -0.81603990029E+01 -0.16848133944E+02 -0.80055916208E+02  0.14961417529E+03  0.12500000000E+03 0.  0.
</event>
<event>
 5    0  0.5626800E-005  0.2569370E+03  0.7546771E-02  0.1108998E+00
         21   -1    0    0  502  501  0.00000000000E+00  0.00000000000E+00  0.79116809703E+02  0.79116809703E+02  0.00000000000E+00 0.  1.
         21   -1    0    0  501  502 -0.00000000000E+00 -0.00000000000E+00 -0.83441960276E+03  0.83441960276E+03  0.00000000000E+00 0.  1.
         25    1    1    2    0    0 -0.24973574341E+01 -0.44500317882E+02 -0.26170823100E+03  0.29343263837E+03  0.12500000000E+03 0.  0.
         25    1    1    2    0    0  0.12867598253E+03  0.10131897946E+01 -0.16340399725E+03  0.24266108331E+03  0.12500000000E+03 0.  0.
         25    1    1    2    0    0 -0.12617862510E+03  0.43487128087E+02 -0.33019056481E+03  0.37744269079E+03  0.12500000000E+03 0.  0.
</event>
<event>
 5    0  0.5626800E-005  0.2696185E+03  0.7546771E-02  0.1101498E+00
         21   -1    0    0  502  501  0.00000000000E+00  0.00000000000E+00  0.11738072207E+03  0.11738072207E+03  0.00000000000E+00 0.  1.
         21   -1    0    0  501  502 -0.00000000000E+00 -0.00000000000E+00 -0.61930197270E+03  0.61930197270E+03  0.00000000000E+00 0.  1.
         25    1    1    2    0    0  0.60059294179E+01 -0.80500403046E+01 -0.99573506413E+02  0.16012731658E+03  0.12500000000E+03 0.  0.
         25    1    1    2    0    0 -0.16604125265E+03  0.15933211035E+02 -0.22649694262E+03  0.30781395324E+03  0.12500000000E+03 0.  0.
         25    1    1    2    0    0  0.16003532323E+03 -0.78831707304E+01 -0.17585080159E+03  0.26874142495E+03  0.12500000000E+03 0.  0.
</event>
<event>
 5    0  0.5626800E-005  0.7161839E+03  0.7546771E-02  0.9689949E-01
         21   -1    0    0  502  501  0.00000000000E+00  0.00000000000E+00  0.58088878175E+03  0.58088878175E+03  0.00000000000E+00 0. -1.
         21   -1    0    0  501  502 -0.00000000000E+00 -0.00000000000E+00 -0.88299065115E+03  0.88299065115E+03  0.00000000000E+00 0. -1.
         25    1    1    2    0    0  0.58531681937E+03 -0.15120239836E+03 -0.13375448227E+03  0.63164325836E+03  0.12500000000E+03 0.  0.
         25    1    1    2    0    0 -0.11943339715E+02 -0.94188857212E+02 -0.11368063648E+03  0.19381040038E+03  0.12500000000E+03 0.  0.
         25    1    1    2    0    0 -0.57337347965E+03  0.24539125558E+03 -0.54666750650E+02  0.63842577416E+03  0.12500000000E+03 0.  0.
</event>
<event>
 5    0  0.5626800E-005  0.4042683E+03  0.7546771E-02  0.1042312E+00
         21   -1    0    0  502  501  0.00000000000E+00  0.00000000000E+00  0.23566186680E+03  0.23566186680E+03  0.00000000000E+00 0. -1.
         21   -1    0    0  501  502 -0.00000000000E+00 -0.00000000000E+00 -0.69350559434E+03  0.69350559434E+03  0.00000000000E+00 0. -1.
         25    1    1    2    0    0 -0.24159857175E+02 -0.19305363390E+03  0.74669045667E+02  0.24301002169E+03  0.12500000000E+03 0.  0.
         25    1    1    2    0    0  0.11541872786E+03  0.21136476274E+03 -0.28369620570E+03  0.39256220246E+03  0.12500000000E+03 0.  0.
         25    1    1    2    0    0 -0.91258870689E+02 -0.18311128834E+02 -0.24881656750E+03  0.29359523699E+03  0.12500000000E+03 0.  0.
</event>
<event>
 5    0  0.6102608E-005  0.3572933E+03  0.7546771E-02  0.1059661E+00
         21   -1    0    0  502  501  0.00000000000E+00  0.00000000000E+00  0.32927494784E+03  0.32927494784E+03  0.00000000000E+00 0. -1.
         21   -1    0    0  501  502 -0.00000000000E+00 -0.00000000000E+00 -0.38769568392E+03  0.38769568392E+03  0.00000000000E+00 0. -1.
         25    1    1    2    0    0  0.25114754452E+01 -0.30881734388E+02  0.11164964536E+03  0.17044246048E+03  0.12500000000E+03 0.  0.
         25    1    1    2    0    0 -0.67608900473E+01 -0.19052694477E+03 -0.18236432130E+03  0.29193830170E+03  0.12500000000E+03 0.  0.
         25    1    1    2    0    0  0.42494146022E+01  0.22140867916E+03  0.12293939870E+02  0.25458986957E+03  0.12500000000E+03 0.  0.
</event>
<event>
 5    0  0.5626800E-005  0.3226205E+03  0.7546771E-02  0.1074450E+00
         21   -1    0    0  502  501  0.00000000000E+00  0.00000000000E+00  0.30145196408E+03  0.30145196408E+03  0.00000000000E+00 0.  1.
         21   -1    0    0  501  502 -0.00000000000E+00 -0.00000000000E+00 -0.34527557868E+03  0.34527557868E+03  0.00000000000E+00 0.  1.
         25    1    1    2    0    0 -0.32197041691E+02 -0.31619209575E+01  0.54981206680E+02  0.14033738036E+03  0.12500000000E+03 0.  0.
         25    1    1    2    0    0  0.16944994665E+03 -0.14111654838E+03 -0.96601163587E+02  0.27126361617E+03  0.12500000000E+03 0.  0.
         25    1    1    2    0    0 -0.13725290496E+03  0.14427846934E+03 -0.22036576971E+01  0.23512654623E+03  0.12500000000E+03 0.  0.
</event>
<event>
 5    0  0.5626800E-005  0.2583184E+03  0.7546771E-02  0.1108158E+00
         21   -1    0    0  502  501  0.00000000000E+00  0.00000000000E+00  0.11180402264E+04  0.11180402264E+04  0.00000000000E+00 0.  1.
         21   -1    0    0  501  502 -0.00000000000E+00 -0.00000000000E+00 -0.59683341515E+02  0.59683341515E+02  0.00000000000E+00 0.  1.
         25    1    1    2    0    0 -0.10070214727E+03  0.58901383060E+02  0.68802565622E+03  0.70895317124E+03  0.12500000000E+03 0.  0.
         25    1    1    2    0    0  0.66705496800E+02  0.65096457824E+01  0.19616433121E+03  0.24206908855E+03  0.12500000000E+03 0.  0.
         25    1    1    2    0    0  0.33996650468E+02 -0.65411028842E+02  0.17416689744E+03  0.22670130812E+03  0.12500000000E+03 0.  0.
</event>
<event>
 5    0  0.5626800E-005  0.3732891E+03  0.7546771E-02  0.1053442E+00
         21   -1    0    0  502  501  0.00000000000E+00  0.00000000000E+00  0.63375621353E+02  0.63375621353E+02  0.00000000000E+00 0.  1.
         21   -1    0    0  501  502 -0.00000000000E+00 -0.00000000000E+00 -0.21987117766E+04  0.21987117766E+04  0.00000000000E+00 0.  1.
         25    1    1    2    0    0  0.90344884645E+02  0.96564681627E+02 -0.91709093548E+03  0.93496936840E+03  0.12500000000E+03 0.  0.
         25    1    1    2    0    0 -0.17507002099E+03 -0.22044080391E+03 -0.54389998790E+03  0.62505668313E+03  0.12500000000E+03 0.  0.
         25    1    1    2    0    0  0.84725136344E+02  0.12387612229E+03 -0.67434523190E+03  0.70206134645E+03  0.12500000000E+03 0.  0.
</event>
<event>
 5    0  0.5626800E-005  0.3703598E+03  0.7546771E-02  0.1054555E+00
         21   -1    0    0  502  501  0.00000000000E+00  0.00000000000E+00  0.14667373798E+03  0.14667373798E+03  0.00000000000E+00 0.  1.
         21   -1    0    0  501  502 -0.00000000000E+00 -0.00000000000E+00 -0.93518023398E+03  0.93518023398E+03  0.00000000000E+00 0.  1.
         25    1    1    2    0    0 -0.29609473061E+02  0.18846978159E+01 -0.46355452833E+03  0.48102814233E+03  0.12500000000E+03 0.  0.
         25    1    1    2    0    0 -0.20409856076E+03  0.14187463586E+02 -0.15986789872E+03  0.28816705513E+03  0.12500000000E+03 0.  0.
         25    1    1    2    0    0  0.23370803382E+03 -0.16072161402E+02 -0.16508406896E+03  0.31265877449E+03  0.12500000000E+03 0.  0.
</event>
<event>
 5    0  0.5626800E-005  0.2675664E+03  0.7546771E-02  0.1102681E+00
         21   -1    0    0  502  501  0.00000000000E+00  0.00000000000E+00  0.91194335959E+03  0.91194335959E+03  0.00000000000E+00 0. -1.
         21   -1    0    0  501  502 -0.00000000000E+00 -0.00000000000E+00 -0.78504606462E+02  0.78504606462E+02  0.00000000000E+00 0. -1.
         25    1    1    2    0    0  0.11616000420E+03  0.22478523571E+01  0.43243518482E+03  0.46489072747E+03  0.12500000000E+03 0.  0.
         25    1    1    2    0    0 -0.10537440561E+03 -0.45375413762E+02  0.33905146498E+03  0.37913531811E+03  0.12500000000E+03 0.  0.
         25    1    1    2    0    0 -0.10785598594E+02  0.43127561405E+02  0.61952103335E+02  0.14642192048E+03  0.12500000000E+03 0.  0.
</event>
<event>
 5    0  0.5626800E-005  0.3567281E+03  0.7546771E-02  0.1059887E+00
         21   -1    0    0  502  501  0.00000000000E+00  0.00000000000E+00  0.37915669840E+03  0.37915669840E+03  0.00000000000E+00 0.  1.
         21   -1    0    0  501  502 -0.00000000000E+00 -0.00000000000E+00 -0.33562621978E+03  0.33562621978E+03  0.00000000000E+00 0.  1.
         25    1    1    2    0    0  0.82399702415E+02  0.31487001247E+02 -0.26445300839E+02  0.15525944783E+03  0.12500000000E+03 0.  0.
         25    1    1    2    0    0 -0.21683669483E+03 -0.14591509928E+03  0.15323002507E+03  0.32774045983E+03  0.12500000000E+03 0.  0.
         25    1    1    2    0    0  0.13443699242E+03  0.11442809803E+03 -0.83254245616E+02  0.23178301051E+03  0.12500000000E+03 0.  0.
</event>
<event>
 5    0  0.5626800E-005  0.2622100E+03  0.7546771E-02  0.1105823E+00
         21   -1    0    0  502  501  0.00000000000E+00  0.00000000000E+00  0.12242457936E+03  0.12242457936E+03  0.00000000000E+00 0.  1.
         21   -1    0    0  501  502 -0.00000000000E+00 -0.00000000000E+00 -0.56160357234E+03  0.56160357234E+03  0.00000000000E+00 0.  1.
         25    1    1    2    0    0  0.60973769580E+02 -0.75136269261E+02 -0.27172316007E+03  0.31435924554E+03  0.12500000000E+03 0.  0.
         25    1    1    2    0    0 -0.22657892161E+02  0.73302969664E+02 -0.18679239639E+03  0.23749337841E+03  0.12500000000E+03 0.  0.
         25    1    1    2    0    0 -0.38315877419E+02  0.18332995964E+01  0.19336563482E+02  0.13217552775E+03  0.12500000000E+03 0.  0.
</event>
<event>
 5    0  0.5626800E-005  0.2214924E+03  0.7546771E-02  0.1132775E+00
         21   -1    0    0  502  501  0.00000000000E+00  0.00000000000E+00  0.30602788836E+03  0.30602788836E+03  0.00000000000E+00 0.  1.
         21   -1    0    0  501  502 -0.00000000000E+00 -0.00000000000E+00 -0.16030856642E+03  0.16030856642E+03  0.00000000000E+00 0.  1.
         25    1    1    2    0    0  0.23173314786E+02 -0.27916020915E+02  0.85842157814E+02  0.15591723061E+03  0.12500000000E+03 0.  0.
         25    1    1    2    0    0 -0.26166888839E+02  0.69087394567E+02 -0.33513373540E+02  0.14901651038E+03  0.12500000000E+03 0.  0.
         25    1    1    2    0    0  0.29935740526E+01 -0.41171373653E+02  0.93390537665E+02  0.16140271379E+03  0.12500000000E+03 0.  0.
</event>
<event>
 5    0  0.5626800E-005  0.2415773E+03  0.7546771E-02  0.1118746E+00
         21   -1    0    0  502  501  0.00000000000E+00  0.00000000000E+00  0.12009440704E+03  0.12009440704E+03  0.00000000000E+00 0. -1.
         21   -1    0    0  501  502 -0.00000000000E+00 -0.00000000000E+00 -0.48594779895E+03  0.48594779895E+03  0.00000000000E+00 0. -1.
         25    1    1    2    0    0  0.46753456425E+02  0.16424098027E+02 -0.13582026254E+03  0.19112242254E+03  0.12500000000E+03 0.  0.
         25    1    1    2    0    0 -0.42205358911E+02 -0.42856823707E+02  0.14002736960E+02  0.13942408795E+03  0.12500000000E+03 0.  0.
         25    1    1    2    0    0 -0.45480975133E+01  0.26432725680E+02 -0.24403586633E+03  0.27549569549E+03  0.12500000000E+03 0.  0.
</event>
<event>
 5    0  0.5626800E-005  0.2042041E+03  0.7546771E-02  0.1146240E+00
         21   -1    0    0  502  501  0.00000000000E+00  0.00000000000E+00  0.17229612281E+04  0.17229612281E+04  0.00000000000E+00 0. -1.
         21   -1    0    0  501  502 -0.00000000000E+00 -0.00000000000E+00 -0.24202117602E+02  0.24202117602E+02  0.00000000000E+00 0. -1.
         25    1    1    2    0    0 -0.18156372949E+02  0.12320698207E+02  0.50519089297E+03  0.52088798395E+03  0.12500000000E+03 0.  0.
         25    1    1    2    0    0  0.47153918669E+02 -0.19403932746E+01  0.38507536195E+03  0.40759697196E+03  0.12500000000E+03 0.  0.
         25    1    1    2    0    0 -0.28997545720E+02 -0.10380304932E+02  0.80849285556E+03  0.81867838977E+03  0.12500000000E+03 0.  0.
</event>
<event>
 5    0  0.5626800E-005  0.3468635E+03  0.7546771E-02  0.1063910E+00
         21   -1    0    0  502  501  0.00000000000E+00  0.00000000000E+00  0.12664808933E+04  0.12664808933E+04  0.00000000000E+00 0. -1.
         21   -1    0    0  501  502 -0.00000000000E+00 -0.00000000000E+00 -0.94998890232E+02  0.94998890232E+02  0.00000000000E+00 0. -1.
         25    1    1    2    0    0 -0.68799758555E+02  0.84988127094E+02  0.50100662472E+03  0.52781533374E+03  0.12500000000E+03 0.  0.
         25    1    1    2    0    0  0.15920852391E+03 -0.21068741705E+03  0.34406504707E+03  0.45137822101E+03  0.12500000000E+03 0.  0.
         25    1    1    2    0    0 -0.90408765352E+02  0.12569928995E+03  0.32641033129E+03  0.38228622879E+03  0.12500000000E+03 0.  0.
</event>
<event>
 5    0  0.5626800E-005  0.3526531E+03  0.7546771E-02  0.1061531E+00
         21   -1    0    0  502  501  0.00000000000E+00  0.00000000000E+00  0.10527625592E+04  0.10527625592E+04  0.00000000000E+00 0. -1.
         21   -1    0    0  501  502 -0.00000000000E+00 -0.00000000000E+00 -0.11813129224E+03  0.11813129224E+03  0.00000000000E+00 0. -1.
         25    1    1    2    0    0  0.49683595538E+01  0.11169756837E+03  0.39247883563E+03  0.42680870164E+03  0.12500000000E+03 0.  0.
         25    1    1    2    0    0  0.97629567118E+02 -0.12928279508E+02 -0.10864510590E+02  0.15950457792E+03  0.12500000000E+03 0.  0.
         25    1    1    2    0    0 -0.10259792667E+03 -0.98769288863E+02  0.55301694196E+03  0.58458057193E+03  0.12500000000E+03 0.  0.
</event>
<event>
 5    0  0.5626800E-005  0.2856728E+03  0.7546771E-02  0.1092630E+00
         21   -1    0    0  502  501  0.00000000000E+00  0.00000000000E+00  0.11685190637E+04  0.11685190637E+04  0.00000000000E+00 0. -1.
         21   -1    0    0  501  502 -0.00000000000E+00 -0.00000000000E+00 -0.69839622355E+02  0.69839622355E+02  0.00000000000E+00 0. -1.
         25    1    1    2    0    0 -0.15541099014E+03  0.25289958636E+02  0.62060927856E+03  0.65235958988E+03  0.12500000000E+03 0.  0.
         25    1    1    2    0    0  0.11390631031E+03  0.62380112879E+02  0.24011815883E+03  0.30024599283E+03  0.12500000000E+03 0.  0.
         25    1    1    2    0    0  0.41504679830E+02 -0.87670071515E+02  0.23795200395E+03  0.28575310335E+03  0.12500000000E+03 0.  0.
</event>
<event>
 5    0  0.5626800E-005  0.3151935E+03  0.7546771E-02  0.1077883E+00
         21   -1    0    0  502  501  0.00000000000E+00  0.00000000000E+00  0.87043578166E+02  0.87043578166E+02  0.00000000000E+00 0.  1.
         21   -1    0    0  501  502 -0.00000000000E+00 -0.00000000000E+00 -0.11413469447E+04  0.11413469447E+04  0.00000000000E+00 0.  1.
         25    1    1    2    0    0 -0.53264241654E+02  0.16921658812E+03 -0.34703341097E+03  0.40930248163E+03  0.12500000000E+03 0.  0.
         25    1    1    2    0    0 -0.39556621398E+01 -0.23075267578E+03 -0.45520594829E+03  0.52545209106E+03  0.12500000000E+03 0.  0.
         25    1    1    2    0    0  0.57219903793E+02  0.61536087652E+02 -0.25206400725E+03  0.29363595016E+03  0.12500000000E+03 0.  0.
</event>
<event>
 5    0  0.5626800E-005  0.2817439E+03  0.7546771E-02  0.1094740E+00
         21   -1    0    0  502  501  0.00000000000E+00  0.00000000000E+00  0.31726774481E+02  0.31726774481E+02  0.00000000000E+00 0.  1.
         21   -1    0    0  501  502 -0.00000000000E+00 -0.00000000000E+00 -0.25019767429E+04  0.25019767429E+04  0.00000000000E+00 0.  1.
         25    1    1    2    0    0 -0.32051893273E+02 -0.12928571571E+03 -0.81543888782E+03  0.83564807180E+03  0.12500000000E+03 0.  0.
         25    1    1    2    0    0  0.71340574570E+02  0.11952521760E+03 -0.13890080040E+04  0.14015505664E+04  0.12500000000E+03 0.  0.
         25    1    1    2    0    0 -0.39288681296E+02  0.97604981167E+01 -0.26580307668E+03  0.29650487918E+03  0.12500000000E+03 0.  0.
</event>
<event>
 5    0  0.5626800E-005  0.4297665E+03  0.7546771E-02  0.1033934E+00
         21   -1    0    0  502  501  0.00000000000E+00  0.00000000000E+00  0.10823263145E+04  0.10823263145E+04  0.00000000000E+00 0.  1.
         21   -1    0    0  501  502 -0.00000000000E+00 -0.00000000000E+00 -0.17065026984E+03  0.17065026984E+03  0.00000000000E+00 0.  1.
         25    1    1    2    0    0 -0.10091874855E+03  0.10042058025E+03  0.17580279448E+03  0.25845794492E+03  0.12500000000E+03 0.  0.
         25    1    1    2    0    0  0.20757027790E+03  0.93379037532E+02  0.68878748096E+03  0.73611022194E+03  0.12500000000E+03 0.  0.
         25    1    1    2    0    0 -0.10665152935E+03 -0.19379961778E+03  0.47085769227E+02  0.25840841748E+03  0.12500000000E+03 0.  0.
</event>
<event>
 5    0  0.5626800E-005  0.2146853E+03  0.7546771E-02  0.1137909E+00
         21   -1    0    0  502  501  0.00000000000E+00  0.00000000000E+00  0.88113805179E+02  0.88113805179E+02  0.00000000000E+00 0. -1.
         21   -1    0    0  501  502 -0.00000000000E+00 -0.00000000000E+00 -0.52307121449E+03  0.52307121449E+03  0.00000000000E+00 0. -1.
         25    1    1    2    0    0 -0.94757073039E+01  0.19705663862E+02 -0.23898503211E+03  0.27058630377E+03  0.12500000000E+03 0.  0.
         25    1    1    2    0    0  0.39433809786E+02  0.36337027525E+02 -0.11849504246E+03  0.18039257194E+03  0.12500000000E+03 0.  0.
         25    1    1    2    0    0 -0.29958102482E+02 -0.56042691388E+02 -0.77477334742E+02  0.16020614396E+03  0.12500000000E+03 0.  0.
</event>
<event>
 5    0  0.5626800E-005  0.3464488E+03  0.7546771E-02  0.1064082E+00
         21   -1    0    0  502  501  0.00000000000E+00  0.00000000000E+00  0.58619361998E+02  0.58619361998E+02  0.00000000000E+00 0.  1.
         21   -1    0    0  501  502 -0.00000000000E+00 -0.00000000000E+00 -0.20475616851E+04  0.20475616851E+04  0.00000000000E+00 0.  1.
         25    1    1    2    0    0 -0.14176877748E+03  0.26080316117E+02 -0.32514662115E+03  0.37699322859E+03  0.12500000000E+03 0.  0.
         25    1    1    2    0    0  0.23428598788E+03 -0.57703091866E+02 -0.67347059062E+03  0.72622806842E+03  0.12500000000E+03 0.  0.
         25    1    1    2    0    0 -0.92517210405E+02  0.31622775749E+02 -0.99032511135E+03  0.10029597501E+04  0.12500000000E+03 0.  0.
</event>
<event>
 5    0  0.6084326E-005  0.2677108E+03  0.7546771E-02  0.1102597E+00
         21   -1    0    0  502  501  0.00000000000E+00  0.00000000000E+00  0.21489304896E+03  0.21489304896E+03  0.00000000000E+00 0. -1.
         21   -1    0    0  501  502 -0.00000000000E+00 -0.00000000000E+00 -0.33351040961E+03  0.33351040961E+03  0.00000000000E+00 0. -1.
         25    1    1    2    0    0  0.86993656933E+02  0.13364747462E+03 -0.50533130006E+01  0.20268221380E+03  0.12500000000E+03 0.  0.
         25    1    1    2    0    0 -0.91901102782E+02 -0.29187489625E+02 -0.88041289393E+02  0.18075948352E+03  0.12500000000E+03 0.  0.
         25    1    1    2    0    0  0.49074458487E+01 -0.10445998499E+03 -0.25522758254E+02  0.16496176126E+03  0.12500000000E+03 0.  0.
</event>
<event>
 5    0  0.5626800E-005  0.3421423E+03  0.7546771E-02  0.1065887E+00
         21   -1    0    0  502  501  0.00000000000E+00  0.00000000000E+00  0.61967204228E+02  0.61967204228E+02  0.00000000000E+00 0.  1.
         21   -1    0    0  501  502 -0.00000000000E+00 -0.00000000000E+00 -0.18890856587E+04  0.18890856587E+04  0.00000000000E+00 0.  1.
         25    1    1    2    0    0  0.57051856956E+02  0.66609261121E+02 -0.16095795520E+03  0.22186520996E+03  0.12500000000E+03 0.  0.
         25    1    1    2    0    0  0.12117529052E+03  0.22941838146E+02 -0.34389129488E+03  0.38612951411E+03  0.12500000000E+03 0.  0.
         25    1    1    2    0    0 -0.17822714747E+03 -0.89551099268E+02 -0.13222692044E+04  0.13430581388E+04  0.12500000000E+03 0.  0.
</event>
<event>
 5    0  0.6906266E-005  0.2928203E+03  0.7546771E-02  0.1088886E+00
         21   -1    0    0  502  501  0.00000000000E+00  0.00000000000E+00  0.43934081775E+03  0.43934081775E+03  0.00000000000E+00 0.  1.
         21   -1    0    0  501  502 -0.00000000000E+00 -0.00000000000E+00 -0.19516448573E+03  0.19516448573E+03  0.00000000000E+00 0.  1.
         25    1    1    2    0    0 -0.78294652682E+02  0.47298155760E+02  0.44454743979E+01  0.15495783433E+03  0.12500000000E+03 0.  0.
         25    1    1    2    0    0  0.87131924099E+02 -0.14467685570E+03  0.24244545698E+03  0.32082419544E+03  0.12500000000E+03 0.  0.
         25    1    1    2    0    0 -0.88372714169E+01  0.97378699939E+02 -0.27145993536E+01  0.15872327371E+03  0.12500000000E+03 0.  0.
</event>
<event>
 5    0  0.5626800E-005  0.2278141E+03  0.7546771E-02  0.1128188E+00
         21   -1    0    0  502  501  0.00000000000E+00  0.00000000000E+00  0.59972759037E+03  0.59972759037E+03  0.00000000000E+00 0. -1.
         21   -1    0    0  501  502 -0.00000000000E+00 -0.00000000000E+00 -0.86538048961E+02  0.86538048961E+02  0.00000000000E+00 0. -1.
         25    1    1    2    0    0  0.85882423193E+02  0.74850155276E+01  0.13762040896E+03  0.20492972706E+03  0.12500000000E+03 0.  0.
         25    1    1    2    0    0 -0.10896989431E+03  0.10932564828E+02  0.25987703519E+03  0.30847209316E+03  0.12500000000E+03 0.  0.
         25    1    1    2    0    0  0.23087471121E+02 -0.18417580356E+02  0.11569209726E+03  0.17286381911E+03  0.12500000000E+03 0.  0.
</event>
<event>
 5    0  0.5626800E-005  0.4184256E+03  0.7546771E-02  0.1037580E+00
         21   -1    0    0  502  501  0.00000000000E+00  0.00000000000E+00  0.47694605888E+03  0.47694605888E+03  0.00000000000E+00 0. -1.
         21   -1    0    0  501  502 -0.00000000000E+00 -0.00000000000E+00 -0.36708542351E+03  0.36708542351E+03  0.00000000000E+00 0. -1.
         25    1    1    2    0    0 -0.42902042433E+02 -0.53057888032E+02 -0.94585312918E+02  0.17095936987E+03  0.12500000000E+03 0.  0.
         25    1    1    2    0    0  0.86745012922E+02 -0.46083500181E+02 -0.18857369096E+03  0.24664432525E+03  0.12500000000E+03 0.  0.
         25    1    1    2    0    0 -0.43842970489E+02  0.99141388213E+02  0.39301963925E+03  0.42642778727E+03  0.12500000000E+03 0.  0.
</event>
<event>
 5    0  0.5626800E-005  0.2663154E+03  0.7546771E-02  0.1103407E+00
         21   -1    0    0  502  501  0.00000000000E+00  0.00000000000E+00  0.69068575517E+03  0.69068575517E+03  0.00000000000E+00 0.  1.
         21   -1    0    0  501  502 -0.00000000000E+00 -0.00000000000E+00 -0.10268622085E+03  0.10268622085E+03  0.00000000000E+00 0.  1.
         25    1    1    2    0    0 -0.87621119362E+01 -0.76532571674E+02  0.25527317380E+03  0.29448837395E+03  0.12500000000E+03 0.  0.
         25    1    1    2    0    0 -0.79356940311E+01  0.10830424506E+03  0.32953114242E+03  0.36879338194E+03  0.12500000000E+03 0.  0.
         25    1    1    2    0    0  0.16697805967E+02 -0.31771673390E+02  0.31952181031E+01  0.13009022013E+03  0.12500000000E+03 0.  0.
</event>
<event>
 5    0  0.5626800E-005  0.3542057E+03  0.7546771E-02  0.1060902E+00
         21   -1    0    0  502  501  0.00000000000E+00  0.00000000000E+00  0.26779764484E+03  0.26779764484E+03  0.00000000000E+00 0.  1.
         21   -1    0    0  501  502 -0.00000000000E+00 -0.00000000000E+00 -0.46849426436E+03  0.46849426436E+03  0.00000000000E+00 0.  1.
         25    1    1    2    0    0 -0.32993278846E+02 -0.12303760796E+03  0.10513106353E+03  0.20713365236E+03  0.12500000000E+03 0.  0.
         25    1    1    2    0    0 -0.38169863792E+02  0.16972161852E+03 -0.31124568666E+03  0.37783758913E+03  0.12500000000E+03 0.  0.
         25    1    1    2    0    0  0.71163142638E+02 -0.46684010555E+02  0.54180036099E+01  0.15132066771E+03  0.12500000000E+03 0.  0.
</event>
<event>
 5    0  0.5626800E-005  0.3292137E+03  0.7546771E-02  0.1071485E+00
         21   -1    0    0  502  501  0.00000000000E+00  0.00000000000E+00  0.36524918684E+03  0.36524918684E+03  0.00000000000E+00 0. -1.
         21   -1    0    0  501  502 -0.00000000000E+00 -0.00000000000E+00 -0.29673353355E+03  0.29673353355E+03  0.00000000000E+00 0. -1.
         25    1    1    2    0    0  0.99261711060E+02 -0.71384890667E+02  0.24470644693E+03  0.30075726935E+03  0.12500000000E+03 0.  0.
         25    1    1    2    0    0 -0.79217747105E+02  0.10718748200E+03 -0.11688536174E+03  0.21691425851E+03  0.12500000000E+03 0.  0.
         25    1    1    2    0    0 -0.20043963955E+02 -0.35802591332E+02 -0.59305431893E+02  0.14431119253E+03  0.12500000000E+03 0.  0.
</event>
<event>
 5    0  0.5626800E-005  0.2360505E+03  0.7546771E-02  0.1122452E+00
         21   -1    0    0  502  501  0.00000000000E+00  0.00000000000E+00  0.13051572913E+03  0.13051572913E+03  0.00000000000E+00 0. -1.
         21   -1    0    0  501  502 -0.00000000000E+00 -0.00000000000E+00 -0.42692041147E+03  0.42692041147E+03  0.00000000000E+00 0. -1.
         25    1    1    2    0    0 -0.11608312246E+03  0.35398219037E+02 -0.14351398677E+03  0.22572015778E+03  0.12500000000E+03 0.  0.
         25    1    1    2    0    0  0.10220235890E+03 -0.43839491654E+02 -0.10078428638E+03  0.19531947055E+03  0.12500000000E+03 0.  0.
         25    1    1    2    0    0  0.13880763566E+02  0.84412726170E+01 -0.52106409185E+02  0.13639651227E+03  0.12500000000E+03 0.  0.
</event>
<event>
 5    0  0.5626800E-005  0.4326224E+03  0.7546771E-02  0.1033035E+00
         21   -1    0    0  502  501  0.00000000000E+00  0.00000000000E+00  0.16285309236E+04  0.16285309236E+04  0.00000000000E+00 0.  1.
         21   -1    0    0  501  502 -0.00000000000E+00 -0.00000000000E+00 -0.11492697263E+03  0.11492697263E+03  0.00000000000E+00 0.  1.
         25    1    1    2    0    0 -0.16135047657E+03 -0.10025463891E+03  0.74847753890E+03  0.78225864978E+03  0.12500000000E+03 0.  0.
         25    1    1    2    0    0 -0.12611078835E+02  0.26705615818E+03  0.28877012555E+03  0.41290582018E+03  0.12500000000E+03 0.  0.
         25    1    1    2    0    0  0.17396155541E+03 -0.16680151927E+03  0.47635628648E+03  0.54829342625E+03  0.12500000000E+03 0.  0.
</event>
<event>
 5    0  0.5626800E-005  0.2651476E+03  0.7546771E-02  0.1104089E+00
         21   -1    0    0  502  501  0.00000000000E+00  0.00000000000E+00  0.20271910590E+03  0.20271910590E+03  0.00000000000E+00 0.  1.
         21   -1    0    0  501  502 -0.00000000000E+00 -0.00000000000E+00 -0.34680125930E+03  0.34680125930E+03  0.00000000000E+00 0.  1.
         25    1    1    2    0    0  0.62713266248E+01  0.24762388177E+02 -0.16492373054E+03  0.20851221139E+03  0.12500000000E+03 0.  0.
         25    1    1    2    0    0  0.32304873648E+02 -0.37417721198E+02  0.11696190837E+03  0.17818186982E+03  0.12500000000E+03 0.  0.
         25    1    1    2    0    0 -0.38576200273E+02  0.12655333022E+02 -0.96120331240E+02  0.16282628399E+03  0.12500000000E+03 0.  0.
</event>
<event>
 5    0  0.5626800E-005  0.2425210E+03  0.7546771E-02  0.1118125E+00
         21   -1    0    0  502  501  0.00000000000E+00  0.00000000000E+00  0.29887442232E+02  0.29887442232E+02  0.00000000000E+00 0.  1.
         21   -1    0    0  501  502 -0.00000000000E+00 -0.00000000000E+00 -0.19679320772E+04  0.19679320772E+04  0.00000000000E+00 0.  1.
         25    1    1    2    0    0 -0.83504725546E+02  0.25848145070E+02 -0.41865179047E+03  0.44557321223E+03  0.12500000000E+03 0.  0.
         25    1    1    2    0    0 -0.38371257122E+02 -0.10462720369E+02 -0.86061872479E+03  0.87055810338E+03  0.12500000000E+03 0.  0.
         25    1    1    2    0    0  0.12187598267E+03 -0.15385424701E+02 -0.65877411970E+03  0.68168820382E+03  0.12500000000E+03 0.  0.
</event>
<event>
 5    0  0.5626800E-005  0.3278093E+03  0.7546771E-02  0.1072110E+00
         21   -1    0    0  502  501  0.00000000000E+00  0.00000000000E+00  0.74156054512E+02  0.74156054512E+02  0.00000000000E+00 0.  1.
         21   -1    0    0  501  502 -0.00000000000E+00 -0.00000000000E+00 -0.14490916638E+04  0.14490916638E+04  0.00000000000E+00 0.  1.
         25    1    1    2    0    0 -0.14296474153E+03 -0.15834498163E+03 -0.61428536441E+03  0.66218091142E+03  0.12500000000E+03 0.  0.
         25    1    1    2    0    0  0.59731057942E+02  0.20348826019E+03 -0.44235844960E+03  0.50624230291E+03  0.12500000000E+03 0.  0.
         25    1    1    2    0    0  0.83233683591E+02 -0.45143278565E+02 -0.31829179529E+03  0.35482450399E+03  0.12500000000E+03 0.  0.
</event>
<event>
 5    0  0.5626800E-005  0.3722253E+03  0.7546771E-02  0.1053845E+00
         21   -1    0    0  502  501  0.00000000000E+00  0.00000000000E+00  0.18842031948E+03  0.18842031948E+03  0.00000000000E+00 0. -1.
         21   -1    0    0  501  502 -0.00000000000E+00 -0.00000000000E+00 -0.73533279706E+03  0.73533279706E+03  0.00000000000E+00 0. -1.
         25    1    1    2    0    0 -0.15346420781E+02 -0.76307079934E+01 -0.28166417881E+03  0.30863157641E+03  0.12500000000E+03 0.  0.
         25    1    1    2    0    0 -0.97269316593E+02  0.17885333127E+03  0.22997847884E+02  0.24000778126E+03  0.12500000000E+03 0.  0.
         25    1    1    2    0    0  0.11261573737E+03 -0.17122262328E+03 -0.28824614665E+03  0.37511375886E+03  0.12500000000E+03 0.  0.
</event>
<event>
 5    0  0.6012883E-005  0.3525483E+03  0.7546771E-02  0.1061574E+00
         21   -1    0    0  502  501  0.00000000000E+00  0.00000000000E+00  0.15386897569E+03  0.15386897569E+03  0.00000000000E+00 0.  1.
         21   -1    0    0  501  502 -0.00000000000E+00 -0.00000000000E+00 -0.80776694726E+03  0.80776694726E+03  0.00000000000E+00 0.  1.
         25    1    1    2    0    0 -0.19184706665E+03  0.13332864955E+03 -0.91646068196E+02  0.28036730834E+03  0.12500000000E+03 0.  0.
         25    1    1    2    0    0  0.13258912721E+03 -0.61970179543E+02 -0.16116335045E+03  0.25103546629E+03  0.12500000000E+03 0.  0.
         25    1    1    2    0    0  0.59257939434E+02 -0.71358470003E+02 -0.40108855291E+03  0.43023314831E+03  0.12500000000E+03 0.  0.
</event>
<event>
 5    0  0.5626800E-005  0.3198681E+03  0.7546771E-02  0.1075710E+00
         21   -1    0    0  502  501  0.00000000000E+00  0.00000000000E+00  0.51236211067E+03  0.51236211067E+03  0.00000000000E+00 0. -1.
         21   -1    0    0  501  502 -0.00000000000E+00 -0.00000000000E+00 -0.19969387028E+03  0.19969387028E+03  0.00000000000E+00 0. -1.
         25    1    1    2    0    0 -0.25181130491E+02  0.14853653097E+03  0.96932587869E+02  0.21844476867E+03  0.12500000000E+03 0.  0.
         25    1    1    2    0    0 -0.21637333124E+02  0.34167602306E+02 -0.53558219819E+02  0.14187699652E+03  0.12500000000E+03 0.  0.
         25    1    1    2    0    0  0.46818463615E+02 -0.18270413328E+03  0.26929387235E+03  0.35173421576E+03  0.12500000000E+03 0.  0.
</event>
<event>
 5    0  0.5626800E-005  0.2924958E+03  0.7546771E-02  0.1089053E+00
         21   -1    0    0  502  501  0.00000000000E+00  0.00000000000E+00  0.20636717685E+04  0.20636717685E+04  0.00000000000E+00 0.  1.
         21   -1    0    0  501  502 -0.00000000000E+00 -0.00000000000E+00 -0.41457077380E+02  0.41457077380E+02  0.00000000000E+00 0.  1.
         25    1    1    2    0    0 -0.29423584422E+02 -0.18026750654E+03  0.44598787681E+03  0.49788784630E+03  0.12500000000E+03 0.  0.
         25    1    1    2    0    0 -0.73413817624E+01  0.90484279570E+02  0.85711595148E+03  0.87092712383E+03  0.12500000000E+03 0.  0.
         25    1    1    2    0    0  0.36764966184E+02  0.89783226968E+02  0.71911086284E+03  0.73631387576E+03  0.12500000000E+03 0.  0.
</event>
<event>
 5    0  0.5626800E-005  0.3238273E+03  0.7546771E-02  0.1073901E+00
         21   -1    0    0  502  501  0.00000000000E+00  0.00000000000E+00  0.10241603220E+03  0.10241603220E+03  0.00000000000E+00 0.  1.
         21   -1    0    0  501  502 -0.00000000000E+00 -0.00000000000E+00 -0.10239032359E+04  0.10239032359E+04  0.00000000000E+00 0.  1.
         25    1    1    2    0    0 -0.22479602606E+03 -0.30022019638E+02 -0.57346599772E+03  0.62922398678E+03  0.12500000000E+03 0.  0.
         25    1    1    2    0    0  0.14332933482E+03  0.49292543782E+02 -0.24820765161E+03  0.31655187791E+03  0.12500000000E+03 0.  0.
         25    1    1    2    0    0  0.81466691241E+02 -0.19270524145E+02 -0.99813554419E+02  0.18054340345E+03  0.12500000000E+03 0.  0.
</event>
<event>
 5    0  0.5839110E-005  0.3627714E+03  0.7546771E-02  0.1057492E+00
         21   -1    0    0  502  501  0.00000000000E+00  0.00000000000E+00  0.56739973130E+03  0.56739973130E+03  0.00000000000E+00 0.  1.
         21   -1    0    0  501  502 -0.00000000000E+00 -0.00000000000E+00 -0.23194067046E+03  0.23194067046E+03  0.00000000000E+00 0.  1.
         25    1    1    2    0    0  0.88064085444E+02  0.15160437238E+03  0.22555424463E+03  0.31183150280E+03  0.12500000000E+03 0.  0.
         25    1    1    2    0    0 -0.21684401414E+03 -0.25187615697E+02  0.27610320538E+02  0.25306732751E+03  0.12500000000E+03 0.  0.
         25    1    1    2    0    0  0.12877992869E+03 -0.12641675669E+03  0.82294495679E+02  0.23444157145E+03  0.12500000000E+03 0.  0.
</event>
<event>
 5    0  0.5626800E-005  0.3874323E+03  0.7546771E-02  0.1048220E+00
         21   -1    0    0  502  501  0.00000000000E+00  0.00000000000E+00  0.69378553052E+03  0.69378553052E+03  0.00000000000E+00 0.  1.
         21   -1    0    0  501  502 -0.00000000000E+00 -0.00000000000E+00 -0.21635476023E+03  0.21635476023E+03  0.00000000000E+00 0.  1.
         25    1    1    2    0    0  0.13226097743E+03 -0.17878665473E+03 -0.50459215037E+02  0.26005531419E+03  0.12500000000E+03 0.  0.
         25    1    1    2    0    0 -0.75078135085E+02  0.60225591459E+01  0.29532369366E+03  0.32941475624E+03  0.12500000000E+03 0.  0.
         25    1    1    2    0    0 -0.57182842344E+02  0.17276409558E+03  0.23256629166E+03  0.32067022032E+03  0.12500000000E+03 0.  0.
</event>
<event>
 5    0  0.5626800E-005  0.2332814E+03  0.7546771E-02  0.1124351E+00
         21   -1    0    0  502  501  0.00000000000E+00  0.00000000000E+00  0.34677896291E+03  0.34677896291E+03  0.00000000000E+00 0.  1.
         21   -1    0    0  501  502 -0.00000000000E+00 -0.00000000000E+00 -0.15693052461E+03  0.15693052461E+03  0.00000000000E+00 0.  1.
         25    1    1    2    0    0  0.36844917988E+01  0.65098968062E+00 -0.37234583697E+02  0.13048146800E+03  0.12500000000E+03 0.  0.
         25    1    1    2    0    0 -0.58771427176E+02  0.15783729163E+02  0.47325659721E+02  0.14686022207E+03  0.12500000000E+03 0.  0.
         25    1    1    2    0    0  0.55086935377E+02 -0.16434718844E+02  0.17975736227E+03  0.22636779745E+03  0.12500000000E+03 0.  0.
</event>
<event>
 5    0  0.5626800E-005  0.2775224E+03  0.7546771E-02  0.1097050E+00
         21   -1    0    0  502  501  0.00000000000E+00  0.00000000000E+00  0.39774731031E+03  0.39774731031E+03  0.00000000000E+00 0. -1.
         21   -1    0    0  501  502 -0.00000000000E+00 -0.00000000000E+00 -0.19363723331E+03  0.19363723331E+03  0.00000000000E+00 0. -1.
         25    1    1    2    0    0  0.71702216959E+02 -0.39348013889E+01 -0.85280492469E+02  0.16749463566E+03  0.12500000000E+03 0.  0.
         25    1    1    2    0    0 -0.10784732449E+03 -0.24978285030E+02  0.21164073899E+03  0.26957700667E+03  0.12500000000E+03 0.  0.
         25    1    1    2    0    0  0.36145107527E+02  0.28913086419E+02  0.77749830476E+02  0.15431290129E+03  0.12500000000E+03 0.  0.
</event>
<event>
 5    0  0.5626800E-005  0.2640521E+03  0.7546771E-02  0.1104733E+00
         21   -1    0    0  502  501  0.00000000000E+00  0.00000000000E+00  0.10653108973E+03  0.10653108973E+03  0.00000000000E+00 0.  1.
         21   -1    0    0  501  502 -0.00000000000E+00 -0.00000000000E+00 -0.65448977520E+03  0.65448977520E+03  0.00000000000E+00 0.  1.
         25    1    1    2    0    0  0.52540529711E+02 -0.90007004637E+02 -0.43940412896E+03  0.46857524123E+03  0.12500000000E+03 0.  0.
         25    1    1    2    0    0 -0.18035736959E+02  0.49736663456E+02 -0.56535772906E+02  0.14703848856E+03  0.12500000000E+03 0.  0.
         25    1    1    2    0    0 -0.34504792751E+02  0.40270341180E+02 -0.52018783611E+02  0.14540713514E+03  0.12500000000E+03 0.  0.
</event>
<event>
 5    0  0.5626800E-005  0.2385627E+03  0.7546771E-02  0.1120754E+00
         21   -1    0    0  502  501  0.00000000000E+00  0.00000000000E+00  0.31638003079E+04  0.31638003079E+04  0.00000000000E+00 0.  1.
         21   -1    0    0  501  502 -0.00000000000E+00 -0.00000000000E+00 -0.17988548181E+02  0.17988548181E+02  0.00000000000E+00 0.  1.
         25    1    1    2    0    0  0.63935383614E+02 -0.56577574481E+02  0.14193442837E+04  0.14273934114E+04  0.12500000000E+03 0.  0.
         25    1    1    2    0    0 -0.61034744388E+02  0.42104418179E+01  0.12868322126E+04  0.12943357799E+04  0.12500000000E+03 0.  0.
         25    1    1    2    0    0 -0.29006392267E+01  0.52367132663E+02  0.43963526347E+03  0.46005966480E+03  0.12500000000E+03 0.  0.
</event>
<event>
 5    0  0.6138681E-005  0.3600417E+03  0.7546771E-02  0.1058567E+00
         21   -1    0    0  502  501  0.00000000000E+00  0.00000000000E+00  0.78493893264E+03  0.78493893264E+03  0.00000000000E+00 0. -1.
         21   -1    0    0  501  502 -0.00000000000E+00 -0.00000000000E+00 -0.16514660249E+03  0.16514660249E+03  0.00000000000E+00 0. -1.
         25    1    1    2    0    0  0.16182744520E+02 -0.11181916978E+03  0.24892158412E+02  0.17032330287E+03  0.12500000000E+03 0.  0.
         25    1    1    2    0    0  0.19545192129E+03  0.97804874151E+02  0.24006534778E+03  0.34788448966E+03  0.12500000000E+03 0.  0.
         25    1    1    2    0    0 -0.21163466581E+03  0.14014295632E+02  0.35483482397E+03  0.43187774260E+03  0.12500000000E+03 0.  0.
</event>
<event>
 5    0  0.5626800E-005  0.4581110E+03  0.7546771E-02  0.1025331E+00
         21   -1    0    0  502  501  0.00000000000E+00  0.00000000000E+00  0.14836315824E+04  0.14836315824E+04  0.00000000000E+00 0. -1.
         21   -1    0    0  501  502 -0.00000000000E+00 -0.00000000000E+00 -0.14145402190E+03  0.14145402190E+03  0.00000000000E+00 0. -1.
         25    1    1    2    0    0  0.11052285635E+03 -0.19248701671E+03  0.87071788368E+03  0.90721617398E+03  0.12500000000E+03 0.  0.
         25    1    1    2    0    0  0.15010400263E+03  0.13495204171E+03  0.14564757022E+03  0.27853452188E+03  0.12500000000E+03 0.  0.
         25    1    1    2    0    0 -0.26062685898E+03  0.57534974996E+02  0.32581210663E+03  0.43933490846E+03  0.12500000000E+03 0.  0.
</event>
<event>
 5    0  0.5626800E-005  0.4945616E+03  0.7546771E-02  0.1015208E+00
         21   -1    0    0  502  501  0.00000000000E+00  0.00000000000E+00  0.52592728875E+03  0.52592728875E+03  0.00000000000E+00 0.  1.
         21   -1    0    0  501  502 -0.00000000000E+00 -0.00000000000E+00 -0.46506649397E+03  0.46506649397E+03  0.00000000000E+00 0.  1.
         25    1    1    2    0    0 -0.68219375839E+02  0.88653465548E+02 -0.10168969165E+03  0.19616093796E+03  0.12500000000E+03 0.  0.
         25    1    1    2    0    0 -0.21120276429E+03  0.58859175801E+02 -0.18181149575E+03  0.31104891932E+03  0.12500000000E+03 0.  0.
         25    1    1    2    0    0  0.27942214013E+03 -0.14751264135E+03  0.34436198218E+03  0.48378392545E+03  0.12500000000E+03 0.  0.
</event>
<event>
 5    0  0.5626800E-005  0.2367809E+03  0.7546771E-02  0.1121956E+00
         21   -1    0    0  502  501  0.00000000000E+00  0.00000000000E+00  0.20744093114E+03  0.20744093114E+03  0.00000000000E+00 0. -1.
         21   -1    0    0  501  502 -0.00000000000E+00 -0.00000000000E+00 -0.27027065293E+03  0.27027065293E+03  0.00000000000E+00 0. -1.
         25    1    1    2    0    0  0.13088523176E+02  0.51580319337E+02 -0.49711590182E+02  0.14466541045E+03  0.12500000000E+03 0.  0.
         25    1    1    2    0    0  0.22524392856E+02 -0.12914405840E+03 -0.14096267170E+02  0.18168445405E+03  0.12500000000E+03 0.  0.
         25    1    1    2    0    0 -0.35612916031E+02  0.77563739065E+02  0.97813556146E+00  0.15136171958E+03  0.12500000000E+03 0.  0.
</event>
<event>
 5    0  0.5626800E-005  0.3808028E+03  0.7546771E-02  0.1050637E+00
         21   -1    0    0  502  501  0.00000000000E+00  0.00000000000E+00  0.84418510449E+03  0.84418510449E+03  0.00000000000E+00 0. -1.
         21   -1    0    0  501  502 -0.00000000000E+00 -0.00000000000E+00 -0.17177605859E+03  0.17177605859E+03  0.00000000000E+00 0. -1.
         25    1    1    2    0    0 -0.14421568166E+03  0.33099256214E+01  0.33204562571E+03  0.38299923760E+03  0.12500000000E+03 0.  0.
         25    1    1    2    0    0 -0.15558224337E+03 -0.44780973524E+02  0.15546382901E+03  0.25691471770E+03  0.12500000000E+03 0.  0.
         25    1    1    2    0    0  0.29979792503E+03  0.41471047903E+02  0.18489959118E+03  0.37604720779E+03  0.12500000000E+03 0.  0.
</event>
<event>
 5    0  0.5626800E-005  0.5080766E+03  0.7546771E-02  0.1011692E+00
         21   -1    0    0  502  501  0.00000000000E+00  0.00000000000E+00  0.12727495980E+04  0.12727495980E+04  0.00000000000E+00 0.  1.
         21   -1    0    0  501  502 -0.00000000000E+00 -0.00000000000E+00 -0.20282218816E+03  0.20282218816E+03  0.00000000000E+00 0.  1.
         25    1    1    2    0    0 -0.50376528931E+02 -0.33883815696E+03  0.13793851399E+03  0.38987321647E+03  0.12500000000E+03 0.  0.
         25    1    1    2    0    0 -0.48762306396E+02  0.13781372670E+03  0.10360472833E+03  0.21847042254E+03  0.12500000000E+03 0.  0.
         25    1    1    2    0    0  0.99138835327E+02  0.20102443026E+03  0.82838416751E+03  0.86722814715E+03  0.12500000000E+03 0.  0.
</event>
<event>
 5    0  0.5626800E-005  0.2453261E+03  0.7546771E-02  0.1116295E+00
         21   -1    0    0  502  501  0.00000000000E+00  0.00000000000E+00  0.38681819457E+03  0.38681819457E+03  0.00000000000E+00 0.  1.
         21   -1    0    0  501  502 -0.00000000000E+00 -0.00000000000E+00 -0.15558962531E+03  0.15558962531E+03  0.00000000000E+00 0.  1.
         25    1    1    2    0    0  0.98198245426E+02 -0.45114374890E+02  0.68516968580E+02  0.17887922520E+03  0.12500000000E+03 0.  0.
         25    1    1    2    0    0 -0.49604502523E+02  0.42671855301E+02 -0.13878268670E+02  0.14177129557E+03  0.12500000000E+03 0.  0.
         25    1    1    2    0    0 -0.48593742903E+02  0.24425195890E+01  0.17658986935E+03  0.22175729911E+03  0.12500000000E+03 0.  0.
</event>
<event>
 5    0  0.5626800E-005  0.2371570E+03  0.7546771E-02  0.1121701E+00
         21   -1    0    0  502  501  0.00000000000E+00  0.00000000000E+00  0.46128291934E+02  0.46128291934E+02  0.00000000000E+00 0. -1.
         21   -1    0    0  501  502 -0.00000000000E+00 -0.00000000000E+00 -0.12192832585E+04  0.12192832585E+04  0.00000000000E+00 0. -1.
         25    1    1    2    0    0  0.71148923376E+02 -0.60589891857E+02 -0.33724029030E+03  0.37160371055E+03  0.12500000000E+03 0.  0.
         25    1    1    2    0    0 -0.28688556092E+02  0.11471778299E+03 -0.50258551969E+03  0.53122538304E+03  0.12500000000E+03 0.  0.
         25    1    1    2    0    0 -0.42460367284E+02 -0.54127891129E+02 -0.33332915658E+03  0.36258245685E+03  0.12500000000E+03 0.  0.
</event>
<event>
 5    0  0.5626800E-005  0.2587904E+03  0.7546771E-02  0.1107872E+00
         21   -1    0    0  502  501  0.00000000000E+00  0.00000000000E+00  0.96861641264E+03  0.96861641264E+03  0.00000000000E+00 0.  1.
         21   -1    0    0  501  502 -0.00000000000E+00 -0.00000000000E+00 -0.69142420969E+02  0.69142420969E+02  0.00000000000E+00 0.  1.
         25    1    1    2    0    0  0.85893790058E+02 -0.14388951969E+02  0.28088191434E+03  0.31953784583E+03  0.12500000000E+03 0.  0.
         25    1    1    2    0    0 -0.34681735035E+02 -0.56684975570E+02  0.89345949390E+02  0.16740283114E+03  0.12500000000E+03 0.  0.
         25    1    1    2    0    0 -0.51212055023E+02  0.71073927539E+02  0.52924612794E+03  0.55081815665E+03  0.12500000000E+03 0.  0.
</event>
<event>
 5    0  0.5626800E-005  0.3429947E+03  0.7546771E-02  0.1065528E+00
         21   -1    0    0  502  501  0.00000000000E+00  0.00000000000E+00  0.49741334659E+02  0.49741334659E+02  0.00000000000E+00 0.  1.
         21   -1    0    0  501  502 -0.00000000000E+00 -0.00000000000E+00 -0.23651428400E+04  0.23651428400E+04  0.00000000000E+00 0.  1.
         25    1    1    2    0    0  0.14192515438E+03 -0.13198046832E+03 -0.57747301501E+03  0.62182125770E+03  0.12500000000E+03 0.  0.
         25    1    1    2    0    0  0.62668450481E+02  0.12893539077E+03 -0.57396391892E+03  0.60465796108E+03  0.12500000000E+03 0.  0.
         25    1    1    2    0    0 -0.20459360486E+03  0.30450775506E+01 -0.11639645714E+04  0.11884049559E+04  0.12500000000E+03 0.  0.
</event>
<event>
 5    0  0.5626800E-005  0.2643825E+03  0.7546771E-02  0.1104538E+00
         21   -1    0    0  502  501  0.00000000000E+00  0.00000000000E+00  0.18562225970E+03  0.18562225970E+03  0.00000000000E+00 0.  1.
         21   -1    0    0  501  502 -0.00000000000E+00 -0.00000000000E+00 -0.37656111507E+03  0.37656111507E+03  0.00000000000E+00 0.  1.
         25    1    1    2    0    0 -0.77183199168E+02  0.62549538064E+02 -0.18733298662E+03  0.24614698621E+03  0.12500000000E+03 0.  0.
         25    1    1    2    0    0  0.73390421842E+02  0.27952765725E+02 -0.48305297891E+02  0.15532518448E+03  0.12500000000E+03 0.  0.
         25    1    1    2    0    0  0.37927773257E+01 -0.90502303789E+02  0.44699429135E+02  0.16071120408E+03  0.12500000000E+03 0.  0.
</event>
<event>
 5    0  0.5626800E-005  0.2695451E+03  0.7546771E-02  0.1101540E+00
         21   -1    0    0  502  501  0.00000000000E+00  0.00000000000E+00  0.79414566401E+02  0.79414566401E+02  0.00000000000E+00 0. -1.
         21   -1    0    0  501  502 -0.00000000000E+00 -0.00000000000E+00 -0.91487703281E+03  0.91487703281E+03  0.00000000000E+00 0. -1.
         25    1    1    2    0    0 -0.12897556395E+03  0.31725994352E+02 -0.40918230888E+03  0.44799151411E+03  0.12500000000E+03 0.  0.
         25    1    1    2    0    0  0.33052669273E+02 -0.92576009138E+02 -0.13059799805E+03  0.20577568736E+03  0.12500000000E+03 0.  0.
         25    1    1    2    0    0  0.95922894677E+02  0.60850014786E+02 -0.29568215948E+03  0.34052439774E+03  0.12500000000E+03 0.  0.
</event>
<event>
 5    0  0.5626800E-005  0.3573279E+03  0.7546771E-02  0.1059647E+00
         21   -1    0    0  502  501  0.00000000000E+00  0.00000000000E+00  0.11718976147E+04  0.11718976147E+04  0.00000000000E+00 0. -1.
         21   -1    0    0  501  502 -0.00000000000E+00 -0.00000000000E+00 -0.10895428013E+03  0.10895428013E+03  0.00000000000E+00 0. -1.
         25    1    1    2    0    0  0.11132671088E+03  0.13826685186E+03  0.35918273623E+03  0.41970060386E+03  0.12500000000E+03 0.  0.
         25    1    1    2    0    0 -0.39224204355E+02  0.93440887464E+02  0.78797273798E+02  0.17917518806E+03  0.12500000000E+03 0.  0.
         25    1    1    2    0    0 -0.72102506521E+02 -0.23170773933E+03  0.62496332451E+03  0.68197610287E+03  0.12500000000E+03 0.  0.
</event>
<event>
 5    0  0.5626800E-005  0.2679606E+03  0.7546771E-02  0.1102453E+00
         21   -1    0    0  502  501  0.00000000000E+00  0.00000000000E+00  0.28912052717E+03  0.28912052717E+03  0.00000000000E+00 0.  1.
         21   -1    0    0  501  502 -0.00000000000E+00 -0.00000000000E+00 -0.24834925210E+03  0.24834925210E+03  0.00000000000E+00 0.  1.
         25    1    1    2    0    0  0.22087542726E+02 -0.13931629494E+03  0.99945263624E+02  0.21333294471E+03  0.12500000000E+03 0.  0.
         25    1    1    2    0    0 -0.48130599308E+02  0.99928730495E+01 -0.45791104759E+02  0.14190925754E+03  0.12500000000E+03 0.  0.
         25    1    1    2    0    0  0.26043056582E+02  0.12932342189E+03 -0.13382883800E+02  0.18222757701E+03  0.12500000000E+03 0.  0.
</event>
<event>
 5    0  0.5626800E-005  0.4070105E+03  0.7546771E-02  0.1041379E+00
         21   -1    0    0  502  501  0.00000000000E+00  0.00000000000E+00  0.13738258737E+04  0.13738258737E+04  0.00000000000E+00 0. -1.
         21   -1    0    0  501  502 -0.00000000000E+00 -0.00000000000E+00 -0.12058116799E+03  0.12058116799E+03  0.00000000000E+00 0. -1.
         25    1    1    2    0    0 -0.14877414458E+03 -0.58197161247E+02  0.36571740904E+03  0.41820435071E+03  0.12500000000E+03 0.  0.
         25    1    1    2    0    0 -0.95255943506E+02  0.20536818124E+03  0.21928830499E+03  0.33906068092E+03  0.12500000000E+03 0.  0.
         25    1    1    2    0    0  0.24403008809E+03 -0.14717102000E+03  0.66823899168E+03  0.73714201008E+03  0.12500000000E+03 0.  0.
</event>
<event>
 5    0  0.5626800E-005  0.3126411E+03  0.7546771E-02  0.1079087E+00
         21   -1    0    0  502  501  0.00000000000E+00  0.00000000000E+00  0.16654874910E+04  0.16654874910E+04  0.00000000000E+00 0.  1.
         21   -1    0    0  501  502 -0.00000000000E+00 -0.00000000000E+00 -0.58688205524E+02  0.58688205524E+02  0.00000000000E+00 0.  1.
         25    1    1    2    0    0  0.57499880004E+01  0.29914819917E+02  0.71068072210E+02  0.14698173254E+03  0.12500000000E+03 0.  0.
         25    1    1    2    0    0 -0.39871222199E+02 -0.95148851162E+02  0.39030748263E+03  0.42262033699E+03  0.12500000000E+03 0.  0.
         25    1    1    2    0    0  0.34121234199E+02  0.65234031245E+02  0.11454237306E+04  0.11545736270E+04  0.12500000000E+03 0.  0.
</event>
<event>
 5    0  0.5626800E-005  0.2540811E+03  0.7546771E-02  0.1110752E+00
         21   -1    0    0  502  501  0.00000000000E+00  0.00000000000E+00  0.18863466294E+03  0.18863466294E+03  0.00000000000E+00 0. -1.
         21   -1    0    0  501  502 -0.00000000000E+00 -0.00000000000E+00 -0.34223412947E+03  0.34223412947E+03  0.00000000000E+00 0. -1.
         25    1    1    2    0    0  0.62266809057E+02 -0.97917613425E+02 -0.21864467961E+02  0.17195368414E+03  0.12500000000E+03 0.  0.
         25    1    1    2    0    0 -0.24372144259E+02  0.55054077982E+02 -0.16687990719E+03  0.21702270928E+03  0.12500000000E+03 0.  0.
         25    1    1    2    0    0 -0.37894664798E+02  0.42863535443E+02  0.35144908628E+02  0.14189239900E+03  0.12500000000E+03 0.  0.
</event>
<event>
 5    0  0.5626800E-005  0.2696319E+03  0.7546771E-02  0.1101490E+00
         21   -1    0    0  502  501  0.00000000000E+00  0.00000000000E+00  0.18302264108E+04  0.18302264108E+04  0.00000000000E+00 0.  1.
         21   -1    0    0  501  502 -0.00000000000E+00 -0.00000000000E+00 -0.39722596070E+02  0.39722596070E+02  0.00000000000E+00 0.  1.
         25    1    1    2    0    0 -0.80536319189E+02  0.88949161075E+02  0.40911231856E+03  0.44429263010E+03  0.12500000000E+03 0.  0.
         25    1    1    2    0    0 -0.56396281966E+02 -0.27957558588E+01  0.39035496097E+03  0.41375155882E+03  0.12500000000E+03 0.  0.
         25    1    1    2    0    0  0.13693260116E+03 -0.86153405216E+02  0.99103653519E+03  0.10119048179E+04  0.12500000000E+03 0.  0.
</event>
<event>
 5    0  0.5626800E-005  0.3434122E+03  0.7546771E-02  0.1065352E+00
         21   -1    0    0  502  501  0.00000000000E+00  0.00000000000E+00  0.27947455357E+03  0.27947455357E+03  0.00000000000E+00 0.  1.
         21   -1    0    0  501  502 -0.00000000000E+00 -0.00000000000E+00 -0.42197734147E+03  0.42197734147E+03  0.00000000000E+00 0.  1.
         25    1    1    2    0    0 -0.13573891527E+03  0.65415980481E+02  0.13120770962E+03  0.23567937264E+03  0.12500000000E+03 0.  0.
         25    1    1    2    0    0  0.17169211089E+02  0.43798157896E+02 -0.12205829640E+02  0.13411578103E+03  0.12500000000E+03 0.  0.
         25    1    1    2    0    0  0.11856970418E+03 -0.10921413838E+03 -0.26150466788E+03  0.33165674137E+03  0.12500000000E+03 0.  0.
</event>
<event>
 5    0  0.5626800E-005  0.3415769E+03  0.7546771E-02  0.1066126E+00
         21   -1    0    0  502  501  0.00000000000E+00  0.00000000000E+00  0.11297703624E+04  0.11297703624E+04  0.00000000000E+00 0. -1.
         21   -1    0    0  501  502 -0.00000000000E+00 -0.00000000000E+00 -0.10327300113E+03  0.10327300113E+03  0.00000000000E+00 0. -1.
         25    1    1    2    0    0  0.25331508223E+03  0.18068967126E+02  0.60981548337E+03  0.67230569105E+03  0.12500000000E+03 0.  0.
         25    1    1    2    0    0 -0.10553646696E+03  0.41429417850E+02  0.14921942043E+03  0.22526823557E+03  0.12500000000E+03 0.  0.
         25    1    1    2    0    0 -0.14777861527E+03 -0.59498384976E+02  0.26746245747E+03  0.33546943691E+03  0.12500000000E+03 0.  0.
</event>
<event>
 5    0  0.5626800E-005  0.3465252E+03  0.7546771E-02  0.1064050E+00
         21   -1    0    0  502  501  0.00000000000E+00  0.00000000000E+00  0.37678265577E+03  0.37678265577E+03  0.00000000000E+00 0. -1.
         21   -1    0    0  501  502 -0.00000000000E+00 -0.00000000000E+00 -0.31869755850E+03  0.31869755850E+03  0.00000000000E+00 0. -1.
         25    1    1    2    0    0  0.32013885311E+02  0.14072577087E+03  0.13259815954E+03  0.23245623965E+03  0.12500000000E+03 0.  0.
         25    1    1    2    0    0  0.62660991293E+02  0.79220527060E+02 -0.10380822330E+03  0.19132025236E+03  0.12500000000E+03 0.  0.
         25    1    1    2    0    0 -0.94674876604E+02 -0.21994629793E+03  0.29295161032E+02  0.27170372226E+03  0.12500000000E+03 0.  0.
</event>
<event>
 5    0  0.5626800E-005  0.3170863E+03  0.7546771E-02  0.1076998E+00
         21   -1    0    0  502  501  0.00000000000E+00  0.00000000000E+00  0.60686392631E+03  0.60686392631E+03  0.00000000000E+00 0. -1.
         21   -1    0    0  501  502 -0.00000000000E+00 -0.00000000000E+00 -0.16567749635E+03  0.16567749635E+03  0.00000000000E+00 0. -1.
         25    1    1    2    0    0 -0.16401462841E+03 -0.11628604925E+03  0.27261771756E+03  0.36106600991E+03  0.12500000000E+03 0.  0.
         25    1    1    2    0    0  0.79700546798E+02  0.15482747253E+03  0.13156338036E+03  0.25151072832E+03  0.12500000000E+03 0.  0.
         25    1    1    2    0    0  0.84314081613E+02 -0.38541423274E+02  0.37005332035E+02  0.15996468443E+03  0.12500000000E+03 0.  0.
</event>
<event>
 5    0  0.5626800E-005  0.2654625E+03  0.7546771E-02  0.1103905E+00
         21   -1    0    0  502  501  0.00000000000E+00  0.00000000000E+00  0.35271940457E+03  0.35271940457E+03  0.00000000000E+00 0.  1.
         21   -1    0    0  501  502 -0.00000000000E+00 -0.00000000000E+00 -0.19979150245E+03  0.19979150245E+03  0.00000000000E+00 0.  1.
         25    1    1    2    0    0 -0.62188650642E+02  0.14652746322E+03  0.13412903148E+03  0.24280305359E+03  0.12500000000E+03 0.  0.
         25    1    1    2    0    0  0.63206577963E+01 -0.84567999550E+02  0.43990680813E+02  0.15732729344E+03  0.12500000000E+03 0.  0.
         25    1    1    2    0    0  0.55867992846E+02 -0.61959463667E+02 -0.25191810178E+02  0.15238055999E+03  0.12500000000E+03 0.  0.
</event>
<event>
 5    0  0.5626800E-005  0.2386428E+03  0.7546771E-02  0.1120700E+00
         21   -1    0    0  502  501  0.00000000000E+00  0.00000000000E+00  0.46066673507E+03  0.46066673507E+03  0.00000000000E+00 0. -1.
         21   -1    0    0  501  502 -0.00000000000E+00 -0.00000000000E+00 -0.12362598259E+03  0.12362598259E+03  0.00000000000E+00 0. -1.
         25    1    1    2    0    0  0.26328784088E+02 -0.10003585559E+03  0.83464309208E+02  0.18246004545E+03  0.12500000000E+03 0.  0.
         25    1    1    2    0    0  0.51214690524E+02  0.27543785602E+02  0.16646206457E+03  0.21613936150E+03  0.12500000000E+03 0.  0.
         25    1    1    2    0    0 -0.77543474612E+02  0.72492069984E+02  0.87114378701E+02  0.18569331071E+03  0.12500000000E+03 0.  0.
</event>
<event>
 5    0  0.5626800E-005  0.4357896E+03  0.7546771E-02  0.1032047E+00
         21   -1    0    0  502  501  0.00000000000E+00  0.00000000000E+00  0.63069190773E+02  0.63069190773E+02  0.00000000000E+00 0. -1.
         21   -1    0    0  501  502 -0.00000000000E+00 -0.00000000000E+00 -0.30111783790E+04  0.30111783790E+04  0.00000000000E+00 0. -1.
         25    1    1    2    0    0  0.22546725636E+03  0.13172651422E+03 -0.17094599268E+04  0.17338009112E+04  0.12500000000E+03 0.  0.
         25    1    1    2    0    0 -0.81438240031E+01 -0.21391674262E+03 -0.56607326404E+03  0.61797300499E+03  0.12500000000E+03 0.  0.
         25    1    1    2    0    0 -0.21732343236E+03  0.82190228403E+02 -0.67257599741E+03  0.72247365363E+03  0.12500000000E+03 0.  0.
</event>
<event>
 5    0  0.6129189E-005  0.3035002E+03  0.7546771E-02  0.1083504E+00
         21   -1    0    0  502  501  0.00000000000E+00  0.00000000000E+00  0.54652057551E+03  0.54652057551E+03  0.00000000000E+00 0.  1.
         21   -1    0    0  501  502 -0.00000000000E+00 -0.00000000000E+00 -0.16854323453E+03  0.16854323453E+03  0.00000000000E+00 0.  1.
         25    1    1    2    0    0 -0.19321905529E+03 -0.19759012651E+01  0.18124574432E+03  0.29293775337E+03  0.12500000000E+03 0.  0.
         25    1    1    2    0    0  0.63209822856E+02  0.78856405682E+02  0.27390407695E+02  0.16306148796E+03  0.12500000000E+03 0.  0.
         25    1    1    2    0    0  0.13000923244E+03 -0.76880504417E+02  0.16934118896E+03  0.25906456870E+03  0.12500000000E+03 0.  0.
</event>
<event>
 5    0  0.5626800E-005  0.2366826E+03  0.7546771E-02  0.1122023E+00
         21   -1    0    0  502  501  0.00000000000E+00  0.00000000000E+00  0.43564440738E+03  0.43564440738E+03  0.00000000000E+00 0. -1.
         21   -1    0    0  501  502 -0.00000000000E+00 -0.00000000000E+00 -0.12858800666E+03  0.12858800666E+03  0.00000000000E+00 0. -1.
         25    1    1    2    0    0 -0.86752714843E+02 -0.57237899297E+02  0.93178854965E+02  0.18737531764E+03  0.12500000000E+03 0.  0.
         25    1    1    2    0    0  0.66488789256E+02 -0.27451142084E+02  0.48859901176E+02  0.15227151487E+03  0.12500000000E+03 0.  0.
         25    1    1    2    0    0  0.20263925588E+02  0.84689041381E+02  0.16501764458E+03  0.22458558153E+03  0.12500000000E+03 0.  0.
</event>
<event>
 5    0  0.5626800E-005  0.3991705E+03  0.7546771E-02  0.1044067E+00
         21   -1    0    0  502  501  0.00000000000E+00  0.00000000000E+00  0.53573091485E+03  0.53573091485E+03  0.00000000000E+00 0.  1.
         21   -1    0    0  501  502 -0.00000000000E+00 -0.00000000000E+00 -0.29742007296E+03  0.29742007296E+03  0.00000000000E+00 0.  1.
         25    1    1    2    0    0 -0.21690482804E+02  0.10622678065E+03  0.18090505120E+03  0.24516574704E+03  0.12500000000E+03 0.  0.
         25    1    1    2    0    0  0.36413702721E+02  0.71175328301E+02  0.25440844874E+03  0.29451747638E+03  0.12500000000E+03 0.  0.
         25    1    1    2    0    0 -0.14723219917E+02 -0.17740210895E+03 -0.19700265804E+03  0.29346776440E+03  0.12500000000E+03 0.  0.
</event>
<event>
 5    0  0.5626800E-005  0.3049911E+03  0.7546771E-02  0.1082772E+00
         21   -1    0    0  502  501  0.00000000000E+00  0.00000000000E+00  0.56995867350E+03  0.56995867350E+03  0.00000000000E+00 0.  1.
         21   -1    0    0  501  502 -0.00000000000E+00 -0.00000000000E+00 -0.16320402993E+03  0.16320402993E+03  0.00000000000E+00 0.  1.
         25    1    1    2    0    0 -0.15762102373E+03  0.14730245594E+02  0.26513654118E+02  0.20344370502E+03  0.12500000000E+03 0.  0.
         25    1    1    2    0    0  0.91429717335E+02 -0.38044819395E+02  0.45908851691E+02  0.16595006526E+03  0.12500000000E+03 0.  0.
         25    1    1    2    0    0  0.66191306397E+02  0.23314573801E+02  0.33433213776E+03  0.36376893316E+03  0.12500000000E+03 0.  0.
</event>
<event>
 5    0  0.6487458E-005  0.6292080E+03  0.7546771E-02  0.9846596E-01
         21   -1    0    0  502  501  0.00000000000E+00  0.00000000000E+00  0.24884279135E+03  0.24884279135E+03  0.00000000000E+00 0. -1.
         21   -1    0    0  501  502 -0.00000000000E+00 -0.00000000000E+00 -0.15909752240E+04  0.15909752240E+04  0.00000000000E+00 0.  1.
         25    1    1    2    0    0 -0.10185028297E+03 -0.14359655417E+02 -0.93608922292E+03  0.94998300675E+03  0.12500000000E+03 0.  0.
         25    1    1    2    0    0  0.42477336842E+03  0.10896916061E+02 -0.19206102148E+03  0.48276660331E+03  0.12500000000E+03 0.  0.
         25    1    1    2    0    0 -0.32292308545E+03  0.34627393565E+01 -0.21398218822E+03  0.40706840526E+03  0.12500000000E+03 0.  0.
</event>
<event>
 5    0  0.5626800E-005  0.4068879E+03  0.7546771E-02  0.1041420E+00
         21   -1    0    0  502  501  0.00000000000E+00  0.00000000000E+00  0.88835952973E+03  0.88835952973E+03  0.00000000000E+00 0. -1.
         21   -1    0    0  501  502 -0.00000000000E+00 -0.00000000000E+00 -0.18636348122E+03  0.18636348122E+03  0.00000000000E+00 0. -1.
         25    1    1    2    0    0 -0.17955700816E+03 -0.71648344499E+02  0.20930315353E+03  0.31113825629E+03  0.12500000000E+03 0.  0.
         25    1    1    2    0    0  0.29480080122E+03 -0.77264954472E+02  0.40283864629E+03  0.52036656362E+03  0.12500000000E+03 0.  0.
         25    1    1    2    0    0 -0.11524379306E+03  0.14891329897E+03  0.89854248700E+02  0.24321819105E+03  0.12500000000E+03 0.  0.
</event>
<event>
 5    0  0.5642465E-005  0.2889004E+03  0.7546771E-02  0.1090925E+00
         21   -1    0    0  502  501  0.00000000000E+00  0.00000000000E+00  0.69864828108E+03  0.69864828108E+03  0.00000000000E+00 0.  1.
         21   -1    0    0  501  502 -0.00000000000E+00 -0.00000000000E+00 -0.11946421360E+03  0.11946421360E+03  0.00000000000E+00 0.  1.
         25    1    1    2    0    0  0.81370384248E+02 -0.44351422918E+02  0.14526798780E+02  0.15628248792E+03  0.12500000000E+03 0.  0.
         25    1    1    2    0    0  0.58923283794E+02  0.55982639909E+02  0.32080464534E+03  0.35376069569E+03  0.12500000000E+03 0.  0.
         25    1    1    2    0    0 -0.14029366804E+03 -0.11631216991E+02  0.24385262336E+03  0.30806931107E+03  0.12500000000E+03 0.  0.
</event>
<event>
 5    0  0.5626800E-005  0.2263806E+03  0.7546771E-02  0.1129214E+00
         21   -1    0    0  502  501  0.00000000000E+00  0.00000000000E+00  0.10275106802E+04  0.10275106802E+04  0.00000000000E+00 0.  1.
         21   -1    0    0  501  502 -0.00000000000E+00 -0.00000000000E+00 -0.49876040439E+02  0.49876040439E+02  0.00000000000E+00 0.  1.
         25    1    1    2    0    0 -0.90624327501E+01  0.56860771330E+02  0.50347071687E+03  0.52194160377E+03  0.12500000000E+03 0.  0.
         25    1    1    2    0    0 -0.26237225512E+02 -0.38200910608E+02  0.35104835637E+03  0.37550985351E+03  0.12500000000E+03 0.  0.
         25    1    1    2    0    0  0.35299658263E+02 -0.18659860721E+02  0.12311556649E+03  0.17993526333E+03  0.12500000000E+03 0.  0.
</event>
<event>
 5    0  0.5626800E-005  0.3825497E+03  0.7546771E-02  0.1049995E+00
         21   -1    0    0  502  501  0.00000000000E+00  0.00000000000E+00  0.12533628532E+03  0.12533628532E+03  0.00000000000E+00 0. -1.
         21   -1    0    0  501  502 -0.00000000000E+00 -0.00000000000E+00 -0.11676131323E+04  0.11676131323E+04  0.00000000000E+00 0. -1.
         25    1    1    2    0    0  0.17739300321E+03  0.80158523426E+02 -0.11326367735E+03  0.25757974896E+03  0.12500000000E+03 0.  0.
         25    1    1    2    0    0 -0.75663278473E+02  0.12700402568E+03 -0.36056655695E+03  0.40925321775E+03  0.12500000000E+03 0.  0.
         25    1    1    2    0    0 -0.10172972474E+03 -0.20716254910E+03 -0.56844661272E+03  0.62611645096E+03  0.12500000000E+03 0.  0.
</event>
<event>
 5    0  0.5626800E-005  0.3162079E+03  0.7546771E-02  0.1077408E+00
         21   -1    0    0  502  501  0.00000000000E+00  0.00000000000E+00  0.18857161651E+03  0.18857161651E+03  0.00000000000E+00 0.  1.
         21   -1    0    0  501  502 -0.00000000000E+00 -0.00000000000E+00 -0.53023603019E+03  0.53023603019E+03  0.00000000000E+00 0.  1.
         25    1    1    2    0    0 -0.11406313441E+03  0.35766049030E+02  0.77491190724E+02  0.18952438771E+03  0.12500000000E+03 0.  0.
         25    1    1    2    0    0 -0.76367911578E+01  0.15714263437E+02 -0.25384318540E+03  0.28349007289E+03  0.12500000000E+03 0.  0.
         25    1    1    2    0    0  0.12169992557E+03 -0.51480312467E+02 -0.16531241900E+03  0.24579318610E+03  0.12500000000E+03 0.  0.
</event>
<event>
 5    0  0.5626800E-005  0.2586544E+03  0.7546771E-02  0.1107954E+00
         21   -1    0    0  502  501  0.00000000000E+00  0.00000000000E+00  0.46299095561E+03  0.46299095561E+03  0.00000000000E+00 0. -1.
         21   -1    0    0  501  502 -0.00000000000E+00 -0.00000000000E+00 -0.14449984107E+03  0.14449984107E+03  0.00000000000E+00 0. -1.
         25    1    1    2    0    0 -0.55013121288E+02  0.51001051681E+02  0.91337226852E+02  0.17203208944E+03  0.12500000000E+03 0.  0.
         25    1    1    2    0    0 -0.61432984129E+02 -0.10856235080E+03  0.17303971275E+03  0.24723983849E+03  0.12500000000E+03 0.  0.
         25    1    1    2    0    0  0.11644610542E+03  0.57561299124E+02  0.54114174944E+02  0.18821886875E+03  0.12500000000E+03 0.  0.
</event>
<event>
 5    0  0.6475507E-005  0.4378743E+03  0.7546771E-02  0.1031401E+00
         21   -1    0    0  502  501  0.00000000000E+00  0.00000000000E+00  0.31369798076E+03  0.31369798076E+03  0.00000000000E+00 0. -1.
         21   -1    0    0  501  502 -0.00000000000E+00 -0.00000000000E+00 -0.61120548530E+03  0.61120548530E+03  0.00000000000E+00 0. -1.
         25    1    1    2    0    0 -0.69485027039E+02 -0.15020763065E+03 -0.30257173456E+03  0.36683123619E+03  0.12500000000E+03 0.  0.
         25    1    1    2    0    0  0.11176362484E+03 -0.94916156670E+02  0.15003273845E+03  0.24420279941E+03  0.12500000000E+03 0.  0.
         25    1    1    2    0    0 -0.42278597797E+02  0.24512378732E+03 -0.14496850843E+03  0.31386943046E+03  0.12500000000E+03 0.  0.
</event>
<event>
 5    0  0.5626800E-005  0.2950373E+03  0.7546771E-02  0.1087748E+00
         21   -1    0    0  502  501  0.00000000000E+00  0.00000000000E+00  0.10925497766E+04  0.10925497766E+04  0.00000000000E+00 0. -1.
         21   -1    0    0  501  502 -0.00000000000E+00 -0.00000000000E+00 -0.79673266096E+02  0.79673266096E+02  0.00000000000E+00 0. -1.
         25    1    1    2    0    0 -0.17029351900E+03 -0.37136494553E+02  0.40030849634E+03  0.45414853747E+03  0.12500000000E+03 0.  0.
         25    1    1    2    0    0  0.61523446035E+02  0.11068353998E+03  0.20157264263E+03  0.26887266631E+03  0.12500000000E+03 0.  0.
         25    1    1    2    0    0  0.10877007296E+03 -0.73547045423E+02  0.41099537150E+03  0.44920183888E+03  0.12500000000E+03 0.  0.
</event>
<event>
 5    0  0.5626800E-005  0.2888149E+03  0.7546771E-02  0.1090970E+00
         21   -1    0    0  502  501  0.00000000000E+00  0.00000000000E+00  0.85558147585E+03  0.85558147585E+03  0.00000000000E+00 0.  1.
         21   -1    0    0  501  502 -0.00000000000E+00 -0.00000000000E+00 -0.97493957245E+02  0.97493957245E+02  0.00000000000E+00 0.  1.
         25    1    1    2    0    0 -0.13217099398E+03  0.52343773524E+02  0.83995617043E+02  0.20709733450E+03  0.12500000000E+03 0.  0.
         25    1    1    2    0    0 -0.36947843957E+01 -0.76061184185E+01  0.32914865952E+03  0.35218651952E+03  0.12500000000E+03 0.  0.
         25    1    1    2    0    0  0.13586577837E+03 -0.44737655106E+02  0.34494324204E+03  0.39379157907E+03  0.12500000000E+03 0.  0.
</event>
<event>
 5    0  0.5626800E-005  0.2593184E+03  0.7546771E-02  0.1107553E+00
         21   -1    0    0  502  501  0.00000000000E+00  0.00000000000E+00  0.83066553610E+03  0.83066553610E+03  0.00000000000E+00 0.  1.
         21   -1    0    0  501  502 -0.00000000000E+00 -0.00000000000E+00 -0.80954393064E+02  0.80954393064E+02  0.00000000000E+00 0.  1.
         25    1    1    2    0    0 -0.21900560052E+02  0.27407714430E+02  0.24803774595E+03  0.27996167730E+03  0.12500000000E+03 0.  0.
         25    1    1    2    0    0 -0.49505273195E+02 -0.30191656502E+02  0.33450042752E+02  0.14179638062E+03  0.12500000000E+03 0.  0.
         25    1    1    2    0    0  0.71405833248E+02  0.27839420717E+01  0.46822335434E+03  0.48986187125E+03  0.12500000000E+03 0.  0.
</event>
<event>
 5    0  0.5626800E-005  0.3379187E+03  0.7546771E-02  0.1067686E+00
         21   -1    0    0  502  501  0.00000000000E+00  0.00000000000E+00  0.25046984891E+03  0.25046984891E+03  0.00000000000E+00 0. -1.
         21   -1    0    0  501  502 -0.00000000000E+00 -0.00000000000E+00 -0.45589940691E+03  0.45589940691E+03  0.00000000000E+00 0. -1.
         25    1    1    2    0    0  0.11598766573E+02 -0.70109353868E+02 -0.48683924551E+02  0.15180572254E+03  0.12500000000E+03 0.  0.
         25    1    1    2    0    0  0.20074623647E+03  0.44891299352E+02 -0.18730180058E+03  0.30499384374E+03  0.12500000000E+03 0.  0.
         25    1    1    2    0    0 -0.21234500304E+03  0.25218054515E+02  0.30556167133E+02  0.24956968955E+03  0.12500000000E+03 0.  0.
</event>
<event>
 5    0  0.5626800E-005  0.2227639E+03  0.7546771E-02  0.1131839E+00
         21   -1    0    0  502  501  0.00000000000E+00  0.00000000000E+00  0.88050871547E+03  0.88050871547E+03  0.00000000000E+00 0.  1.
         21   -1    0    0  501  502 -0.00000000000E+00 -0.00000000000E+00 -0.56358060570E+02  0.56358060570E+02  0.00000000000E+00 0.  1.
         25    1    1    2    0    0 -0.27197180773E+02  0.11908372425E+02  0.24117277327E+03  0.27325958820E+03  0.12500000000E+03 0.  0.
         25    1    1    2    0    0 -0.42955839516E+02  0.69173704258E+02  0.23063354247E+03  0.27467623927E+03  0.12500000000E+03 0.  0.
         25    1    1    2    0    0  0.70153020289E+02 -0.81082076683E+02  0.35234433917E+03  0.38893094857E+03  0.12500000000E+03 0.  0.
</event>
<event>
 5    0  0.5626800E-005  0.3301344E+03  0.7546771E-02  0.1071077E+00
         21   -1    0    0  502  501  0.00000000000E+00  0.00000000000E+00  0.23315853713E+03  0.23315853713E+03  0.00000000000E+00 0.  1.
         21   -1    0    0  501  502 -0.00000000000E+00 -0.00000000000E+00 -0.46744458483E+03  0.46744458483E+03  0.00000000000E+00 0.  1.
         25    1    1    2    0    0 -0.19893016829E+02 -0.20156506815E+03 -0.57167716413E+02  0.24478022105E+03  0.12500000000E+03 0.  0.
         25    1    1    2    0    0  0.45367989943E+02 -0.24520563452E+02 -0.13816414233E+03  0.19332315632E+03  0.12500000000E+03 0.  0.
         25    1    1    2    0    0 -0.25474973114E+02  0.22608563160E+03 -0.38954188948E+02  0.26249974459E+03  0.12500000000E+03 0.  0.
</event>
<event>
 5    0  0.5626800E-005  0.2372443E+03  0.7546771E-02  0.1121642E+00
         21   -1    0    0  502  501  0.00000000000E+00  0.00000000000E+00  0.43286087636E+03  0.43286087636E+03  0.00000000000E+00 0.  1.
         21   -1    0    0  501  502 -0.00000000000E+00 -0.00000000000E+00 -0.13002994576E+03  0.13002994576E+03  0.00000000000E+00 0.  1.
         25    1    1    2    0    0 -0.16423581136E+02 -0.36847321192E+01  0.10268090297E+03  0.16263972179E+03  0.12500000000E+03 0.  0.
         25    1    1    2    0    0 -0.15900866232E+02  0.81651659158E+02  0.64696856360E+00  0.15015075610E+03  0.12500000000E+03 0.  0.
         25    1    1    2    0    0  0.32324447369E+02 -0.77966927039E+02  0.19950305907E+03  0.25010034424E+03  0.12500000000E+03 0.  0.
</event>
<event>
 5    0  0.5626800E-005  0.4635503E+03  0.7546771E-02  0.1023757E+00
         21   -1    0    0  502  501  0.00000000000E+00  0.00000000000E+00  0.18786688164E+04  0.18786688164E+04  0.00000000000E+00 0. -1.
         21   -1    0    0  501  502 -0.00000000000E+00 -0.00000000000E+00 -0.11437824624E+03  0.11437824624E+03  0.00000000000E+00 0. -1.
         25    1    1    2    0    0 -0.25495446827E+03  0.28670705088E+03  0.83168138350E+03  0.92440339548E+03  0.12500000000E+03 0.  0.
         25    1    1    2    0    0  0.12494266546E+03 -0.26220733227E+03  0.73418402564E+03  0.79938384913E+03  0.12500000000E+03 0.  0.
         25    1    1    2    0    0  0.13001180281E+03 -0.24499718612E+02  0.19842516106E+03  0.26925981806E+03  0.12500000000E+03 0.  0.
</event>
<event>
 5    0  0.5626800E-005  0.3099604E+03  0.7546771E-02  0.1080365E+00
         21   -1    0    0  502  501  0.00000000000E+00  0.00000000000E+00  0.19820248347E+03  0.19820248347E+03  0.00000000000E+00 0. -1.
         21   -1    0    0  501  502 -0.00000000000E+00 -0.00000000000E+00 -0.48473394051E+03  0.48473394051E+03  0.00000000000E+00 0. -1.
         25    1    1    2    0    0  0.15598566946E+03  0.32122831993E+02 -0.35957887427E+02  0.20562435430E+03  0.12500000000E+03 0.  0.
         25    1    1    2    0    0 -0.96139824640E+02 -0.45729243520E+02  0.27349010680E+02  0.16645419184E+03  0.12500000000E+03 0.  0.
         25    1    1    2    0    0 -0.59845844820E+02  0.13606411527E+02 -0.27792258029E+03  0.31085787784E+03  0.12500000000E+03 0.  0.
</event>
<event>
 5    0  0.6320899E-005  0.3466211E+03  0.7546771E-02  0.1064010E+00
         21   -1    0    0  502  501  0.00000000000E+00  0.00000000000E+00  0.63152274848E+03  0.63152274848E+03  0.00000000000E+00 0.  1.
         21   -1    0    0  501  502 -0.00000000000E+00 -0.00000000000E+00 -0.19024843216E+03  0.19024843216E+03  0.00000000000E+00 0.  1.
         25    1    1    2    0    0  0.36869184254E+01 -0.18759260648E+03  0.23365842808E+03  0.32469345603E+03  0.12500000000E+03 0.  0.
         25    1    1    2    0    0  0.88365430124E+02  0.23455397385E+03  0.17896462880E+03  0.33238133860E+03  0.12500000000E+03 0.  0.
         25    1    1    2    0    0 -0.92052348549E+02 -0.46961367363E+02  0.28651259443E+02  0.16469638601E+03  0.12500000000E+03 0.  0.
</event>
<event>
 5    0  0.5626800E-005  0.2763615E+03  0.7546771E-02  0.1097693E+00
         21   -1    0    0  502  501  0.00000000000E+00  0.00000000000E+00  0.46637735074E+02  0.46637735074E+02  0.00000000000E+00 0. -1.
         21   -1    0    0  501  502 -0.00000000000E+00 -0.00000000000E+00 -0.16376371719E+04  0.16376371719E+04  0.00000000000E+00 0. -1.
         25    1    1    2    0    0  0.75434477458E+02 -0.12762280581E+02 -0.10258577788E+04  0.10362733319E+04  0.12500000000E+03 0.  0.
         25    1    1    2    0    0  0.48824500717E+02  0.52179301791E+01 -0.18190032048E+03  0.22610569488E+03  0.12500000000E+03 0.  0.
         25    1    1    2    0    0 -0.12425897817E+03  0.75443504018E+01 -0.38324133759E+03  0.42189588019E+03  0.12500000000E+03 0.  0.
</event>
<event>
 5    0  0.5626800E-005  0.3470015E+03  0.7546771E-02  0.1063853E+00
         21   -1    0    0  502  501  0.00000000000E+00  0.00000000000E+00  0.10145482901E+04  0.10145482901E+04  0.00000000000E+00 0. -1.
         21   -1    0    0  501  502 -0.00000000000E+00 -0.00000000000E+00 -0.11868340821E+03  0.11868340821E+03  0.00000000000E+00 0. -1.
         25    1    1    2    0    0 -0.12292391365E+03  0.42454043029E+02  0.46245087770E+03  0.49638538314E+03  0.12500000000E+03 0.  0.
         25    1    1    2    0    0  0.16098225346E+03  0.10431686074E+03  0.10002705613E+03  0.24985536880E+03  0.12500000000E+03 0.  0.
         25    1    1    2    0    0 -0.38058339809E+02 -0.14677090377E+03  0.33338694806E+03  0.38699094636E+03  0.12500000000E+03 0.  0.
</event>
<event>
 5    0  0.5626800E-005  0.3392591E+03  0.7546771E-02  0.1067112E+00
         21   -1    0    0  502  501  0.00000000000E+00  0.00000000000E+00  0.14349603521E+03  0.14349603521E+03  0.00000000000E+00 0.  1.
         21   -1    0    0  501  502 -0.00000000000E+00 -0.00000000000E+00 -0.80209012742E+03  0.80209012742E+03  0.00000000000E+00 0.  1.
         25    1    1    2    0    0 -0.52160228554E+02 -0.12393781360E+03 -0.46489694507E+02  0.18938733532E+03  0.12500000000E+03 0.  0.
         25    1    1    2    0    0  0.87310849473E+01  0.69114517107E+02 -0.59497444697E+03  0.61194169728E+03  0.12500000000E+03 0.  0.
         25    1    1    2    0    0  0.43429143607E+02  0.54823296497E+02 -0.17129950731E+02  0.14425713003E+03  0.12500000000E+03 0.  0.
</event>
<event>
 5    0  0.5626800E-005  0.2949883E+03  0.7546771E-02  0.1087773E+00
         21   -1    0    0  502  501  0.00000000000E+00  0.00000000000E+00  0.20595886529E+03  0.20595886529E+03  0.00000000000E+00 0.  1.
         21   -1    0    0  501  502 -0.00000000000E+00 -0.00000000000E+00 -0.42250240394E+03  0.42250240394E+03  0.00000000000E+00 0.  1.
         25    1    1    2    0    0 -0.86536575925E+02 -0.18785116048E+02 -0.35395891930E+02  0.15722381729E+03  0.12500000000E+03 0.  0.
         25    1    1    2    0    0  0.13417534413E+03 -0.83877334240E+01 -0.25642047425E+03  0.31535668165E+03  0.12500000000E+03 0.  0.
         25    1    1    2    0    0 -0.47638768208E+02  0.27172849472E+02  0.75272827530E+02  0.15588077030E+03  0.12500000000E+03 0.  0.
</event>
<event>
 5    0  0.5626800E-005  0.2601617E+03  0.7546771E-02  0.1107046E+00
         21   -1    0    0  502  501  0.00000000000E+00  0.00000000000E+00  0.71970884715E+02  0.71970884715E+02  0.00000000000E+00 0. -1.
         21   -1    0    0  501  502 -0.00000000000E+00 -0.00000000000E+00 -0.94043705321E+03  0.94043705321E+03  0.00000000000E+00 0. -1.
         25    1    1    2    0    0  0.56096594833E+02  0.13957910571E+03 -0.27869159528E+03  0.34047490361E+03  0.12500000000E+03 0.  0.
         25    1    1    2    0    0  0.21661631257E+02 -0.11772192295E+03 -0.32400091609E+03  0.36732719888E+03  0.12500000000E+03 0.  0.
         25    1    1    2    0    0 -0.77758226090E+02 -0.21857182762E+02 -0.26577365712E+03  0.30460583544E+03  0.12500000000E+03 0.  0.
</event>
<event>
 5    0  0.5626800E-005  0.3662638E+03  0.7546771E-02  0.1056131E+00
         21   -1    0    0  502  501  0.00000000000E+00  0.00000000000E+00  0.30170441303E+03  0.30170441303E+03  0.00000000000E+00 0.  1.
         21   -1    0    0  501  502 -0.00000000000E+00 -0.00000000000E+00 -0.44463768848E+03  0.44463768848E+03  0.00000000000E+00 0.  1.
         25    1    1    2    0    0  0.59351779267E+01  0.15781535959E+03 -0.15777024741E+02  0.20202680161E+03  0.12500000000E+03 0.  0.
         25    1    1    2    0    0 -0.22071964509E+03 -0.70134149430E+02 -0.90246008190E+02  0.27821808467E+03  0.12500000000E+03 0.  0.
         25    1    1    2    0    0  0.21478446716E+03 -0.87681210156E+02 -0.36910242521E+02  0.26609721523E+03  0.12500000000E+03 0.  0.
</event>
<event>
 5    0  0.5626800E-005  0.4347312E+03  0.7546771E-02  0.1032376E+00
         21   -1    0    0  502  501  0.00000000000E+00  0.00000000000E+00  0.45701434840E+03  0.45701434840E+03  0.00000000000E+00 0.  1.
         21   -1    0    0  501  502 -0.00000000000E+00 -0.00000000000E+00 -0.41353449484E+03  0.41353449484E+03  0.00000000000E+00 0.  1.
         25    1    1    2    0    0  0.30333204369E+00 -0.52727581516E+01 -0.13665604515E+03  0.18527754496E+03  0.12500000000E+03 0.  0.
         25    1    1    2    0    0  0.50182379190E+02  0.15989440247E+03  0.35746354858E+03  0.41411312426E+03  0.12500000000E+03 0.  0.
         25    1    1    2    0    0 -0.50485711233E+02 -0.15462164432E+03 -0.17732764987E+03  0.27115817402E+03  0.12500000000E+03 0.  0.
</event>
<event>
 5    0  0.5626800E-005  0.4359014E+03  0.7546771E-02  0.1032012E+00
         21   -1    0    0  502  501  0.00000000000E+00  0.00000000000E+00  0.39496006598E+03  0.39496006598E+03  0.00000000000E+00 0. -1.
         21   -1    0    0  501  502 -0.00000000000E+00 -0.00000000000E+00 -0.48108666148E+03  0.48108666148E+03  0.00000000000E+00 0. -1.
         25    1    1    2    0    0  0.26645502204E+02 -0.26244547920E+02  0.16532945305E+03  0.21061240972E+03  0.12500000000E+03 0.  0.
         25    1    1    2    0    0 -0.17184554388E+03  0.23022827193E+03 -0.22210615102E+03  0.38404698992E+03  0.12500000000E+03 0.  0.
         25    1    1    2    0    0  0.14520004168E+03 -0.20398372401E+03 -0.29349897535E+02  0.28138732781E+03  0.12500000000E+03 0.  0.
</event>
<event>
 5    0  0.5626800E-005  0.5628858E+03  0.7546771E-02  0.9985546E-01
         21   -1    0    0  502  501  0.00000000000E+00  0.00000000000E+00  0.58033453201E+03  0.58033453201E+03  0.00000000000E+00 0. -1.
         21   -1    0    0  501  502 -0.00000000000E+00 -0.00000000000E+00 -0.54596169273E+03  0.54596169273E+03  0.00000000000E+00 0. -1.
         25    1    1    2    0    0 -0.78465542839E+02  0.51470362960E+02  0.22084051806E+03  0.27055789416E+03  0.12500000000E+03 0.  0.
         25    1    1    2    0    0 -0.21805624098E+03  0.27399997032E+03 -0.13320023214E+03  0.39495798487E+03  0.12500000000E+03 0.  0.
         25    1    1    2    0    0  0.29652178382E+03 -0.32547033328E+03 -0.53267446638E+02  0.46078034571E+03  0.12500000000E+03 0.  0.
</event>
<event>
 5    0  0.5626800E-005  0.3203602E+03  0.7546771E-02  0.1075484E+00
         21   -1    0    0  502  501  0.00000000000E+00  0.00000000000E+00  0.10219101071E+04  0.10219101071E+04  0.00000000000E+00 0.  1.
         21   -1    0    0  501  502 -0.00000000000E+00 -0.00000000000E+00 -0.10043020279E+03  0.10043020279E+03  0.00000000000E+00 0.  1.
         25    1    1    2    0    0 -0.23129291086E+02  0.13465409647E+03  0.95658410301E+02  0.20842797620E+03  0.12500000000E+03 0.  0.
         25    1    1    2    0    0 -0.11566334105E+03 -0.44141719462E+02  0.47176833503E+03  0.50350457972E+03  0.12500000000E+03 0.  0.
         25    1    1    2    0    0  0.13879263214E+03 -0.90512377012E+02  0.35405315899E+03  0.41040775397E+03  0.12500000000E+03 0.  0.
</event>
<event>
 5    0  0.5626800E-005  0.4479441E+03  0.7546771E-02  0.1028337E+00
         21   -1    0    0  502  501  0.00000000000E+00  0.00000000000E+00  0.28276021998E+04  0.28276021998E+04  0.00000000000E+00 0.  1.
         21   -1    0    0  501  502 -0.00000000000E+00 -0.00000000000E+00 -0.70962576259E+02  0.70962576259E+02  0.00000000000E+00 0.  1.
         25    1    1    2    0    0 -0.54155216748E+02  0.36501185426E+03  0.13445072678E+04  0.13998182862E+04  0.12500000000E+03 0.  0.
         25    1    1    2    0    0  0.13414053910E+03 -0.15935466715E+03  0.80263912968E+03  0.83859535336E+03  0.12500000000E+03 0.  0.
         25    1    1    2    0    0 -0.79985322350E+02 -0.20565718711E+03  0.60949322607E+03  0.66015113651E+03  0.12500000000E+03 0.  0.
</event>
<event>
 5    0  0.6308183E-005  0.2879103E+03  0.7546771E-02  0.1091445E+00
         21   -1    0    0  502  501  0.00000000000E+00  0.00000000000E+00  0.17282603207E+03  0.17282603207E+03  0.00000000000E+00 0. -1.
         21   -1    0    0  501  502 -0.00000000000E+00 -0.00000000000E+00 -0.47962873567E+03  0.47962873567E+03  0.00000000000E+00 0. -1.
         25    1    1    2    0    0 -0.73599383243E+02 -0.71417293284E+02 -0.17367451853E+03  0.23728703584E+03  0.12500000000E+03 0.  0.
         25    1    1    2    0    0 -0.31595229267E+00  0.17482124148E+03 -0.69167496889E+02  0.22576914963E+03  0.12500000000E+03 0.  0.
         25    1    1    2    0    0  0.73915335536E+02 -0.10340394820E+03 -0.63960688181E+02  0.18939858226E+03  0.12500000000E+03 0.  0.
</event>
<event>
 5    0  0.5626800E-005  0.4699731E+03  0.7546771E-02  0.1021928E+00
         21   -1    0    0  502  501  0.00000000000E+00  0.00000000000E+00  0.25416598314E+03  0.25416598314E+03  0.00000000000E+00 0.  1.
         21   -1    0    0  501  502 -0.00000000000E+00 -0.00000000000E+00 -0.86901772057E+03  0.86901772057E+03  0.00000000000E+00 0.  1.
         25    1    1    2    0    0 -0.26545697932E+03  0.11809643548E+03 -0.51547856206E+03  0.60477873961E+03  0.12500000000E+03 0.  0.
         25    1    1    2    0    0  0.28560949840E+03  0.15223892760E+01 -0.13644654864E+03  0.34032009033E+03  0.12500000000E+03 0.  0.
         25    1    1    2    0    0 -0.20152519081E+02 -0.11961882476E+03  0.37073373262E+02  0.17808487377E+03  0.12500000000E+03 0.  0.
</event>
<event>
 5    0  0.5626800E-005  0.2504529E+03  0.7546771E-02  0.1113019E+00
         21   -1    0    0  502  501  0.00000000000E+00  0.00000000000E+00  0.10554564824E+03  0.10554564824E+03  0.00000000000E+00 0.  1.
         21   -1    0    0  501  502 -0.00000000000E+00 -0.00000000000E+00 -0.59430846717E+03  0.59430846717E+03  0.00000000000E+00 0.  1.
         25    1    1    2    0    0 -0.81762086655E+02 -0.28534715517E+02 -0.26958021767E+03  0.30951213637E+03  0.12500000000E+03 0.  0.
         25    1    1    2    0    0  0.47921030633E+01 -0.22127692465E+02 -0.67672282710E+01  0.12721397095E+03  0.12500000000E+03 0.  0.
         25    1    1    2    0    0  0.76969983592E+02  0.50662407982E+02 -0.21241537300E+03  0.26312800809E+03  0.12500000000E+03 0.  0.
</event>
<event>
 5    0  0.5626800E-005  0.3480043E+03  0.7546771E-02  0.1063437E+00
         21   -1    0    0  502  501  0.00000000000E+00  0.00000000000E+00  0.17008318335E+03  0.17008318335E+03  0.00000000000E+00 0.  1.
         21   -1    0    0  501  502 -0.00000000000E+00 -0.00000000000E+00 -0.71204561525E+03  0.71204561525E+03  0.00000000000E+00 0.  1.
         25    1    1    2    0    0 -0.17605725772E+03  0.45140974345E+02 -0.36605394491E+03  0.42738080928E+03  0.12500000000E+03 0.  0.
         25    1    1    2    0    0  0.19618818941E+02  0.60818334976E+02 -0.17985931489E+03  0.22816253215E+03  0.12500000000E+03 0.  0.
         25    1    1    2    0    0  0.15643843878E+03 -0.10595930932E+03  0.39508278952E+01  0.22658545717E+03  0.12500000000E+03 0.  0.
</event>
<event>
 5    0  0.5626800E-005  0.2379758E+03  0.7546771E-02  0.1121149E+00
         21   -1    0    0  502  501  0.00000000000E+00  0.00000000000E+00  0.10203820307E+03  0.10203820307E+03  0.00000000000E+00 0.  1.
         21   -1    0    0  501  502 -0.00000000000E+00 -0.00000000000E+00 -0.55501232288E+03  0.55501232288E+03  0.00000000000E+00 0.  1.
         25    1    1    2    0    0  0.10486550483E+03  0.38162975832E+02 -0.18137987825E+03  0.24693490450E+03  0.12500000000E+03 0.  0.
         25    1    1    2    0    0 -0.25215710949E+02  0.46957896568E+02 -0.13177820174E+03  0.18929176047E+03  0.12500000000E+03 0.  0.
         25    1    1    2    0    0 -0.79649793880E+02 -0.85120872400E+02 -0.13981603982E+03  0.22082386097E+03  0.12500000000E+03 0.  0.
</event>
<event>
 5    0  0.5626800E-005  0.5136061E+03  0.7546771E-02  0.1010287E+00
         21   -1    0    0  502  501  0.00000000000E+00  0.00000000000E+00  0.14133068705E+04  0.14133068705E+04  0.00000000000E+00 0.  1.
         21   -1    0    0  501  502 -0.00000000000E+00 -0.00000000000E+00 -0.18664821778E+03  0.18664821778E+03  0.00000000000E+00 0.  1.
         25    1    1    2    0    0 -0.22620240636E+03  0.30039270934E+03  0.10054687713E+04  0.10807385246E+04  0.12500000000E+03 0.  0.
         25    1    1    2    0    0  0.14358593166E+03 -0.13339191727E+03  0.51975672598E+02  0.23819486541E+03  0.12500000000E+03 0.  0.
         25    1    1    2    0    0  0.82616474698E+02 -0.16700079207E+03  0.16921420882E+03  0.28102169829E+03  0.12500000000E+03 0.  0.
</event>
<event>
 5    0  0.5626800E-005  0.2535079E+03  0.7546771E-02  0.1111108E+00
         21   -1    0    0  502  501  0.00000000000E+00  0.00000000000E+00  0.39380856684E+02  0.39380856684E+02  0.00000000000E+00 0.  1.
         21   -1    0    0  501  502 -0.00000000000E+00 -0.00000000000E+00 -0.16319155383E+04  0.16319155383E+04  0.00000000000E+00 0.  1.
         25    1    1    2    0    0 -0.13126328083E+01  0.42312423521E+02 -0.33275155538E+03  0.35796740326E+03  0.12500000000E+03 0.  0.
         25    1    1    2    0    0  0.51447347418E+02 -0.14733045351E+03 -0.64683731197E+03  0.67703515436E+03  0.12500000000E+03 0.  0.
         25    1    1    2    0    0 -0.50134714609E+02  0.10501802999E+03 -0.61294581423E+03  0.63629383732E+03  0.12500000000E+03 0.  0.
</event>
<event>
 5    0  0.5626800E-005  0.2265519E+03  0.7546771E-02  0.1129091E+00
         21   -1    0    0  502  501  0.00000000000E+00  0.00000000000E+00  0.18793556687E+03  0.18793556687E+03  0.00000000000E+00 0. -1.
         21   -1    0    0  501  502 -0.00000000000E+00 -0.00000000000E+00 -0.27310289845E+03  0.27310289845E+03  0.00000000000E+00 0. -1.
         25    1    1    2    0    0  0.32427422406E+02 -0.36412045452E+02 -0.41270093330E+02  0.14037661978E+03  0.12500000000E+03 0.  0.
         25    1    1    2    0    0 -0.40433214422E+02 -0.52724273864E+02  0.37863401004E+02  0.14653781430E+03  0.12500000000E+03 0.  0.
         25    1    1    2    0    0  0.80057920162E+01  0.89136319316E+02 -0.81760639252E+02  0.17412403125E+03  0.12500000000E+03 0.  0.
</event>
<event>
 5    0  0.5626800E-005  0.2393528E+03  0.7546771E-02  0.1120225E+00
         21   -1    0    0  502  501  0.00000000000E+00  0.00000000000E+00  0.31569211435E+02  0.31569211435E+02  0.00000000000E+00 0.  1.
         21   -1    0    0  501  502 -0.00000000000E+00 -0.00000000000E+00 -0.18147352018E+04  0.18147352018E+04  0.00000000000E+00 0.  1.
         25    1    1    2    0    0 -0.59375333801E+02  0.31845776260E+02 -0.52769937937E+03  0.54647160834E+03  0.12500000000E+03 0.  0.
         25    1    1    2    0    0  0.65168974212E+02  0.24061344060E+02 -0.99768003348E+03  0.10078771714E+04  0.12500000000E+03 0.  0.
         25    1    1    2    0    0 -0.57936404117E+01 -0.55907120320E+02 -0.25778657755E+03  0.29195563351E+03  0.12500000000E+03 0.  0.
</event>
<event>
 5    0  0.5626800E-005  0.3287056E+03  0.7546771E-02  0.1071711E+00
         21   -1    0    0  502  501  0.00000000000E+00  0.00000000000E+00  0.12630160741E+04  0.12630160741E+04  0.00000000000E+00 0. -1.
         21   -1    0    0  501  502 -0.00000000000E+00 -0.00000000000E+00 -0.85547098050E+02  0.85547098050E+02  0.00000000000E+00 0. -1.
         25    1    1    2    0    0 -0.13007525548E+03  0.64247511641E+02  0.30487162896E+03  0.36002642262E+03  0.12500000000E+03 0.  0.
         25    1    1    2    0    0  0.23637708194E+03  0.10380510400E+02  0.64424084222E+03  0.69760529144E+03  0.12500000000E+03 0.  0.
         25    1    1    2    0    0 -0.10630182646E+03 -0.74628022041E+02  0.22835650482E+03  0.29093145804E+03  0.12500000000E+03 0.  0.
</event>
<event>
 5    0  0.5626800E-005  0.3476300E+03  0.7546771E-02  0.1063592E+00
         21   -1    0    0  502  501  0.00000000000E+00  0.00000000000E+00  0.15401827732E+03  0.15401827732E+03  0.00000000000E+00 0. -1.
         21   -1    0    0  501  502 -0.00000000000E+00 -0.00000000000E+00 -0.78462529572E+03  0.78462529572E+03  0.00000000000E+00 0. -1.
         25    1    1    2    0    0  0.20613894367E+03  0.75377507529E+02 -0.12972857037E+03  0.28395340235E+03  0.12500000000E+03 0.  0.
         25    1    1    2    0    0 -0.96680102817E+02  0.73652176919E+02 -0.11482922080E+03  0.20876406634E+03  0.12500000000E+03 0.  0.
         25    1    1    2    0    0 -0.10945884085E+03 -0.14902968445E+03 -0.38604922723E+03  0.44592610434E+03  0.12500000000E+03 0.  0.
</event>
<event>
 5    0  0.5626800E-005  0.4132969E+03  0.7546771E-02  0.1039270E+00
         21   -1    0    0  502  501  0.00000000000E+00  0.00000000000E+00  0.16820837702E+04  0.16820837702E+04  0.00000000000E+00 0. -1.
         21   -1    0    0  501  502 -0.00000000000E+00 -0.00000000000E+00 -0.10154921905E+03  0.10154921905E+03  0.00000000000E+00 0. -1.
         25    1    1    2    0    0  0.73439872167E+01 -0.15492667447E+02  0.12588760088E+03  0.17823199754E+03  0.12500000000E+03 0.  0.
         25    1    1    2    0    0  0.29371987776E+03  0.62848453967E+02  0.50966729360E+03  0.60465448392E+03  0.12500000000E+03 0.  0.
         25    1    1    2    0    0 -0.30106386498E+03 -0.47355786520E+02  0.94497965663E+03  0.10007465077E+04  0.12500000000E+03 0.  0.
</event>
<event>
 5    0  0.5626800E-005  0.3006664E+03  0.7546771E-02  0.1084908E+00
         21   -1    0    0  502  501  0.00000000000E+00  0.00000000000E+00  0.87059450956E+03  0.87059450956E+03  0.00000000000E+00 0.  1.
         21   -1    0    0  501  502 -0.00000000000E+00 -0.00000000000E+00 -0.10383742208E+03  0.10383742208E+03  0.00000000000E+00 0.  1.
         25    1    1    2    0    0  0.84304889070E+02 -0.19420920694E+02  0.36390369733E+03  0.39437975026E+03  0.12500000000E+03 0.  0.
         25    1    1    2    0    0 -0.75984732489E+02 -0.23363103302E+02  0.42112160996E+03  0.44641676104E+03  0.12500000000E+03 0.  0.
         25    1    1    2    0    0 -0.83201565809E+01  0.42784023996E+02 -0.18268219811E+02  0.13363542034E+03  0.12500000000E+03 0.  0.
</event>
<event>
 5    0  0.5626800E-005  0.2293711E+03  0.7546771E-02  0.1127083E+00
         21   -1    0    0  502  501  0.00000000000E+00  0.00000000000E+00  0.35818610062E+03  0.35818610062E+03  0.00000000000E+00 0. -1.
         21   -1    0    0  501  502 -0.00000000000E+00 -0.00000000000E+00 -0.14688207250E+03  0.14688207250E+03  0.00000000000E+00 0. -1.
         25    1    1    2    0    0 -0.29157397200E+02 -0.38649051921E-01  0.11645002062E+03  0.17330828776E+03  0.12500000000E+03 0.  0.
         25    1    1    2    0    0  0.89422503896E+02  0.47065228557E+02  0.69385866585E+01  0.16088711548E+03  0.12500000000E+03 0.  0.
         25    1    1    2    0    0 -0.60265106695E+02 -0.47026579505E+02  0.87915420850E+02  0.17087276988E+03  0.12500000000E+03 0.  0.
</event>
<event>
 5    0  0.5626800E-005  0.2625260E+03  0.7546771E-02  0.1105635E+00
         21   -1    0    0  502  501  0.00000000000E+00  0.00000000000E+00  0.11083253875E+04  0.11083253875E+04  0.00000000000E+00 0. -1.
         21   -1    0    0  501  502 -0.00000000000E+00 -0.00000000000E+00 -0.62183827997E+02  0.62183827997E+02  0.00000000000E+00 0. -1.
         25    1    1    2    0    0 -0.73572235269E+02  0.10508886364E+03  0.19322400708E+03  0.26347117485E+03  0.12500000000E+03 0.  0.
         25    1    1    2    0    0  0.42334471630E+02 -0.71891384648E+02  0.26880832864E+03  0.30796671285E+03  0.12500000000E+03 0.  0.
         25    1    1    2    0    0  0.31237763639E+02 -0.33197478994E+02  0.58410922378E+03  0.59907132780E+03  0.12500000000E+03 0.  0.
</event>
<event>
 5    0  0.5626800E-005  0.2341988E+03  0.7546771E-02  0.1123719E+00
         21   -1    0    0  502  501  0.00000000000E+00  0.00000000000E+00  0.76896739010E+02  0.76896739010E+02  0.00000000000E+00 0.  1.
         21   -1    0    0  501  502 -0.00000000000E+00 -0.00000000000E+00 -0.71328238915E+03  0.71328238915E+03  0.00000000000E+00 0.  1.
         25    1    1    2    0    0 -0.97733192488E+02  0.47913313171E+02 -0.18074328789E+03  0.24523580206E+03  0.12500000000E+03 0.  0.
         25    1    1    2    0    0  0.19094936643E+02 -0.30397178940E+02 -0.31271980836E+03  0.33868463744E+03  0.12500000000E+03 0.  0.
         25    1    1    2    0    0  0.78638255846E+02 -0.17516134231E+02 -0.14292255388E+03  0.20625868866E+03  0.12500000000E+03 0.  0.
</event>
<event>
 5    0  0.6061082E-005  0.4138829E+03  0.7546771E-02  0.1039076E+00
         21   -1    0    0  502  501  0.00000000000E+00  0.00000000000E+00  0.40451793911E+03  0.40451793911E+03  0.00000000000E+00 0. -1.
         21   -1    0    0  501  502 -0.00000000000E+00 -0.00000000000E+00 -0.42346462621E+03  0.42346462621E+03  0.00000000000E+00 0. -1.
         25    1    1    2    0    0 -0.13106858448E+03 -0.16476827594E+03  0.64928321523E+01  0.24493818703E+03  0.12500000000E+03 0.  0.
         25    1    1    2    0    0  0.26942275501E+02  0.13246467828E+03 -0.24588073709E+03  0.30717277561E+03  0.12500000000E+03 0.  0.
         25    1    1    2    0    0  0.10412630898E+03  0.32303597657E+02  0.22044121784E+03  0.27587160268E+03  0.12500000000E+03 0.  0.
</event>
<event>
 5    0  0.5626800E-005  0.2613993E+03  0.7546771E-02  0.1106305E+00
         21   -1    0    0  502  501  0.00000000000E+00  0.00000000000E+00  0.11940735618E+04  0.11940735618E+04  0.00000000000E+00 0.  1.
         21   -1    0    0  501  502 -0.00000000000E+00 -0.00000000000E+00 -0.57223928131E+02  0.57223928131E+02  0.00000000000E+00 0.  1.
         25    1    1    2    0    0 -0.92889397587E+02  0.41861646011E+02  0.53630468644E+03  0.56002549432E+03  0.12500000000E+03 0.  0.
         25    1    1    2    0    0  0.52723404774E+02 -0.12645912907E+03  0.34784974225E+03  0.39420313535E+03  0.12500000000E+03 0.  0.
         25    1    1    2    0    0  0.40165992813E+02  0.84597483061E+02  0.25269520499E+03  0.29706886027E+03  0.12500000000E+03 0.  0.
</event>
<event>
 5    0  0.5626800E-005  0.2729491E+03  0.7546771E-02  0.1099604E+00
         21   -1    0    0  502  501  0.00000000000E+00  0.00000000000E+00  0.15069658167E+04  0.15069658167E+04  0.00000000000E+00 0. -1.
         21   -1    0    0  501  502 -0.00000000000E+00 -0.00000000000E+00 -0.49437893270E+02  0.49437893270E+02  0.00000000000E+00 0. -1.
         25    1    1    2    0    0  0.13148204451E+02 -0.13684775172E+03  0.30007710049E+03  0.35294680714E+03  0.12500000000E+03 0.  0.
         25    1    1    2    0    0  0.38151592350E+02  0.11669876843E+03  0.44940606952E+03  0.48235356522E+03  0.12500000000E+03 0.  0.
         25    1    1    2    0    0 -0.51299796801E+02  0.20148983296E+02  0.70804475337E+03  0.72110333757E+03  0.12500000000E+03 0.  0.
</event>
<event>
 5    0  0.5626800E-005  0.6102541E+03  0.7546771E-02  0.9884358E-01
         21   -1    0    0  502  501  0.00000000000E+00  0.00000000000E+00  0.56295083342E+03  0.56295083342E+03  0.00000000000E+00 0.  1.
         21   -1    0    0  501  502 -0.00000000000E+00 -0.00000000000E+00 -0.66153206278E+03  0.66153206278E+03  0.00000000000E+00 0.  1.
         25    1    1    2    0    0 -0.11898749858E+03  0.13486743479E+03 -0.72293752400E+02  0.23064829594E+03  0.12500000000E+03 0.  0.
         25    1    1    2    0    0 -0.27129421302E+03  0.20358614714E+03 -0.22569210637E+03  0.42615700887E+03  0.12500000000E+03 0.  0.
         25    1    1    2    0    0  0.39028171160E+03 -0.33845358193E+03  0.19940462942E+03  0.56767759139E+03  0.12500000000E+03 0.  0.
</event>
<event>
 5    0  0.5626800E-005  0.2368436E+03  0.7546771E-02  0.1121914E+00
         21   -1    0    0  502  501  0.00000000000E+00  0.00000000000E+00  0.54136710811E+03  0.54136710811E+03  0.00000000000E+00 0. -1.
         21   -1    0    0  501  502 -0.00000000000E+00 -0.00000000000E+00 -0.10361708607E+03  0.10361708607E+03  0.00000000000E+00 0. -1.
         25    1    1    2    0    0 -0.38974881014E+02 -0.66976824903E+02  0.81971935217E+02  0.16837260640E+03  0.12500000000E+03 0.  0.
         25    1    1    2    0    0 -0.30539452953E+02  0.85713315903E+02  0.10366431388E+03  0.18614704049E+03  0.12500000000E+03 0.  0.
         25    1    1    2    0    0  0.69514333967E+02 -0.18736491001E+02  0.25211377295E+03  0.29046454729E+03  0.12500000000E+03 0.  0.
</event>
<event>
 5    0  0.5626800E-005  0.3897051E+03  0.7546771E-02  0.1047404E+00
         21   -1    0    0  502  501  0.00000000000E+00  0.00000000000E+00  0.13527537198E+03  0.13527537198E+03  0.00000000000E+00 0.  1.
         21   -1    0    0  501  502 -0.00000000000E+00 -0.00000000000E+00 -0.11226732010E+04  0.11226732010E+04  0.00000000000E+00 0.  1.
         25    1    1    2    0    0  0.11299828682E+03 -0.42106141305E+02 -0.70099225488E+02  0.18729773457E+03  0.12500000000E+03 0.  0.
         25    1    1    2    0    0 -0.11695580903E+03  0.19678446576E+03 -0.79606898022E+03  0.83770735254E+03  0.12500000000E+03 0.  0.
         25    1    1    2    0    0  0.39575222145E+01 -0.15467832445E+03 -0.12122962328E+03  0.23294348585E+03  0.12500000000E+03 0.  0.
</event>
<event>
 5    0  0.5626800E-005  0.2250900E+03  0.7546771E-02  0.1130144E+00
         21   -1    0    0  502  501  0.00000000000E+00  0.00000000000E+00  0.27374481270E+03  0.27374481270E+03  0.00000000000E+00 0. -1.
         21   -1    0    0  501  502 -0.00000000000E+00 -0.00000000000E+00 -0.18508299871E+03  0.18508299871E+03  0.00000000000E+00 0. -1.
         25    1    1    2    0    0  0.10725162221E+03 -0.20274819352E+02  0.62638547858E+02  0.17737690504E+03  0.12500000000E+03 0.  0.
         25    1    1    2    0    0 -0.87000745382E+02  0.17167609853E+02  0.20902306758E+02  0.15467954924E+03  0.12500000000E+03 0.  0.
         25    1    1    2    0    0 -0.20250876823E+02  0.31072094993E+01  0.51209593730E+01  0.12677135713E+03  0.12500000000E+03 0.  0.
</event>
<event>
 5    0  0.5626800E-005  0.2856709E+03  0.7546771E-02  0.1092631E+00
         21   -1    0    0  502  501  0.00000000000E+00  0.00000000000E+00  0.51546110091E+03  0.51546110091E+03  0.00000000000E+00 0.  1.
         21   -1    0    0  501  502 -0.00000000000E+00 -0.00000000000E+00 -0.15832009755E+03  0.15832009755E+03  0.00000000000E+00 0.  1.
         25    1    1    2    0    0  0.76210154092E+02  0.47988198995E+02  0.33699615935E+03  0.37054320429E+03  0.12500000000E+03 0.  0.
         25    1    1    2    0    0  0.20565144556E+02  0.23550298808E+02  0.14039033702E+02  0.12961341062E+03  0.12500000000E+03 0.  0.
         25    1    1    2    0    0 -0.96775298647E+02 -0.71538497803E+02  0.61058103148E+01  0.17362458356E+03  0.12500000000E+03 0.  0.
</event>
<event>
 5    0  0.5884299E-005  0.2857781E+03  0.7546771E-02  0.1092574E+00
         21   -1    0    0  502  501  0.00000000000E+00  0.00000000000E+00  0.36084523034E+03  0.36084523034E+03  0.00000000000E+00 0.  1.
         21   -1    0    0  501  502 -0.00000000000E+00 -0.00000000000E+00 -0.22632729579E+03  0.22632729579E+03  0.00000000000E+00 0.  1.
         25    1    1    2    0    0 -0.11535874143E+03 -0.10484255452E+02  0.10600930270E+02  0.17074817293E+03  0.12500000000E+03 0.  0.
         25    1    1    2    0    0 -0.66375806902E+02 -0.61500644630E+02  0.98365352315E+02  0.18299950702E+03  0.12500000000E+03 0.  0.
         25    1    1    2    0    0  0.18173454833E+03  0.71984900082E+02  0.25551651967E+02  0.23342484618E+03  0.12500000000E+03 0.  0.
</event>
<event>
 5    0  0.5626800E-005  0.2613372E+03  0.7546771E-02  0.1106342E+00
         21   -1    0    0  502  501  0.00000000000E+00  0.00000000000E+00  0.81758117503E+02  0.81758117503E+02  0.00000000000E+00 0.  1.
         21   -1    0    0  501  502 -0.00000000000E+00 -0.00000000000E+00 -0.83535608670E+03  0.83535608670E+03  0.00000000000E+00 0.  1.
         25    1    1    2    0    0  0.62857737037E+02 -0.76884444091E+02 -0.28464044604E+03  0.32635486264E+03  0.12500000000E+03 0.  0.
         25    1    1    2    0    0 -0.11444742139E+03 -0.20509155129E+02 -0.33852839230E+03  0.37913758729E+03  0.12500000000E+03 0.  0.
         25    1    1    2    0    0  0.51589684357E+02  0.97393599220E+02 -0.13042913086E+03  0.21162175426E+03  0.12500000000E+03 0.  0.
</event>
<event>
 5    0  0.5626800E-005  0.3335140E+03  0.7546771E-02  0.1069593E+00
         21   -1    0    0  502  501  0.00000000000E+00  0.00000000000E+00  0.30785961579E+03  0.30785961579E+03  0.00000000000E+00 0. -1.
         21   -1    0    0  501  502 -0.00000000000E+00 -0.00000000000E+00 -0.36130619176E+03  0.36130619176E+03  0.00000000000E+00 0. -1.
         25    1    1    2    0    0 -0.12315900620E+03  0.61036401064E+02 -0.53315067577E+02  0.19329014329E+03  0.12500000000E+03 0.  0.
         25    1    1    2    0    0 -0.10583044292E+03  0.75697606198E+02  0.14142095006E+02  0.18098400229E+03  0.12500000000E+03 0.  0.
         25    1    1    2    0    0  0.22898944912E+03 -0.13673400726E+03 -0.14273603396E+02  0.29489166198E+03  0.12500000000E+03 0.  0.
</event>
<event>
 5    0  0.5626800E-005  0.3638725E+03  0.7546771E-02  0.1057061E+00
         21   -1    0    0  502  501  0.00000000000E+00  0.00000000000E+00  0.42841425477E+03  0.42841425477E+03  0.00000000000E+00 0. -1.
         21   -1    0    0  501  502 -0.00000000000E+00 -0.00000000000E+00 -0.30905420438E+03  0.30905420438E+03  0.00000000000E+00 0. -1.
         25    1    1    2    0    0  0.75376861485E+02 -0.57168314064E+02  0.13678736109E+03  0.20805208371E+03  0.12500000000E+03 0.  0.
         25    1    1    2    0    0 -0.53529316131E+02 -0.14109991601E+03  0.14469547562E+03  0.24359054712E+03  0.12500000000E+03 0.  0.
         25    1    1    2    0    0 -0.21847545354E+02  0.19826823007E+03 -0.16212278631E+03  0.28582582832E+03  0.12500000000E+03 0.  0.
</event>
<event>
 5    0  0.5626800E-005  0.2298343E+03  0.7546771E-02  0.1126756E+00
         21   -1    0    0  502  501  0.00000000000E+00  0.00000000000E+00  0.14893669885E+03  0.14893669885E+03  0.00000000000E+00 0.  1.
         21   -1    0    0  501  502 -0.00000000000E+00 -0.00000000000E+00 -0.35467298628E+03  0.35467298628E+03  0.00000000000E+00 0.  1.
         25    1    1    2    0    0 -0.27709754499E+02  0.31654002777E+02 -0.14894582466E+03  0.19894638742E+03  0.12500000000E+03 0.  0.
         25    1    1    2    0    0  0.66045991753E+02 -0.22192190070E+02  0.31605827770E+02  0.14655543209E+03  0.12500000000E+03 0.  0.
         25    1    1    2    0    0 -0.38336237254E+02 -0.94618127077E+01 -0.88396290546E+02  0.15810786561E+03  0.12500000000E+03 0.  0.
</event>
<event>
 5    0  0.5626800E-005  0.4214586E+03  0.7546771E-02  0.1036593E+00
         21   -1    0    0  502  501  0.00000000000E+00  0.00000000000E+00  0.38820417378E+03  0.38820417378E+03  0.00000000000E+00 0.  1.
         21   -1    0    0  501  502 -0.00000000000E+00 -0.00000000000E+00 -0.45756167292E+03  0.45756167292E+03  0.00000000000E+00 0.  1.
         25    1    1    2    0    0 -0.57949002467E+01 -0.13770639602E+03 -0.99367278827E+02  0.21093953749E+03  0.12500000000E+03 0.  0.
         25    1    1    2    0    0  0.30193361813E+02 -0.15039013177E+03  0.19622320259E+03  0.27867073055E+03  0.12500000000E+03 0.  0.
         25    1    1    2    0    0 -0.24398461566E+02  0.28809652780E+03 -0.16621342290E+03  0.35615557865E+03  0.12500000000E+03 0.  0.
</event>
<event>
 5    0  0.5626800E-005  0.2277173E+03  0.7546771E-02  0.1128257E+00
         21   -1    0    0  502  501  0.00000000000E+00  0.00000000000E+00  0.47843100727E+03  0.47843100727E+03  0.00000000000E+00 0. -1.
         21   -1    0    0  501  502 -0.00000000000E+00 -0.00000000000E+00 -0.10838590403E+03  0.10838590403E+03  0.00000000000E+00 0. -1.
         25    1    1    2    0    0 -0.11228755107E+03 -0.29111462113E+02  0.97238252916E+02  0.19630651844E+03  0.12500000000E+03 0.  0.
         25    1    1    2    0    0  0.61249634974E+02 -0.73422563345E-01  0.16071453146E+03  0.21261628300E+03  0.12500000000E+03 0.  0.
         25    1    1    2    0    0  0.51037916096E+02  0.29184884676E+02  0.11209231886E+03  0.17789410986E+03  0.12500000000E+03 0.  0.
</event>
<event>
 5    0  0.5626800E-005  0.2510348E+03  0.7546771E-02  0.1112653E+00
         21   -1    0    0  502  501  0.00000000000E+00  0.00000000000E+00  0.56062414931E+03  0.56062414931E+03  0.00000000000E+00 0. -1.
         21   -1    0    0  501  502 -0.00000000000E+00 -0.00000000000E+00 -0.11240765935E+03  0.11240765935E+03  0.00000000000E+00 0. -1.
         25    1    1    2    0    0  0.66612617035E+02  0.53711035474E+02  0.26383142786E+03  0.30422711649E+03  0.12500000000E+03 0.  0.
         25    1    1    2    0    0  0.35566141522E+02  0.32909924396E+02  0.99072640653E+02  0.16669853530E+03  0.12500000000E+03 0.  0.
         25    1    1    2    0    0 -0.10217875856E+03 -0.86620959870E+02  0.85312421447E+02  0.20210615686E+03  0.12500000000E+03 0.  0.
</event>
<event>
 5    0  0.5626800E-005  0.2728512E+03  0.7546771E-02  0.1099659E+00
         21   -1    0    0  502  501  0.00000000000E+00  0.00000000000E+00  0.17685387594E+04  0.17685387594E+04  0.00000000000E+00 0.  1.
         21   -1    0    0  501  502 -0.00000000000E+00 -0.00000000000E+00 -0.42095632056E+02  0.42095632056E+02  0.00000000000E+00 0.  1.
         25    1    1    2    0    0 -0.39266506256E+02 -0.10872313150E+03  0.11465087327E+04  0.11590814691E+04  0.12500000000E+03 0.  0.
         25    1    1    2    0    0 -0.21575928165E+02  0.38921038289E+02  0.19009399138E+03  0.23182125324E+03  0.12500000000E+03 0.  0.
         25    1    1    2    0    0  0.60842434421E+02  0.69802093213E+02  0.38984040327E+03  0.41973166912E+03  0.12500000000E+03 0.  0.
</event>
<event>
 5    0  0.5626800E-005  0.3187684E+03  0.7546771E-02  0.1076218E+00
         21   -1    0    0  502  501  0.00000000000E+00  0.00000000000E+00  0.57914174202E+02  0.57914174202E+02  0.00000000000E+00 0.  1.
         21   -1    0    0  501  502 -0.00000000000E+00 -0.00000000000E+00 -0.17545491900E+04  0.17545491900E+04  0.00000000000E+00 0.  1.
         25    1    1    2    0    0  0.10037197360E+03 -0.86299087365E+02 -0.58512887325E+03  0.61279920355E+03  0.12500000000E+03 0.  0.
         25    1    1    2    0    0  0.95802183662E+02 -0.59296750834E+02 -0.54136819434E+03  0.56692035146E+03  0.12500000000E+03 0.  0.
         25    1    1    2    0    0 -0.19617415726E+03  0.14559583820E+03 -0.57013794817E+03  0.63274380915E+03  0.12500000000E+03 0.  0.
</event>
<event>
 5    0  0.5626800E-005  0.2159011E+03  0.7546771E-02  0.1136976E+00
         21   -1    0    0  502  501  0.00000000000E+00  0.00000000000E+00  0.80482158213E+03  0.80482158213E+03  0.00000000000E+00 0.  1.
         21   -1    0    0  501  502 -0.00000000000E+00 -0.00000000000E+00 -0.57917522419E+02  0.57917522419E+02  0.00000000000E+00 0.  1.
         25    1    1    2    0    0  0.56814313056E+01  0.29805449610E+02  0.21966513578E+03  0.25455532869E+03  0.12500000000E+03 0.  0.
         25    1    1    2    0    0 -0.67405604694E+02  0.57716185004E+01  0.16135916039E+03  0.21503163899E+03  0.12500000000E+03 0.  0.
         25    1    1    2    0    0  0.61724173388E+02 -0.35577068110E+02  0.36587976354E+03  0.39315213687E+03  0.12500000000E+03 0.  0.
</event>
<event>
 5    0  0.5626800E-005  0.2759245E+03  0.7546771E-02  0.1097936E+00
         21   -1    0    0  502  501  0.00000000000E+00  0.00000000000E+00  0.49888733807E+02  0.49888733807E+02  0.00000000000E+00 0.  1.
         21   -1    0    0  501  502 -0.00000000000E+00 -0.00000000000E+00 -0.15260830010E+04  0.15260830010E+04  0.00000000000E+00 0.  1.
         25    1    1    2    0    0 -0.36675793752E+02  0.77173265696E+02 -0.87447447970E+03  0.88748602379E+03  0.12500000000E+03 0.  0.
         25    1    1    2    0    0  0.99653051080E+02 -0.19328566080E+02 -0.43190609450E+03  0.46094706694E+03  0.12500000000E+03 0.  0.
         25    1    1    2    0    0 -0.62977257328E+02 -0.57844699616E+02 -0.16981369297E+03  0.22753864405E+03  0.12500000000E+03 0.  0.
</event>
<event>
 5    0  0.5626800E-005  0.2739777E+03  0.7546771E-02  0.1099024E+00
         21   -1    0    0  502  501  0.00000000000E+00  0.00000000000E+00  0.90971763190E+03  0.90971763190E+03  0.00000000000E+00 0.  1.
         21   -1    0    0  501  502 -0.00000000000E+00 -0.00000000000E+00 -0.82513289011E+02  0.82513289011E+02  0.00000000000E+00 0.  1.
         25    1    1    2    0    0 -0.10516361831E+03  0.94402079107E+02  0.38117003775E+03  0.42530781421E+03  0.12500000000E+03 0.  0.
         25    1    1    2    0    0  0.15385243558E+03 -0.61211792724E+02  0.30993321915E+03  0.37296253945E+03  0.12500000000E+03 0.  0.
         25    1    1    2    0    0 -0.48688817273E+02 -0.33190286383E+02  0.13610108600E+03  0.19396056725E+03  0.12500000000E+03 0.  0.
</event>
<event>
 5    0  0.5626800E-005  0.3540932E+03  0.7546771E-02  0.1060947E+00
         21   -1    0    0  502  501  0.00000000000E+00  0.00000000000E+00  0.63440663461E+03  0.63440663461E+03  0.00000000000E+00 0.  1.
         21   -1    0    0  501  502 -0.00000000000E+00 -0.00000000000E+00 -0.19763662097E+03  0.19763662097E+03  0.00000000000E+00 0.  1.
         25    1    1    2    0    0 -0.10585414278E+03  0.17963142438E+03  0.23089043423E+03  0.33527293477E+03  0.12500000000E+03 0.  0.
         25    1    1    2    0    0  0.52984600086E+02  0.11109161677E+02  0.22378946321E+03  0.26198760498E+03  0.12500000000E+03 0.  0.
         25    1    1    2    0    0  0.52869542697E+02 -0.19074058606E+03 -0.17909883804E+02  0.23478271583E+03  0.12500000000E+03 0.  0.
</event>
<event>
 5    0  0.5626800E-005  0.2644547E+03  0.7546771E-02  0.1104496E+00
         21   -1    0    0  502  501  0.00000000000E+00  0.00000000000E+00  0.24443313596E+03  0.24443313596E+03  0.00000000000E+00 0.  1.
         21   -1    0    0  501  502 -0.00000000000E+00 -0.00000000000E+00 -0.28611614248E+03  0.28611614248E+03  0.00000000000E+00 0.  1.
         25    1    1    2    0    0 -0.23711765768E+01 -0.16535535901E+03 -0.30320695126E+02  0.20950503999E+03  0.12500000000E+03 0.  0.
         25    1    1    2    0    0 -0.43644099819E+02  0.76723912259E+02 -0.40789090028E+02  0.15836702948E+03  0.12500000000E+03 0.  0.
         25    1    1    2    0    0  0.46015276396E+02  0.88631446746E+02  0.29426778634E+02  0.16267720896E+03  0.12500000000E+03 0.  0.
</event>
<event>
 5    0  0.5626800E-005  0.3156260E+03  0.7546771E-02  0.1077680E+00
         21   -1    0    0  502  501  0.00000000000E+00  0.00000000000E+00  0.10042835940E+03  0.10042835940E+03  0.00000000000E+00 0.  1.
         21   -1    0    0  501  502 -0.00000000000E+00 -0.00000000000E+00 -0.99194831996E+03  0.99194831996E+03  0.00000000000E+00 0.  1.
         25    1    1    2    0    0 -0.83482231187E+02  0.21948630821E+03 -0.27700761777E+03  0.38405955621E+03  0.12500000000E+03 0.  0.
         25    1    1    2    0    0  0.45227934619E+02 -0.59751616664E+02 -0.24555252601E+03  0.28554660704E+03  0.12500000000E+03 0.  0.
         25    1    1    2    0    0  0.38254296568E+02 -0.15973469155E+03 -0.36895981678E+03  0.42277051611E+03  0.12500000000E+03 0.  0.
</event>
<event>
 5    0  0.5626800E-005  0.3515440E+03  0.7546771E-02  0.1061983E+00
         21   -1    0    0  502  501  0.00000000000E+00  0.00000000000E+00  0.17546608742E+04  0.17546608742E+04  0.00000000000E+00 0. -1.
         21   -1    0    0  501  502 -0.00000000000E+00 -0.00000000000E+00 -0.70431394626E+02  0.70431394626E+02  0.00000000000E+00 0. -1.
         25    1    1    2    0    0 -0.15026750305E+03  0.49800075953E+02  0.39869499248E+03  0.44681435414E+03  0.12500000000E+03 0.  0.
         25    1    1    2    0    0  0.14732166650E+03  0.13588130087E+03  0.39677791772E+03  0.46176305323E+03  0.12500000000E+03 0.  0.
         25    1    1    2    0    0  0.29458365510E+01 -0.18568137682E+03  0.88875656939E+03  0.91651486146E+03  0.12500000000E+03 0.  0.
</event>
<event>
 5    0  0.5626800E-005  0.4395053E+03  0.7546771E-02  0.1030899E+00
         21   -1    0    0  502  501  0.00000000000E+00  0.00000000000E+00  0.21060018058E+03  0.21060018058E+03  0.00000000000E+00 0. -1.
         21   -1    0    0  501  502 -0.00000000000E+00 -0.00000000000E+00 -0.91721152405E+03  0.91721152405E+03  0.00000000000E+00 0. -1.
         25    1    1    2    0    0 -0.61127031235E+02 -0.34529301865E+03 -0.37496741277E+03  0.52838370841E+03  0.12500000000E+03 0.  0.
         25    1    1    2    0    0  0.15360090927E+03  0.17465084959E+03 -0.13704123035E+03  0.29749194511E+03  0.12500000000E+03 0.  0.
         25    1    1    2    0    0 -0.92473878031E+02  0.17064216906E+03 -0.19460270035E+03  0.30193605112E+03  0.12500000000E+03 0.  0.
</event>
<event>
 5    0  0.5626800E-005  0.2247588E+03  0.7546771E-02  0.1130384E+00
         21   -1    0    0  502  501  0.00000000000E+00  0.00000000000E+00  0.56624570942E+02  0.56624570942E+02  0.00000000000E+00 0.  1.
         21   -1    0    0  501  502 -0.00000000000E+00 -0.00000000000E+00 -0.89213049416E+03  0.89213049416E+03  0.00000000000E+00 0.  1.
         25    1    1    2    0    0 -0.21454459236E+02 -0.98943938547E+02 -0.30320578011E+03  0.34323307226E+03  0.12500000000E+03 0.  0.
         25    1    1    2    0    0  0.19753931867E+02  0.32636204510E+02 -0.35739482833E+03  0.38054093471E+03  0.12500000000E+03 0.  0.
         25    1    1    2    0    0  0.17005273689E+01  0.66307734037E+02 -0.17490531478E+03  0.22498105815E+03  0.12500000000E+03 0.  0.
</event>
<event>
 5    0  0.5626800E-005  0.3347751E+03  0.7546771E-02  0.1069043E+00
         21   -1    0    0  502  501  0.00000000000E+00  0.00000000000E+00  0.11006745783E+04  0.11006745783E+04  0.00000000000E+00 0. -1.
         21   -1    0    0  501  502 -0.00000000000E+00 -0.00000000000E+00 -0.10182336922E+03  0.10182336922E+03  0.00000000000E+00 0. -1.
         25    1    1    2    0    0 -0.25848208176E+02  0.17161174222E+03  0.14210237550E+03  0.25678162912E+03  0.12500000000E+03 0.  0.
         25    1    1    2    0    0 -0.13018997281E+02 -0.19112354230E+03  0.71977699776E+03  0.75524938214E+03  0.12500000000E+03 0.  0.
         25    1    1    2    0    0  0.38867205456E+02  0.19511800081E+02  0.13697183581E+03  0.19046693626E+03  0.12500000000E+03 0.  0.
</event>
<event>
 5    0  0.5626800E-005  0.2443487E+03  0.7546771E-02  0.1116929E+00
         21   -1    0    0  502  501  0.00000000000E+00  0.00000000000E+00  0.12376719612E+03  0.12376719612E+03  0.00000000000E+00 0.  1.
         21   -1    0    0  501  502 -0.00000000000E+00 -0.00000000000E+00 -0.48240793173E+03  0.48240793173E+03  0.00000000000E+00 0.  1.
         25    1    1    2    0    0  0.12303136675E+03 -0.21398921211E+02 -0.55275996903E+02  0.18513526640E+03  0.12500000000E+03 0.  0.
         25    1    1    2    0    0 -0.85399514469E+02 -0.18657450067E+02 -0.18938000562E+03  0.24316859181E+03  0.12500000000E+03 0.  0.
         25    1    1    2    0    0 -0.37631852278E+02  0.40056371278E+02 -0.11398473308E+03  0.17787126964E+03  0.12500000000E+03 0.  0.
</event>
<event>
 5    0  0.5626800E-005  0.2703156E+03  0.7546771E-02  0.1101099E+00
         21   -1    0    0  502  501  0.00000000000E+00  0.00000000000E+00  0.15938332621E+04  0.15938332621E+04  0.00000000000E+00 0. -1.
         21   -1    0    0  501  502 -0.00000000000E+00 -0.00000000000E+00 -0.45845781709E+02  0.45845781709E+02  0.00000000000E+00 0. -1.
         25    1    1    2    0    0  0.14517219579E+02 -0.86291798079E+02  0.58479976746E+03  0.60437802086E+03  0.12500000000E+03 0.  0.
         25    1    1    2    0    0  0.11371460638E+03  0.11644713187E+02  0.60111667837E+03  0.62452611800E+03  0.12500000000E+03 0.  0.
         25    1    1    2    0    0 -0.12823182595E+03  0.74647084893E+02  0.36207103460E+03  0.41077490499E+03  0.12500000000E+03 0.  0.
</event>
<event>
 5    0  0.5626800E-005  0.2964762E+03  0.7546771E-02  0.1087015E+00
         21   -1    0    0  502  501  0.00000000000E+00  0.00000000000E+00  0.99225318866E+02  0.99225318866E+02  0.00000000000E+00 0.  1.
         21   -1    0    0  501  502 -0.00000000000E+00 -0.00000000000E+00 -0.88584389192E+03  0.88584389192E+03  0.00000000000E+00 0.  1.
         25    1    1    2    0    0 -0.14082638856E+03  0.14307428272E+03 -0.35773051417E+03  0.42883381730E+03  0.12500000000E+03 0.  0.
         25    1    1    2    0    0 -0.72226003218E-01 -0.20397545498E+02 -0.18877759129E+03  0.22732805381E+03  0.12500000000E+03 0.  0.
         25    1    1    2    0    0  0.14089861457E+03 -0.12267673722E+03 -0.24011046760E+03  0.32890733967E+03  0.12500000000E+03 0.  0.
</event>
<event>
 5    0  0.8461019E-005  0.6618090E+03  0.7546771E-02  0.9784869E-01
         21   -1    0    0  502  501  0.00000000000E+00  0.00000000000E+00  0.11030310866E+04  0.11030310866E+04  0.00000000000E+00 0. -1.
         21   -1    0    0  501  502 -0.00000000000E+00 -0.00000000000E+00 -0.39707956594E+03  0.39707956594E+03  0.00000000000E+00 0. -1.
         25    1    1    2    0    0 -0.12566377275E+03  0.39954110545E+03  0.54747075351E+03  0.70055242821E+03  0.12500000000E+03 0.  0.
         25    1    1    2    0    0  0.13470755727E+03 -0.34819094778E+01 -0.18481327379E+03  0.26065148350E+03  0.12500000000E+03 0.  0.
         25    1    1    2    0    0 -0.90437845192E+01 -0.39605919598E+03  0.34329404091E+03  0.53890674080E+03  0.12500000000E+03 0.  0.
</event>
<event>
 5    0  0.5626800E-005  0.3125446E+03  0.7546771E-02  0.1079133E+00
         21   -1    0    0  502  501  0.00000000000E+00  0.00000000000E+00  0.10529476902E+03  0.10529476902E+03  0.00000000000E+00 0. -1.
         21   -1    0    0  501  502 -0.00000000000E+00 -0.00000000000E+00 -0.92772045543E+03  0.92772045543E+03  0.00000000000E+00 0. -1.
         25    1    1    2    0    0 -0.12261264880E+03  0.56641398617E+02 -0.22742040816E+03  0.29255281870E+03  0.12500000000E+03 0.  0.
         25    1    1    2    0    0  0.12633354211E+03 -0.14395503462E+03 -0.15899587398E+03  0.27854605328E+03  0.12500000000E+03 0.  0.
         25    1    1    2    0    0 -0.37208933147E+01  0.87313636001E+02 -0.43600940426E+03  0.46191635248E+03  0.12500000000E+03 0.  0.
</event>
<event>
 5    0  0.5626800E-005  0.3321560E+03  0.7546771E-02  0.1070187E+00
         21   -1    0    0  502  501  0.00000000000E+00  0.00000000000E+00  0.11497795339E+03  0.11497795339E+03  0.00000000000E+00 0.  1.
         21   -1    0    0  501  502 -0.00000000000E+00 -0.00000000000E+00 -0.95955429893E+03  0.95955429893E+03  0.00000000000E+00 0.  1.
         25    1    1    2    0    0 -0.88734556869E+02  0.69889977434E+02 -0.53513179283E+03  0.56102537039E+03  0.12500000000E+03 0.  0.
         25    1    1    2    0    0  0.15197622750E+03  0.66935013426E+02 -0.20340439304E+03  0.29081852908E+03  0.12500000000E+03 0.  0.
         25    1    1    2    0    0 -0.63241670632E+02 -0.13682499086E+03 -0.10604015968E+03  0.22268835284E+03  0.12500000000E+03 0.  0.
</event>
<event>
 5    0  0.6071519E-005  0.3402755E+03  0.7546771E-02  0.1066679E+00
         21   -1    0    0  502  501  0.00000000000E+00  0.00000000000E+00  0.98326895453E+03  0.98326895453E+03  0.00000000000E+00 0.  1.
         21   -1    0    0  501  502 -0.00000000000E+00 -0.00000000000E+00 -0.11775765776E+03  0.11775765776E+03  0.00000000000E+00 0.  1.
         25    1    1    2    0    0 -0.36847215096E+02 -0.68081068108E+02  0.10809419914E+03  0.18248864343E+03  0.12500000000E+03 0.  0.
         25    1    1    2    0    0 -0.12669198985E+03  0.15442366591E+03  0.60220468505E+03  0.64666298146E+03  0.12500000000E+03 0.  0.
         25    1    1    2    0    0  0.16353920495E+03 -0.86342597804E+02  0.15521241258E+03  0.27187498739E+03  0.12500000000E+03 0.  0.
</event>
<event>
 5    0  0.5626800E-005  0.2125209E+03  0.7546771E-02  0.1139585E+00
         21   -1    0    0  502  501  0.00000000000E+00  0.00000000000E+00  0.10520208935E+03  0.10520208935E+03  0.00000000000E+00 0.  1.
         21   -1    0    0  501  502 -0.00000000000E+00 -0.00000000000E+00 -0.42931790696E+03  0.42931790696E+03  0.00000000000E+00 0.  1.
         25    1    1    2    0    0 -0.27340439295E+02  0.99883310412E+01 -0.14596067379E+03  0.19436250840E+03  0.12500000000E+03 0.  0.
         25    1    1    2    0    0 -0.55997468029E+02  0.78231166307E+01 -0.68733963576E+02  0.15344795642E+03  0.12500000000E+03 0.  0.
         25    1    1    2    0    0  0.83337907324E+02 -0.17811447672E+02 -0.10942118025E+03  0.18670953150E+03  0.12500000000E+03 0.  0.
</event>
<event>
 5    0  0.5626800E-005  0.4320654E+03  0.7546771E-02  0.1033209E+00
         21   -1    0    0  502  501  0.00000000000E+00  0.00000000000E+00  0.84777853733E+03  0.84777853733E+03  0.00000000000E+00 0.  1.
         21   -1    0    0  501  502 -0.00000000000E+00 -0.00000000000E+00 -0.22019965294E+03  0.22019965294E+03  0.00000000000E+00 0.  1.
         25    1    1    2    0    0 -0.20502977839E+03  0.69515669439E+02  0.35252651598E+03  0.43216846575E+03  0.12500000000E+03 0.  0.
         25    1    1    2    0    0  0.16728544074E+03 -0.25830759441E+03  0.99244490966E+02  0.34667232512E+03  0.12500000000E+03 0.  0.
         25    1    1    2    0    0  0.37744337644E+02  0.18879192497E+03  0.17580787745E+03  0.28913739940E+03  0.12500000000E+03 0.  0.
</event>
<event>
 5    0  0.5626800E-005  0.5539602E+03  0.7546771E-02  0.1000581E+00
         21   -1    0    0  502  501  0.00000000000E+00  0.00000000000E+00  0.22454169955E+03  0.22454169955E+03  0.00000000000E+00 0. -1.
         21   -1    0    0  501  502 -0.00000000000E+00 -0.00000000000E+00 -0.13666587058E+04  0.13666587058E+04  0.00000000000E+00 0. -1.
         25    1    1    2    0    0 -0.13262721963E+03  0.16180253685E+03 -0.49815982846E+02  0.24875022103E+03  0.12500000000E+03 0.  0.
         25    1    1    2    0    0 -0.16679509471E+03 -0.32088866732E+03 -0.35779835304E+03  0.52386525163E+03  0.12500000000E+03 0.  0.
         25    1    1    2    0    0  0.29942231433E+03  0.15908613047E+03 -0.73450267039E+03  0.81858493270E+03  0.12500000000E+03 0.  0.
</event>
<event>
 5    0  0.5626800E-005  0.2803906E+03  0.7546771E-02  0.1095476E+00
         21   -1    0    0  502  501  0.00000000000E+00  0.00000000000E+00  0.19394855284E+03  0.19394855284E+03  0.00000000000E+00 0. -1.
         21   -1    0    0  501  502 -0.00000000000E+00 -0.00000000000E+00 -0.40535956638E+03  0.40535956638E+03  0.00000000000E+00 0. -1.
         25    1    1    2    0    0 -0.83890102276E+02  0.68950736394E+02 -0.24530069070E+03  0.29595469614E+03  0.12500000000E+03 0.  0.
         25    1    1    2    0    0  0.47783355071E+02  0.13721999428E+02 -0.27709509051E+02  0.13734758528E+03  0.12500000000E+03 0.  0.
         25    1    1    2    0    0  0.36106747205E+02 -0.82672735822E+02  0.61599186209E+02  0.16600583780E+03  0.12500000000E+03 0.  0.
</event>
<event>
 5    0  0.5626800E-005  0.3792247E+03  0.7546771E-02  0.1051221E+00
         21   -1    0    0  502  501  0.00000000000E+00  0.00000000000E+00  0.14380538087E+04  0.14380538087E+04  0.00000000000E+00 0.  1.
         21   -1    0    0  501  502 -0.00000000000E+00 -0.00000000000E+00 -0.10000414549E+03  0.10000414549E+03  0.00000000000E+00 0.  1.
         25    1    1    2    0    0 -0.10330845469E+03  0.21881317774E+02  0.11827064472E+02  0.16406190396E+03  0.12500000000E+03 0.  0.
         25    1    1    2    0    0  0.50410545080E+02  0.10674837410E+03  0.61074669662E+03  0.63448637957E+03  0.12500000000E+03 0.  0.
         25    1    1    2    0    0  0.52897909608E+02 -0.12862969187E+03  0.71547590211E+03  0.73950967064E+03  0.12500000000E+03 0.  0.
</event>
<event>
 5    0  0.5626800E-005  0.3183336E+03  0.7546771E-02  0.1076419E+00
         21   -1    0    0  502  501  0.00000000000E+00  0.00000000000E+00  0.11086170634E+03  0.11086170634E+03  0.00000000000E+00 0.  1.
         21   -1    0    0  501  502 -0.00000000000E+00 -0.00000000000E+00 -0.91407823228E+03  0.91407823228E+03  0.00000000000E+00 0.  1.
         25    1    1    2    0    0  0.21710340128E+03  0.85950194386E+02 -0.37539863049E+03  0.45942404654E+03  0.12500000000E+03 0.  0.
         25    1    1    2    0    0 -0.74504557901E+02 -0.97856006652E+02 -0.16173328094E+03  0.23855687236E+03  0.12500000000E+03 0.  0.
         25    1    1    2    0    0 -0.14259884338E+03  0.11905812266E+02 -0.26608461451E+03  0.32695901972E+03  0.12500000000E+03 0.  0.
</event>
<event>
 5    0  0.5626800E-005  0.3863110E+03  0.7546771E-02  0.1048626E+00
         21   -1    0    0  502  501  0.00000000000E+00  0.00000000000E+00  0.54467756688E+03  0.54467756688E+03  0.00000000000E+00 0. -1.
         21   -1    0    0  501  502 -0.00000000000E+00 -0.00000000000E+00 -0.27398993383E+03  0.27398993383E+03  0.00000000000E+00 0. -1.
         25    1    1    2    0    0 -0.78432669578E+01 -0.63773279459E+01 -0.40240922911E+02  0.13170618446E+03  0.12500000000E+03 0.  0.
         25    1    1    2    0    0 -0.16278590389E+01 -0.26526233013E+03  0.66632157457E+02  0.30071846986E+03  0.12500000000E+03 0.  0.
         25    1    1    2    0    0  0.94711259967E+01  0.27163965808E+03  0.24429639850E+03  0.38624284639E+03  0.12500000000E+03 0.  0.
</event>
<event>
 5    0  0.5626800E-005  0.2877265E+03  0.7546771E-02  0.1091542E+00
         21   -1    0    0  502  501  0.00000000000E+00  0.00000000000E+00  0.32814438636E+03  0.32814438636E+03  0.00000000000E+00 0. -1.
         21   -1    0    0  501  502 -0.00000000000E+00 -0.00000000000E+00 -0.25228695053E+03  0.25228695053E+03  0.00000000000E+00 0. -1.
         25    1    1    2    0    0 -0.91936332358E+02  0.22514445174E+02  0.17431677049E+03  0.23445794063E+03  0.12500000000E+03 0.  0.
         25    1    1    2    0    0  0.10721350472E+03  0.23693358073E+02 -0.12641132086E+03  0.20895198696E+03  0.12500000000E+03 0.  0.
         25    1    1    2    0    0 -0.15277172366E+02 -0.46207803247E+02  0.27951986196E+02  0.13702140931E+03  0.12500000000E+03 0.  0.
</event>
<event>
 5    0  0.5626800E-005  0.3218241E+03  0.7546771E-02  0.1074813E+00
         21   -1    0    0  502  501  0.00000000000E+00  0.00000000000E+00  0.21187331053E+03  0.21187331053E+03  0.00000000000E+00 0.  1.
         21   -1    0    0  501  502 -0.00000000000E+00 -0.00000000000E+00 -0.48883338529E+03  0.48883338529E+03  0.00000000000E+00 0.  1.
         25    1    1    2    0    0  0.14735579288E+03  0.11449632152E+03 -0.10411583070E+03  0.24756462498E+03  0.12500000000E+03 0.  0.
         25    1    1    2    0    0 -0.18107961355E+03  0.31311062501E+02 -0.11200902164E+03  0.24887995099E+03  0.12500000000E+03 0.  0.
         25    1    1    2    0    0  0.33723820665E+02 -0.14580738402E+03 -0.60835222419E+02  0.20426211984E+03  0.12500000000E+03 0.  0.
</event>
<event>
 5    0  0.5626800E-005  0.2724566E+03  0.7546771E-02  0.1099882E+00
         21   -1    0    0  502  501  0.00000000000E+00  0.00000000000E+00  0.33440615949E+02  0.33440615949E+02  0.00000000000E+00 0. -1.
         21   -1    0    0  501  502 -0.00000000000E+00 -0.00000000000E+00 -0.22198331996E+04  0.22198331996E+04  0.00000000000E+00 0. -1.
         25    1    1    2    0    0 -0.17771582491E+02  0.79453430902E+02 -0.31388577583E+03  0.34753123183E+03  0.12500000000E+03 0.  0.
         25    1    1    2    0    0 -0.28456422953E+02 -0.38994523472E+02 -0.15320365625E+04  0.15378853565E+04  0.12500000000E+03 0.  0.
         25    1    1    2    0    0  0.46228005444E+02 -0.40458907430E+02 -0.34047024531E+03  0.36785722722E+03  0.12500000000E+03 0.  0.
</event>
<event>
 5    0  0.5626800E-005  0.4186391E+03  0.7546771E-02  0.1037510E+00
         21   -1    0    0  502  501  0.00000000000E+00  0.00000000000E+00  0.46772145381E+04  0.46772145381E+04  0.00000000000E+00 0. -1.
         21   -1    0    0  501  502 -0.00000000000E+00 -0.00000000000E+00 -0.37470742406E+02  0.37470742406E+02  0.00000000000E+00 0. -1.
         25    1    1    2    0    0  0.28148944602E+03  0.52717249987E+02  0.33413514466E+04  0.33559305574E+04  0.12500000000E+03 0.  0.
         25    1    1    2    0    0 -0.11859146152E+03 -0.80914773140E+02  0.70316235914E+03  0.72847336161E+03  0.12500000000E+03 0.  0.
         25    1    1    2    0    0 -0.16289798450E+03  0.28197523153E+02  0.59522999002E+03  0.63028136152E+03  0.12500000000E+03 0.  0.
</event>
<event>
 5    0  0.5626800E-005  0.5589405E+03  0.7546771E-02  0.9994455E-01
         21   -1    0    0  502  501  0.00000000000E+00  0.00000000000E+00  0.27387923659E+03  0.27387923659E+03  0.00000000000E+00 0. -1.
         21   -1    0    0  501  502 -0.00000000000E+00 -0.00000000000E+00 -0.11407017893E+04  0.11407017893E+04  0.00000000000E+00 0. -1.
         25    1    1    2    0    0  0.41218706935E+03 -0.11226475821E+02 -0.22569537812E+03  0.48640273191E+03  0.12500000000E+03 0.  0.
         25    1    1    2    0    0 -0.13279193868E+03  0.22261780105E+03 -0.36555115766E+03  0.46523653467E+03  0.12500000000E+03 0.  0.
         25    1    1    2    0    0 -0.27939513067E+03 -0.21139132523E+03 -0.27557601696E+03  0.46294175935E+03  0.12500000000E+03 0.  0.
</event>
<event>
 5    0  0.5626800E-005  0.3143275E+03  0.7546771E-02  0.1078290E+00
         21   -1    0    0  502  501  0.00000000000E+00  0.00000000000E+00  0.15689490636E+03  0.15689490636E+03  0.00000000000E+00 0. -1.
         21   -1    0    0  501  502 -0.00000000000E+00 -0.00000000000E+00 -0.62973234033E+03  0.62973234033E+03  0.00000000000E+00 0. -1.
         25    1    1    2    0    0  0.16218717886E+03  0.40806774679E+02 -0.14058714804E+02  0.20926662731E+03  0.12500000000E+03 0.  0.
         25    1    1    2    0    0 -0.17609013908E+02 -0.56881167272E+02 -0.10088463201E+03  0.17131331979E+03  0.12500000000E+03 0.  0.
         25    1    1    2    0    0 -0.14457816495E+03  0.16074392593E+02 -0.35789408716E+03  0.40604729958E+03  0.12500000000E+03 0.  0.
</event>
<event>
 5    0  0.5626800E-005  0.4420722E+03  0.7546771E-02  0.1030113E+00
         21   -1    0    0  502  501  0.00000000000E+00  0.00000000000E+00  0.37928017731E+03  0.37928017731E+03  0.00000000000E+00 0.  1.
         21   -1    0    0  501  502 -0.00000000000E+00 -0.00000000000E+00 -0.51525991763E+03  0.51525991763E+03  0.00000000000E+00 0.  1.
         25    1    1    2    0    0  0.16191754613E+03 -0.14988485782E+03  0.18386093398E+03  0.31322931758E+03  0.12500000000E+03 0.  0.
         25    1    1    2    0    0  0.67877308791E+02  0.14858208981E+03 -0.64031906103E+02  0.21542760143E+03  0.12500000000E+03 0.  0.
         25    1    1    2    0    0 -0.22979485492E+03  0.13027680096E+01 -0.25580876819E+03  0.36588317594E+03  0.12500000000E+03 0.  0.
</event>
<event>
 5    0  0.5626800E-005  0.2833030E+03  0.7546771E-02  0.1093898E+00
         21   -1    0    0  502  501  0.00000000000E+00  0.00000000000E+00  0.87499822904E+03  0.87499822904E+03  0.00000000000E+00 0. -1.
         21   -1    0    0  501  502 -0.00000000000E+00 -0.00000000000E+00 -0.91726549530E+02  0.91726549530E+02  0.00000000000E+00 0. -1.
         25    1    1    2    0    0  0.50722104107E+02  0.62513742369E+01  0.37698897722E+02  0.14020705551E+03  0.12500000000E+03 0.  0.
         25    1    1    2    0    0 -0.12953751936E+03  0.53279926522E+02  0.30637342331E+03  0.35931656516E+03  0.12500000000E+03 0.  0.
         25    1    1    2    0    0  0.78815415253E+02 -0.59531300759E+02  0.43919935848E+03  0.46720115790E+03  0.12500000000E+03 0.  0.
</event>
<event>
 5    0  0.5626800E-005  0.3262643E+03  0.7546771E-02  0.1072802E+00
         21   -1    0    0  502  501  0.00000000000E+00  0.00000000000E+00  0.98310435320E+02  0.98310435320E+02  0.00000000000E+00 0.  1.
         21   -1    0    0  501  502 -0.00000000000E+00 -0.00000000000E+00 -0.10827778797E+04  0.10827778797E+04  0.00000000000E+00 0.  1.
         25    1    1    2    0    0 -0.12165072925E+03 -0.15596732671E+03 -0.34217704147E+03  0.41452965471E+03  0.12500000000E+03 0.  0.
         25    1    1    2    0    0  0.78672368171E+02  0.35488174668E+02 -0.53906355472E+03  0.56005648651E+03  0.12500000000E+03 0.  0.
         25    1    1    2    0    0  0.42978361074E+02  0.12047915204E+03 -0.10322684820E+03  0.20650217381E+03  0.12500000000E+03 0.  0.
</event>
<event>
 5    0  0.5626800E-005  0.2582553E+03  0.7546771E-02  0.1108196E+00
         21   -1    0    0  502  501  0.00000000000E+00  0.00000000000E+00  0.34274165530E+03  0.34274165530E+03  0.00000000000E+00 0. -1.
         21   -1    0    0  501  502 -0.00000000000E+00 -0.00000000000E+00 -0.19459495570E+03  0.19459495570E+03  0.00000000000E+00 0. -1.
         25    1    1    2    0    0 -0.64235748946E+02 -0.52261536082E+02  0.14491428168E+03  0.20852493527E+03  0.12500000000E+03 0.  0.
         25    1    1    2    0    0  0.74242031697E+02 -0.15319085558E+02  0.80360041420E+02  0.16682113148E+03  0.12500000000E+03 0.  0.
         25    1    1    2    0    0 -0.10006282751E+02  0.67580621641E+02 -0.77127623496E+02  0.16199054424E+03  0.12500000000E+03 0.  0.
</event>
<event>
 5    0  0.6157666E-005  0.3119805E+03  0.7546771E-02  0.1079400E+00
         21   -1    0    0  502  501  0.00000000000E+00  0.00000000000E+00  0.16479112062E+03  0.16479112062E+03  0.00000000000E+00 0.  1.
         21   -1    0    0  501  502 -0.00000000000E+00 -0.00000000000E+00 -0.59063763673E+03  0.59063763673E+03  0.00000000000E+00 0.  1.
         25    1    1    2    0    0  0.13674012823E+03 -0.38377264839E+02 -0.89879779003E+02  0.20946133724E+03  0.12500000000E+03 0.  0.
         25    1    1    2    0    0 -0.13389157472E+03  0.10018375788E+03 -0.34816014056E+03  0.40596086339E+03  0.12500000000E+03 0.  0.
         25    1    1    2    0    0 -0.28485535114E+01 -0.61806493045E+02  0.12193403452E+02  0.14000655673E+03  0.12500000000E+03 0.  0.
</event>
<event>
 5    0  0.5626800E-005  0.2852251E+03  0.7546771E-02  0.1092869E+00
         21   -1    0    0  502  501  0.00000000000E+00  0.00000000000E+00  0.97962265262E+02  0.97962265262E+02  0.00000000000E+00 0. -1.
         21   -1    0    0  501  502 -0.00000000000E+00 -0.00000000000E+00 -0.83045611037E+03  0.83045611037E+03  0.00000000000E+00 0. -1.
         25    1    1    2    0    0  0.62403110822E+02  0.25636104767E+02 -0.39789176391E+03  0.42248575585E+03  0.12500000000E+03 0.  0.
         25    1    1    2    0    0 -0.13094833371E+03 -0.10258251257E+03 -0.13154356848E+03  0.24616934901E+03  0.12500000000E+03 0.  0.
         25    1    1    2    0    0  0.68545222886E+02  0.76946407800E+02 -0.20305851272E+03  0.25976327077E+03  0.12500000000E+03 0.  0.
</event>
<event>
 5    0  0.5626800E-005  0.2864675E+03  0.7546771E-02  0.1092208E+00
         21   -1    0    0  502  501  0.00000000000E+00  0.00000000000E+00  0.10985031184E+04  0.10985031184E+04  0.00000000000E+00 0. -1.
         21   -1    0    0  501  502 -0.00000000000E+00 -0.00000000000E+00 -0.74704937633E+02  0.74704937633E+02  0.00000000000E+00 0. -1.
         25    1    1    2    0    0 -0.10389201590E+02  0.14038232310E+03  0.36885941777E+03  0.41412244835E+03  0.12500000000E+03 0.  0.
         25    1    1    2    0    0 -0.74778995054E+02 -0.17250890405E+03  0.33853449336E+03  0.40691746494E+03  0.12500000000E+03 0.  0.
         25    1    1    2    0    0  0.85168196645E+02  0.32126580947E+02  0.31640426966E+03  0.35216814277E+03  0.12500000000E+03 0.  0.
</event>
<event>
 5    0  0.5626800E-005  0.2330477E+03  0.7546771E-02  0.1124513E+00
         21   -1    0    0  502  501  0.00000000000E+00  0.00000000000E+00  0.98931978704E+02  0.98931978704E+02  0.00000000000E+00 0.  1.
         21   -1    0    0  501  502 -0.00000000000E+00 -0.00000000000E+00 -0.54897533922E+03  0.54897533922E+03  0.00000000000E+00 0.  1.
         25    1    1    2    0    0 -0.84276622097E+02 -0.26108500927E+02 -0.92867955760E+02  0.17897949620E+03  0.12500000000E+03 0.  0.
         25    1    1    2    0    0 -0.17900279450E+02  0.48595505080E+02 -0.20695275096E+03  0.24725772839E+03  0.12500000000E+03 0.  0.
         25    1    1    2    0    0  0.10217690155E+03 -0.22487004154E+02 -0.15022265380E+03  0.22167009334E+03  0.12500000000E+03 0.  0.
</event>
<event>
 5    0  0.5626800E-005  0.2834963E+03  0.7546771E-02  0.1093794E+00
         21   -1    0    0  502  501  0.00000000000E+00  0.00000000000E+00  0.11053847813E+04  0.11053847813E+04  0.00000000000E+00 0. -1.
         21   -1    0    0  501  502 -0.00000000000E+00 -0.00000000000E+00 -0.72707872404E+02  0.72707872404E+02  0.00000000000E+00 0. -1.
         25    1    1    2    0    0 -0.99691767435E+02 -0.15355050030E+02  0.25538426836E+03  0.30169579146E+03  0.12500000000E+03 0.  0.
         25    1    1    2    0    0  0.59142085091E+02  0.14015186358E+03  0.55911340722E+03  0.59276735168E+03  0.12500000000E+03 0.  0.
         25    1    1    2    0    0  0.40549682344E+02 -0.12479681355E+03  0.21817923330E+03  0.28362951055E+03  0.12500000000E+03 0.  0.
</event>
<event>
 5    0  0.5755355E-005  0.2888621E+03  0.7546771E-02  0.1090945E+00
         21   -1    0    0  502  501  0.00000000000E+00  0.00000000000E+00  0.22956314522E+03  0.22956314522E+03  0.00000000000E+00 0. -1.
         21   -1    0    0  501  502 -0.00000000000E+00 -0.00000000000E+00 -0.36347877548E+03  0.36347877548E+03  0.00000000000E+00 0. -1.
         25    1    1    2    0    0  0.73794890232E+02  0.10062170249E+02  0.34225776415E+02  0.14947687736E+03  0.12500000000E+03 0.  0.
         25    1    1    2    0    0  0.28937121286E+02  0.13991874599E+03 -0.78034314998E+02  0.20525342089E+03  0.12500000000E+03 0.  0.
         25    1    1    2    0    0 -0.10273201152E+03 -0.14998091624E+03 -0.90107091671E+02  0.23831162245E+03  0.12500000000E+03 0.  0.
</event>
<event>
 5    0  0.5626800E-005  0.3389025E+03  0.7546771E-02  0.1067264E+00
         21   -1    0    0  502  501  0.00000000000E+00  0.00000000000E+00  0.74360639914E+02  0.74360639914E+02  0.00000000000E+00 0. -1.
         21   -1    0    0  501  502 -0.00000000000E+00 -0.00000000000E+00 -0.15445657423E+04  0.15445657423E+04  0.00000000000E+00 0. -1.
         25    1    1    2    0    0  0.17292319174E+03  0.88475055944E+02 -0.67186664063E+03  0.71046467087E+03  0.12500000000E+03 0.  0.
         25    1    1    2    0    0 -0.10580415399E+03  0.10233424611E+03 -0.30838618364E+03  0.36385966414E+03  0.12500000000E+03 0.  0.
         25    1    1    2    0    0 -0.67119037748E+02 -0.19080930206E+03 -0.48995227808E+03  0.54460204716E+03  0.12500000000E+03 0.  0.
</event>
<event>
 5    0  0.5626800E-005  0.2850203E+03  0.7546771E-02  0.1092978E+00
         21   -1    0    0  502  501  0.00000000000E+00  0.00000000000E+00  0.59390484414E+02  0.59390484414E+02  0.00000000000E+00 0.  1.
         21   -1    0    0  501  502 -0.00000000000E+00 -0.00000000000E+00 -0.13678380086E+04  0.13678380086E+04  0.00000000000E+00 0.  1.
         25    1    1    2    0    0  0.45926458231E+01  0.12992393511E+03 -0.37793569773E+03  0.41876211974E+03  0.12500000000E+03 0.  0.
         25    1    1    2    0    0  0.77176138348E+02  0.27681580015E+02 -0.22370191750E+03  0.26905384981E+03  0.12500000000E+03 0.  0.
         25    1    1    2    0    0 -0.81768784171E+02 -0.15760551513E+03 -0.70680990896E+03  0.73941252348E+03  0.12500000000E+03 0.  0.
</event>
<event>
 5    0  0.5626800E-005  0.4589253E+03  0.7546771E-02  0.1025093E+00
         21   -1    0    0  502  501  0.00000000000E+00  0.00000000000E+00  0.17712595847E+03  0.17712595847E+03  0.00000000000E+00 0.  1.
         21   -1    0    0  501  502 -0.00000000000E+00 -0.00000000000E+00 -0.11890546017E+04  0.11890546017E+04  0.00000000000E+00 0. -1.
         25    1    1    2    0    0  0.10140081936E+03  0.31112565848E+03 -0.34218416616E+03  0.48969000919E+03  0.12500000000E+03 0.  0.
         25    1    1    2    0    0  0.14460156990E+03 -0.13878394629E+03 -0.23200608370E+03  0.33109276742E+03  0.12500000000E+03 0.  0.
         25    1    1    2    0    0 -0.24600238926E+03 -0.17234171219E+03 -0.43773839339E+03  0.54539778357E+03  0.12500000000E+03 0.  0.
</event>
<event>
 5    0  0.5626800E-005  0.2982310E+03  0.7546771E-02  0.1086128E+00
         21   -1    0    0  502  501  0.00000000000E+00  0.00000000000E+00  0.22032687580E+03  0.22032687580E+03  0.00000000000E+00 0. -1.
         21   -1    0    0  501  502 -0.00000000000E+00 -0.00000000000E+00 -0.40368067946E+03  0.40368067946E+03  0.00000000000E+00 0. -1.
         25    1    1    2    0    0 -0.13613079066E+03 -0.12075251303E+02 -0.12927194205E+02  0.18565967847E+03  0.12500000000E+03 0.  0.
         25    1    1    2    0    0 -0.72280665964E+02 -0.15946273138E+02 -0.96089741222E+01  0.14558884120E+03  0.12500000000E+03 0.  0.
         25    1    1    2    0    0  0.20841145662E+03  0.28021524442E+02 -0.16081763533E+03  0.29275903559E+03  0.12500000000E+03 0.  0.
</event>
<event>
 5    0  0.5626800E-005  0.3623051E+03  0.7546771E-02  0.1057675E+00
         21   -1    0    0  502  501  0.00000000000E+00  0.00000000000E+00  0.54586737851E+03  0.54586737851E+03  0.00000000000E+00 0.  1.
         21   -1    0    0  501  502 -0.00000000000E+00 -0.00000000000E+00 -0.24047050013E+03  0.24047050013E+03  0.00000000000E+00 0.  1.
         25    1    1    2    0    0  0.64245659687E+02  0.46530205981E+01 -0.71125616104E+02  0.15758492522E+03  0.12500000000E+03 0.  0.
         25    1    1    2    0    0 -0.11700334554E+02  0.15496745143E+03  0.36867907137E+03  0.41916711046E+03  0.12500000000E+03 0.  0.
         25    1    1    2    0    0 -0.52545325133E+02 -0.15962047202E+03  0.78434231149E+01  0.20958584296E+03  0.12500000000E+03 0.  0.
</event>
<event>
 5    0  0.5626800E-005  0.2877908E+03  0.7546771E-02  0.1091508E+00
         21   -1    0    0  502  501  0.00000000000E+00  0.00000000000E+00  0.88786313375E+03  0.88786313375E+03  0.00000000000E+00 0. -1.
         21   -1    0    0  501  502 -0.00000000000E+00 -0.00000000000E+00 -0.93284125882E+02  0.93284125882E+02  0.00000000000E+00 0. -1.
         25    1    1    2    0    0 -0.17622561264E+02 -0.12722340193E+03  0.84794366122E+02  0.19827111033E+03  0.12500000000E+03 0.  0.
         25    1    1    2    0    0  0.49601875622E+02  0.14181487076E+03  0.35769268293E+03  0.40760380157E+03  0.12500000000E+03 0.  0.
         25    1    1    2    0    0 -0.31979314358E+02 -0.14591468822E+02  0.35209195882E+03  0.37527234773E+03  0.12500000000E+03 0.  0.
</event>
<event>
 5    0  0.5626800E-005  0.4247304E+03  0.7546771E-02  0.1035538E+00
         21   -1    0    0  502  501  0.00000000000E+00  0.00000000000E+00  0.57788589706E+03  0.57788589706E+03  0.00000000000E+00 0. -1.
         21   -1    0    0  501  502 -0.00000000000E+00 -0.00000000000E+00 -0.31216531266E+03  0.31216531266E+03  0.00000000000E+00 0. -1.
         25    1    1    2    0    0 -0.46059533526E+02 -0.66575665303E+02 -0.32763594161E+02  0.15248689433E+03  0.12500000000E+03 0.  0.
         25    1    1    2    0    0 -0.33108945056E+02  0.48016003441E+02  0.48185697706E+03  0.50121141764E+03  0.12500000000E+03 0.  0.
         25    1    1    2    0    0  0.79168478582E+02  0.18559661862E+02 -0.18337279849E+03  0.23635289775E+03  0.12500000000E+03 0.  0.
</event>
<event>
 5    0  0.5626800E-005  0.3202543E+03  0.7546771E-02  0.1075532E+00
         21   -1    0    0  502  501  0.00000000000E+00  0.00000000000E+00  0.11079750625E+03  0.11079750625E+03  0.00000000000E+00 0. -1.
         21   -1    0    0  501  502 -0.00000000000E+00 -0.00000000000E+00 -0.92567793850E+03  0.92567793850E+03  0.00000000000E+00 0. -1.
         25    1    1    2    0    0 -0.18025815612E+03 -0.61681482784E+00 -0.34229635268E+03  0.40655279653E+03  0.12500000000E+03 0.  0.
         25    1    1    2    0    0  0.68616701454E+01  0.11813793153E+03 -0.20973006619E+03  0.27132149573E+03  0.12500000000E+03 0.  0.
         25    1    1    2    0    0  0.17339648597E+03 -0.11752111670E+03 -0.26285401337E+03  0.35860115249E+03  0.12500000000E+03 0.  0.
</event>
<event>
 5    0  0.5626800E-005  0.2626895E+03  0.7546771E-02  0.1105538E+00
         21   -1    0    0  502  501  0.00000000000E+00  0.00000000000E+00  0.83651099105E+02  0.83651099105E+02  0.00000000000E+00 0. -1.
         21   -1    0    0  501  502 -0.00000000000E+00 -0.00000000000E+00 -0.82492372823E+03  0.82492372823E+03  0.00000000000E+00 0. -1.
         25    1    1    2    0    0  0.12383294959E+03 -0.83915465748E+02 -0.13889027191E+03  0.23935729031E+03  0.12500000000E+03 0.  0.
         25    1    1    2    0    0 -0.60090118878E+02  0.36559181873E+02 -0.29439113334E+03  0.32747295393E+03  0.12500000000E+03 0.  0.
         25    1    1    2    0    0 -0.63742830708E+02  0.47356283875E+02 -0.30799122387E+03  0.34174458309E+03  0.12500000000E+03 0.  0.
</event>
<event>
 5    0  0.5626800E-005  0.2923075E+03  0.7546771E-02  0.1089150E+00
         21   -1    0    0  502  501  0.00000000000E+00  0.00000000000E+00  0.11534893373E+04  0.11534893373E+04  0.00000000000E+00 0. -1.
         21   -1    0    0  501  502 -0.00000000000E+00 -0.00000000000E+00 -0.74074108353E+02  0.74074108353E+02  0.00000000000E+00 0. -1.
         25    1    1    2    0    0 -0.50690202069E+02  0.30792326358E+02  0.12068453277E+03  0.18359580713E+03  0.12500000000E+03 0.  0.
         25    1    1    2    0    0  0.86625113922E+02  0.11272360929E+03  0.27883778666E+03  0.33702527164E+03  0.12500000000E+03 0.  0.
         25    1    1    2    0    0 -0.35934911852E+02 -0.14351593564E+03  0.67989290949E+03  0.70694236685E+03  0.12500000000E+03 0.  0.
</event>
<event>
 5    0  0.5626800E-005  0.2744017E+03  0.7546771E-02  0.1098786E+00
         21   -1    0    0  502  501  0.00000000000E+00  0.00000000000E+00  0.11718754684E+03  0.11718754684E+03  0.00000000000E+00 0.  1.
         21   -1    0    0  501  502 -0.00000000000E+00 -0.00000000000E+00 -0.64252825848E+03  0.64252825848E+03  0.00000000000E+00 0.  1.
         25    1    1    2    0    0 -0.71874085364E+02  0.80118903738E+02 -0.93141519945E+02  0.18943406668E+03  0.12500000000E+03 0.  0.
         25    1    1    2    0    0  0.10401220870E+03 -0.98637873489E+02 -0.38886093030E+03  0.43288080664E+03  0.12500000000E+03 0.  0.
         25    1    1    2    0    0 -0.32138123336E+02  0.18518969751E+02 -0.43338261394E+02  0.13740093199E+03  0.12500000000E+03 0.  0.
</event>
<event>
 5    0  0.5626800E-005  0.3351601E+03  0.7546771E-02  0.1068876E+00
         21   -1    0    0  502  501  0.00000000000E+00  0.00000000000E+00  0.30896617763E+03  0.30896617763E+03  0.00000000000E+00 0.  1.
         21   -1    0    0  501  502 -0.00000000000E+00 -0.00000000000E+00 -0.36357474632E+03  0.36357474632E+03  0.00000000000E+00 0.  1.
         25    1    1    2    0    0  0.24293549371E+02 -0.52339315895E+01 -0.19040877177E+02  0.12886087686E+03  0.12500000000E+03 0.  0.
         25    1    1    2    0    0 -0.74502198264E+02  0.20554035575E+03 -0.13128817642E+03  0.28400528279E+03  0.12500000000E+03 0.  0.
         25    1    1    2    0    0  0.50208648893E+02 -0.20030642416E+03  0.95720484905E+02  0.25967476430E+03  0.12500000000E+03 0.  0.
</event>
<event>
 5    0  0.5626800E-005  0.2499747E+03  0.7546771E-02  0.1113321E+00
         21   -1    0    0  502  501  0.00000000000E+00  0.00000000000E+00  0.21430469156E+03  0.21430469156E+03  0.00000000000E+00 0. -1.
         21   -1    0    0  501  502 -0.00000000000E+00 -0.00000000000E+00 -0.29158185535E+03  0.29158185535E+03  0.00000000000E+00 0. -1.
         25    1    1    2    0    0  0.10699736292E+02  0.10805593359E+03 -0.21260195213E+01  0.16559012380E+03  0.12500000000E+03 0.  0.
         25    1    1    2    0    0 -0.73130395711E+02 -0.81443949418E+01 -0.85220290223E+02  0.16823163737E+03  0.12500000000E+03 0.  0.
         25    1    1    2    0    0  0.62430659419E+02 -0.99911538649E+02  0.10069145951E+02  0.17206478574E+03  0.12500000000E+03 0.  0.
</event>
<event>
 5    0  0.5626800E-005  0.2692772E+03  0.7546771E-02  0.1101694E+00
         21   -1    0    0  502  501  0.00000000000E+00  0.00000000000E+00  0.13290929922E+03  0.13290929922E+03  0.00000000000E+00 0.  1.
         21   -1    0    0  501  502 -0.00000000000E+00 -0.00000000000E+00 -0.54556165828E+03  0.54556165828E+03  0.00000000000E+00 0.  1.
         25    1    1    2    0    0  0.67984913925E+02  0.14589330296E+03 -0.20840020610E+03  0.29148319038E+03  0.12500000000E+03 0.  0.
         25    1    1    2    0    0 -0.21680631348E+02 -0.14808733874E+03 -0.11217169062E+03  0.22496088071E+03  0.12500000000E+03 0.  0.
         25    1    1    2    0    0 -0.46304282577E+02  0.21940357771E+01 -0.92080462337E+02  0.16202688642E+03  0.12500000000E+03 0.  0.
</event>
<event>
 5    0  0.5626800E-005  0.2452512E+03  0.7546771E-02  0.1116343E+00
         21   -1    0    0  502  501  0.00000000000E+00  0.00000000000E+00  0.29514968785E+02  0.29514968785E+02  0.00000000000E+00 0. -1.
         21   -1    0    0  501  502 -0.00000000000E+00 -0.00000000000E+00 -0.20378862583E+04  0.20378862583E+04  0.00000000000E+00 0. -1.
         25    1    1    2    0    0 -0.65496513969E+02  0.97972229509E+02 -0.43537042421E+03  0.46803926906E+03  0.12500000000E+03 0.  0.
         25    1    1    2    0    0  0.51996938630E+02 -0.57644325925E+02 -0.61795408505E+03  0.63523129738E+03  0.12500000000E+03 0.  0.
         25    1    1    2    0    0  0.13499575339E+02 -0.40327903584E+02 -0.95504678027E+03  0.96413066067E+03  0.12500000000E+03 0.  0.
</event>
<event>
 5    0  0.5626800E-005  0.2758632E+03  0.7546771E-02  0.1097970E+00
         21   -1    0    0  502  501  0.00000000000E+00  0.00000000000E+00  0.59911164780E+03  0.59911164780E+03  0.00000000000E+00 0.  1.
         21   -1    0    0  501  502 -0.00000000000E+00 -0.00000000000E+00 -0.12702226367E+03  0.12702226367E+03  0.00000000000E+00 0.  1.
         25    1    1    2    0    0 -0.11680212712E+03  0.26752446001E+02  0.19706013616E+02  0.17427494725E+03  0.12500000000E+03 0.  0.
         25    1    1    2    0    0  0.10414949651E+03  0.35812608842E+02  0.30998707023E+03  0.35191851938E+03  0.12500000000E+03 0.  0.
         25    1    1    2    0    0  0.12652630614E+02 -0.62565054843E+02  0.14239630028E+03  0.19994044484E+03  0.12500000000E+03 0.  0.
</event>
<event>
 5    0  0.5626800E-005  0.3023053E+03  0.7546771E-02  0.1084094E+00
         21   -1    0    0  502  501  0.00000000000E+00  0.00000000000E+00  0.17701638382E+03  0.17701638382E+03  0.00000000000E+00 0.  1.
         21   -1    0    0  501  502 -0.00000000000E+00 -0.00000000000E+00 -0.51627122033E+03  0.51627122033E+03  0.00000000000E+00 0.  1.
         25    1    1    2    0    0 -0.16843343364E+03 -0.90796853859E+02 -0.24961079469E+02  0.22991725844E+03  0.12500000000E+03 0.  0.
         25    1    1    2    0    0  0.62217712865E+02  0.81557793680E+01 -0.66351938962E+02  0.15480678388E+03  0.12500000000E+03 0.  0.
         25    1    1    2    0    0  0.10621572078E+03  0.82641074491E+02 -0.24794181808E+03  0.30856356183E+03  0.12500000000E+03 0.  0.
</event>
<event>
 5    0  0.5626800E-005  0.2755272E+03  0.7546771E-02  0.1098157E+00
         21   -1    0    0  502  501  0.00000000000E+00  0.00000000000E+00  0.24562701686E+04  0.24562701686E+04  0.00000000000E+00 0.  1.
         21   -1    0    0  501  502 -0.00000000000E+00 -0.00000000000E+00 -0.30906720088E+02  0.30906720088E+02  0.00000000000E+00 0.  1.
         25    1    1    2    0    0 -0.50674895799E+02 -0.54518204992E+02  0.34784295975E+03  0.37704098502E+03  0.12500000000E+03 0.  0.
         25    1    1    2    0    0 -0.71389890811E+02 -0.50931943002E+02  0.11720197925E+04  0.11819246903E+04  0.12500000000E+03 0.  0.
         25    1    1    2    0    0  0.12206478661E+03  0.10545014799E+03  0.90550069626E+03  0.92821121345E+03  0.12500000000E+03 0.  0.
</event>
<event>
 5    0  0.5626800E-005  0.2542163E+03  0.7546771E-02  0.1110669E+00
         21   -1    0    0  502  501  0.00000000000E+00  0.00000000000E+00  0.27921204615E+02  0.27921204615E+02  0.00000000000E+00 0.  1.
         21   -1    0    0  501  502 -0.00000000000E+00 -0.00000000000E+00 -0.23145814679E+04  0.23145814679E+04  0.00000000000E+00 0.  1.
         25    1    1    2    0    0 -0.70656764861E+02 -0.79317240205E+02 -0.11137663029E+04  0.11257814976E+04  0.12500000000E+03 0.  0.
         25    1    1    2    0    0 -0.28435272310E+01  0.11536969403E+03 -0.52750253830E+03  0.55425822490E+03  0.12500000000E+03 0.  0.
         25    1    1    2    0    0  0.73500292092E+02 -0.36052453826E+02 -0.64539142212E+03  0.66246294999E+03  0.12500000000E+03 0.  0.
</event>
<event>
 5    0  0.5626800E-005  0.3078770E+03  0.7546771E-02  0.1081368E+00
         21   -1    0    0  502  501  0.00000000000E+00  0.00000000000E+00  0.57024730155E+03  0.57024730155E+03  0.00000000000E+00 0. -1.
         21   -1    0    0  501  502 -0.00000000000E+00 -0.00000000000E+00 -0.16622308595E+03  0.16622308595E+03  0.00000000000E+00 0. -1.
         25    1    1    2    0    0 -0.25403225066E+02 -0.67125313499E+02  0.55510097105E+02  0.15445874024E+03  0.12500000000E+03 0.  0.
         25    1    1    2    0    0 -0.15370894232E+03  0.12751003148E+03  0.13997984477E+03  0.27405219215E+03  0.12500000000E+03 0.  0.
         25    1    1    2    0    0  0.17911216739E+03 -0.60384717984E+02  0.20853427373E+03  0.30795945511E+03  0.12500000000E+03 0.  0.
</event>
<event>
 5    0  0.5626800E-005  0.3564637E+03  0.7546771E-02  0.1059993E+00
         21   -1    0    0  502  501  0.00000000000E+00  0.00000000000E+00  0.11247757114E+03  0.11247757114E+03  0.00000000000E+00 0. -1.
         21   -1    0    0  501  502 -0.00000000000E+00 -0.00000000000E+00 -0.11297037867E+04  0.11297037867E+04  0.00000000000E+00 0. -1.
         25    1    1    2    0    0 -0.11721882989E+03 -0.16991539839E+03 -0.22245594302E+03  0.32821204011E+03  0.12500000000E+03 0.  0.
         25    1    1    2    0    0 -0.57726269939E+02  0.11054904989E+03 -0.57234846097E+03  0.59896675655E+03  0.12500000000E+03 0.  0.
         25    1    1    2    0    0  0.17494509983E+03  0.59366348496E+02 -0.22242181159E+03  0.31500256120E+03  0.12500000000E+03 0.  0.
</event>
<event>
 5    0  0.5626800E-005  0.2603330E+03  0.7546771E-02  0.1106943E+00
         21   -1    0    0  502  501  0.00000000000E+00  0.00000000000E+00  0.41388650204E+03  0.41388650204E+03  0.00000000000E+00 0. -1.
         21   -1    0    0  501  502 -0.00000000000E+00 -0.00000000000E+00 -0.16374843436E+03  0.16374843436E+03  0.00000000000E+00 0. -1.
         25    1    1    2    0    0  0.49994132471E+02  0.62300294410E+01 -0.26334272743E+02  0.13731977450E+03  0.12500000000E+03 0.  0.
         25    1    1    2    0    0  0.25687955680E+02 -0.25696071263E+02  0.26153959494E+03  0.29214400364E+03  0.12500000000E+03 0.  0.
         25    1    1    2    0    0 -0.75682088151E+02  0.19466041822E+02  0.14932745488E+02  0.14817115826E+03  0.12500000000E+03 0.  0.
</event>
<event>
 5    0  0.5626800E-005  0.3168433E+03  0.7546771E-02  0.1077111E+00
         21   -1    0    0  502  501  0.00000000000E+00  0.00000000000E+00  0.25206173592E+03  0.25206173592E+03  0.00000000000E+00 0. -1.
         21   -1    0    0  501  502 -0.00000000000E+00 -0.00000000000E+00 -0.39827423015E+03  0.39827423015E+03  0.00000000000E+00 0. -1.
         25    1    1    2    0    0 -0.68087401653E+02  0.55977266124E+02 -0.23366281017E+02  0.15472663531E+03  0.12500000000E+03 0.  0.
         25    1    1    2    0    0  0.13064876150E+03  0.14260153194E+03 -0.17635209472E+02  0.23095518268E+03  0.12500000000E+03 0.  0.
         25    1    1    2    0    0 -0.62561359845E+02 -0.19857879806E+03 -0.10521100374E+03  0.26465414808E+03  0.12500000000E+03 0.  0.
</event>
<event>
 5    0  0.5946841E-005  0.3719042E+03  0.7546771E-02  0.1053967E+00
         21   -1    0    0  502  501  0.00000000000E+00  0.00000000000E+00  0.79443875661E+03  0.79443875661E+03  0.00000000000E+00 0.  1.
         21   -1    0    0  501  502 -0.00000000000E+00 -0.00000000000E+00 -0.17410116496E+03  0.17410116496E+03  0.00000000000E+00 0.  1.
         25    1    1    2    0    0  0.20220947037E+03 -0.48149076102E+02  0.66676816291E+02  0.25155079262E+03  0.12500000000E+03 0.  0.
         25    1    1    2    0    0 -0.14855784924E+03 -0.11433453152E+03  0.18400787053E+03  0.29090499495E+03  0.12500000000E+03 0.  0.
         25    1    1    2    0    0 -0.53651621132E+02  0.16248360762E+03  0.36965290483E+03  0.42608413400E+03  0.12500000000E+03 0.  0.
</event>
<event>
 5    0  0.5837371E-005  0.3630115E+03  0.7546771E-02  0.1057398E+00
         21   -1    0    0  502  501  0.00000000000E+00  0.00000000000E+00  0.15791011830E+03  0.15791011830E+03  0.00000000000E+00 0.  1.
         21   -1    0    0  501  502 -0.00000000000E+00 -0.00000000000E+00 -0.83450870675E+03  0.83450870675E+03  0.00000000000E+00 0.  1.
         25    1    1    2    0    0 -0.28307375389E+02 -0.20527190844E+03 -0.71069589452E+02  0.25221766481E+03  0.12500000000E+03 0.  0.
         25    1    1    2    0    0  0.62917321532E+02  0.14819712044E+02 -0.42436121169E+03  0.44708573138E+03  0.12500000000E+03 0.  0.
         25    1    1    2    0    0 -0.34609946143E+02  0.19045219640E+03 -0.18116778731E+03  0.29311542887E+03  0.12500000000E+03 0.  0.
</event>
<event>
 5    0  0.5626800E-005  0.2681474E+03  0.7546771E-02  0.1102345E+00
         21   -1    0    0  502  501  0.00000000000E+00  0.00000000000E+00  0.36297987194E+03  0.36297987194E+03  0.00000000000E+00 0. -1.
         21   -1    0    0  501  502 -0.00000000000E+00 -0.00000000000E+00 -0.19809093070E+03  0.19809093070E+03  0.00000000000E+00 0. -1.
         25    1    1    2    0    0 -0.67927941843E+02  0.73193984102E+02 -0.81375545964E+02  0.17949524805E+03  0.12500000000E+03 0.  0.
         25    1    1    2    0    0  0.19848343920E+02 -0.17556139945E+02  0.49253124646E+02  0.13694175803E+03  0.12500000000E+03 0.  0.
         25    1    1    2    0    0  0.48079597922E+02 -0.55637844156E+02  0.19701136256E+03  0.24463379656E+03  0.12500000000E+03 0.  0.
</event>
<event>
 5    0  0.5626800E-005  0.3111297E+03  0.7546771E-02  0.1079806E+00
         21   -1    0    0  502  501  0.00000000000E+00  0.00000000000E+00  0.28541083963E+03  0.28541083963E+03  0.00000000000E+00 0.  1.
         21   -1    0    0  501  502 -0.00000000000E+00 -0.00000000000E+00 -0.33916615933E+03  0.33916615933E+03  0.00000000000E+00 0.  1.
         25    1    1    2    0    0 -0.78382698102E+02  0.14801692220E+03  0.13508050373E+03  0.24884653726E+03  0.12500000000E+03 0.  0.
         25    1    1    2    0    0  0.18960360707E+02 -0.57096926569E+02 -0.21630924095E+02  0.14040103696E+03  0.12500000000E+03 0.  0.
         25    1    1    2    0    0  0.59422337395E+02 -0.90919995632E+02 -0.16720489933E+03  0.23532942474E+03  0.12500000000E+03 0.  0.
</event>
<event>
 5    0  0.5626800E-005  0.2874656E+03  0.7546771E-02  0.1091680E+00
         21   -1    0    0  502  501  0.00000000000E+00  0.00000000000E+00  0.66458396214E+03  0.66458396214E+03  0.00000000000E+00 0. -1.
         21   -1    0    0  501  502 -0.00000000000E+00 -0.00000000000E+00 -0.12434318703E+03  0.12434318703E+03  0.00000000000E+00 0. -1.
         25    1    1    2    0    0 -0.92355956919E+02 -0.51611126864E+02  0.34111460907E+03  0.37838803855E+03  0.12500000000E+03 0.  0.
         25    1    1    2    0    0  0.83334147738E+02  0.88044336606E+02  0.20227238201E+01  0.17414211667E+03  0.12500000000E+03 0.  0.
         25    1    1    2    0    0  0.90218091807E+01 -0.36433209742E+02  0.19710344222E+03  0.23639699395E+03  0.12500000000E+03 0.  0.
</event>
<event>
 5    0  0.5626800E-005  0.2371069E+03  0.7546771E-02  0.1121735E+00
         21   -1    0    0  502  501  0.00000000000E+00  0.00000000000E+00  0.10274486386E+03  0.10274486386E+03  0.00000000000E+00 0.  1.
         21   -1    0    0  501  502 -0.00000000000E+00 -0.00000000000E+00 -0.54717766401E+03  0.54717766401E+03  0.00000000000E+00 0.  1.
         25    1    1    2    0    0 -0.10937096205E+02  0.47727926249E+01 -0.65168237119E+02  0.14147190093E+03  0.12500000000E+03 0.  0.
         25    1    1    2    0    0  0.44322035863E+02  0.22936329662E+02 -0.34709984893E+03  0.37228191362E+03  0.12500000000E+03 0.  0.
         25    1    1    2    0    0 -0.33384939659E+02 -0.27709122287E+02 -0.32164714098E+02  0.13616871332E+03  0.12500000000E+03 0.  0.
</event>
<event>
 5    0  0.5626800E-005  0.3855639E+03  0.7546771E-02  0.1048896E+00
         21   -1    0    0  502  501  0.00000000000E+00  0.00000000000E+00  0.16067639987E+03  0.16067639987E+03  0.00000000000E+00 0.  1.
         21   -1    0    0  501  502 -0.00000000000E+00 -0.00000000000E+00 -0.92521044471E+03  0.92521044471E+03  0.00000000000E+00 0.  1.
         25    1    1    2    0    0 -0.12741536241E+03 -0.15357506155E+02 -0.29906762119E+03  0.34862152776E+03  0.12500000000E+03 0.  0.
         25    1    1    2    0    0  0.64290179728E+02  0.16838280907E+03  0.89074699153E+01  0.21952298426E+03  0.12500000000E+03 0.  0.
         25    1    1    2    0    0  0.63125182683E+02 -0.15302530291E+03 -0.47437389357E+03  0.51774233256E+03  0.12500000000E+03 0.  0.
</event>
<event>
 5    0  0.5626800E-005  0.4103380E+03  0.7546771E-02  0.1040258E+00
         21   -1    0    0  502  501  0.00000000000E+00  0.00000000000E+00  0.30749279814E+03  0.30749279814E+03  0.00000000000E+00 0. -1.
         21   -1    0    0  501  502 -0.00000000000E+00 -0.00000000000E+00 -0.54758121991E+03  0.54758121991E+03  0.00000000000E+00 0. -1.
         25    1    1    2    0    0 -0.18856947313E+03 -0.10476914249E+03 -0.22632029682E+03  0.33672079854E+03  0.12500000000E+03 0.  0.
         25    1    1    2    0    0  0.16557825871E+03  0.63797000404E+02  0.18071752287E+03  0.28243590439E+03  0.12500000000E+03 0.  0.
         25    1    1    2    0    0  0.22991214424E+02  0.40972142081E+02 -0.19448564782E+03  0.23591731512E+03  0.12500000000E+03 0.  0.
</event>
<event>
 5    0  0.5626800E-005  0.2150472E+03  0.7546771E-02  0.1137630E+00
         21   -1    0    0  502  501  0.00000000000E+00  0.00000000000E+00  0.13401804914E+04  0.13401804914E+04  0.00000000000E+00 0. -1.
         21   -1    0    0  501  502 -0.00000000000E+00 -0.00000000000E+00 -0.34506771694E+02  0.34506771694E+02  0.00000000000E+00 0. -1.
         25    1    1    2    0    0  0.45536129095E+02  0.17963991087E+01  0.36775744467E+03  0.39108477880E+03  0.12500000000E+03 0.  0.
         25    1    1    2    0    0  0.51510775973E+02 -0.17865364983E+02  0.39598803506E+03  0.41881267318E+03  0.12500000000E+03 0.  0.
         25    1    1    2    0    0 -0.97046905068E+02  0.16068965875E+02  0.54192824001E+03  0.56478981114E+03  0.12500000000E+03 0.  0.
</event>
<event>
 5    0  0.5626800E-005  0.2294333E+03  0.7546771E-02  0.1127039E+00
         21   -1    0    0  502  501  0.00000000000E+00  0.00000000000E+00  0.73395066564E+03  0.73395066564E+03  0.00000000000E+00 0.  1.
         21   -1    0    0  501  502 -0.00000000000E+00 -0.00000000000E+00 -0.71720980768E+02  0.71720980768E+02  0.00000000000E+00 0.  1.
         25    1    1    2    0    0 -0.83127042690E+02  0.50810917468E+02  0.26355773620E+03  0.30753785925E+03  0.12500000000E+03 0.  0.
         25    1    1    2    0    0  0.73130551848E+02 -0.24703741821E+01  0.29415786501E+03  0.32788417149E+03  0.12500000000E+03 0.  0.
         25    1    1    2    0    0  0.99964908421E+01 -0.48340543286E+02  0.10451408366E+03  0.17024961568E+03  0.12500000000E+03 0.  0.
</event>
<event>
 5    0  0.5626800E-005  0.5873756E+03  0.7546771E-02  0.9931949E-01
         21   -1    0    0  502  501  0.00000000000E+00  0.00000000000E+00  0.34475737974E+03  0.34475737974E+03  0.00000000000E+00 0. -1.
         21   -1    0    0  501  502 -0.00000000000E+00 -0.00000000000E+00 -0.10007330176E+04  0.10007330176E+04  0.00000000000E+00 0. -1.
         25    1    1    2    0    0  0.91421752074E+02 -0.12332869458E+03 -0.77828714546E+03  0.80307146908E+03  0.12500000000E+03 0.  0.
         25    1    1    2    0    0 -0.84654865734E+02  0.21941203918E+03 -0.87092792779E+02  0.28021107006E+03  0.12500000000E+03 0.  0.
         25    1    1    2    0    0 -0.67668863399E+01 -0.96083344599E+02  0.20940430041E+03  0.26220785818E+03  0.12500000000E+03 0.  0.
</event>
<event>
 5    0  0.5626800E-005  0.2904160E+03  0.7546771E-02  0.1090132E+00
         21   -1    0    0  502  501  0.00000000000E+00  0.00000000000E+00  0.73422192306E+02  0.73422192306E+02  0.00000000000E+00 0. -1.
         21   -1    0    0  501  502 -0.00000000000E+00 -0.00000000000E+00 -0.11487187315E+04  0.11487187315E+04  0.00000000000E+00 0. -1.
         25    1    1    2    0    0 -0.39491954747E+02 -0.40254213572E+02 -0.62811351097E+02  0.15083196620E+03  0.12500000000E+03 0.  0.
         25    1    1    2    0    0  0.96285108914E+02 -0.54686501824E+02 -0.34532186281E+03  0.38358001071E+03  0.12500000000E+03 0.  0.
         25    1    1    2    0    0 -0.56793154167E+02  0.94940715395E+02 -0.66716332533E+03  0.68772894694E+03  0.12500000000E+03 0.  0.
</event>
<event>
 5    0  0.5626800E-005  0.2349746E+03  0.7546771E-02  0.1123187E+00
         21   -1    0    0  502  501  0.00000000000E+00  0.00000000000E+00  0.63550271030E+03  0.63550271030E+03  0.00000000000E+00 0. -1.
         21   -1    0    0  501  502 -0.00000000000E+00 -0.00000000000E+00 -0.86880915509E+02  0.86880915509E+02  0.00000000000E+00 0. -1.
         25    1    1    2    0    0  0.38121267468E+02 -0.10610363642E+02  0.23144898117E+03  0.26600646934E+03  0.12500000000E+03 0.  0.
         25    1    1    2    0    0 -0.87858720845E+02  0.15181489253E+02  0.27561806801E+03  0.31549952750E+03  0.12500000000E+03 0.  0.
         25    1    1    2    0    0  0.49737453377E+02 -0.45711256115E+01  0.41554745617E+02  0.14087762896E+03  0.12500000000E+03 0.  0.
</event>
<event>
 5    0  0.5626800E-005  0.3219139E+03  0.7546771E-02  0.1074772E+00
         21   -1    0    0  502  501  0.00000000000E+00  0.00000000000E+00  0.28729027585E+04  0.28729027585E+04  0.00000000000E+00 0.  1.
         21   -1    0    0  501  502 -0.00000000000E+00 -0.00000000000E+00 -0.36071035198E+02  0.36071035198E+02  0.00000000000E+00 0.  1.
         25    1    1    2    0    0  0.20880475323E+02 -0.17351622252E+03  0.12974452870E+04  0.13151171608E+04  0.12500000000E+03 0.  0.
         25    1    1    2    0    0 -0.79462280144E+02  0.77949552171E+02  0.12345152168E+04  0.12458102613E+04  0.12500000000E+03 0.  0.
         25    1    1    2    0    0  0.58581804821E+02  0.95566670347E+02  0.30487121946E+03  0.34804637161E+03  0.12500000000E+03 0.  0.
</event>
<event>
 5    0  0.5626800E-005  0.3690910E+03  0.7546771E-02  0.1055041E+00
         21   -1    0    0  502  501  0.00000000000E+00  0.00000000000E+00  0.14332436849E+03  0.14332436849E+03  0.00000000000E+00 0. -1.
         21   -1    0    0  501  502 -0.00000000000E+00 -0.00000000000E+00 -0.95048863029E+03  0.95048863029E+03  0.00000000000E+00 0. -1.
         25    1    1    2    0    0 -0.16945613756E+03 -0.13625919724E+02 -0.42037576420E+03  0.47036350982E+03  0.12500000000E+03 0.  0.
         25    1    1    2    0    0  0.24213393674E+03 -0.10413245839E+03 -0.29763950605E+03  0.41675734880E+03  0.12500000000E+03 0.  0.
         25    1    1    2    0    0 -0.72677799185E+02  0.11775837812E+03 -0.89148991554E+02  0.20669214017E+03  0.12500000000E+03 0.  0.
</event>
<event>
 5    0  0.5626800E-005  0.2905185E+03  0.7546771E-02  0.1090079E+00
         21   -1    0    0  502  501  0.00000000000E+00  0.00000000000E+00  0.47217794414E+03  0.47217794414E+03  0.00000000000E+00 0.  1.
         21   -1    0    0  501  502 -0.00000000000E+00 -0.00000000000E+00 -0.17874822908E+03  0.17874822908E+03  0.00000000000E+00 0.  1.
         25    1    1    2    0    0  0.79971690439E+02  0.32174578144E+02  0.23462807613E+02  0.15364302162E+03  0.12500000000E+03 0.  0.
         25    1    1    2    0    0 -0.18230599117E+03 -0.24175380330E+01  0.56928686425E+02  0.22827000294E+03  0.12500000000E+03 0.  0.
         25    1    1    2    0    0  0.10233430073E+03 -0.29757040111E+02  0.21303822102E+03  0.26901314867E+03  0.12500000000E+03 0.  0.
</event>
<event>
 5    0  0.5626800E-005  0.2371650E+03  0.7546771E-02  0.1121696E+00
         21   -1    0    0  502  501  0.00000000000E+00  0.00000000000E+00  0.21625473448E+04  0.21625473448E+04  0.00000000000E+00 0.  1.
         21   -1    0    0  501  502 -0.00000000000E+00 -0.00000000000E+00 -0.26009703938E+02  0.26009703938E+02  0.00000000000E+00 0.  1.
         25    1    1    2    0    0 -0.71827821872E+02  0.91947957868E+02  0.56943158330E+03  0.59455108360E+03  0.12500000000E+03 0.  0.
         25    1    1    2    0    0  0.66521593318E+02 -0.53821199253E+02  0.10368575201E+04  0.10478646673E+04  0.12500000000E+03 0.  0.
         25    1    1    2    0    0  0.53062285539E+01 -0.38126758616E+02  0.53024853738E+03  0.54614129782E+03  0.12500000000E+03 0.  0.
</event>
<event>
 5    0  0.5626800E-005  0.2314399E+03  0.7546771E-02  0.1125630E+00
         21   -1    0    0  502  501  0.00000000000E+00  0.00000000000E+00  0.36923068959E+03  0.36923068959E+03  0.00000000000E+00 0. -1.
         21   -1    0    0  501  502 -0.00000000000E+00 -0.00000000000E+00 -0.14507032042E+03  0.14507032042E+03  0.00000000000E+00 0. -1.
         25    1    1    2    0    0  0.63398586433E+00 -0.16776567657E+02 -0.28795538888E+02  0.12936784075E+03  0.12500000000E+03 0.  0.
         25    1    1    2    0    0  0.62621841848E+02  0.21226725595E+02  0.80562405941E+02  0.16274940924E+03  0.12500000000E+03 0.  0.
         25    1    1    2    0    0 -0.63255827712E+02 -0.44501579387E+01  0.17239350211E+03  0.22218376002E+03  0.12500000000E+03 0.  0.
</event>
<event>
 5    0  0.5626800E-005  0.2566330E+03  0.7546771E-02  0.1109183E+00
         21   -1    0    0  502  501  0.00000000000E+00  0.00000000000E+00  0.48402341935E+03  0.48402341935E+03  0.00000000000E+00 0.  1.
         21   -1    0    0  501  502 -0.00000000000E+00 -0.00000000000E+00 -0.13606879679E+03  0.13606879679E+03  0.00000000000E+00 0.  1.
         25    1    1    2    0    0 -0.11598932214E+03 -0.79236563224E+02  0.10117018762E+03  0.21352368174E+03  0.12500000000E+03 0.  0.
         25    1    1    2    0    0  0.44211832332E+01  0.80827780533E+02  0.15730883681E+03  0.21661889831E+03  0.12500000000E+03 0.  0.
         25    1    1    2    0    0  0.11156813890E+03 -0.15912173084E+01  0.89475598127E+02  0.18994963609E+03  0.12500000000E+03 0.  0.
</event>
<event>
 5    0  0.5626800E-005  0.4427333E+03  0.7546771E-02  0.1029911E+00
         21   -1    0    0  502  501  0.00000000000E+00  0.00000000000E+00  0.55893774127E+03  0.55893774127E+03  0.00000000000E+00 0.  1.
         21   -1    0    0  501  502 -0.00000000000E+00 -0.00000000000E+00 -0.35068798948E+03  0.35068798948E+03  0.00000000000E+00 0.  1.
         25    1    1    2    0    0  0.16270771003E+02  0.19196468080E+02  0.26332834776E+03  0.29257488120E+03  0.12500000000E+03 0.  0.
         25    1    1    2    0    0 -0.11532936685E+03 -0.36564122339E+02  0.23092749039E+03  0.28911987776E+03  0.12500000000E+03 0.  0.
         25    1    1    2    0    0  0.99058595845E+02  0.17367654259E+02 -0.28600608636E+03  0.32793097179E+03  0.12500000000E+03 0.  0.
</event>
<event>
 5    0  0.5895418E-005  0.2959337E+03  0.7546771E-02  0.1087291E+00
         21   -1    0    0  502  501  0.00000000000E+00  0.00000000000E+00  0.20615621322E+03  0.20615621322E+03  0.00000000000E+00 0. -1.
         21   -1    0    0  501  502 -0.00000000000E+00 -0.00000000000E+00 -0.42480787268E+03  0.42480787268E+03  0.00000000000E+00 0. -1.
         25    1    1    2    0    0 -0.52534703310E+02 -0.97266767151E+02 -0.13392347347E+03  0.21396545467E+03  0.12500000000E+03 0.  0.
         25    1    1    2    0    0  0.30734307359E+02  0.18177932903E+03 -0.13007825487E+03  0.25794122296E+03  0.12500000000E+03 0.  0.
         25    1    1    2    0    0  0.21800395951E+02 -0.84512561882E+02  0.45350068885E+02  0.15905740828E+03  0.12500000000E+03 0.  0.
</event>
<event>
 5    0  0.5626800E-005  0.2303640E+03  0.7546771E-02  0.1126384E+00
         21   -1    0    0  502  501  0.00000000000E+00  0.00000000000E+00  0.70630399841E+02  0.70630399841E+02  0.00000000000E+00 0. -1.
         21   -1    0    0  501  502 -0.00000000000E+00 -0.00000000000E+00 -0.75134200045E+03  0.75134200045E+03  0.00000000000E+00 0. -1.
         25    1    1    2    0    0  0.16793157281E+02  0.35454080277E+02 -0.25184154841E+03  0.28388055137E+03  0.12500000000E+03 0.  0.
         25    1    1    2    0    0 -0.47171181611E+02  0.74853825226E+02 -0.17128533912E+03  0.22976484266E+03  0.12500000000E+03 0.  0.
         25    1    1    2    0    0  0.30378024330E+02 -0.11030790550E+03 -0.25758471308E+03  0.30832700626E+03  0.12500000000E+03 0.  0.
</event>
<event>
 5    0  0.5626800E-005  0.2490706E+03  0.7546771E-02  0.1113894E+00
         21   -1    0    0  502  501  0.00000000000E+00  0.00000000000E+00  0.51509730706E+02  0.51509730706E+02  0.00000000000E+00 0.  1.
         21   -1    0    0  501  502 -0.00000000000E+00 -0.00000000000E+00 -0.12043577373E+04  0.12043577373E+04  0.00000000000E+00 0.  1.
         25    1    1    2    0    0  0.52466890546E+02 -0.40672452469E+02 -0.74995808740E+03  0.76319666918E+03  0.12500000000E+03 0.  0.
         25    1    1    2    0    0  0.90209680589E+01 -0.20169973526E+02 -0.13987085232E+03  0.18888372356E+03  0.12500000000E+03 0.  0.
         25    1    1    2    0    0 -0.61487858605E+02  0.60842425995E+02 -0.26301906684E+03  0.30378707523E+03  0.12500000000E+03 0.  0.
</event>
<event>
 5    0  0.5626800E-005  0.2995891E+03  0.7546771E-02  0.1085446E+00
         21   -1    0    0  502  501  0.00000000000E+00  0.00000000000E+00  0.10311450999E+04  0.10311450999E+04  0.00000000000E+00 0.  1.
         21   -1    0    0  501  502 -0.00000000000E+00 -0.00000000000E+00 -0.87042669138E+02  0.87042669138E+02  0.00000000000E+00 0.  1.
         25    1    1    2    0    0  0.15837996704E+03 -0.17383326792E+02  0.24812302454E+03  0.32027555217E+03  0.12500000000E+03 0.  0.
         25    1    1    2    0    0  0.43307697856E+02 -0.39630636115E+02  0.17768711859E+03  0.22504189860E+03  0.12500000000E+03 0.  0.
         25    1    1    2    0    0 -0.20168766490E+03  0.57013962907E+02  0.51829228765E+03  0.57287031829E+03  0.12500000000E+03 0.  0.
</event>
<event>
 5    0  0.5626800E-005  0.3771899E+03  0.7546771E-02  0.1051977E+00
         21   -1    0    0  502  501  0.00000000000E+00  0.00000000000E+00  0.13457061278E+04  0.13457061278E+04  0.00000000000E+00 0. -1.
         21   -1    0    0  501  502 -0.00000000000E+00 -0.00000000000E+00 -0.10572310210E+03  0.10572310210E+03  0.00000000000E+00 0. -1.
         25    1    1    2    0    0 -0.24790522762E+02  0.29604007739E+01  0.34137007589E+02  0.13196086268E+03  0.12500000000E+03 0.  0.
         25    1    1    2    0    0 -0.21523219193E+02  0.21005657976E+03  0.84383846277E+03  0.87879199297E+03  0.12500000000E+03 0.  0.
         25    1    1    2    0    0  0.46313741955E+02 -0.21301698053E+03  0.36200755531E+03  0.44067637422E+03  0.12500000000E+03 0.  0.
</event>
<event>
 5    0  0.5626800E-005  0.2617236E+03  0.7546771E-02  0.1106112E+00
         21   -1    0    0  502  501  0.00000000000E+00  0.00000000000E+00  0.72702485388E+03  0.72702485388E+03  0.00000000000E+00 0.  1.
         21   -1    0    0  501  502 -0.00000000000E+00 -0.00000000000E+00 -0.94218578402E+02  0.94218578402E+02  0.00000000000E+00 0.  1.
         25    1    1    2    0    0  0.40629555252E+02  0.99523247360E+02  0.26889463476E+03  0.31541236838E+03  0.12500000000E+03 0.  0.
         25    1    1    2    0    0  0.79341306960E+02 -0.64831430463E+02  0.24256137792E+03  0.29147757963E+03  0.12500000000E+03 0.  0.
         25    1    1    2    0    0 -0.11997086221E+03 -0.34691816897E+02  0.12135026280E+03  0.21435348427E+03  0.12500000000E+03 0.  0.
</event>
<event>
 5    0  0.5626800E-005  0.2309347E+03  0.7546771E-02  0.1125984E+00
         21   -1    0    0  502  501  0.00000000000E+00  0.00000000000E+00  0.20634902137E+03  0.20634902137E+03  0.00000000000E+00 0.  1.
         21   -1    0    0  501  502 -0.00000000000E+00 -0.00000000000E+00 -0.25844974917E+03  0.25844974917E+03  0.00000000000E+00 0.  1.
         25    1    1    2    0    0  0.12418571477E+02 -0.18581707225E+02 -0.18010171232E+02  0.12825313653E+03  0.12500000000E+03 0.  0.
         25    1    1    2    0    0 -0.37431059101E+02 -0.93894708063E+02  0.95182831044E+01  0.16103694638E+03  0.12500000000E+03 0.  0.
         25    1    1    2    0    0  0.25012487624E+02  0.11247641529E+03 -0.43608839675E+02  0.17550868762E+03  0.12500000000E+03 0.  0.
</event>
<event>
 5    0  0.5626800E-005  0.3192169E+03  0.7546771E-02  0.1076010E+00
         21   -1    0    0  502  501  0.00000000000E+00  0.00000000000E+00  0.30846875146E+03  0.30846875146E+03  0.00000000000E+00 0. -1.
         21   -1    0    0  501  502 -0.00000000000E+00 -0.00000000000E+00 -0.33033963586E+03  0.33033963586E+03  0.00000000000E+00 0. -1.
         25    1    1    2    0    0 -0.10001317538E+03  0.11218492670E+03  0.88554108301E+02  0.21460410790E+03  0.12500000000E+03 0.  0.
         25    1    1    2    0    0 -0.30935224333E+02 -0.16976349226E+03 -0.95956445826E+02  0.23368626597E+03  0.12500000000E+03 0.  0.
         25    1    1    2    0    0  0.13094839972E+03  0.57578565553E+02 -0.14468546883E+02  0.19051801345E+03  0.12500000000E+03 0.  0.
</event>
<event>
 5    0  0.5626800E-005  0.5772321E+03  0.7546771E-02  0.9953802E-01
         21   -1    0    0  502  501  0.00000000000E+00  0.00000000000E+00  0.92444569430E+03  0.92444569430E+03  0.00000000000E+00 0. -1.
         21   -1    0    0  501  502 -0.00000000000E+00 -0.00000000000E+00 -0.36042879172E+03  0.36042879172E+03  0.00000000000E+00 0.  1.
         25    1    1    2    0    0  0.26638685795E+03 -0.23141183435E+03 -0.13965092691E+03  0.39955071837E+03  0.12500000000E+03 0.  0.
         25    1    1    2    0    0 -0.85448658945E+02  0.25869014333E+03  0.50729364196E+03  0.58923162063E+03  0.12500000000E+03 0.  0.
         25    1    1    2    0    0 -0.18093819901E+03 -0.27278308980E+02  0.19637418752E+03  0.29609214702E+03  0.12500000000E+03 0.  0.
</event>
<event>
 5    0  0.5626800E-005  0.3116866E+03  0.7546771E-02  0.1079540E+00
         21   -1    0    0  502  501  0.00000000000E+00  0.00000000000E+00  0.32839467705E+02  0.32839467705E+02  0.00000000000E+00 0. -1.
         21   -1    0    0  501  502 -0.00000000000E+00 -0.00000000000E+00 -0.29582867485E+04  0.29582867485E+04  0.00000000000E+00 0. -1.
         25    1    1    2    0    0 -0.67690340676E+02 -0.45227715771E+02 -0.46124719537E+03  0.48476953672E+03  0.12500000000E+03 0.  0.
         25    1    1    2    0    0 -0.60743254047E+02  0.63188256885E+02 -0.31944604500E+03  0.35405264352E+03  0.12500000000E+03 0.  0.
         25    1    1    2    0    0  0.12843359472E+03 -0.17960541113E+02 -0.21447540404E+04  0.21523040360E+04  0.12500000000E+03 0.  0.
</event>
<event>
 5    0  0.5626800E-005  0.3312591E+03  0.7546771E-02  0.1070581E+00
         21   -1    0    0  502  501  0.00000000000E+00  0.00000000000E+00  0.26167626875E+03  0.26167626875E+03  0.00000000000E+00 0.  1.
         21   -1    0    0  501  502 -0.00000000000E+00 -0.00000000000E+00 -0.41934475312E+03  0.41934475312E+03  0.00000000000E+00 0.  1.
         25    1    1    2    0    0  0.11384282216E+03 -0.79986685833E+02  0.28681998659E+02  0.18922398134E+03  0.12500000000E+03 0.  0.
         25    1    1    2    0    0  0.66361313059E+02 -0.89721075447E+02 -0.20853157506E+02  0.16885955534E+03  0.12500000000E+03 0.  0.
         25    1    1    2    0    0 -0.18020413522E+03  0.16970776128E+03 -0.16549732552E+03  0.32293748519E+03  0.12500000000E+03 0.  0.
</event>
<event>
 5    0  0.5626800E-005  0.3516029E+03  0.7546771E-02  0.1061959E+00
         21   -1    0    0  502  501  0.00000000000E+00  0.00000000000E+00  0.95265069352E+02  0.95265069352E+02  0.00000000000E+00 0. -1.
         21   -1    0    0  501  502 -0.00000000000E+00 -0.00000000000E+00 -0.12976909872E+04  0.12976909872E+04  0.00000000000E+00 0. -1.
         25    1    1    2    0    0  0.66988850331E+02 -0.42698820934E+02 -0.20751831614E+02  0.14955378261E+03  0.12500000000E+03 0.  0.
         25    1    1    2    0    0  0.69526432494E+02  0.31966617922E+02 -0.85763997412E+03  0.87007305135E+03  0.12500000000E+03 0.  0.
         25    1    1    2    0    0 -0.13651528282E+03  0.10732203012E+02 -0.32403411210E+03  0.37332922258E+03  0.12500000000E+03 0.  0.
</event>
<event>
 5    0  0.5626800E-005  0.5764017E+03  0.7546771E-02  0.9955612E-01
         21   -1    0    0  502  501  0.00000000000E+00  0.00000000000E+00  0.12880906312E+04  0.12880906312E+04  0.00000000000E+00 0. -1.
         21   -1    0    0  501  502 -0.00000000000E+00 -0.00000000000E+00 -0.25793134457E+03  0.25793134457E+03  0.00000000000E+00 0. -1.
         25    1    1    2    0    0  0.14235826310E+03  0.96146941830E+02 -0.15758339466E+03  0.26451396138E+03  0.12500000000E+03 0.  0.
         25    1    1    2    0    0 -0.21015317109E+03  0.28384364418E+02  0.38620510026E+03  0.45798406843E+03  0.12500000000E+03 0.  0.
         25    1    1    2    0    0  0.67794907996E+02 -0.12453130625E+03  0.80153758104E+03  0.82352394598E+03  0.12500000000E+03 0.  0.
</event>
<event>
 5    0  0.5626800E-005  0.4162654E+03  0.7546771E-02  0.1038289E+00
         21   -1    0    0  502  501  0.00000000000E+00  0.00000000000E+00  0.10537221602E+04  0.10537221602E+04  0.00000000000E+00 0.  1.
         21   -1    0    0  501  502 -0.00000000000E+00 -0.00000000000E+00 -0.16444265581E+03  0.16444265581E+03  0.00000000000E+00 0.  1.
         25    1    1    2    0    0  0.17757221271E+03  0.59158592711E+02  0.55022344150E+03  0.59447663149E+03  0.12500000000E+03 0.  0.
         25    1    1    2    0    0 -0.22483097277E+03 -0.10387553659E+03  0.38582587372E+03  0.47521121436E+03  0.12500000000E+03 0.  0.
         25    1    1    2    0    0  0.47258760058E+02  0.44716943882E+02 -0.46769810804E+02  0.14847697018E+03  0.12500000000E+03 0.  0.
</event>
<event>
 5    0  0.5626800E-005  0.2977917E+03  0.7546771E-02  0.1086350E+00
         21   -1    0    0  502  501  0.00000000000E+00  0.00000000000E+00  0.44930587172E+03  0.44930587172E+03  0.00000000000E+00 0.  1.
         21   -1    0    0  501  502 -0.00000000000E+00 -0.00000000000E+00 -0.19737090542E+03  0.19737090542E+03  0.00000000000E+00 0.  1.
         25    1    1    2    0    0 -0.79443177927E+02  0.98686995853E+02  0.20456536272E+03  0.27115001253E+03  0.12500000000E+03 0.  0.
         25    1    1    2    0    0  0.10456855866E+03 -0.15956249552E+03  0.52893961242E+02  0.23413146857E+03  0.12500000000E+03 0.  0.
         25    1    1    2    0    0 -0.25125380736E+02  0.60875499665E+02 -0.55243576606E+01  0.14139529605E+03  0.12500000000E+03 0.  0.
</event>
<event>
 5    0  0.5626800E-005  0.2236006E+03  0.7546771E-02  0.1131227E+00
         21   -1    0    0  502  501  0.00000000000E+00  0.00000000000E+00  0.56695807210E+03  0.56695807210E+03  0.00000000000E+00 0. -1.
         21   -1    0    0  501  502 -0.00000000000E+00 -0.00000000000E+00 -0.88185034542E+02  0.88185034542E+02  0.00000000000E+00 0. -1.
         25    1    1    2    0    0  0.68612232357E+01  0.33687310490E+02  0.95522228921E+02  0.16103231816E+03  0.12500000000E+03 0.  0.
         25    1    1    2    0    0 -0.60368693819E+02 -0.68778344666E+02  0.12078568632E+03  0.19644088655E+03  0.12500000000E+03 0.  0.
         25    1    1    2    0    0  0.53507470584E+02  0.35091034175E+02  0.26246512231E+03  0.29766990194E+03  0.12500000000E+03 0.  0.
</event>
