<event>
 5    0  0.5691975E-005  0.7326765E+03  0.7546771E-02  0.9662927E-01
         21   -1    0    0  502  501  0.00000000000E+00  0.00000000000E+00  0.45266179371E+03  0.45266179371E+03  0.00000000000E+00 0. -1.
         21   -1    0    0  501  502 -0.00000000000E+00 -0.00000000000E+00 -0.11859071967E+04  0.11859071967E+04  0.00000000000E+00 0. -1.
         25    1    1    2    0    0  0.53025656117E+03  0.34332500442E+03 -0.27932713166E+03  0.70192074040E+03  0.12500000000E+03 0.  0.
         25    1    1    2    0    0 -0.52713429677E+03 -0.11764833137E+03 -0.36502664368E+03  0.66376286978E+03  0.12500000000E+03 0.  0.
         25    1    1    2    0    0 -0.31222644032E+01 -0.22567667305E+03 -0.88891627685E+02  0.27288538027E+03  0.12500000000E+03 0.  0.
</event>
<event>
 5    0  0.5691975E-005  0.3687163E+03  0.7546771E-02  0.1055185E+00
         21   -1    0    0  502  501  0.00000000000E+00  0.00000000000E+00  0.44302363394E+03  0.44302363394E+03  0.00000000000E+00 0. -1.
         21   -1    0    0  501  502 -0.00000000000E+00 -0.00000000000E+00 -0.30687229385E+03  0.30687229385E+03  0.00000000000E+00 0. -1.
         25    1    1    2    0    0 -0.17029816627E+03 -0.15133793398E+03 -0.16595083364E+02  0.26039399472E+03  0.12500000000E+03 0.  0.
         25    1    1    2    0    0 -0.19287541525E+02  0.19628256800E+03  0.72576884837E+02  0.24452251424E+03  0.12500000000E+03 0.  0.
         25    1    1    2    0    0  0.18958570779E+03 -0.44944634015E+02  0.80169538616E+02  0.24497941882E+03  0.12500000000E+03 0.  0.
</event>
<event>
 5    0  0.5691975E-005  0.3612424E+03  0.7546771E-02  0.1058093E+00
         21   -1    0    0  502  501  0.00000000000E+00  0.00000000000E+00  0.69578279942E+02  0.69578279942E+02  0.00000000000E+00 0.  1.
         21   -1    0    0  501  502 -0.00000000000E+00 -0.00000000000E+00 -0.18755291058E+04  0.18755291058E+04  0.00000000000E+00 0.  1.
         25    1    1    2    0    0 -0.94615772430E+02 -0.14539383220E+03 -0.17767522223E+03  0.27800179033E+03  0.12500000000E+03 0.  0.
         25    1    1    2    0    0  0.63631200625E+02 -0.16617480908E+00 -0.40769724269E+03  0.43115078454E+03  0.12500000000E+03 0.  0.
         25    1    1    2    0    0  0.30984571805E+02  0.14556000701E+03 -0.12205783610E+04  0.12359548109E+04  0.12500000000E+03 0.  0.
</event>
<event>
 5    0  0.5691975E-005  0.2973430E+03  0.7546771E-02  0.1086576E+00
         21   -1    0    0  502  501  0.00000000000E+00  0.00000000000E+00  0.43390902460E+03  0.43390902460E+03  0.00000000000E+00 0. -1.
         21   -1    0    0  501  502 -0.00000000000E+00 -0.00000000000E+00 -0.20375892061E+03  0.20375892061E+03  0.00000000000E+00 0. -1.
         25    1    1    2    0    0 -0.38530422262E+02  0.14789938574E+03  0.10107809590E+03  0.22181208987E+03  0.12500000000E+03 0.  0.
         25    1    1    2    0    0 -0.14992013443E+02 -0.82990770465E+02 -0.69956256957E+02  0.16622606997E+03  0.12500000000E+03 0.  0.
         25    1    1    2    0    0  0.53522435705E+02 -0.64908615271E+02  0.19902826505E+03  0.24962978538E+03  0.12500000000E+03 0.  0.
</event>
<event>
 5    0  0.5691975E-005  0.3142707E+03  0.7546771E-02  0.1078317E+00
         21   -1    0    0  502  501  0.00000000000E+00  0.00000000000E+00  0.95245781929E+03  0.95245781929E+03  0.00000000000E+00 0.  1.
         21   -1    0    0  501  502 -0.00000000000E+00 -0.00000000000E+00 -0.10369599103E+03  0.10369599103E+03  0.00000000000E+00 0.  1.
         25    1    1    2    0    0 -0.87528662461E+02 -0.20834248374E+01  0.41677804315E+03  0.44384067486E+03  0.12500000000E+03 0.  0.
         25    1    1    2    0    0  0.62406575803E+02 -0.73754192149E+02  0.43617476063E+03  0.46390482146E+03  0.12500000000E+03 0.  0.
         25    1    1    2    0    0  0.25122086658E+02  0.75837616986E+02 -0.41909755252E+01  0.14840831400E+03  0.12500000000E+03 0.  0.
</event>
<event>
 5    0  0.5691975E-005  0.3433639E+03  0.7546771E-02  0.1065372E+00
         21   -1    0    0  502  501  0.00000000000E+00  0.00000000000E+00  0.12448248879E+04  0.12448248879E+04  0.00000000000E+00 0.  1.
         21   -1    0    0  501  502 -0.00000000000E+00 -0.00000000000E+00 -0.94711146164E+02  0.94711146164E+02  0.00000000000E+00 0.  1.
         25    1    1    2    0    0  0.14023731381E+03  0.11509165193E+03  0.62580012029E+03  0.66344810127E+03  0.12500000000E+03 0.  0.
         25    1    1    2    0    0 -0.36059102757E+02  0.85710518709E+02  0.12186413699E+03  0.19779388209E+03  0.12500000000E+03 0.  0.
         25    1    1    2    0    0 -0.10417821106E+03 -0.20080217063E+03  0.40244948443E+03  0.47829405067E+03  0.12500000000E+03 0.  0.
</event>
<event>
 5    0  0.6203815E-005  0.5091987E+03  0.7546771E-02  0.1011405E+00
         21   -1    0    0  502  501  0.00000000000E+00  0.00000000000E+00  0.78390640777E+03  0.78390640777E+03  0.00000000000E+00 0.  1.
         21   -1    0    0  501  502 -0.00000000000E+00 -0.00000000000E+00 -0.33075795947E+03  0.33075795947E+03  0.00000000000E+00 0.  1.
         25    1    1    2    0    0 -0.14332164988E+03 -0.13336702017E+03  0.51391601145E+03  0.56397032211E+03  0.12500000000E+03 0.  0.
         25    1    1    2    0    0  0.18831563840E+03  0.89341655192E+02  0.15879411246E+03  0.29031927454E+03  0.12500000000E+03 0.  0.
         25    1    1    2    0    0 -0.44993988517E+02  0.44025364983E+02 -0.21956167561E+03  0.26037477059E+03  0.12500000000E+03 0.  0.
</event>
<event>
 5    0  0.5691975E-005  0.4102557E+03  0.7546771E-02  0.1040285E+00
         21   -1    0    0  502  501  0.00000000000E+00  0.00000000000E+00  0.82253941788E+03  0.82253941788E+03  0.00000000000E+00 0. -1.
         21   -1    0    0  501  502 -0.00000000000E+00 -0.00000000000E+00 -0.20462208463E+03  0.20462208463E+03  0.00000000000E+00 0.  1.
         25    1    1    2    0    0 -0.19198032525E+03  0.17772145334E+03  0.26899375209E+03  0.39550473944E+03  0.12500000000E+03 0.  0.
         25    1    1    2    0    0  0.13700499200E+03 -0.18743032202E+03  0.74711259375E+01  0.26378269687E+03  0.12500000000E+03 0.  0.
         25    1    1    2    0    0  0.54975333250E+02  0.97088686803E+01  0.34145245523E+03  0.36787406619E+03  0.12500000000E+03 0.  0.
</event>
<event>
 5    0  0.5691975E-005  0.2877018E+03  0.7546771E-02  0.1091555E+00
         21   -1    0    0  502  501  0.00000000000E+00  0.00000000000E+00  0.42728248424E+02  0.42728248424E+02  0.00000000000E+00 0.  1.
         21   -1    0    0  501  502 -0.00000000000E+00 -0.00000000000E+00 -0.19371809339E+04  0.19371809339E+04  0.00000000000E+00 0.  1.
         25    1    1    2    0    0 -0.34659171364E+01 -0.34588450714E+02 -0.10913287825E+04  0.10990140513E+04  0.12500000000E+03 0.  0.
         25    1    1    2    0    0  0.97343987497E+02  0.98588967376E+02 -0.50302565874E+03  0.53652162094E+03  0.12500000000E+03 0.  0.
         25    1    1    2    0    0 -0.93878070361E+02 -0.64000516662E+02 -0.30009824420E+03  0.34437351002E+03  0.12500000000E+03 0.  0.
</event>
<event>
 5    0  0.5691975E-005  0.2844201E+03  0.7546771E-02  0.1093299E+00
         21   -1    0    0  502  501  0.00000000000E+00  0.00000000000E+00  0.12991161231E+03  0.12991161231E+03  0.00000000000E+00 0. -1.
         21   -1    0    0  501  502 -0.00000000000E+00 -0.00000000000E+00 -0.62269121450E+03  0.62269121450E+03  0.00000000000E+00 0. -1.
         25    1    1    2    0    0  0.10364299368E+02  0.18262894164E+03 -0.33251087099E+03  0.39956129486E+03  0.12500000000E+03 0.  0.
         25    1    1    2    0    0 -0.16931325613E+02 -0.61666321442E+02 -0.75750378340E+02  0.15953847437E+03  0.12500000000E+03 0.  0.
         25    1    1    2    0    0  0.65670262457E+01 -0.12096262020E+03 -0.84518352865E+02  0.19350305757E+03  0.12500000000E+03 0.  0.
</event>
<event>
 5    0  0.6940077E-005  0.4569627E+03  0.7546771E-02  0.1025666E+00
         21   -1    0    0  502  501  0.00000000000E+00  0.00000000000E+00  0.14226344261E+03  0.14226344261E+03  0.00000000000E+00 0. -1.
         21   -1    0    0  501  502 -0.00000000000E+00 -0.00000000000E+00 -0.14678043895E+04  0.14678043895E+04  0.00000000000E+00 0. -1.
         25    1    1    2    0    0  0.74121788872E+02  0.75054356981E+02  0.24600600058E+02  0.16540068201E+03  0.12500000000E+03 0.  0.
         25    1    1    2    0    0 -0.18711368933E+03 -0.18682458109E+03 -0.59607850342E+03  0.66396501344E+03  0.12500000000E+03 0.  0.
         25    1    1    2    0    0  0.11299190046E+03  0.11177022411E+03 -0.75406304355E+03  0.78070213668E+03  0.12500000000E+03 0.  0.
</event>
<event>
 5    0  0.5691975E-005  0.2143005E+03  0.7546771E-02  0.1138205E+00
         21   -1    0    0  502  501  0.00000000000E+00  0.00000000000E+00  0.11060401407E+03  0.11060401407E+03  0.00000000000E+00 0.  1.
         21   -1    0    0  501  502 -0.00000000000E+00 -0.00000000000E+00 -0.41521728702E+03  0.41521728702E+03  0.00000000000E+00 0.  1.
         25    1    1    2    0    0  0.35340101532E+02 -0.45944020412E+02 -0.11009664661E+03  0.17636906583E+03  0.12500000000E+03 0.  0.
         25    1    1    2    0    0  0.48524040739E+02  0.36629179546E+02 -0.83115792027E+02  0.16195528459E+03  0.12500000000E+03 0.  0.
         25    1    1    2    0    0 -0.83864142271E+02  0.93148408653E+01 -0.11140083432E+03  0.18749695066E+03  0.12500000000E+03 0.  0.
</event>
<event>
 5    0  0.5691975E-005  0.3318201E+03  0.7546771E-02  0.1070334E+00
         21   -1    0    0  502  501  0.00000000000E+00  0.00000000000E+00  0.12806353126E+03  0.12806353126E+03  0.00000000000E+00 0.  1.
         21   -1    0    0  501  502 -0.00000000000E+00 -0.00000000000E+00 -0.85976543918E+03  0.85976543918E+03  0.00000000000E+00 0.  1.
         25    1    1    2    0    0 -0.12993416026E+03 -0.13525953084E+03 -0.29525771807E+03  0.37145678990E+03  0.12500000000E+03 0.  0.
         25    1    1    2    0    0  0.11625775264E+00 -0.36728270620E+02 -0.21002734961E+02  0.13196626180E+03  0.12500000000E+03 0.  0.
         25    1    1    2    0    0  0.12981790251E+03  0.17198780146E+03 -0.41544145489E+03  0.48440591873E+03  0.12500000000E+03 0.  0.
</event>
<event>
 5    0  0.5691975E-005  0.3320670E+03  0.7546771E-02  0.1070226E+00
         21   -1    0    0  502  501  0.00000000000E+00  0.00000000000E+00  0.94222548785E+03  0.94222548785E+03  0.00000000000E+00 0. -1.
         21   -1    0    0  501  502 -0.00000000000E+00 -0.00000000000E+00 -0.11702985183E+03  0.11702985183E+03  0.00000000000E+00 0.  1.
         25    1    1    2    0    0 -0.82042707078E+02  0.20839579992E+03  0.47889938539E+03  0.54325816748E+03  0.12500000000E+03 0.  0.
         25    1    1    2    0    0  0.11827460213E+03 -0.10344532883E+03  0.11754916555E+03  0.23266418695E+03  0.12500000000E+03 0.  0.
         25    1    1    2    0    0 -0.36231895056E+02 -0.10495047108E+03  0.22874708508E+03  0.28333298525E+03  0.12500000000E+03 0.  0.
</event>
<event>
 5    0  0.5691975E-005  0.3629180E+03  0.7546771E-02  0.1057434E+00
         21   -1    0    0  502  501  0.00000000000E+00  0.00000000000E+00  0.44875517603E+03  0.44875517603E+03  0.00000000000E+00 0.  1.
         21   -1    0    0  501  502 -0.00000000000E+00 -0.00000000000E+00 -0.29349964100E+03  0.29349964100E+03  0.00000000000E+00 0.  1.
         25    1    1    2    0    0 -0.27733265288E+02  0.65531479167E+02  0.18041312439E+03  0.23073232157E+03  0.12500000000E+03 0.  0.
         25    1    1    2    0    0 -0.11199089229E+03  0.14858906768E+03  0.12183115028E+02  0.22448630088E+03  0.12500000000E+03 0.  0.
         25    1    1    2    0    0  0.13972415758E+03 -0.21412054684E+03 -0.37340704393E+02  0.28703619458E+03  0.12500000000E+03 0.  0.
</event>
<event>
 5    0  0.5691975E-005  0.2458164E+03  0.7546771E-02  0.1115978E+00
         21   -1    0    0  502  501  0.00000000000E+00  0.00000000000E+00  0.15703437515E+03  0.15703437515E+03  0.00000000000E+00 0.  1.
         21   -1    0    0  501  502 -0.00000000000E+00 -0.00000000000E+00 -0.38479291395E+03  0.38479291395E+03  0.00000000000E+00 0.  1.
         25    1    1    2    0    0  0.34349090050E+02 -0.61376856896E+02 -0.10266981312E+03  0.17638897096E+03  0.12500000000E+03 0.  0.
         25    1    1    2    0    0 -0.78618434456E+02 -0.57098192064E+02 -0.21862028770E+02  0.15982493571E+03  0.12500000000E+03 0.  0.
         25    1    1    2    0    0  0.44269344406E+02  0.11847504896E+03 -0.10322669691E+03  0.20561338243E+03  0.12500000000E+03 0.  0.
</event>
<event>
 5    0  0.6540523E-005  0.3357188E+03  0.7546771E-02  0.1068634E+00
         21   -1    0    0  502  501  0.00000000000E+00  0.00000000000E+00  0.30193643621E+03  0.30193643621E+03  0.00000000000E+00 0. -1.
         21   -1    0    0  501  502 -0.00000000000E+00 -0.00000000000E+00 -0.37328082277E+03  0.37328082277E+03  0.00000000000E+00 0. -1.
         25    1    1    2    0    0 -0.11235273342E+03 -0.90717880562E+02 -0.42642549321E+02  0.19569429622E+03  0.12500000000E+03 0.  0.
         25    1    1    2    0    0  0.48358494528E+02  0.16097655448E+03 -0.16885234028E+03  0.26905038172E+03  0.12500000000E+03 0.  0.
         25    1    1    2    0    0  0.63994238888E+02 -0.70258673919E+02  0.14015050304E+03  0.21047258105E+03  0.12500000000E+03 0.  0.
</event>
<event>
 5    0  0.5691975E-005  0.3226714E+03  0.7546771E-02  0.1074426E+00
         21   -1    0    0  502  501  0.00000000000E+00  0.00000000000E+00  0.13055964602E+03  0.13055964602E+03  0.00000000000E+00 0. -1.
         21   -1    0    0  501  502 -0.00000000000E+00 -0.00000000000E+00 -0.79746580926E+03  0.79746580926E+03  0.00000000000E+00 0. -1.
         25    1    1    2    0    0 -0.16085257777E+03 -0.62756551148E+02 -0.13057093982E+03  0.24997141199E+03  0.12500000000E+03 0.  0.
         25    1    1    2    0    0 -0.10372436095E+02  0.13333572029E+03 -0.30996418943E+03  0.35998444475E+03  0.12500000000E+03 0.  0.
         25    1    1    2    0    0  0.17122501386E+03 -0.70579169143E+02 -0.22637103399E+03  0.31806959855E+03  0.12500000000E+03 0.  0.
</event>
<event>
 5    0  0.5691975E-005  0.6338312E+03  0.7546771E-02  0.9837601E-01
         21   -1    0    0  502  501  0.00000000000E+00  0.00000000000E+00  0.48167582470E+03  0.48167582470E+03  0.00000000000E+00 0.  1.
         21   -1    0    0  501  502 -0.00000000000E+00 -0.00000000000E+00 -0.83405048118E+03  0.83405048118E+03  0.00000000000E+00 0.  1.
         25    1    1    2    0    0  0.36112244086E+03  0.17859405319E+03  0.16574265446E+03  0.45321173930E+03  0.12500000000E+03 0.  0.
         25    1    1    2    0    0  0.87218433382E+02  0.28895874337E+02 -0.22904964998E+03  0.27664195060E+03  0.12500000000E+03 0.  0.
         25    1    1    2    0    0 -0.44834087424E+03 -0.20748992753E+03 -0.28906766096E+03  0.58587261598E+03  0.12500000000E+03 0.  0.
</event>
<event>
 5    0  0.5691975E-005  0.2579035E+03  0.7546771E-02  0.1108409E+00
         21   -1    0    0  502  501  0.00000000000E+00  0.00000000000E+00  0.11632511479E+04  0.11632511479E+04  0.00000000000E+00 0. -1.
         21   -1    0    0  501  502 -0.00000000000E+00 -0.00000000000E+00 -0.57179560634E+02  0.57179560634E+02  0.00000000000E+00 0. -1.
         25    1    1    2    0    0 -0.76469822130E+01 -0.43313666217E+02  0.38717754027E+03  0.40922609607E+03  0.12500000000E+03 0.  0.
         25    1    1    2    0    0 -0.34312963611E+02  0.69631776489E+02  0.10008082298E+03  0.17795261981E+03  0.12500000000E+03 0.  0.
         25    1    1    2    0    0  0.41959945823E+02 -0.26318110271E+02  0.61881322404E+03  0.63325199268E+03  0.12500000000E+03 0.  0.
</event>
<event>
 5    0  0.5691975E-005  0.2578067E+03  0.7546771E-02  0.1108468E+00
         21   -1    0    0  502  501  0.00000000000E+00  0.00000000000E+00  0.11175859909E+03  0.11175859909E+03  0.00000000000E+00 0.  1.
         21   -1    0    0  501  502 -0.00000000000E+00 -0.00000000000E+00 -0.59471317146E+03  0.59471317146E+03  0.00000000000E+00 0.  1.
         25    1    1    2    0    0 -0.25082532078E+02 -0.93961788128E+02 -0.50806258715E+02  0.16632566539E+03  0.12500000000E+03 0.  0.
         25    1    1    2    0    0  0.56059716948E+02 -0.33302414621E+02 -0.15974494859E+03  0.21306147301E+03  0.12500000000E+03 0.  0.
         25    1    1    2    0    0 -0.30977184871E+02  0.12726420275E+03 -0.27240336507E+03  0.32708463214E+03  0.12500000000E+03 0.  0.
</event>
<event>
 5    0  0.5691975E-005  0.2739343E+03  0.7546771E-02  0.1099049E+00
         21   -1    0    0  502  501  0.00000000000E+00  0.00000000000E+00  0.19300673683E+03  0.19300673683E+03  0.00000000000E+00 0.  1.
         21   -1    0    0  501  502 -0.00000000000E+00 -0.00000000000E+00 -0.38879468555E+03  0.38879468555E+03  0.00000000000E+00 0.  1.
         25    1    1    2    0    0  0.81020732294E+02 -0.25961694060E+02 -0.15730296913E+03  0.21819164218E+03  0.12500000000E+03 0.  0.
         25    1    1    2    0    0  0.24913501987E+00 -0.10469392823E+03 -0.24383242090E+02  0.16486486336E+03  0.12500000000E+03 0.  0.
         25    1    1    2    0    0 -0.81269867314E+02  0.13065562229E+03 -0.14101737500E+02  0.19874491684E+03  0.12500000000E+03 0.  0.
</event>
<event>
 5    0  0.5691975E-005  0.2852506E+03  0.7546771E-02  0.1092855E+00
         21   -1    0    0  502  501  0.00000000000E+00  0.00000000000E+00  0.85727563040E+03  0.85727563040E+03  0.00000000000E+00 0. -1.
         21   -1    0    0  501  502 -0.00000000000E+00 -0.00000000000E+00 -0.94914532197E+02  0.94914532197E+02  0.00000000000E+00 0. -1.
         25    1    1    2    0    0  0.10092048705E+03 -0.23984244020E+02  0.14599467665E+03  0.21840245942E+03  0.12500000000E+03 0.  0.
         25    1    1    2    0    0  0.51021905989E+02 -0.70935671795E+02  0.12918915322E+03  0.19987481516E+03  0.12500000000E+03 0.  0.
         25    1    1    2    0    0 -0.15194239304E+03  0.94919915815E+02  0.48717726833E+03  0.53391288802E+03  0.12500000000E+03 0.  0.
</event>
<event>
 5    0  0.5691975E-005  0.3138123E+03  0.7546771E-02  0.1078533E+00
         21   -1    0    0  502  501  0.00000000000E+00  0.00000000000E+00  0.10351185430E+03  0.10351185430E+03  0.00000000000E+00 0. -1.
         21   -1    0    0  501  502 -0.00000000000E+00 -0.00000000000E+00 -0.95137089019E+03  0.95137089019E+03  0.00000000000E+00 0. -1.
         25    1    1    2    0    0 -0.12222382382E+02  0.50635312083E+02 -0.12626258737E+02  0.13600641114E+03  0.12500000000E+03 0.  0.
         25    1    1    2    0    0  0.20075046608E+01  0.90497538588E+02 -0.18060445128E+03  0.23756431211E+03  0.12500000000E+03 0.  0.
         25    1    1    2    0    0  0.10214877721E+02 -0.14113285067E+03 -0.65462832587E+03  0.68131202125E+03  0.12500000000E+03 0.  0.
</event>
<event>
 5    0  0.5691975E-005  0.2449495E+03  0.7546771E-02  0.1116539E+00
         21   -1    0    0  502  501  0.00000000000E+00  0.00000000000E+00  0.71945633474E+02  0.71945633474E+02  0.00000000000E+00 0.  1.
         21   -1    0    0  501  502 -0.00000000000E+00 -0.00000000000E+00 -0.83396637566E+03  0.83396637566E+03  0.00000000000E+00 0.  1.
         25    1    1    2    0    0  0.71641511263E+02  0.26824520705E+02 -0.18055868105E+03  0.23254784099E+03  0.12500000000E+03 0.  0.
         25    1    1    2    0    0 -0.14554318793E+03  0.34933745399E+00 -0.32997744710E+03  0.38169759914E+03  0.12500000000E+03 0.  0.
         25    1    1    2    0    0  0.73901676666E+02 -0.27173858159E+02 -0.25148461403E+03  0.29166656901E+03  0.12500000000E+03 0.  0.
</event>
<event>
 5    0  0.5691975E-005  0.2801397E+03  0.7546771E-02  0.1095613E+00
         21   -1    0    0  502  501  0.00000000000E+00  0.00000000000E+00  0.70872823090E+03  0.70872823090E+03  0.00000000000E+00 0.  1.
         21   -1    0    0  501  502 -0.00000000000E+00 -0.00000000000E+00 -0.11073108133E+03  0.11073108133E+03  0.00000000000E+00 0.  1.
         25    1    1    2    0    0  0.11484345563E+03 -0.12566644201E+03  0.20423113055E+03  0.29379657696E+03  0.12500000000E+03 0.  0.
         25    1    1    2    0    0 -0.83126145020E+02  0.77631002169E+02  0.33660056466E+03  0.37664501671E+03  0.12500000000E+03 0.  0.
         25    1    1    2    0    0 -0.31717310606E+02  0.48035439845E+02  0.57165454364E+02  0.14901771856E+03  0.12500000000E+03 0.  0.
</event>
<event>
 5    0  0.5691975E-005  0.3142833E+03  0.7546771E-02  0.1078311E+00
         21   -1    0    0  502  501  0.00000000000E+00  0.00000000000E+00  0.24062897734E+03  0.24062897734E+03  0.00000000000E+00 0. -1.
         21   -1    0    0  501  502 -0.00000000000E+00 -0.00000000000E+00 -0.41048255437E+03  0.41048255437E+03  0.00000000000E+00 0. -1.
         25    1    1    2    0    0  0.71313797544E+02  0.10873027407E+02 -0.26851209673E+03  0.30484032957E+03  0.12500000000E+03 0.  0.
         25    1    1    2    0    0 -0.71609072641E+02 -0.98430144410E+02  0.23167174242E+02  0.17600588222E+03  0.12500000000E+03 0.  0.
         25    1    1    2    0    0  0.29527509723E+00  0.87557117002E+02  0.75491345458E+02  0.17026531991E+03  0.12500000000E+03 0.  0.
</event>
<event>
 5    0  0.5691975E-005  0.3237195E+03  0.7546771E-02  0.1073950E+00
         21   -1    0    0  502  501  0.00000000000E+00  0.00000000000E+00  0.15586787905E+03  0.15586787905E+03  0.00000000000E+00 0.  1.
         21   -1    0    0  501  502 -0.00000000000E+00 -0.00000000000E+00 -0.67232784183E+03  0.67232784183E+03  0.00000000000E+00 0.  1.
         25    1    1    2    0    0 -0.46297743726E+02 -0.15667685040E+03 -0.18991080612E+03  0.27996826750E+03  0.12500000000E+03 0.  0.
         25    1    1    2    0    0 -0.13407489518E+03  0.58858681144E+02 -0.19619538079E+03  0.27487824451E+03  0.12500000000E+03 0.  0.
         25    1    1    2    0    0  0.18037263891E+03  0.97818169259E+02 -0.13035377588E+03  0.27334920887E+03  0.12500000000E+03 0.  0.
</event>
<event>
 5    0  0.5691975E-005  0.2130084E+03  0.7546771E-02  0.1139206E+00
         21   -1    0    0  502  501  0.00000000000E+00  0.00000000000E+00  0.66522336056E+03  0.66522336056E+03  0.00000000000E+00 0.  1.
         21   -1    0    0  501  502 -0.00000000000E+00 -0.00000000000E+00 -0.68206546630E+02  0.68206546630E+02  0.00000000000E+00 0.  1.
         25    1    1    2    0    0 -0.18882609986E+02 -0.19897446019E+02  0.12674863122E+03  0.18011850775E+03  0.12500000000E+03 0.  0.
         25    1    1    2    0    0 -0.21849919227E+02 -0.23499313970E+02  0.33815693382E+03  0.36194578132E+03  0.12500000000E+03 0.  0.
         25    1    1    2    0    0  0.40732529213E+02  0.43396759989E+02  0.13211124889E+03  0.19136561812E+03  0.12500000000E+03 0.  0.
</event>
<event>
 5    0  0.5691975E-005  0.2720134E+03  0.7546771E-02  0.1100133E+00
         21   -1    0    0  502  501  0.00000000000E+00  0.00000000000E+00  0.29277616879E+03  0.29277616879E+03  0.00000000000E+00 0. -1.
         21   -1    0    0  501  502 -0.00000000000E+00 -0.00000000000E+00 -0.25272307053E+03  0.25272307053E+03  0.00000000000E+00 0. -1.
         25    1    1    2    0    0 -0.47048093623E+02 -0.31632224885E+02  0.67160905275E+02  0.15280611232E+03  0.12500000000E+03 0.  0.
         25    1    1    2    0    0  0.70555644433E+02  0.10396733062E+03 -0.12479181288E+03  0.21676093135E+03  0.12500000000E+03 0.  0.
         25    1    1    2    0    0 -0.23507550810E+02 -0.72335105740E+02  0.97684005853E+02  0.17593219565E+03  0.12500000000E+03 0.  0.
</event>
<event>
 5    0  0.5691975E-005  0.3095465E+03  0.7546771E-02  0.1080563E+00
         21   -1    0    0  502  501  0.00000000000E+00  0.00000000000E+00  0.19088481366E+03  0.19088481366E+03  0.00000000000E+00 0. -1.
         21   -1    0    0  501  502 -0.00000000000E+00 -0.00000000000E+00 -0.50197310803E+03  0.50197310803E+03  0.00000000000E+00 0.  1.
         25    1    1    2    0    0 -0.91504716133E+02 -0.56571415491E+02 -0.48369154676E+02  0.17186626559E+03  0.12500000000E+03 0.  0.
         25    1    1    2    0    0  0.17974914326E+03 -0.66382425157E+02 -0.55204643820E+02  0.23534853637E+03  0.12500000000E+03 0.  0.
         25    1    1    2    0    0 -0.88244427132E+02  0.12295384065E+03 -0.20751449587E+03  0.28564311972E+03  0.12500000000E+03 0.  0.
</event>
<event>
 5    0  0.5691975E-005  0.2999931E+03  0.7546771E-02  0.1085244E+00
         21   -1    0    0  502  501  0.00000000000E+00  0.00000000000E+00  0.17013675474E+03  0.17013675474E+03  0.00000000000E+00 0. -1.
         21   -1    0    0  501  502 -0.00000000000E+00 -0.00000000000E+00 -0.52896174693E+03  0.52896174693E+03  0.00000000000E+00 0. -1.
         25    1    1    2    0    0  0.13044538557E+03 -0.98470493073E+02 -0.21815328671E+03  0.29988046472E+03  0.12500000000E+03 0.  0.
         25    1    1    2    0    0 -0.16763653927E+03  0.93760845213E+02 -0.14032389974E+03  0.26871714168E+03  0.12500000000E+03 0.  0.
         25    1    1    2    0    0  0.37191153703E+02  0.47096478608E+01 -0.34780574888E+00  0.13050089527E+03  0.12500000000E+03 0.  0.
</event>
<event>
 5    0  0.5691975E-005  0.3162088E+03  0.7546771E-02  0.1077407E+00
         21   -1    0    0  502  501  0.00000000000E+00  0.00000000000E+00  0.28006430825E+03  0.28006430825E+03  0.00000000000E+00 0.  1.
         21   -1    0    0  501  502 -0.00000000000E+00 -0.00000000000E+00 -0.35701797006E+03  0.35701797006E+03  0.00000000000E+00 0.  1.
         25    1    1    2    0    0 -0.22126516959E+03 -0.80439391437E+02 -0.99225806965E+02  0.28442842990E+03  0.12500000000E+03 0.  0.
         25    1    1    2    0    0  0.15261951366E+03  0.24816027835E+02  0.97297191933E+01  0.19906837675E+03  0.12500000000E+03 0.  0.
         25    1    1    2    0    0  0.68645655924E+02  0.55623363602E+02  0.12542425952E+02  0.15358547166E+03  0.12500000000E+03 0.  0.
</event>
<event>
 5    0  0.5691975E-005  0.3660857E+03  0.7546771E-02  0.1056200E+00
         21   -1    0    0  502  501  0.00000000000E+00  0.00000000000E+00  0.28817878978E+03  0.28817878978E+03  0.00000000000E+00 0. -1.
         21   -1    0    0  501  502 -0.00000000000E+00 -0.00000000000E+00 -0.46505418362E+03  0.46505418362E+03  0.00000000000E+00 0. -1.
         25    1    1    2    0    0  0.17410226592E+02 -0.17610941128E+03  0.86442907391E+02  0.23327026593E+03  0.12500000000E+03 0.  0.
         25    1    1    2    0    0 -0.66101373690E+02  0.24376575393E+03 -0.23530374483E+03  0.36712938690E+03  0.12500000000E+03 0.  0.
         25    1    1    2    0    0  0.48691147099E+02 -0.67656342646E+02 -0.28014556402E+02  0.15283332057E+03  0.12500000000E+03 0.  0.
</event>
<event>
 5    0  0.5691975E-005  0.2387813E+03  0.7546771E-02  0.1120607E+00
         21   -1    0    0  502  501  0.00000000000E+00  0.00000000000E+00  0.56273330284E+02  0.56273330284E+02  0.00000000000E+00 0. -1.
         21   -1    0    0  501  502 -0.00000000000E+00 -0.00000000000E+00 -0.10132069341E+04  0.10132069341E+04  0.00000000000E+00 0. -1.
         25    1    1    2    0    0 -0.66204481757E+01  0.18761475361E+02 -0.16909127817E+03  0.21121714809E+03  0.12500000000E+03 0.  0.
         25    1    1    2    0    0  0.11320735101E+03  0.16484159785E+02 -0.45250666701E+03  0.48319242081E+03  0.12500000000E+03 0.  0.
         25    1    1    2    0    0 -0.10658690284E+03 -0.35245635146E+02 -0.33533565859E+03  0.37507069544E+03  0.12500000000E+03 0.  0.
</event>
<event>
 5    0  0.5691975E-005  0.5311020E+03  0.7546771E-02  0.1005965E+00
         21   -1    0    0  502  501  0.00000000000E+00  0.00000000000E+00  0.32451703443E+03  0.32451703443E+03  0.00000000000E+00 0.  1.
         21   -1    0    0  501  502 -0.00000000000E+00 -0.00000000000E+00 -0.86919715729E+03  0.86919715729E+03  0.00000000000E+00 0.  1.
         25    1    1    2    0    0 -0.61610250705E+01  0.57240720288E+02 -0.81719970263E+02  0.16005502750E+03  0.12500000000E+03 0.  0.
         25    1    1    2    0    0  0.39746826812E+03 -0.66312134945E+02 -0.98889911059E+01  0.42202027860E+03  0.12500000000E+03 0.  0.
         25    1    1    2    0    0 -0.39130724305E+03  0.90714146572E+01 -0.45307116148E+03  0.61163888561E+03  0.12500000000E+03 0.  0.
</event>
<event>
 5    0  0.5691975E-005  0.2577707E+03  0.7546771E-02  0.1108490E+00
         21   -1    0    0  502  501  0.00000000000E+00  0.00000000000E+00  0.42676472752E+03  0.42676472752E+03  0.00000000000E+00 0.  1.
         21   -1    0    0  501  502 -0.00000000000E+00 -0.00000000000E+00 -0.15569637051E+03  0.15569637051E+03  0.00000000000E+00 0.  1.
         25    1    1    2    0    0 -0.10395225158E+03 -0.35522452044E+02  0.11250770504E+03  0.20087533174E+03  0.12500000000E+03 0.  0.
         25    1    1    2    0    0  0.14989704962E+03 -0.31651451423E+02  0.96732170831E+02  0.22012054138E+03  0.12500000000E+03 0.  0.
         25    1    1    2    0    0 -0.45944798042E+02  0.67173903466E+02  0.61828481144E+02  0.16146522491E+03  0.12500000000E+03 0.  0.
</event>
<event>
 5    0  0.5691975E-005  0.3189304E+03  0.7546771E-02  0.1076143E+00
         21   -1    0    0  502  501  0.00000000000E+00  0.00000000000E+00  0.23555990577E+03  0.23555990577E+03  0.00000000000E+00 0.  1.
         21   -1    0    0  501  502 -0.00000000000E+00 -0.00000000000E+00 -0.43180784323E+03  0.43180784323E+03  0.00000000000E+00 0.  1.
         25    1    1    2    0    0 -0.12926824217E+02  0.17528363702E+03 -0.91509765314E+01  0.21587078673E+03  0.12500000000E+03 0.  0.
         25    1    1    2    0    0 -0.88431938515E+02 -0.10262890634E+02 -0.15613529494E+03  0.21892639174E+03  0.12500000000E+03 0.  0.
         25    1    1    2    0    0  0.10135876273E+03 -0.16502074638E+03 -0.30961665998E+02  0.23257057054E+03  0.12500000000E+03 0.  0.
</event>
<event>
 5    0  0.5691975E-005  0.4048411E+03  0.7546771E-02  0.1042116E+00
         21   -1    0    0  502  501  0.00000000000E+00  0.00000000000E+00  0.36157908687E+03  0.36157908687E+03  0.00000000000E+00 0. -1.
         21   -1    0    0  501  502 -0.00000000000E+00 -0.00000000000E+00 -0.45327928638E+03  0.45327928638E+03  0.00000000000E+00 0. -1.
         25    1    1    2    0    0  0.27180932868E+03  0.51294867894E+02 -0.98324079044E+02  0.31906754637E+03  0.12500000000E+03 0.  0.
         25    1    1    2    0    0 -0.19930422410E+03  0.11693129603E+03 -0.48774521060E+02  0.26720601722E+03  0.12500000000E+03 0.  0.
         25    1    1    2    0    0 -0.72505104580E+02 -0.16822616393E+03  0.55398400597E+02  0.22858480966E+03  0.12500000000E+03 0.  0.
</event>
<event>
 5    0  0.6280059E-005  0.3731826E+03  0.7546771E-02  0.1053483E+00
         21   -1    0    0  502  501  0.00000000000E+00  0.00000000000E+00  0.28917272625E+03  0.28917272625E+03  0.00000000000E+00 0. -1.
         21   -1    0    0  501  502 -0.00000000000E+00 -0.00000000000E+00 -0.48159886830E+03  0.48159886830E+03  0.00000000000E+00 0. -1.
         25    1    1    2    0    0 -0.77458444122E+02 -0.64963047623E+02  0.11621650740E+03  0.19837158243E+03  0.12500000000E+03 0.  0.
         25    1    1    2    0    0 -0.89950741067E+02  0.43077452687E+01 -0.31936411003E+03  0.35458162285E+03  0.12500000000E+03 0.  0.
         25    1    1    2    0    0  0.16740918519E+03  0.60655302354E+02  0.10721460591E+02  0.21781838928E+03  0.12500000000E+03 0.  0.
</event>
<event>
 5    0  0.5691975E-005  0.3046740E+03  0.7546771E-02  0.1082927E+00
         21   -1    0    0  502  501  0.00000000000E+00  0.00000000000E+00  0.47321601570E+02  0.47321601570E+02  0.00000000000E+00 0.  1.
         21   -1    0    0  501  502 -0.00000000000E+00 -0.00000000000E+00 -0.19616043407E+04  0.19616043407E+04  0.00000000000E+00 0.  1.
         25    1    1    2    0    0 -0.18720852014E+02 -0.11602411581E+03 -0.56165273648E+03  0.58727409456E+03  0.12500000000E+03 0.  0.
         25    1    1    2    0    0 -0.13058305146E+03  0.12729388875E+03 -0.93403996141E+03  0.95984963247E+03  0.12500000000E+03 0.  0.
         25    1    1    2    0    0  0.14930390348E+03 -0.11269772937E+02 -0.41859004127E+03  0.46180221527E+03  0.12500000000E+03 0.  0.
</event>
<event>
 5    0  0.5691975E-005  0.3208161E+03  0.7546771E-02  0.1075274E+00
         21   -1    0    0  502  501  0.00000000000E+00  0.00000000000E+00  0.11267997982E+04  0.11267997982E+04  0.00000000000E+00 0. -1.
         21   -1    0    0  501  502 -0.00000000000E+00 -0.00000000000E+00 -0.91340957094E+02  0.91340957094E+02  0.00000000000E+00 0. -1.
         25    1    1    2    0    0  0.75895210961E+02  0.48129857326E+02  0.64550086922E+03  0.66360601141E+03  0.12500000000E+03 0.  0.
         25    1    1    2    0    0  0.20891914163E+02 -0.14430682873E+03  0.27918185051E+03  0.33886345119E+03  0.12500000000E+03 0.  0.
         25    1    1    2    0    0 -0.96787125124E+02  0.96176971405E+02  0.11077612133E+03  0.21567129265E+03  0.12500000000E+03 0.  0.
</event>
<event>
 5    0  0.5691975E-005  0.5996427E+03  0.7546771E-02  0.9906148E-01
         21   -1    0    0  502  501  0.00000000000E+00  0.00000000000E+00  0.22409883995E+03  0.22409883995E+03  0.00000000000E+00 0. -1.
         21   -1    0    0  501  502 -0.00000000000E+00 -0.00000000000E+00 -0.16045212358E+04  0.16045212358E+04  0.00000000000E+00 0.  1.
         25    1    1    2    0    0 -0.25219434279E+03  0.70294472202E+02 -0.17990088420E+03  0.34136875588E+03  0.12500000000E+03 0.  0.
         25    1    1    2    0    0  0.39698053236E+03  0.23601701402E+03 -0.46172131185E+03  0.66491288436E+03  0.12500000000E+03 0.  0.
         25    1    1    2    0    0 -0.14478618957E+03 -0.30631148622E+03 -0.73880019978E+03  0.82233843548E+03  0.12500000000E+03 0.  0.
</event>
<event>
 5    0  0.5691975E-005  0.3316409E+03  0.7546771E-02  0.1070413E+00
         21   -1    0    0  502  501  0.00000000000E+00  0.00000000000E+00  0.10942110264E+04  0.10942110264E+04  0.00000000000E+00 0. -1.
         21   -1    0    0  501  502 -0.00000000000E+00 -0.00000000000E+00 -0.10051598851E+03  0.10051598851E+03  0.00000000000E+00 0. -1.
         25    1    1    2    0    0 -0.16889146311E+03  0.15665388607E+03  0.32988488644E+03  0.42132387143E+03  0.12500000000E+03 0.  0.
         25    1    1    2    0    0  0.12253699546E+03 -0.57952941463E+02  0.16394030482E+03  0.24672916776E+03  0.12500000000E+03 0.  0.
         25    1    1    2    0    0  0.46354467642E+02 -0.98700944611E+02  0.49986984663E+03  0.52667397573E+03  0.12500000000E+03 0.  0.
</event>
<event>
 5    0  0.5691975E-005  0.2257788E+03  0.7546771E-02  0.1129647E+00
         21   -1    0    0  502  501  0.00000000000E+00  0.00000000000E+00  0.25958519917E+03  0.25958519917E+03  0.00000000000E+00 0. -1.
         21   -1    0    0  501  502 -0.00000000000E+00 -0.00000000000E+00 -0.19637509469E+03  0.19637509469E+03  0.00000000000E+00 0. -1.
         25    1    1    2    0    0 -0.52340847882E+02 -0.40280718779E+02 -0.69282314412E+02  0.15743932086E+03  0.12500000000E+03 0.  0.
         25    1    1    2    0    0  0.56250827623E+02  0.30427222039E+02  0.86451357836E+02  0.16489029299E+03  0.12500000000E+03 0.  0.
         25    1    1    2    0    0 -0.39099797410E+01  0.98534967398E+01  0.46041061056E+02  0.13363068002E+03  0.12500000000E+03 0.  0.
</event>
<event>
 5    0  0.5691975E-005  0.3346031E+03  0.7546771E-02  0.1069118E+00
         21   -1    0    0  502  501  0.00000000000E+00  0.00000000000E+00  0.10756831243E+04  0.10756831243E+04  0.00000000000E+00 0. -1.
         21   -1    0    0  501  502 -0.00000000000E+00 -0.00000000000E+00 -0.10408195722E+03  0.10408195722E+03  0.00000000000E+00 0. -1.
         25    1    1    2    0    0 -0.13033527453E+02 -0.18469444516E+03  0.63399118724E+03  0.67219917912E+03  0.12500000000E+03 0.  0.
         25    1    1    2    0    0 -0.79680359040E+02  0.60149966887E+02  0.23250246113E+03  0.28222220424E+03  0.12500000000E+03 0.  0.
         25    1    1    2    0    0  0.92713886492E+02  0.12454447827E+03  0.10510751873E+03  0.22534369818E+03  0.12500000000E+03 0.  0.
</event>
<event>
 5    0  0.5691975E-005  0.3282186E+03  0.7546771E-02  0.1071928E+00
         21   -1    0    0  502  501  0.00000000000E+00  0.00000000000E+00  0.10438267238E+03  0.10438267238E+03  0.00000000000E+00 0. -1.
         21   -1    0    0  501  502 -0.00000000000E+00 -0.00000000000E+00 -0.10320435944E+04  0.10320435944E+04  0.00000000000E+00 0. -1.
         25    1    1    2    0    0 -0.18514108951E+03 -0.26837357153E+02 -0.61797891010E+03  0.65766283162E+03  0.12500000000E+03 0.  0.
         25    1    1    2    0    0  0.16157737279E+03 -0.52244957598E+01 -0.90875554367E+02  0.22364684020E+03  0.12500000000E+03 0.  0.
         25    1    1    2    0    0  0.23563716727E+02  0.32061852913E+02 -0.21880645756E+03  0.25511659496E+03  0.12500000000E+03 0.  0.
</event>
<event>
 5    0  0.6444192E-005  0.2920674E+03  0.7546771E-02  0.1089275E+00
         21   -1    0    0  502  501  0.00000000000E+00  0.00000000000E+00  0.22852790049E+03  0.22852790049E+03  0.00000000000E+00 0.  1.
         21   -1    0    0  501  502 -0.00000000000E+00 -0.00000000000E+00 -0.37327342388E+03  0.37327342388E+03  0.00000000000E+00 0.  1.
         25    1    1    2    0    0 -0.57108748669E+02 -0.15500879576E+03 -0.16175295301E+03  0.26282723174E+03  0.12500000000E+03 0.  0.
         25    1    1    2    0    0 -0.14588811776E+02  0.88753996474E+02 -0.56668908751E+02  0.16409287169E+03  0.12500000000E+03 0.  0.
         25    1    1    2    0    0  0.71697560445E+02  0.66254799285E+02  0.73676338366E+02  0.17488122094E+03  0.12500000000E+03 0.  0.
</event>
<event>
 5    0  0.5691975E-005  0.2265936E+03  0.7546771E-02  0.1129061E+00
         21   -1    0    0  502  501  0.00000000000E+00  0.00000000000E+00  0.30433089526E+02  0.30433089526E+02  0.00000000000E+00 0.  1.
         21   -1    0    0  501  502 -0.00000000000E+00 -0.00000000000E+00 -0.16871324415E+04  0.16871324415E+04  0.00000000000E+00 0.  1.
         25    1    1    2    0    0  0.79163824220E+02  0.59212541022E+01 -0.62483058648E+03  0.64213723932E+03  0.12500000000E+03 0.  0.
         25    1    1    2    0    0 -0.23252192811E+02 -0.73707146667E+02 -0.42799576103E+03  0.45252489368E+03  0.12500000000E+03 0.  0.
         25    1    1    2    0    0 -0.55911631409E+02  0.67785892565E+02 -0.60387300446E+03  0.62290339803E+03  0.12500000000E+03 0.  0.
</event>
<event>
 5    0  0.5691975E-005  0.2746104E+03  0.7546771E-02  0.1098670E+00
         21   -1    0    0  502  501  0.00000000000E+00  0.00000000000E+00  0.79056992004E+02  0.79056992004E+02  0.00000000000E+00 0. -1.
         21   -1    0    0  501  502 -0.00000000000E+00 -0.00000000000E+00 -0.95388019608E+03  0.95388019608E+03  0.00000000000E+00 0. -1.
         25    1    1    2    0    0 -0.91435732811E+01  0.23134132137E+02 -0.10112465155E+03  0.16269599919E+03  0.12500000000E+03 0.  0.
         25    1    1    2    0    0 -0.11406485155E+03 -0.29722030185E+02 -0.59647967440E+03  0.62073117484E+03  0.12500000000E+03 0.  0.
         25    1    1    2    0    0  0.12320842483E+03  0.65878980478E+01 -0.17721887812E+03  0.24951001405E+03  0.12500000000E+03 0.  0.
</event>
<event>
 5    0  0.5691975E-005  0.3583185E+03  0.7546771E-02  0.1059252E+00
         21   -1    0    0  502  501  0.00000000000E+00  0.00000000000E+00  0.92151260774E+03  0.92151260774E+03  0.00000000000E+00 0. -1.
         21   -1    0    0  501  502 -0.00000000000E+00 -0.00000000000E+00 -0.13932763724E+03  0.13932763724E+03  0.00000000000E+00 0.  1.
         25    1    1    2    0    0 -0.11310533695E+03 -0.21247928040E+03  0.20677158550E+03  0.34105681406E+03  0.12500000000E+03 0.  0.
         25    1    1    2    0    0  0.64039491805E+02  0.38215960299E+02  0.43521066451E+03  0.45890613270E+03  0.12500000000E+03 0.  0.
         25    1    1    2    0    0  0.49065845147E+02  0.17426332010E+03  0.14020272049E+03  0.26087729821E+03  0.12500000000E+03 0.  0.
</event>
<event>
 5    0  0.5691975E-005  0.2434238E+03  0.7546771E-02  0.1117533E+00
         21   -1    0    0  502  501  0.00000000000E+00  0.00000000000E+00  0.32330548194E+03  0.32330548194E+03  0.00000000000E+00 0.  1.
         21   -1    0    0  501  502 -0.00000000000E+00 -0.00000000000E+00 -0.18327915641E+03  0.18327915641E+03  0.00000000000E+00 0.  1.
         25    1    1    2    0    0  0.18501943525E+02  0.12162130371E+03  0.35709053042E+02  0.17898100430E+03  0.12500000000E+03 0.  0.
         25    1    1    2    0    0 -0.68624373451E+02 -0.98170028028E+02  0.47139253348E+02  0.17942621949E+03  0.12500000000E+03 0.  0.
         25    1    1    2    0    0  0.50122429926E+02 -0.23451275678E+02  0.57178019139E+02  0.14817741456E+03  0.12500000000E+03 0.  0.
</event>
<event>
 5    0  0.5691975E-005  0.4059509E+03  0.7546771E-02  0.1041738E+00
         21   -1    0    0  502  501  0.00000000000E+00  0.00000000000E+00  0.42826004164E+03  0.42826004164E+03  0.00000000000E+00 0.  1.
         21   -1    0    0  501  502 -0.00000000000E+00 -0.00000000000E+00 -0.38480386388E+03  0.38480386388E+03  0.00000000000E+00 0.  1.
         25    1    1    2    0    0 -0.17608128155E+03  0.18082734064E+03  0.17867098335E+03  0.33354379792E+03  0.12500000000E+03 0.  0.
         25    1    1    2    0    0  0.16305927369E+03 -0.24317112836E+03 -0.11106804271E+03  0.33716707211E+03  0.12500000000E+03 0.  0.
         25    1    1    2    0    0  0.13022007864E+02  0.62343787718E+02 -0.24146762891E+02  0.14235303549E+03  0.12500000000E+03 0.  0.
</event>
<event>
 5    0  0.5691975E-005  0.1249457E+04  0.7546771E-02  0.9070635E-01
         21   -1    0    0  502  501  0.00000000000E+00  0.00000000000E+00  0.21926136647E+04  0.21926136647E+04  0.00000000000E+00 0. -1.
         21   -1    0    0  501  502 -0.00000000000E+00 -0.00000000000E+00 -0.71200122424E+03  0.71200122424E+03  0.00000000000E+00 0. -1.
         25    1    1    2    0    0  0.13215100260E+03  0.71751974722E+03  0.12614735983E+04  0.14626137954E+04  0.12500000000E+03 0.  0.
         25    1    1    2    0    0  0.18871005611E+03 -0.11180823489E+03 -0.42421211900E+03  0.49365320679E+03  0.12500000000E+03 0.  0.
         25    1    1    2    0    0 -0.32086105871E+03 -0.60571151233E+03  0.64335096113E+03  0.94834788677E+03  0.12500000000E+03 0.  0.
</event>
<event>
 5    0  0.5691975E-005  0.2391530E+03  0.7546771E-02  0.1120358E+00
         21   -1    0    0  502  501  0.00000000000E+00  0.00000000000E+00  0.32938627462E+03  0.32938627462E+03  0.00000000000E+00 0. -1.
         21   -1    0    0  501  502 -0.00000000000E+00 -0.00000000000E+00 -0.17363857318E+03  0.17363857318E+03  0.00000000000E+00 0. -1.
         25    1    1    2    0    0  0.12798494711E+02  0.82567449505E+02  0.58448450638E+02  0.16131461982E+03  0.12500000000E+03 0.  0.
         25    1    1    2    0    0  0.52282339361E+02 -0.69318021575E+01 -0.28003415343E+02  0.13853044489E+03  0.12500000000E+03 0.  0.
         25    1    1    2    0    0 -0.65080834072E+02 -0.75635647347E+02  0.12530266615E+03  0.20317978309E+03  0.12500000000E+03 0.  0.
</event>
<event>
 5    0  0.5691975E-005  0.3209928E+03  0.7546771E-02  0.1075193E+00
         21   -1    0    0  502  501  0.00000000000E+00  0.00000000000E+00  0.49802884348E+02  0.49802884348E+02  0.00000000000E+00 0. -1.
         21   -1    0    0  501  502 -0.00000000000E+00 -0.00000000000E+00 -0.20688835238E+04  0.20688835238E+04  0.00000000000E+00 0. -1.
         25    1    1    2    0    0  0.94315116594E+02  0.10923361956E+03 -0.70287871422E+03  0.72834800183E+03  0.12500000000E+03 0.  0.
         25    1    1    2    0    0 -0.33609496514E+02 -0.53669826896E+02 -0.11790280591E+04  0.11873256557E+04  0.12500000000E+03 0.  0.
         25    1    1    2    0    0 -0.60705620081E+02 -0.55563792668E+02 -0.13717386617E+03  0.20301275065E+03  0.12500000000E+03 0.  0.
</event>
<event>
 5    0  0.5691975E-005  0.3822769E+03  0.7546771E-02  0.1050095E+00
         21   -1    0    0  502  501  0.00000000000E+00  0.00000000000E+00  0.27072849821E+03  0.27072849821E+03  0.00000000000E+00 0. -1.
         21   -1    0    0  501  502 -0.00000000000E+00 -0.00000000000E+00 -0.53978675113E+03  0.53978675113E+03  0.00000000000E+00 0. -1.
         25    1    1    2    0    0 -0.17583082000E+02  0.10002810552E+03  0.73765022247E+02  0.17714701570E+03  0.12500000000E+03 0.  0.
         25    1    1    2    0    0  0.18530302491E+03 -0.17854708554E+03 -0.28224099001E+03  0.40187218022E+03  0.12500000000E+03 0.  0.
         25    1    1    2    0    0 -0.16771994291E+03  0.78518980020E+02 -0.60582285155E+02  0.23149605342E+03  0.12500000000E+03 0.  0.
</event>
<event>
 5    0  0.5691975E-005  0.3016663E+03  0.7546771E-02  0.1084411E+00
         21   -1    0    0  502  501  0.00000000000E+00  0.00000000000E+00  0.46864830401E+03  0.46864830401E+03  0.00000000000E+00 0. -1.
         21   -1    0    0  501  502 -0.00000000000E+00 -0.00000000000E+00 -0.19418097853E+03  0.19418097853E+03  0.00000000000E+00 0. -1.
         25    1    1    2    0    0  0.85242869042E+02 -0.14394750257E+02  0.53322803847E+02  0.16106482225E+03  0.12500000000E+03 0.  0.
         25    1    1    2    0    0 -0.14318401968E+03  0.15502400058E+03  0.74695682789E+02  0.25639529886E+03  0.12500000000E+03 0.  0.
         25    1    1    2    0    0  0.57941150642E+02 -0.14062925032E+03  0.14644883885E+03  0.24536916143E+03  0.12500000000E+03 0.  0.
</event>
<event>
 5    0  0.5737033E-005  0.2801048E+03  0.7546771E-02  0.1095632E+00
         21   -1    0    0  502  501  0.00000000000E+00  0.00000000000E+00  0.14239619768E+03  0.14239619768E+03  0.00000000000E+00 0. -1.
         21   -1    0    0  501  502 -0.00000000000E+00 -0.00000000000E+00 -0.55098865121E+03  0.55098865121E+03  0.00000000000E+00 0. -1.
         25    1    1    2    0    0  0.12915047569E+03 -0.53368444667E+02 -0.12387279438E+03  0.22471650016E+03  0.12500000000E+03 0.  0.
         25    1    1    2    0    0 -0.47923510508E+02 -0.29060356436E+02 -0.26353256035E+03  0.29701107310E+03  0.12500000000E+03 0.  0.
         25    1    1    2    0    0 -0.81226965182E+02  0.82428801102E+02 -0.21187098800E+02  0.17165727564E+03  0.12500000000E+03 0.  0.
</event>
<event>
 5    0  0.5691975E-005  0.3021778E+03  0.7546771E-02  0.1084157E+00
         21   -1    0    0  502  501  0.00000000000E+00  0.00000000000E+00  0.12506859772E+03  0.12506859772E+03  0.00000000000E+00 0. -1.
         21   -1    0    0  501  502 -0.00000000000E+00 -0.00000000000E+00 -0.73009064479E+03  0.73009064479E+03  0.00000000000E+00 0. -1.
         25    1    1    2    0    0 -0.12527777051E+02 -0.49725091986E+02 -0.80663071059E+02  0.15735647748E+03  0.12500000000E+03 0.  0.
         25    1    1    2    0    0 -0.17742018892E+02 -0.15548702254E+03 -0.14321972556E+03  0.24622729987E+03  0.12500000000E+03 0.  0.
         25    1    1    2    0    0  0.30269795943E+02  0.20521211453E+03 -0.38113925045E+03  0.45157546515E+03  0.12500000000E+03 0.  0.
</event>
<event>
 5    0  0.5691975E-005  0.3864760E+03  0.7546771E-02  0.1048566E+00
         21   -1    0    0  502  501  0.00000000000E+00  0.00000000000E+00  0.17130458716E+03  0.17130458716E+03  0.00000000000E+00 0.  1.
         21   -1    0    0  501  502 -0.00000000000E+00 -0.00000000000E+00 -0.87191892315E+03  0.87191892315E+03  0.00000000000E+00 0.  1.
         25    1    1    2    0    0  0.14739368027E+03 -0.97128324203E+02 -0.15372587830E+03  0.26535910387E+03  0.12500000000E+03 0.  0.
         25    1    1    2    0    0 -0.15625983825E+03  0.94640507007E+01  0.97827544185E+01  0.20056771322E+03  0.12500000000E+03 0.  0.
         25    1    1    2    0    0  0.88661579721E+01  0.87664273502E+02 -0.55667121211E+03  0.57729669321E+03  0.12500000000E+03 0.  0.
</event>
<event>
 5    0  0.5691975E-005  0.3502803E+03  0.7546771E-02  0.1062500E+00
         21   -1    0    0  502  501  0.00000000000E+00  0.00000000000E+00  0.12487571852E+04  0.12487571852E+04  0.00000000000E+00 0.  1.
         21   -1    0    0  501  502 -0.00000000000E+00 -0.00000000000E+00 -0.98254735297E+02  0.98254735297E+02  0.00000000000E+00 0. -1.
         25    1    1    2    0    0 -0.16771846736E+02 -0.70182110599E+02  0.36193578764E+03  0.38965284275E+03  0.12500000000E+03 0.  0.
         25    1    1    2    0    0 -0.12750657619E+03  0.22388162536E+03  0.52099821090E+03  0.59451244302E+03  0.12500000000E+03 0.  0.
         25    1    1    2    0    0  0.14427842293E+03 -0.15369951476E+03  0.26756845134E+03  0.36284663470E+03  0.12500000000E+03 0.  0.
</event>
<event>
 5    0  0.5691975E-005  0.3447752E+03  0.7546771E-02  0.1064780E+00
         21   -1    0    0  502  501  0.00000000000E+00  0.00000000000E+00  0.46660671962E+03  0.46660671962E+03  0.00000000000E+00 0.  1.
         21   -1    0    0  501  502 -0.00000000000E+00 -0.00000000000E+00 -0.25475398356E+03  0.25475398356E+03  0.00000000000E+00 0.  1.
         25    1    1    2    0    0 -0.10266115771E+03  0.45530295605E+02 -0.87641758592E+02  0.18952150002E+03  0.12500000000E+03 0.  0.
         25    1    1    2    0    0 -0.95927741002E+02  0.46127825791E+02  0.37561967496E+02  0.16842152240E+03  0.12500000000E+03 0.  0.
         25    1    1    2    0    0  0.19858889871E+03 -0.91658121397E+02  0.26193252715E+03  0.36341768076E+03  0.12500000000E+03 0.  0.
</event>
<event>
 5    0  0.5691975E-005  0.3791639E+03  0.7546771E-02  0.1051243E+00
         21   -1    0    0  502  501  0.00000000000E+00  0.00000000000E+00  0.10310223031E+04  0.10310223031E+04  0.00000000000E+00 0.  1.
         21   -1    0    0  501  502 -0.00000000000E+00 -0.00000000000E+00 -0.13943950924E+03  0.13943950924E+03  0.00000000000E+00 0.  1.
         25    1    1    2    0    0 -0.27262249030E+03 -0.91805432919E+02  0.41424288804E+03  0.51958967467E+03  0.12500000000E+03 0.  0.
         25    1    1    2    0    0  0.99222623373E+02 -0.41473370063E+02  0.87352415848E+02  0.18660282412E+03  0.12500000000E+03 0.  0.
         25    1    1    2    0    0  0.17339986692E+03  0.13327880298E+03  0.38998748995E+03  0.46426931353E+03  0.12500000000E+03 0.  0.
</event>
<event>
 5    0  0.5691975E-005  0.6259616E+03  0.7546771E-02  0.9852961E-01
         21   -1    0    0  502  501  0.00000000000E+00  0.00000000000E+00  0.35021814254E+03  0.35021814254E+03  0.00000000000E+00 0. -1.
         21   -1    0    0  501  502 -0.00000000000E+00 -0.00000000000E+00 -0.11188111918E+04  0.11188111918E+04  0.00000000000E+00 0. -1.
         25    1    1    2    0    0 -0.21954986388E+03  0.10717444343E+03 -0.60739670708E+03  0.66651651429E+03  0.12500000000E+03 0.  0.
         25    1    1    2    0    0  0.34801795278E+02  0.27933559028E+03 -0.17837345798E+03  0.35592362589E+03  0.12500000000E+03 0.  0.
         25    1    1    2    0    0  0.18474806860E+03 -0.38651003371E+03  0.17177115834E+02  0.44658919414E+03  0.12500000000E+03 0.  0.
</event>
<event>
 5    0  0.5691975E-005  0.2260764E+03  0.7546771E-02  0.1129432E+00
         21   -1    0    0  502  501  0.00000000000E+00  0.00000000000E+00  0.21971765536E+02  0.21971765536E+02  0.00000000000E+00 0.  1.
         21   -1    0    0  501  502 -0.00000000000E+00 -0.00000000000E+00 -0.23261924113E+04  0.23261924113E+04  0.00000000000E+00 0.  1.
         25    1    1    2    0    0  0.14751382150E+02 -0.15712951116E+02 -0.32594208418E+03  0.34975383107E+03  0.12500000000E+03 0.  0.
         25    1    1    2    0    0  0.34412617377E+02  0.21827075399E+02 -0.13205401989E+04  0.13270689757E+04  0.12500000000E+03 0.  0.
         25    1    1    2    0    0 -0.49163999527E+02 -0.61141242831E+01 -0.65773836270E+03  0.67134137004E+03  0.12500000000E+03 0.  0.
</event>
<event>
 5    0  0.5722512E-005  0.4372021E+03  0.7546771E-02  0.1031609E+00
         21   -1    0    0  502  501  0.00000000000E+00  0.00000000000E+00  0.34836285770E+03  0.34836285770E+03  0.00000000000E+00 0. -1.
         21   -1    0    0  501  502 -0.00000000000E+00 -0.00000000000E+00 -0.54869698528E+03  0.54869698528E+03  0.00000000000E+00 0. -1.
         25    1    1    2    0    0  0.19877841533E+03 -0.12153490208E+03 -0.14305740649E+03  0.30062270768E+03  0.12500000000E+03 0.  0.
         25    1    1    2    0    0 -0.28051044223E+03  0.14796999988E+03 -0.19400941529E+03  0.39223192410E+03  0.12500000000E+03 0.  0.
         25    1    1    2    0    0  0.81732026901E+02 -0.26435097800E+02  0.13673269420E+03  0.20420521120E+03  0.12500000000E+03 0.  0.
</event>
<event>
 5    0  0.5691975E-005  0.3231928E+03  0.7546771E-02  0.1074189E+00
         21   -1    0    0  502  501  0.00000000000E+00  0.00000000000E+00  0.94959137966E+03  0.94959137966E+03  0.00000000000E+00 0.  1.
         21   -1    0    0  501  502 -0.00000000000E+00 -0.00000000000E+00 -0.10999846095E+03  0.10999846095E+03  0.00000000000E+00 0.  1.
         25    1    1    2    0    0  0.39511737185E+02  0.56953950226E+01  0.50955197995E+03  0.52617661975E+03  0.12500000000E+03 0.  0.
         25    1    1    2    0    0  0.93831154585E+02  0.11725672465E+03  0.12156137606E+03  0.23012082304E+03  0.12500000000E+03 0.  0.
         25    1    1    2    0    0 -0.13334289177E+03 -0.12295211967E+03  0.20847956270E+03  0.30329239783E+03  0.12500000000E+03 0.  0.
</event>
<event>
 5    0  0.5691975E-005  0.4137680E+03  0.7546771E-02  0.1039114E+00
         21   -1    0    0  502  501  0.00000000000E+00  0.00000000000E+00  0.63840572324E+03  0.63840572324E+03  0.00000000000E+00 0.  1.
         21   -1    0    0  501  502 -0.00000000000E+00 -0.00000000000E+00 -0.26817425946E+03  0.26817425946E+03  0.00000000000E+00 0.  1.
         25    1    1    2    0    0  0.38777866334E+02  0.19764455143E+02  0.52922703030E+03  0.54552782349E+03  0.12500000000E+03 0.  0.
         25    1    1    2    0    0 -0.33533400892E+02 -0.36419473745E+02  0.26162776554E+02  0.13696845593E+03  0.12500000000E+03 0.  0.
         25    1    1    2    0    0 -0.52444654419E+01  0.16655018603E+02 -0.18515834307E+03  0.22408370327E+03  0.12500000000E+03 0.  0.
</event>
<event>
 5    0  0.5691975E-005  0.5203094E+03  0.7546771E-02  0.1008610E+00
         21   -1    0    0  502  501  0.00000000000E+00  0.00000000000E+00  0.64068050283E+03  0.64068050283E+03  0.00000000000E+00 0. -1.
         21   -1    0    0  501  502 -0.00000000000E+00 -0.00000000000E+00 -0.42255364158E+03  0.42255364158E+03  0.00000000000E+00 0. -1.
         25    1    1    2    0    0 -0.62207118417E+02 -0.31520617686E+03  0.25346529295E+03  0.42789521410E+03  0.12500000000E+03 0.  0.
         25    1    1    2    0    0  0.18814207775E+02  0.33665035454E+03 -0.20902892367E+03  0.41593933038E+03  0.12500000000E+03 0.  0.
         25    1    1    2    0    0  0.43392910642E+02 -0.21444177672E+02  0.17369049197E+03  0.21939959993E+03  0.12500000000E+03 0.  0.
</event>
<event>
 5    0  0.5728256E-005  0.3268611E+03  0.7546771E-02  0.1072534E+00
         21   -1    0    0  502  501  0.00000000000E+00  0.00000000000E+00  0.26010156698E+03  0.26010156698E+03  0.00000000000E+00 0.  1.
         21   -1    0    0  501  502 -0.00000000000E+00 -0.00000000000E+00 -0.41075573480E+03  0.41075573480E+03  0.00000000000E+00 0.  1.
         25    1    1    2    0    0 -0.43342904646E+02 -0.14244007816E+03  0.36270703714E+02  0.19775830500E+03  0.12500000000E+03 0.  0.
         25    1    1    2    0    0 -0.82432803067E+02  0.18992834647E+03 -0.57811878252E+02  0.24866675910E+03  0.12500000000E+03 0.  0.
         25    1    1    2    0    0  0.12577570771E+03 -0.47488268305E+02 -0.12911299328E+03  0.22443223768E+03  0.12500000000E+03 0.  0.
</event>
<event>
 5    0  0.5691975E-005  0.2251027E+03  0.7546771E-02  0.1130135E+00
         21   -1    0    0  502  501  0.00000000000E+00  0.00000000000E+00  0.49582085383E+03  0.49582085383E+03  0.00000000000E+00 0. -1.
         21   -1    0    0  501  502 -0.00000000000E+00 -0.00000000000E+00 -0.10219661711E+03  0.10219661711E+03  0.00000000000E+00 0. -1.
         25    1    1    2    0    0 -0.28118824585E+02  0.48318963665E+02  0.79753468088E+02  0.15846452669E+03  0.12500000000E+03 0.  0.
         25    1    1    2    0    0 -0.99119313817E+01 -0.74322696826E+02  0.70075312781E+02  0.16173329623E+03  0.12500000000E+03 0.  0.
         25    1    1    2    0    0  0.38030755967E+02  0.26003733161E+02  0.24379545585E+03  0.27781964803E+03  0.12500000000E+03 0.  0.
</event>
<event>
 5    0  0.5993872E-005  0.2714280E+03  0.7546771E-02  0.1100465E+00
         21   -1    0    0  502  501  0.00000000000E+00  0.00000000000E+00  0.13456175431E+03  0.13456175431E+03  0.00000000000E+00 0. -1.
         21   -1    0    0  501  502 -0.00000000000E+00 -0.00000000000E+00 -0.54750464524E+03  0.54750464524E+03  0.00000000000E+00 0. -1.
         25    1    1    2    0    0  0.49586266458E+02  0.85387468129E+02 -0.14808368291E+03  0.21749389573E+03  0.12500000000E+03 0.  0.
         25    1    1    2    0    0  0.25654850476E+02 -0.57008311142E+00 -0.26685959239E+03  0.29579982826E+03  0.12500000000E+03 0.  0.
         25    1    1    2    0    0 -0.75241116935E+02 -0.84817385017E+02  0.20003843782E+01  0.16877267556E+03  0.12500000000E+03 0.  0.
</event>
<event>
 5    0  0.5691975E-005  0.3304802E+03  0.7546771E-02  0.1070925E+00
         21   -1    0    0  502  501  0.00000000000E+00  0.00000000000E+00  0.99595922128E+02  0.99595922128E+02  0.00000000000E+00 0. -1.
         21   -1    0    0  501  502 -0.00000000000E+00 -0.00000000000E+00 -0.10966030474E+04  0.10966030474E+04  0.00000000000E+00 0. -1.
         25    1    1    2    0    0  0.20159566230E+02  0.11417213888E+03 -0.22728003379E+03  0.28411775581E+03  0.12500000000E+03 0.  0.
         25    1    1    2    0    0 -0.19978027519E+03 -0.17730147002E+02 -0.49035080502E+03  0.54433025678E+03  0.12500000000E+03 0.  0.
         25    1    1    2    0    0  0.17962070896E+03 -0.96441991880E+02 -0.27937628644E+03  0.36775095692E+03  0.12500000000E+03 0.  0.
</event>
<event>
 5    0  0.5691975E-005  0.5254263E+03  0.7546771E-02  0.1007347E+00
         21   -1    0    0  502  501  0.00000000000E+00  0.00000000000E+00  0.39529849586E+03  0.39529849586E+03  0.00000000000E+00 0.  1.
         21   -1    0    0  501  502 -0.00000000000E+00 -0.00000000000E+00 -0.69839078030E+03  0.69839078030E+03  0.00000000000E+00 0.  1.
         25    1    1    2    0    0 -0.60724974814E+02 -0.21747861727E+03 -0.22385691909E+03  0.34164512547E+03  0.12500000000E+03 0.  0.
         25    1    1    2    0    0 -0.25539655593E+03  0.59795345607E+02 -0.20630576024E+03  0.35635649405E+03  0.12500000000E+03 0.  0.
         25    1    1    2    0    0  0.31612153075E+03  0.15768327166E+03  0.12707039489E+03  0.39568765665E+03  0.12500000000E+03 0.  0.
</event>
<event>
 5    0  0.5691975E-005  0.2921902E+03  0.7546771E-02  0.1089211E+00
         21   -1    0    0  502  501  0.00000000000E+00  0.00000000000E+00  0.32047485088E+03  0.32047485088E+03  0.00000000000E+00 0.  1.
         21   -1    0    0  501  502 -0.00000000000E+00 -0.00000000000E+00 -0.26640188340E+03  0.26640188340E+03  0.00000000000E+00 0.  1.
         25    1    1    2    0    0 -0.29567607233E+02  0.17175240993E+03  0.75976415632E+02  0.22753142518E+03  0.12500000000E+03 0.  0.
         25    1    1    2    0    0  0.11521827177E+02 -0.18742696535E+03  0.17127024857E+02  0.22622987164E+03  0.12500000000E+03 0.  0.
         25    1    1    2    0    0  0.18045780056E+02  0.15674555420E+02 -0.39030473004E+02  0.13311543745E+03  0.12500000000E+03 0.  0.
</event>
<event>
 5    0  0.5691975E-005  0.3356195E+03  0.7546771E-02  0.1068677E+00
         21   -1    0    0  502  501  0.00000000000E+00  0.00000000000E+00  0.18382072100E+03  0.18382072100E+03  0.00000000000E+00 0.  1.
         21   -1    0    0  501  502 -0.00000000000E+00 -0.00000000000E+00 -0.61277357952E+03  0.61277357952E+03  0.00000000000E+00 0.  1.
         25    1    1    2    0    0  0.56474475544E+02 -0.17187071350E+03 -0.19503223333E+03  0.29392427696E+03  0.12500000000E+03 0.  0.
         25    1    1    2    0    0 -0.17890046310E+03  0.65363139272E+02 -0.18137480544E+03  0.29120359840E+03  0.12500000000E+03 0.  0.
         25    1    1    2    0    0  0.12242598755E+03  0.10650757423E+03 -0.52545819738E+02  0.21146642516E+03  0.12500000000E+03 0.  0.
</event>
<event>
 5    0  0.5691975E-005  0.2554825E+03  0.7546771E-02  0.1109888E+00
         21   -1    0    0  502  501  0.00000000000E+00  0.00000000000E+00  0.11252871876E+03  0.11252871876E+03  0.00000000000E+00 0. -1.
         21   -1    0    0  501  502 -0.00000000000E+00 -0.00000000000E+00 -0.58004153518E+03  0.58004153518E+03  0.00000000000E+00 0. -1.
         25    1    1    2    0    0 -0.36363625644E+02  0.11511819328E+03 -0.12344500074E+03  0.21316233228E+03  0.12500000000E+03 0.  0.
         25    1    1    2    0    0 -0.35960574027E+02 -0.95376130690E+02 -0.27337893951E+03  0.31741268683E+03  0.12500000000E+03 0.  0.
         25    1    1    2    0    0  0.72324199672E+02 -0.19742062589E+02 -0.70688876164E+02  0.16199523483E+03  0.12500000000E+03 0.  0.
</event>
<event>
 5    0  0.5691975E-005  0.3233957E+03  0.7546771E-02  0.1074097E+00
         21   -1    0    0  502  501  0.00000000000E+00  0.00000000000E+00  0.64053770160E+03  0.64053770160E+03  0.00000000000E+00 0. -1.
         21   -1    0    0  501  502 -0.00000000000E+00 -0.00000000000E+00 -0.16327656186E+03  0.16327656186E+03  0.00000000000E+00 0. -1.
         25    1    1    2    0    0 -0.21335379686E+03 -0.10038711242E+03  0.22873645137E+03  0.35148652771E+03  0.12500000000E+03 0.  0.
         25    1    1    2    0    0  0.15021970407E+03 -0.15675177246E+02  0.12937135049E+03  0.23489064903E+03  0.12500000000E+03 0.  0.
         25    1    1    2    0    0  0.63134092790E+02  0.11606228967E+03  0.11915333788E+03  0.21743708672E+03  0.12500000000E+03 0.  0.
</event>
<event>
 5    0  0.5691975E-005  0.4890087E+03  0.7546771E-02  0.1016688E+00
         21   -1    0    0  502  501  0.00000000000E+00  0.00000000000E+00  0.92214826679E+03  0.92214826679E+03  0.00000000000E+00 0.  1.
         21   -1    0    0  501  502 -0.00000000000E+00 -0.00000000000E+00 -0.25931787812E+03  0.25931787812E+03  0.00000000000E+00 0. -1.
         25    1    1    2    0    0  0.77892238863E+02  0.38880673897E+03  0.27724983165E+03  0.49973027754E+03  0.12500000000E+03 0.  0.
         25    1    1    2    0    0  0.38068464208E+02 -0.38659684064E+00  0.14032682254E+03  0.19174455546E+03  0.12500000000E+03 0.  0.
         25    1    1    2    0    0 -0.11596070307E+03 -0.38842014213E+03  0.24525373448E+03  0.48999131191E+03  0.12500000000E+03 0.  0.
</event>
<event>
 5    0  0.6162400E-005  0.3663959E+03  0.7546771E-02  0.1056080E+00
         21   -1    0    0  502  501  0.00000000000E+00  0.00000000000E+00  0.51460236693E+03  0.51460236693E+03  0.00000000000E+00 0. -1.
         21   -1    0    0  501  502 -0.00000000000E+00 -0.00000000000E+00 -0.26087318996E+03  0.26087318996E+03  0.00000000000E+00 0. -1.
         25    1    1    2    0    0 -0.68167618727E+02  0.12338009840E+03  0.10994969484E+03  0.21813621506E+03  0.12500000000E+03 0.  0.
         25    1    1    2    0    0  0.19011961519E+03  0.11238125339E+02 -0.81652656814E+02  0.24199983452E+03  0.12500000000E+03 0.  0.
         25    1    1    2    0    0 -0.12195199647E+03 -0.13461822374E+03  0.22543213894E+03  0.31533950731E+03  0.12500000000E+03 0.  0.
</event>
<event>
 5    0  0.5691975E-005  0.3319018E+03  0.7546771E-02  0.1070298E+00
         21   -1    0    0  502  501  0.00000000000E+00  0.00000000000E+00  0.20241521939E+03  0.20241521939E+03  0.00000000000E+00 0.  1.
         21   -1    0    0  501  502 -0.00000000000E+00 -0.00000000000E+00 -0.54422180989E+03  0.54422180989E+03  0.00000000000E+00 0.  1.
         25    1    1    2    0    0  0.16401097491E+03 -0.17645345144E+03 -0.62288745970E+02  0.27846060455E+03  0.12500000000E+03 0.  0.
         25    1    1    2    0    0 -0.29132856130E+02  0.13555513041E+03 -0.15134488432E+03  0.24032101593E+03  0.12500000000E+03 0.  0.
         25    1    1    2    0    0 -0.13487811878E+03  0.40898321026E+02 -0.12817296021E+03  0.22785540879E+03  0.12500000000E+03 0.  0.
</event>
<event>
 5    0  0.5691975E-005  0.2578373E+03  0.7546771E-02  0.1108450E+00
         21   -1    0    0  502  501  0.00000000000E+00  0.00000000000E+00  0.33927858308E+02  0.33927858308E+02  0.00000000000E+00 0. -1.
         21   -1    0    0  501  502 -0.00000000000E+00 -0.00000000000E+00 -0.19594538554E+04  0.19594538554E+04  0.00000000000E+00 0. -1.
         25    1    1    2    0    0 -0.60144459022E+02 -0.69308879725E+02 -0.26210180279E+03  0.30453806295E+03  0.12500000000E+03 0.  0.
         25    1    1    2    0    0  0.61279278526E+02  0.56552143418E+02 -0.62325891330E+03  0.64111618908E+03  0.12500000000E+03 0.  0.
         25    1    1    2    0    0 -0.11348195037E+01  0.12756736307E+02 -0.10401652810E+04  0.10477274617E+04  0.12500000000E+03 0.  0.
</event>
<event>
 5    0  0.5691975E-005  0.4859624E+03  0.7546771E-02  0.1017509E+00
         21   -1    0    0  502  501  0.00000000000E+00  0.00000000000E+00  0.42313515140E+03  0.42313515140E+03  0.00000000000E+00 0.  1.
         21   -1    0    0  501  502 -0.00000000000E+00 -0.00000000000E+00 -0.55811832952E+03  0.55811832952E+03  0.00000000000E+00 0.  1.
         25    1    1    2    0    0 -0.41115224947E+03 -0.10106119745E+03 -0.21002107886E+02  0.44195658883E+03  0.12500000000E+03 0.  0.
         25    1    1    2    0    0  0.12753465257E+03  0.85513390278E+02 -0.11498587742E+03  0.22896370788E+03  0.12500000000E+03 0.  0.
         25    1    1    2    0    0  0.28361759690E+03  0.15547807177E+02  0.10048071908E+01  0.31033318421E+03  0.12500000000E+03 0.  0.
</event>
<event>
 5    0  0.5691975E-005  0.2847320E+03  0.7546771E-02  0.1093132E+00
         21   -1    0    0  502  501  0.00000000000E+00  0.00000000000E+00  0.43429146974E+02  0.43429146974E+02  0.00000000000E+00 0.  1.
         21   -1    0    0  501  502 -0.00000000000E+00 -0.00000000000E+00 -0.18667718380E+04  0.18667718380E+04  0.00000000000E+00 0.  1.
         25    1    1    2    0    0 -0.10560696585E+03  0.40065824667E+02 -0.67079137304E+03  0.69162429662E+03  0.12500000000E+03 0.  0.
         25    1    1    2    0    0 -0.24420012520E+02 -0.13378446095E+03 -0.43035347801E+03  0.46832012026E+03  0.12500000000E+03 0.  0.
         25    1    1    2    0    0  0.13002697837E+03  0.93718636286E+02 -0.72219783994E+03  0.75025656805E+03  0.12500000000E+03 0.  0.
</event>
<event>
 5    0  0.5691975E-005  0.2736549E+03  0.7546771E-02  0.1099206E+00
         21   -1    0    0  502  501  0.00000000000E+00  0.00000000000E+00  0.12938385973E+03  0.12938385973E+03  0.00000000000E+00 0. -1.
         21   -1    0    0  501  502 -0.00000000000E+00 -0.00000000000E+00 -0.57879713343E+03  0.57879713343E+03  0.00000000000E+00 0. -1.
         25    1    1    2    0    0 -0.75686677637E+02  0.18389423423E+02 -0.25334113462E+03  0.29304159185E+03  0.12500000000E+03 0.  0.
         25    1    1    2    0    0 -0.33795763811E+02 -0.83866036295E+02 -0.17811259759E+03  0.23563693071E+03  0.12500000000E+03 0.  0.
         25    1    1    2    0    0  0.10948244145E+03  0.65476612872E+02 -0.17959541487E+02  0.17950247059E+03  0.12500000000E+03 0.  0.
</event>
<event>
 5    0  0.5691975E-005  0.4165904E+03  0.7546771E-02  0.1038182E+00
         21   -1    0    0  502  501  0.00000000000E+00  0.00000000000E+00  0.27142928920E+03  0.27142928920E+03  0.00000000000E+00 0.  1.
         21   -1    0    0  501  502 -0.00000000000E+00 -0.00000000000E+00 -0.63938394570E+03  0.63938394570E+03  0.00000000000E+00 0.  1.
         25    1    1    2    0    0  0.28944201628E+02 -0.15302102942E+03 -0.16285202009E+02  0.20035820437E+03  0.12500000000E+03 0.  0.
         25    1    1    2    0    0 -0.25684074806E+03 -0.31609168716E+02 -0.23401284876E+03  0.37061209208E+03  0.12500000000E+03 0.  0.
         25    1    1    2    0    0  0.22789654643E+03  0.18463019814E+03 -0.11765660573E+03  0.33984293845E+03  0.12500000000E+03 0.  0.
</event>
<event>
 5    0  0.5691975E-005  0.2721706E+03  0.7546771E-02  0.1100044E+00
         21   -1    0    0  502  501  0.00000000000E+00  0.00000000000E+00  0.71412588504E+03  0.71412588504E+03  0.00000000000E+00 0. -1.
         21   -1    0    0  501  502 -0.00000000000E+00 -0.00000000000E+00 -0.10373080148E+03  0.10373080148E+03  0.00000000000E+00 0. -1.
         25    1    1    2    0    0 -0.69582729757E+02  0.12015494915E+02  0.72603962859E+02  0.16088027791E+03  0.12500000000E+03 0.  0.
         25    1    1    2    0    0  0.79824364395E+01 -0.22514697061E+02  0.30606434671E+02  0.13089073580E+03  0.12500000000E+03 0.  0.
         25    1    1    2    0    0  0.61600293318E+02  0.10499202146E+02  0.50718468603E+03  0.52608567280E+03  0.12500000000E+03 0.  0.
</event>
<event>
 5    0  0.6980718E-005  0.2615098E+03  0.7546771E-02  0.1106239E+00
         21   -1    0    0  502  501  0.00000000000E+00  0.00000000000E+00  0.50483733978E+03  0.50483733978E+03  0.00000000000E+00 0.  1.
         21   -1    0    0  501  502 -0.00000000000E+00 -0.00000000000E+00 -0.13546419952E+03  0.13546419952E+03  0.00000000000E+00 0.  1.
         25    1    1    2    0    0 -0.13213633926E+01 -0.85061763541E+02  0.19174626026E+03  0.24419024948E+03  0.12500000000E+03 0.  0.
         25    1    1    2    0    0  0.75220550827E+02 -0.24321404772E+01  0.17327310500E+03  0.22652288072E+03  0.12500000000E+03 0.  0.
         25    1    1    2    0    0 -0.73899187434E+02  0.87493904018E+02  0.43537750029E+01  0.16958840910E+03  0.12500000000E+03 0.  0.
</event>
<event>
 5    0  0.5691975E-005  0.3684394E+03  0.7546771E-02  0.1055291E+00
         21   -1    0    0  502  501  0.00000000000E+00  0.00000000000E+00  0.33292646500E+03  0.33292646500E+03  0.00000000000E+00 0.  1.
         21   -1    0    0  501  502 -0.00000000000E+00 -0.00000000000E+00 -0.40774046525E+03  0.40774046525E+03  0.00000000000E+00 0.  1.
         25    1    1    2    0    0  0.12156261534E+02 -0.80726237927E+02  0.16122217189E+03  0.21973185680E+03  0.12500000000E+03 0.  0.
         25    1    1    2    0    0 -0.19404284953E+03  0.74540334947E+02 -0.10604868098E+03  0.26472667362E+03  0.12500000000E+03 0.  0.
         25    1    1    2    0    0  0.18188658800E+03  0.61859029802E+01 -0.12998749115E+03  0.25620839983E+03  0.12500000000E+03 0.  0.
</event>
<event>
 5    0  0.5691975E-005  0.3483222E+03  0.7546771E-02  0.1063306E+00
         21   -1    0    0  502  501  0.00000000000E+00  0.00000000000E+00  0.16462035388E+03  0.16462035388E+03  0.00000000000E+00 0.  1.
         21   -1    0    0  501  502 -0.00000000000E+00 -0.00000000000E+00 -0.73701926240E+03  0.73701926240E+03  0.00000000000E+00 0.  1.
         25    1    1    2    0    0  0.14089553282E+03  0.20764272366E+02 -0.42912635175E+03  0.46910247488E+03  0.12500000000E+03 0.  0.
         25    1    1    2    0    0  0.24097962542E+01  0.16795843545E+02 -0.19470177242E+03  0.23199501646E+03  0.12500000000E+03 0.  0.
         25    1    1    2    0    0 -0.14330532908E+03 -0.37560115911E+02  0.51429215651E+02  0.20054212493E+03  0.12500000000E+03 0.  0.
</event>
<event>
 5    0  0.5691975E-005  0.2713772E+03  0.7546771E-02  0.1100494E+00
         21   -1    0    0  502  501  0.00000000000E+00  0.00000000000E+00  0.10896012622E+03  0.10896012622E+03  0.00000000000E+00 0.  1.
         21   -1    0    0  501  502 -0.00000000000E+00 -0.00000000000E+00 -0.67589466854E+03  0.67589466854E+03  0.00000000000E+00 0.  1.
         25    1    1    2    0    0  0.40481145267E+02  0.10178850084E+03 -0.98831556416E+02  0.19337088346E+03  0.12500000000E+03 0.  0.
         25    1    1    2    0    0  0.88933126275E+02 -0.21882686184E+02 -0.13993727854E+03  0.20879510250E+03  0.12500000000E+03 0.  0.
         25    1    1    2    0    0 -0.12941427154E+03 -0.79905814652E+02 -0.32816570737E+03  0.38268880881E+03  0.12500000000E+03 0.  0.
</event>
<event>
 5    0  0.5859894E-005  0.3559842E+03  0.7546771E-02  0.1060185E+00
         21   -1    0    0  502  501  0.00000000000E+00  0.00000000000E+00  0.15262573434E+03  0.15262573434E+03  0.00000000000E+00 0. -1.
         21   -1    0    0  501  502 -0.00000000000E+00 -0.00000000000E+00 -0.83029760345E+03  0.83029760345E+03  0.00000000000E+00 0. -1.
         25    1    1    2    0    0  0.67983268752E+01 -0.45546809146E+02 -0.31291248587E+02  0.13683885161E+03  0.12500000000E+03 0.  0.
         25    1    1    2    0    0 -0.21079486469E+03 -0.61142072131E+02 -0.17657828860E+03  0.30818455504E+03  0.12500000000E+03 0.  0.
         25    1    1    2    0    0  0.20399653781E+03  0.10668888128E+03 -0.46980233193E+03  0.53789993113E+03  0.12500000000E+03 0.  0.
</event>
<event>
 5    0  0.6066564E-005  0.5926559E+03  0.7546771E-02  0.9920761E-01
         21   -1    0    0  502  501  0.00000000000E+00  0.00000000000E+00  0.12101987969E+04  0.12101987969E+04  0.00000000000E+00 0.  1.
         21   -1    0    0  501  502 -0.00000000000E+00 -0.00000000000E+00 -0.29023415809E+03  0.29023415809E+03  0.00000000000E+00 0.  1.
         25    1    1    2    0    0  0.72105317583E+02  0.73174476212E+02  0.99656987120E+02  0.19002682935E+03  0.12500000000E+03 0.  0.
         25    1    1    2    0    0  0.37033736215E+03 -0.33928378179E+02  0.27757266204E+02  0.39331458462E+03  0.12500000000E+03 0.  0.
         25    1    1    2    0    0 -0.44244267973E+03 -0.39246098033E+02  0.79255038548E+03  0.91709154101E+03  0.12500000000E+03 0.  0.
</event>
<event>
 5    0  0.5691975E-005  0.3362185E+03  0.7546771E-02  0.1068418E+00
         21   -1    0    0  502  501  0.00000000000E+00  0.00000000000E+00  0.12661100683E+04  0.12661100683E+04  0.00000000000E+00 0.  1.
         21   -1    0    0  501  502 -0.00000000000E+00 -0.00000000000E+00 -0.89283602577E+02  0.89283602577E+02  0.00000000000E+00 0.  1.
         25    1    1    2    0    0  0.95164434384E+02  0.22028503280E+03  0.55589598228E+03  0.61824518467E+03  0.12500000000E+03 0.  0.
         25    1    1    2    0    0  0.11253245131E+02 -0.78757586133E+02  0.40476276865E+03  0.43103049983E+03  0.12500000000E+03 0.  0.
         25    1    1    2    0    0 -0.10641767951E+03 -0.14152744667E+03  0.21616771483E+03  0.30611798642E+03  0.12500000000E+03 0.  0.
</event>
<event>
 5    0  0.5691975E-005  0.3120713E+03  0.7546771E-02  0.1079357E+00
         21   -1    0    0  502  501  0.00000000000E+00  0.00000000000E+00  0.29586387513E+03  0.29586387513E+03  0.00000000000E+00 0. -1.
         21   -1    0    0  501  502 -0.00000000000E+00 -0.00000000000E+00 -0.32916654974E+03  0.32916654974E+03  0.00000000000E+00 0. -1.
         25    1    1    2    0    0 -0.38350278319E+02  0.33990358306E+02 -0.20035586317E+03  0.24164759509E+03  0.12500000000E+03 0.  0.
         25    1    1    2    0    0 -0.27150523244E+02  0.69910853345E+02  0.68289302941E+01  0.14593256188E+03  0.12500000000E+03 0.  0.
         25    1    1    2    0    0  0.65500801562E+02 -0.10390121165E+03  0.16022425827E+03  0.23745026790E+03  0.12500000000E+03 0.  0.
</event>
<event>
 5    0  0.5691975E-005  0.3554431E+03  0.7546771E-02  0.1060403E+00
         21   -1    0    0  502  501  0.00000000000E+00  0.00000000000E+00  0.20357235646E+03  0.20357235646E+03  0.00000000000E+00 0. -1.
         21   -1    0    0  501  502 -0.00000000000E+00 -0.00000000000E+00 -0.62061371275E+03  0.62061371275E+03  0.00000000000E+00 0. -1.
         25    1    1    2    0    0 -0.12842885110E+03 -0.57676922924E+02 -0.96178151793E+01  0.18851551555E+03  0.12500000000E+03 0.  0.
         25    1    1    2    0    0  0.18278345753E+03 -0.12766187674E+03 -0.24490907062E+03  0.35399548018E+03  0.12500000000E+03 0.  0.
         25    1    1    2    0    0 -0.54354606428E+02  0.18533879966E+03 -0.16251447050E+03  0.28167507348E+03  0.12500000000E+03 0.  0.
</event>
<event>
 5    0  0.5691975E-005  0.3474914E+03  0.7546771E-02  0.1063649E+00
         21   -1    0    0  502  501  0.00000000000E+00  0.00000000000E+00  0.24718663987E+03  0.24718663987E+03  0.00000000000E+00 0. -1.
         21   -1    0    0  501  502 -0.00000000000E+00 -0.00000000000E+00 -0.48849836292E+03  0.48849836292E+03  0.00000000000E+00 0. -1.
         25    1    1    2    0    0  0.58900791113E+02 -0.34452928027E+02 -0.10367205505E+03  0.17615107846E+03  0.12500000000E+03 0.  0.
         25    1    1    2    0    0  0.72587838024E+01 -0.20489828648E+03  0.18211567741E+02  0.24081665005E+03  0.12500000000E+03 0.  0.
         25    1    1    2    0    0 -0.66159574916E+02  0.23935121450E+03 -0.15585123575E+03  0.31871727427E+03  0.12500000000E+03 0.  0.
</event>
<event>
 5    0  0.5691975E-005  0.2732459E+03  0.7546771E-02  0.1099436E+00
         21   -1    0    0  502  501  0.00000000000E+00  0.00000000000E+00  0.24985998219E+03  0.24985998219E+03  0.00000000000E+00 0. -1.
         21   -1    0    0  501  502 -0.00000000000E+00 -0.00000000000E+00 -0.29882054704E+03  0.29882054704E+03  0.00000000000E+00 0. -1.
         25    1    1    2    0    0 -0.18476552973E+03  0.30826481287E+02  0.18986991086E+02  0.22599574942E+03  0.12500000000E+03 0.  0.
         25    1    1    2    0    0  0.94361535408E+02  0.63772461686E+01 -0.35284356198E+02  0.16066970600E+03  0.12500000000E+03 0.  0.
         25    1    1    2    0    0  0.90403994326E+02 -0.37203727456E+02 -0.32663199737E+02  0.16201507382E+03  0.12500000000E+03 0.  0.
</event>
<event>
 5    0  0.5691975E-005  0.2279343E+03  0.7546771E-02  0.1128102E+00
         21   -1    0    0  502  501  0.00000000000E+00  0.00000000000E+00  0.86462744850E+02  0.86462744850E+02  0.00000000000E+00 0.  1.
         21   -1    0    0  501  502 -0.00000000000E+00 -0.00000000000E+00 -0.60088336044E+03  0.60088336044E+03  0.00000000000E+00 0.  1.
         25    1    1    2    0    0 -0.50706812985E+02 -0.81163078448E+00 -0.65371989697E+02  0.14990108960E+03  0.12500000000E+03 0.  0.
         25    1    1    2    0    0  0.15122262447E+02  0.70768092781E+02 -0.18229041943E+03  0.23257601509E+03  0.12500000000E+03 0.  0.
         25    1    1    2    0    0  0.35584550538E+02 -0.69956461996E+02 -0.26675820646E+03  0.30486900060E+03  0.12500000000E+03 0.  0.
</event>
<event>
 5    0  0.5691975E-005  0.2954764E+03  0.7546771E-02  0.1087524E+00
         21   -1    0    0  502  501  0.00000000000E+00  0.00000000000E+00  0.11614781148E+03  0.11614781148E+03  0.00000000000E+00 0. -1.
         21   -1    0    0  501  502 -0.00000000000E+00 -0.00000000000E+00 -0.75168291616E+03  0.75168291616E+03  0.00000000000E+00 0. -1.
         25    1    1    2    0    0 -0.37806839645E+01 -0.70267252066E+02 -0.23129668993E+03  0.27216711604E+03  0.12500000000E+03 0.  0.
         25    1    1    2    0    0 -0.72586844578E+02  0.15475333591E+03 -0.36514102477E+03  0.42210237259E+03  0.12500000000E+03 0.  0.
         25    1    1    2    0    0  0.76367528543E+02 -0.84486083846E+02 -0.39097389982E+02  0.17356123900E+03  0.12500000000E+03 0.  0.
</event>
<event>
 5    0  0.5691975E-005  0.3367772E+03  0.7546771E-02  0.1068177E+00
         21   -1    0    0  502  501  0.00000000000E+00  0.00000000000E+00  0.41656079865E+03  0.41656079865E+03  0.00000000000E+00 0. -1.
         21   -1    0    0  501  502 -0.00000000000E+00 -0.00000000000E+00 -0.27227444548E+03  0.27227444548E+03  0.00000000000E+00 0. -1.
         25    1    1    2    0    0 -0.37007742131E+02 -0.81005101277E+02  0.18942163609E+03  0.24379695574E+03  0.12500000000E+03 0.  0.
         25    1    1    2    0    0  0.96610745861E+02  0.13440609799E+03 -0.15620323326E+03  0.25965955687E+03  0.12500000000E+03 0.  0.
         25    1    1    2    0    0 -0.59603003730E+02 -0.53400996718E+02  0.11106795033E+03  0.18537873151E+03  0.12500000000E+03 0.  0.
</event>
<event>
 5    0  0.5691975E-005  0.2377431E+03  0.7546771E-02  0.1121306E+00
         21   -1    0    0  502  501  0.00000000000E+00  0.00000000000E+00  0.53986177934E+03  0.53986177934E+03  0.00000000000E+00 0. -1.
         21   -1    0    0  501  502 -0.00000000000E+00 -0.00000000000E+00 -0.10469673739E+03  0.10469673739E+03  0.00000000000E+00 0. -1.
         25    1    1    2    0    0 -0.12363530488E+02 -0.80774339433E+01  0.12953786249E+03  0.18061882416E+03  0.12500000000E+03 0.  0.
         25    1    1    2    0    0  0.21738536758E+02  0.12128892979E+03  0.19325530523E+03  0.26106738875E+03  0.12500000000E+03 0.  0.
         25    1    1    2    0    0 -0.93750062706E+01 -0.11321149585E+03  0.11237187424E+03  0.20287230381E+03  0.12500000000E+03 0.  0.
</event>
<event>
 5    0  0.5691975E-005  0.2974915E+03  0.7546771E-02  0.1086501E+00
         21   -1    0    0  502  501  0.00000000000E+00  0.00000000000E+00  0.19605527443E+03  0.19605527443E+03  0.00000000000E+00 0.  1.
         21   -1    0    0  501  502 -0.00000000000E+00 -0.00000000000E+00 -0.45140925862E+03  0.45140925862E+03  0.00000000000E+00 0.  1.
         25    1    1    2    0    0  0.92557190064E+02 -0.30493403338E+02 -0.20364084668E+03  0.25805285412E+03  0.12500000000E+03 0.  0.
         25    1    1    2    0    0  0.22933131483E+02 -0.10704494478E+03 -0.85532039211E+01  0.16638120693E+03  0.12500000000E+03 0.  0.
         25    1    1    2    0    0 -0.11549032155E+03  0.13753834812E+03 -0.43159933582E+02  0.22303047200E+03  0.12500000000E+03 0.  0.
</event>
<event>
 5    0  0.5691975E-005  0.3001938E+03  0.7546771E-02  0.1085144E+00
         21   -1    0    0  502  501  0.00000000000E+00  0.00000000000E+00  0.11563913213E+04  0.11563913213E+04  0.00000000000E+00 0.  1.
         21   -1    0    0  501  502 -0.00000000000E+00 -0.00000000000E+00 -0.77928937073E+02  0.77928937073E+02  0.00000000000E+00 0.  1.
         25    1    1    2    0    0  0.11352350238E+03  0.13715531250E+03  0.57818521907E+03  0.61775586836E+03  0.12500000000E+03 0.  0.
         25    1    1    2    0    0  0.29249514447E+02 -0.87090162874E+02  0.29031515627E+03  0.32916275689E+03  0.12500000000E+03 0.  0.
         25    1    1    2    0    0 -0.14277301683E+03 -0.50065149624E+02  0.20996200886E+03  0.28740163310E+03  0.12500000000E+03 0.  0.
</event>
<event>
 5    0  0.5691975E-005  0.3750673E+03  0.7546771E-02  0.1052772E+00
         21   -1    0    0  502  501  0.00000000000E+00  0.00000000000E+00  0.59002222829E+03  0.59002222829E+03  0.00000000000E+00 0. -1.
         21   -1    0    0  501  502 -0.00000000000E+00 -0.00000000000E+00 -0.23842402911E+03  0.23842402911E+03  0.00000000000E+00 0. -1.
         25    1    1    2    0    0 -0.48360108339E+02 -0.34578295412E+02 -0.49493580519E+02  0.14699990852E+03  0.12500000000E+03 0.  0.
         25    1    1    2    0    0 -0.71352030011E+02 -0.13146708152E+03 -0.20903408105E+02  0.19605269236E+03  0.12500000000E+03 0.  0.
         25    1    1    2    0    0  0.11971213835E+03  0.16604537693E+03  0.42199518780E+03  0.48539365652E+03  0.12500000000E+03 0.  0.
</event>
<event>
 5    0  0.5691975E-005  0.4519915E+03  0.7546771E-02  0.1027130E+00
         21   -1    0    0  502  501  0.00000000000E+00  0.00000000000E+00  0.94190139462E+02  0.94190139462E+02  0.00000000000E+00 0.  1.
         21   -1    0    0  501  502 -0.00000000000E+00 -0.00000000000E+00 -0.21689781098E+04  0.21689781098E+04  0.00000000000E+00 0.  1.
         25    1    1    2    0    0 -0.21870083989E+03  0.92568671875E+02 -0.39348460264E+03  0.47629208360E+03  0.12500000000E+03 0.  0.
         25    1    1    2    0    0 -0.91041001835E+02  0.73988816007E+02 -0.22136185277E+03  0.27998013996E+03  0.12500000000E+03 0.  0.
         25    1    1    2    0    0  0.30974184173E+03 -0.16655748788E+03 -0.14599415149E+04  0.15068960257E+04  0.12500000000E+03 0.  0.
</event>
<event>
 5    0  0.5691975E-005  0.3310820E+03  0.7546771E-02  0.1070659E+00
         21   -1    0    0  502  501  0.00000000000E+00  0.00000000000E+00  0.23052841074E+03  0.23052841074E+03  0.00000000000E+00 0.  1.
         21   -1    0    0  501  502 -0.00000000000E+00 -0.00000000000E+00 -0.47549580162E+03  0.47549580162E+03  0.00000000000E+00 0.  1.
         25    1    1    2    0    0 -0.13458387114E+03 -0.12519733412E+03 -0.46471598716E+02  0.22709425428E+03  0.12500000000E+03 0.  0.
         25    1    1    2    0    0 -0.26186382734E+02 -0.76780742995E+02 -0.70038885585E+02  0.16465556362E+03  0.12500000000E+03 0.  0.
         25    1    1    2    0    0  0.16077025388E+03  0.20197807711E+03 -0.12845690659E+03  0.31427439446E+03  0.12500000000E+03 0.  0.
</event>
<event>
 5    0  0.5691975E-005  0.2793695E+03  0.7546771E-02  0.1096034E+00
         21   -1    0    0  502  501  0.00000000000E+00  0.00000000000E+00  0.21417160302E+03  0.21417160302E+03  0.00000000000E+00 0. -1.
         21   -1    0    0  501  502 -0.00000000000E+00 -0.00000000000E+00 -0.36441491474E+03  0.36441491474E+03  0.00000000000E+00 0. -1.
         25    1    1    2    0    0 -0.38282380197E+02  0.10422780920E+03  0.94088898928E+01  0.16745896230E+03  0.12500000000E+03 0.  0.
         25    1    1    2    0    0  0.13393556858E+03 -0.93327579946E+02 -0.31796103599E+02  0.20804991207E+03  0.12500000000E+03 0.  0.
         25    1    1    2    0    0 -0.95653188382E+02 -0.10900229253E+02 -0.12785609802E+03  0.20307764339E+03  0.12500000000E+03 0.  0.
</event>
<event>
 5    0  0.5691975E-005  0.2598597E+03  0.7546771E-02  0.1107228E+00
         21   -1    0    0  502  501  0.00000000000E+00  0.00000000000E+00  0.29858925928E+03  0.29858925928E+03  0.00000000000E+00 0.  1.
         21   -1    0    0  501  502 -0.00000000000E+00 -0.00000000000E+00 -0.22615371692E+03  0.22615371692E+03  0.00000000000E+00 0.  1.
         25    1    1    2    0    0  0.65615155484E+02 -0.31160091662E+01 -0.23215853072E+02  0.14310497537E+03  0.12500000000E+03 0.  0.
         25    1    1    2    0    0 -0.18747949639E+00  0.12376120690E+03  0.73150858318E+01  0.17605505378E+03  0.12500000000E+03 0.  0.
         25    1    1    2    0    0 -0.65427675988E+02 -0.12064519773E+03  0.88336309607E+02  0.20558294705E+03  0.12500000000E+03 0.  0.
</event>
<event>
 5    0  0.5845004E-005  0.3333415E+03  0.7546771E-02  0.1069668E+00
         21   -1    0    0  502  501  0.00000000000E+00  0.00000000000E+00  0.11255781874E+04  0.11255781874E+04  0.00000000000E+00 0. -1.
         21   -1    0    0  501  502 -0.00000000000E+00 -0.00000000000E+00 -0.98719516925E+02  0.98719516925E+02  0.00000000000E+00 0. -1.
         25    1    1    2    0    0  0.10367308047E+03 -0.37171492252E+02  0.38616872441E+02  0.17101488324E+03  0.12500000000E+03 0.  0.
         25    1    1    2    0    0 -0.14573533449E+03 -0.54939304337E+02  0.47060490588E+03  0.51122508968E+03  0.12500000000E+03 0.  0.
         25    1    1    2    0    0  0.42062254013E+02  0.92110796589E+02  0.51763689214E+03  0.54205773139E+03  0.12500000000E+03 0.  0.
</event>
<event>
 5    0  0.5691975E-005  0.4030358E+03  0.7546771E-02  0.1042734E+00
         21   -1    0    0  502  501  0.00000000000E+00  0.00000000000E+00  0.97561768541E+02  0.97561768541E+02  0.00000000000E+00 0.  1.
         21   -1    0    0  501  502 -0.00000000000E+00 -0.00000000000E+00 -0.16649746844E+04  0.16649746844E+04  0.00000000000E+00 0.  1.
         25    1    1    2    0    0 -0.24071494998E+03  0.30665118181E+01 -0.62553694388E+03  0.68181710069E+03  0.12500000000E+03 0.  0.
         25    1    1    2    0    0  0.21002136146E+03  0.10361718052E+03 -0.23562067019E+03  0.35494730959E+03  0.12500000000E+03 0.  0.
         25    1    1    2    0    0  0.30693588526E+02 -0.10668369234E+03 -0.70625530184E+03  0.72577204270E+03  0.12500000000E+03 0.  0.
</event>
<event>
 5    0  0.5691975E-005  0.2909905E+03  0.7546771E-02  0.1089833E+00
         21   -1    0    0  502  501  0.00000000000E+00  0.00000000000E+00  0.62228401951E+02  0.62228401951E+02  0.00000000000E+00 0. -1.
         21   -1    0    0  501  502 -0.00000000000E+00 -0.00000000000E+00 -0.13607204157E+04  0.13607204157E+04  0.00000000000E+00 0. -1.
         25    1    1    2    0    0  0.88034488614E+01 -0.23566573638E+02 -0.38637713622E+02  0.13323196696E+03  0.12500000000E+03 0.  0.
         25    1    1    2    0    0  0.38786077325E+02  0.32470540566E+02 -0.77637031901E+03  0.78799401523E+03  0.12500000000E+03 0.  0.
         25    1    1    2    0    0 -0.47589526186E+02 -0.89039669282E+01 -0.48348398111E+03  0.50172283546E+03  0.12500000000E+03 0.  0.
</event>
<event>
 5    0  0.5691975E-005  0.5913093E+03  0.7546771E-02  0.9923602E-01
         21   -1    0    0  502  501  0.00000000000E+00  0.00000000000E+00  0.43876461935E+03  0.43876461935E+03  0.00000000000E+00 0.  1.
         21   -1    0    0  501  502 -0.00000000000E+00 -0.00000000000E+00 -0.79688900137E+03  0.79688900137E+03  0.00000000000E+00 0.  1.
         25    1    1    2    0    0 -0.25434193535E+03 -0.60226429673E+02  0.29895474342E+03  0.41631236052E+03  0.12500000000E+03 0.  0.
         25    1    1    2    0    0  0.20399678689E+03 -0.49560377723E+02 -0.15825952461E+03  0.29110478737E+03  0.12500000000E+03 0.  0.
         25    1    1    2    0    0  0.50345148467E+02  0.10978680740E+03 -0.49881960083E+03  0.52823647283E+03  0.12500000000E+03 0.  0.
</event>
<event>
 5    0  0.5880032E-005  0.3610218E+03  0.7546771E-02  0.1058180E+00
         21   -1    0    0  502  501  0.00000000000E+00  0.00000000000E+00  0.24904867054E+03  0.24904867054E+03  0.00000000000E+00 0. -1.
         21   -1    0    0  501  502 -0.00000000000E+00 -0.00000000000E+00 -0.52333842886E+03  0.52333842886E+03  0.00000000000E+00 0. -1.
         25    1    1    2    0    0 -0.10873610002E+03  0.12592975848E+02 -0.25251567443E+03  0.30227684053E+03  0.12500000000E+03 0.  0.
         25    1    1    2    0    0  0.17481204339E+03 -0.53373464321E+02 -0.15605455188E+03  0.27089850566E+03  0.12500000000E+03 0.  0.
         25    1    1    2    0    0 -0.66075943364E+02  0.40780488473E+02  0.13428046799E+03  0.19921175321E+03  0.12500000000E+03 0.  0.
</event>
<event>
 5    0  0.5691975E-005  0.4184280E+03  0.7546771E-02  0.1037579E+00
         21   -1    0    0  502  501  0.00000000000E+00  0.00000000000E+00  0.19506665947E+03  0.19506665947E+03  0.00000000000E+00 0. -1.
         21   -1    0    0  501  502 -0.00000000000E+00 -0.00000000000E+00 -0.89754967407E+03  0.89754967407E+03  0.00000000000E+00 0. -1.
         25    1    1    2    0    0 -0.31861368071E+02  0.15731249237E+03 -0.17880545479E+03  0.27084821893E+03  0.12500000000E+03 0.  0.
         25    1    1    2    0    0  0.86451472347E+02 -0.47927834804E+02 -0.60736866024E+03  0.62792724408E+03  0.12500000000E+03 0.  0.
         25    1    1    2    0    0 -0.54590104276E+02 -0.10938465757E+03  0.83691100431E+02  0.19384087053E+03  0.12500000000E+03 0.  0.
</event>
<event>
 5    0  0.5691975E-005  0.2341117E+03  0.7546771E-02  0.1123779E+00
         21   -1    0    0  502  501  0.00000000000E+00  0.00000000000E+00  0.34684270416E+02  0.34684270416E+02  0.00000000000E+00 0. -1.
         21   -1    0    0  501  502 -0.00000000000E+00 -0.00000000000E+00 -0.15802059813E+04  0.15802059813E+04  0.00000000000E+00 0. -1.
         25    1    1    2    0    0  0.42610579227E+02 -0.17060528681E+02 -0.77750252440E+03  0.78882310980E+03  0.12500000000E+03 0.  0.
         25    1    1    2    0    0  0.49447474164E+02  0.51632025885E+02 -0.40092369464E+03  0.42599968042E+03  0.12500000000E+03 0.  0.
         25    1    1    2    0    0 -0.92058053390E+02 -0.34571497203E+02 -0.36709549183E+03  0.40006746148E+03  0.12500000000E+03 0.  0.
</event>
<event>
 5    0  0.5691975E-005  0.2252766E+03  0.7546771E-02  0.1130009E+00
         21   -1    0    0  502  501  0.00000000000E+00  0.00000000000E+00  0.42696338366E+02  0.42696338366E+02  0.00000000000E+00 0.  1.
         21   -1    0    0  501  502 -0.00000000000E+00 -0.00000000000E+00 -0.11886160624E+04  0.11886160624E+04  0.00000000000E+00 0.  1.
         25    1    1    2    0    0 -0.63696427501E+02 -0.20044104982E+02 -0.23461585510E+03  0.27409596948E+03  0.12500000000E+03 0.  0.
         25    1    1    2    0    0  0.68058295707E+02  0.36128137683E+02 -0.65889060220E+03  0.67505481231E+03  0.12500000000E+03 0.  0.
         25    1    1    2    0    0 -0.43618682056E+01 -0.16084032701E+02 -0.25241326671E+03  0.28216161896E+03  0.12500000000E+03 0.  0.
</event>
<event>
 5    0  0.5691975E-005  0.2749268E+03  0.7546771E-02  0.1098493E+00
         21   -1    0    0  502  501  0.00000000000E+00  0.00000000000E+00  0.66432177394E+03  0.66432177394E+03  0.00000000000E+00 0. -1.
         21   -1    0    0  501  502 -0.00000000000E+00 -0.00000000000E+00 -0.11377729973E+03  0.11377729973E+03  0.00000000000E+00 0. -1.
         25    1    1    2    0    0 -0.58862827165E+02  0.87746387163E+00  0.87878726502E+02  0.16374758910E+03  0.12500000000E+03 0.  0.
         25    1    1    2    0    0  0.12399400023E+03  0.10727804700E+03  0.15083133294E+03  0.25545681134E+03  0.12500000000E+03 0.  0.
         25    1    1    2    0    0 -0.65131173066E+02 -0.10815551087E+03  0.31183441478E+03  0.35889467323E+03  0.12500000000E+03 0.  0.
</event>
<event>
 5    0  0.5691975E-005  0.6840704E+03  0.7546771E-02  0.9744868E-01
         21   -1    0    0  502  501  0.00000000000E+00  0.00000000000E+00  0.14526042369E+04  0.14526042369E+04  0.00000000000E+00 0.  1.
         21   -1    0    0  501  502 -0.00000000000E+00 -0.00000000000E+00 -0.32214717911E+03  0.32214717911E+03  0.00000000000E+00 0.  1.
         25    1    1    2    0    0  0.13247571150E+03 -0.12719544421E+03  0.92357008695E+02  0.24058950979E+03  0.12500000000E+03 0.  0.
         25    1    1    2    0    0  0.45926994449E+03  0.16653983946E+03  0.61349630791E+03  0.79414552813E+03  0.12500000000E+03 0.  0.
         25    1    1    2    0    0 -0.59174565599E+03 -0.39344395252E+02  0.42460374122E+03  0.74001637811E+03  0.12500000000E+03 0.  0.
</event>
<event>
 5    0  0.5691975E-005  0.4526724E+03  0.7546771E-02  0.1026928E+00
         21   -1    0    0  502  501  0.00000000000E+00  0.00000000000E+00  0.85855087395E+03  0.85855087395E+03  0.00000000000E+00 0.  1.
         21   -1    0    0  501  502 -0.00000000000E+00 -0.00000000000E+00 -0.23867224532E+03  0.23867224532E+03  0.00000000000E+00 0.  1.
         25    1    1    2    0    0  0.31050240319E+03 -0.81569157207E+02  0.57292630781E+03  0.66853184215E+03  0.12500000000E+03 0.  0.
         25    1    1    2    0    0 -0.84053884040E+02  0.63950484574E+02  0.43838516579E+02  0.16941527509E+03  0.12500000000E+03 0.  0.
         25    1    1    2    0    0 -0.22644851915E+03  0.17618672633E+02  0.31138042386E+01  0.25927600202E+03  0.12500000000E+03 0.  0.
</event>
<event>
 5    0  0.5691975E-005  0.3361991E+03  0.7546771E-02  0.1068426E+00
         21   -1    0    0  502  501  0.00000000000E+00  0.00000000000E+00  0.30390051915E+03  0.30390051915E+03  0.00000000000E+00 0. -1.
         21   -1    0    0  501  502 -0.00000000000E+00 -0.00000000000E+00 -0.37193031713E+03  0.37193031713E+03  0.00000000000E+00 0. -1.
         25    1    1    2    0    0  0.24603717576E+02  0.71763790567E+02  0.64064625410E+02  0.15963915805E+03  0.12500000000E+03 0.  0.
         25    1    1    2    0    0 -0.17730067690E+03 -0.14190551002E+03  0.15955160866E+02  0.25971575032E+03  0.12500000000E+03 0.  0.
         25    1    1    2    0    0  0.15269695933E+03  0.70141719457E+02 -0.14804958426E+03  0.25647592791E+03  0.12500000000E+03 0.  0.
</event>
<event>
 5    0  0.5691975E-005  0.2232981E+03  0.7546771E-02  0.1131448E+00
         21   -1    0    0  502  501  0.00000000000E+00  0.00000000000E+00  0.42834306781E+02  0.42834306781E+02  0.00000000000E+00 0. -1.
         21   -1    0    0  501  502 -0.00000000000E+00 -0.00000000000E+00 -0.11640679644E+04  0.11640679644E+04  0.00000000000E+00 0. -1.
         25    1    1    2    0    0  0.95885137142E+00 -0.40085387963E+01 -0.26507986557E+03  0.29310292205E+03  0.12500000000E+03 0.  0.
         25    1    1    2    0    0  0.19732740108E+02  0.35110793797E+02 -0.69081483958E+03  0.70318723783E+03  0.12500000000E+03 0.  0.
         25    1    1    2    0    0 -0.20691591479E+02 -0.31102255001E+02 -0.16533895247E+03  0.21061211131E+03  0.12500000000E+03 0.  0.
</event>
<event>
 5    0  0.5691975E-005  0.4310069E+03  0.7546771E-02  0.1033542E+00
         21   -1    0    0  502  501  0.00000000000E+00  0.00000000000E+00  0.19778304860E+04  0.19778304860E+04  0.00000000000E+00 0. -1.
         21   -1    0    0  501  502 -0.00000000000E+00 -0.00000000000E+00 -0.93924588484E+02  0.93924588484E+02  0.00000000000E+00 0. -1.
         25    1    1    2    0    0 -0.50309523292E+02  0.59079521212E+02 -0.45759692141E+01  0.14719842885E+03  0.12500000000E+03 0.  0.
         25    1    1    2    0    0  0.36301187238E+02  0.10275532521E+03  0.82473732505E+03  0.84124496337E+03  0.12500000000E+03 0.  0.
         25    1    1    2    0    0  0.14008336054E+02 -0.16183484643E+03  0.10637445417E+04  0.10833116823E+04  0.12500000000E+03 0.  0.
</event>
<event>
 5    0  0.5691975E-005  0.2948462E+03  0.7546771E-02  0.1087846E+00
         21   -1    0    0  502  501  0.00000000000E+00  0.00000000000E+00  0.66372243506E+02  0.66372243506E+02  0.00000000000E+00 0.  1.
         21   -1    0    0  501  502 -0.00000000000E+00 -0.00000000000E+00 -0.13097985708E+04  0.13097985708E+04  0.00000000000E+00 0.  1.
         25    1    1    2    0    0 -0.15626428254E+03  0.24920440941E+02 -0.43223069909E+03  0.47695694943E+03  0.12500000000E+03 0.  0.
         25    1    1    2    0    0  0.41023891308E+02  0.90707668675E+02 -0.51063200066E+03  0.53505222261E+03  0.12500000000E+03 0.  0.
         25    1    1    2    0    0  0.11524039123E+03 -0.11562810962E+03 -0.30056362758E+03  0.36416164230E+03  0.12500000000E+03 0.  0.
</event>
<event>
 5    0  0.5691975E-005  0.2061454E+03  0.7546771E-02  0.1144655E+00
         21   -1    0    0  502  501  0.00000000000E+00  0.00000000000E+00  0.97583674299E+02  0.97583674299E+02  0.00000000000E+00 0. -1.
         21   -1    0    0  501  502 -0.00000000000E+00 -0.00000000000E+00 -0.43548210795E+03  0.43548210795E+03  0.00000000000E+00 0. -1.
         25    1    1    2    0    0  0.54739085309E+02  0.16369908994E+02 -0.15570579330E+03  0.20768638725E+03  0.12500000000E+03 0.  0.
         25    1    1    2    0    0 -0.32809758517E+02 -0.49204332887E+02 -0.87020443447E+02  0.16338636481E+03  0.12500000000E+03 0.  0.
         25    1    1    2    0    0 -0.21929326792E+02  0.32834423894E+02 -0.95172196902E+02  0.16199303019E+03  0.12500000000E+03 0.  0.
</event>
<event>
 5    0  0.5691975E-005  0.4346646E+03  0.7546771E-02  0.1032397E+00
         21   -1    0    0  502  501  0.00000000000E+00  0.00000000000E+00  0.16153076206E+04  0.16153076206E+04  0.00000000000E+00 0. -1.
         21   -1    0    0  501  502 -0.00000000000E+00 -0.00000000000E+00 -0.11696430052E+03  0.11696430052E+03  0.00000000000E+00 0. -1.
         25    1    1    2    0    0 -0.55614953849E+02 -0.30139227126E+02  0.48263873219E+02  0.14817488843E+03  0.12500000000E+03 0.  0.
         25    1    1    2    0    0  0.26660909146E+03  0.12042508284E+03  0.11130317356E+04  0.11576041001E+04  0.12500000000E+03 0.  0.
         25    1    1    2    0    0 -0.21099413761E+03 -0.90285855714E+02  0.33704771130E+03  0.42649293258E+03  0.12500000000E+03 0.  0.
</event>
<event>
 5    0  0.5691975E-005  0.4181699E+03  0.7546771E-02  0.1037664E+00
         21   -1    0    0  502  501  0.00000000000E+00  0.00000000000E+00  0.24556512719E+03  0.24556512719E+03  0.00000000000E+00 0.  1.
         21   -1    0    0  501  502 -0.00000000000E+00 -0.00000000000E+00 -0.71209658963E+03  0.71209658963E+03  0.00000000000E+00 0.  1.
         25    1    1    2    0    0  0.21351874016E+03  0.24640365534E+02 -0.99179149140E+02  0.26769180719E+03  0.12500000000E+03 0.  0.
         25    1    1    2    0    0 -0.23402874312E+03  0.19127247750E+03 -0.15610938763E+03  0.36242206633E+03  0.12500000000E+03 0.  0.
         25    1    1    2    0    0  0.20510002962E+02 -0.21591284303E+03 -0.21124292567E+03  0.32754784331E+03  0.12500000000E+03 0.  0.
</event>
<event>
 5    0  0.5691975E-005  0.3205835E+03  0.7546771E-02  0.1075381E+00
         21   -1    0    0  502  501  0.00000000000E+00  0.00000000000E+00  0.33738137091E+02  0.33738137091E+02  0.00000000000E+00 0.  1.
         21   -1    0    0  501  502 -0.00000000000E+00 -0.00000000000E+00 -0.30462191083E+04  0.30462191083E+04  0.00000000000E+00 0.  1.
         25    1    1    2    0    0 -0.59970365450E+02  0.33618038360E+02 -0.12374292145E+04  0.12456254165E+04  0.12500000000E+03 0.  0.
         25    1    1    2    0    0  0.18996307448E+03 -0.11495532505E+03 -0.11819996054E+04  0.12091520845E+04  0.12500000000E+03 0.  0.
         25    1    1    2    0    0 -0.12999270903E+03  0.81337286694E+02 -0.59305215140E+03  0.62517974446E+03  0.12500000000E+03 0.  0.
</event>
<event>
 5    0  0.5691975E-005  0.3521314E+03  0.7546771E-02  0.1061744E+00
         21   -1    0    0  502  501  0.00000000000E+00  0.00000000000E+00  0.21872283788E+03  0.21872283788E+03  0.00000000000E+00 0. -1.
         21   -1    0    0  501  502 -0.00000000000E+00 -0.00000000000E+00 -0.56691167860E+03  0.56691167860E+03  0.00000000000E+00 0. -1.
         25    1    1    2    0    0 -0.30580179326E+02 -0.22865419178E+03  0.96758893869E+01  0.26255763105E+03  0.12500000000E+03 0.  0.
         25    1    1    2    0    0 -0.60378966404E+02  0.66204184712E+02 -0.11168900788E+03  0.19007379656E+03  0.12500000000E+03 0.  0.
         25    1    1    2    0    0  0.90959145730E+02  0.16245000707E+03 -0.24617572223E+03  0.33300308888E+03  0.12500000000E+03 0.  0.
</event>
<event>
 5    0  0.5691975E-005  0.3417043E+03  0.7546771E-02  0.1066072E+00
         21   -1    0    0  502  501  0.00000000000E+00  0.00000000000E+00  0.72449408697E+02  0.72449408697E+02  0.00000000000E+00 0. -1.
         21   -1    0    0  501  502 -0.00000000000E+00 -0.00000000000E+00 -0.16116324843E+04  0.16116324843E+04  0.00000000000E+00 0. -1.
         25    1    1    2    0    0 -0.20783856240E+03  0.66623225299E+02 -0.53213514797E+03  0.58858163230E+03  0.12500000000E+03 0.  0.
         25    1    1    2    0    0  0.24994774505E+03 -0.63682182796E+02 -0.80193857814E+03  0.85162185198E+03  0.12500000000E+03 0.  0.
         25    1    1    2    0    0 -0.42109182653E+02 -0.29410425027E+01 -0.20510934954E+03  0.24387840877E+03  0.12500000000E+03 0.  0.
</event>
<event>
 5    0  0.5691975E-005  0.2659744E+03  0.7546771E-02  0.1103606E+00
         21   -1    0    0  502  501  0.00000000000E+00  0.00000000000E+00  0.73833060649E+02  0.73833060649E+02  0.00000000000E+00 0.  1.
         21   -1    0    0  501  502 -0.00000000000E+00 -0.00000000000E+00 -0.95813940008E+03  0.95813940008E+03  0.00000000000E+00 0.  1.
         25    1    1    2    0    0  0.32905182660E+02 -0.20197946143E+02 -0.60959389723E+03  0.62347448033E+03  0.12500000000E+03 0.  0.
         25    1    1    2    0    0  0.63038189940E+02 -0.29028085664E+01 -0.15756006674E+03  0.21078997680E+03  0.12500000000E+03 0.  0.
         25    1    1    2    0    0 -0.95943372600E+02  0.23100754709E+02 -0.11715237547E+03  0.19770800361E+03  0.12500000000E+03 0.  0.
</event>
<event>
 5    0  0.5691975E-005  0.3098303E+03  0.7546771E-02  0.1080427E+00
         21   -1    0    0  502  501  0.00000000000E+00  0.00000000000E+00  0.69769519325E+03  0.69769519325E+03  0.00000000000E+00 0. -1.
         21   -1    0    0  501  502 -0.00000000000E+00 -0.00000000000E+00 -0.13758843916E+03  0.13758843916E+03  0.00000000000E+00 0. -1.
         25    1    1    2    0    0 -0.75354657581E+02  0.14547495358E+03  0.31714156885E+03  0.37821298395E+03  0.12500000000E+03 0.  0.
         25    1    1    2    0    0 -0.60079022308E+02 -0.12721599935E+03  0.62039187428E+02  0.19815968356E+03  0.12500000000E+03 0.  0.
         25    1    1    2    0    0  0.13543367989E+03 -0.18258954232E+02  0.18092599781E+03  0.25891096489E+03  0.12500000000E+03 0.  0.
</event>
<event>
 5    0  0.5691975E-005  0.4939454E+03  0.7546771E-02  0.1015371E+00
         21   -1    0    0  502  501  0.00000000000E+00  0.00000000000E+00  0.17732615565E+03  0.17732615565E+03  0.00000000000E+00 0. -1.
         21   -1    0    0  501  502 -0.00000000000E+00 -0.00000000000E+00 -0.13758944200E+04  0.13758944200E+04  0.00000000000E+00 0. -1.
         25    1    1    2    0    0 -0.24903805205E+03  0.25240462274E+03 -0.82445737533E+03  0.90613630800E+03  0.12500000000E+03 0.  0.
         25    1    1    2    0    0  0.17804693848E+02 -0.35143239662E+02 -0.25347436034E+03  0.28535294947E+03  0.12500000000E+03 0.  0.
         25    1    1    2    0    0  0.23123335820E+03 -0.21726138307E+03 -0.12063652871E+03  0.36173131821E+03  0.12500000000E+03 0.  0.
</event>
<event>
 5    0  0.5691975E-005  0.2438969E+03  0.7546771E-02  0.1117224E+00
         21   -1    0    0  502  501  0.00000000000E+00  0.00000000000E+00  0.17282301205E+03  0.17282301205E+03  0.00000000000E+00 0. -1.
         21   -1    0    0  501  502 -0.00000000000E+00 -0.00000000000E+00 -0.34420002467E+03  0.34420002467E+03  0.00000000000E+00 0. -1.
         25    1    1    2    0    0  0.99340198416E+02  0.67306533578E+01  0.52684670751E+01  0.15989538286E+03  0.12500000000E+03 0.  0.
         25    1    1    2    0    0 -0.59362560260E+02 -0.70535741263E+02 -0.13390237612E+03  0.20507084309E+03  0.12500000000E+03 0.  0.
         25    1    1    2    0    0 -0.39977638156E+02  0.63805087906E+02 -0.42743103578E+02  0.15205681076E+03  0.12500000000E+03 0.  0.
</event>
<event>
 5    0  0.5691975E-005  0.3484106E+03  0.7546771E-02  0.1063269E+00
         21   -1    0    0  502  501  0.00000000000E+00  0.00000000000E+00  0.17674755872E+03  0.17674755872E+03  0.00000000000E+00 0.  1.
         21   -1    0    0  501  502 -0.00000000000E+00 -0.00000000000E+00 -0.68679851156E+03  0.68679851156E+03  0.00000000000E+00 0.  1.
         25    1    1    2    0    0  0.12703317143E+03  0.50683528465E+02 -0.36616551666E+03  0.41037596457E+03  0.12500000000E+03 0.  0.
         25    1    1    2    0    0  0.92946091206E+02 -0.73460360479E+02 -0.86535911732E+02  0.19274040690E+03  0.12500000000E+03 0.  0.
         25    1    1    2    0    0 -0.21997926264E+03  0.22776832014E+02 -0.57349524447E+02  0.26042969881E+03  0.12500000000E+03 0.  0.
</event>
<event>
 5    0  0.5691975E-005  0.6258178E+03  0.7546771E-02  0.9853244E-01
         21   -1    0    0  502  501  0.00000000000E+00  0.00000000000E+00  0.19330874005E+03  0.19330874005E+03  0.00000000000E+00 0.  1.
         21   -1    0    0  501  502 -0.00000000000E+00 -0.00000000000E+00 -0.20260225504E+04  0.20260225504E+04  0.00000000000E+00 0.  1.
         25    1    1    2    0    0 -0.13013633929E+02 -0.46181783676E+03 -0.87330163409E+03  0.99585431320E+03  0.12500000000E+03 0.  0.
         25    1    1    2    0    0 -0.73559757368E+02  0.22176244632E+03 -0.48642827776E+02  0.26940813870E+03  0.12500000000E+03 0.  0.
         25    1    1    2    0    0  0.86573391297E+02  0.24005539044E+03 -0.91076934852E+03  0.95406883859E+03  0.12500000000E+03 0.  0.
</event>
<event>
 5    0  0.5691975E-005  0.3573682E+03  0.7546771E-02  0.1059631E+00
         21   -1    0    0  502  501  0.00000000000E+00  0.00000000000E+00  0.32504070309E+03  0.32504070309E+03  0.00000000000E+00 0. -1.
         21   -1    0    0  501  502 -0.00000000000E+00 -0.00000000000E+00 -0.39291088967E+03  0.39291088967E+03  0.00000000000E+00 0. -1.
         25    1    1    2    0    0 -0.31059959392E+01 -0.17095765448E+03  0.64592569319E+02  0.22143479141E+03  0.12500000000E+03 0.  0.
         25    1    1    2    0    0 -0.72232856494E+02  0.51946486533E+02 -0.23609099538E+03  0.28156701000E+03  0.12500000000E+03 0.  0.
         25    1    1    2    0    0  0.75338852433E+02  0.11901116795E+03  0.10362823948E+03  0.21494979135E+03  0.12500000000E+03 0.  0.
</event>
<event>
 5    0  0.5691975E-005  0.2348705E+03  0.7546771E-02  0.1123258E+00
         21   -1    0    0  502  501  0.00000000000E+00  0.00000000000E+00  0.29579372348E+03  0.29579372348E+03  0.00000000000E+00 0.  1.
         21   -1    0    0  501  502 -0.00000000000E+00 -0.00000000000E+00 -0.18649533707E+03  0.18649533707E+03  0.00000000000E+00 0.  1.
         25    1    1    2    0    0 -0.65228804979E+01  0.46800601773E+02  0.11720174160E+03  0.17774727151E+03  0.12500000000E+03 0.  0.
         25    1    1    2    0    0  0.56737194934E+02  0.24449915580E+02 -0.47127850689E+02  0.14718336173E+03  0.12500000000E+03 0.  0.
         25    1    1    2    0    0 -0.50214314436E+02 -0.71250517353E+02  0.39224495496E+02  0.15735842731E+03  0.12500000000E+03 0.  0.
</event>
<event>
 5    0  0.5691975E-005  0.2706172E+03  0.7546771E-02  0.1100927E+00
         21   -1    0    0  502  501  0.00000000000E+00  0.00000000000E+00  0.17127213286E+03  0.17127213286E+03  0.00000000000E+00 0. -1.
         21   -1    0    0  501  502 -0.00000000000E+00 -0.00000000000E+00 -0.42758660469E+03  0.42758660469E+03  0.00000000000E+00 0. -1.
         25    1    1    2    0    0 -0.13605532543E+02  0.70449060281E+01 -0.56073028699E+02  0.13785472703E+03  0.12500000000E+03 0.  0.
         25    1    1    2    0    0  0.83328566516E+02 -0.13986703422E+02 -0.26406938263E+03  0.30413305758E+03  0.12500000000E+03 0.  0.
         25    1    1    2    0    0 -0.69723033973E+02  0.69417973936E+01  0.63827939498E+02  0.15687095295E+03  0.12500000000E+03 0.  0.
</event>
<event>
 5    0  0.5691975E-005  0.3448805E+03  0.7546771E-02  0.1064736E+00
         21   -1    0    0  502  501  0.00000000000E+00  0.00000000000E+00  0.55922193837E+03  0.55922193837E+03  0.00000000000E+00 0.  1.
         21   -1    0    0  501  502 -0.00000000000E+00 -0.00000000000E+00 -0.21269300139E+03  0.21269300139E+03  0.00000000000E+00 0.  1.
         25    1    1    2    0    0 -0.40782359840E+02 -0.16918625936E+03 -0.33050628605E+02  0.21680529348E+03  0.12500000000E+03 0.  0.
         25    1    1    2    0    0  0.17394852660E+02 -0.40230371362E+02  0.23735814105E+03  0.27181786329E+03  0.12500000000E+03 0.  0.
         25    1    1    2    0    0  0.23387507180E+02  0.20941663072E+03  0.14222142453E+03  0.28329178299E+03  0.12500000000E+03 0.  0.
</event>
<event>
 5    0  0.5691975E-005  0.3898930E+03  0.7546771E-02  0.1047337E+00
         21   -1    0    0  502  501  0.00000000000E+00  0.00000000000E+00  0.45181448582E+03  0.45181448582E+03  0.00000000000E+00 0. -1.
         21   -1    0    0  501  502 -0.00000000000E+00 -0.00000000000E+00 -0.33645788370E+03  0.33645788370E+03  0.00000000000E+00 0. -1.
         25    1    1    2    0    0 -0.12503276927E+02 -0.14820484532E+03 -0.24913994857E+03  0.31593784529E+03  0.12500000000E+03 0.  0.
         25    1    1    2    0    0 -0.14807460785E+02  0.69484355496E+02  0.22689390130E+03  0.26861343786E+03  0.12500000000E+03 0.  0.
         25    1    1    2    0    0  0.27310737711E+02  0.78720489825E+02  0.13760264940E+03  0.20372108637E+03  0.12500000000E+03 0.  0.
</event>
<event>
 5    0  0.5691975E-005  0.3313316E+03  0.7546771E-02  0.1070549E+00
         21   -1    0    0  502  501  0.00000000000E+00  0.00000000000E+00  0.80603275195E+03  0.80603275195E+03  0.00000000000E+00 0. -1.
         21   -1    0    0  501  502 -0.00000000000E+00 -0.00000000000E+00 -0.13619869364E+03  0.13619869364E+03  0.00000000000E+00 0. -1.
         25    1    1    2    0    0 -0.56330439844E+02  0.31170421493E+02  0.32108050820E+03  0.35051734105E+03  0.12500000000E+03 0.  0.
         25    1    1    2    0    0 -0.43520812103E+02  0.16300080245E+03  0.83061278469E+02  0.22580411570E+03  0.12500000000E+03 0.  0.
         25    1    1    2    0    0  0.99851251947E+02 -0.19417122394E+03  0.26569227164E+03  0.36590998884E+03  0.12500000000E+03 0.  0.
</event>
<event>
 5    0  0.5691975E-005  0.2607177E+03  0.7546771E-02  0.1106713E+00
         21   -1    0    0  502  501  0.00000000000E+00  0.00000000000E+00  0.32232177148E+03  0.32232177148E+03  0.00000000000E+00 0.  1.
         21   -1    0    0  501  502 -0.00000000000E+00 -0.00000000000E+00 -0.21088779500E+03  0.21088779500E+03  0.00000000000E+00 0.  1.
         25    1    1    2    0    0 -0.28250800435E+02 -0.10007251911E+03  0.12489109876E+03  0.20502537247E+03  0.12500000000E+03 0.  0.
         25    1    1    2    0    0  0.10372067073E+03  0.40884867247E+02 -0.28535824564E+02  0.16990833761E+03  0.12500000000E+03 0.  0.
         25    1    1    2    0    0 -0.75469870294E+02  0.59187651868E+02  0.15078702282E+02  0.15827585640E+03  0.12500000000E+03 0.  0.
</event>
<event>
 5    0  0.5691975E-005  0.2392033E+03  0.7546771E-02  0.1120325E+00
         21   -1    0    0  502  501  0.00000000000E+00  0.00000000000E+00  0.16532696695E+03  0.16532696695E+03  0.00000000000E+00 0. -1.
         21   -1    0    0  501  502 -0.00000000000E+00 -0.00000000000E+00 -0.34609136904E+03  0.34609136904E+03  0.00000000000E+00 0. -1.
         25    1    1    2    0    0  0.47472375715E+02  0.86740741670E+02 -0.75761831454E+02  0.17647220129E+03  0.12500000000E+03 0.  0.
         25    1    1    2    0    0 -0.75416988080E+02 -0.58984675645E+02  0.13796407462E+02  0.15805775815E+03  0.12500000000E+03 0.  0.
         25    1    1    2    0    0  0.27944612365E+02 -0.27756066025E+02 -0.11879897810E+03  0.17688837655E+03  0.12500000000E+03 0.  0.
</event>
<event>
 5    0  0.5691975E-005  0.2284915E+03  0.7546771E-02  0.1127706E+00
         21   -1    0    0  502  501  0.00000000000E+00  0.00000000000E+00  0.16144403482E+03  0.16144403482E+03  0.00000000000E+00 0.  1.
         21   -1    0    0  501  502 -0.00000000000E+00 -0.00000000000E+00 -0.32338377875E+03  0.32338377875E+03  0.00000000000E+00 0.  1.
         25    1    1    2    0    0  0.11022848006E+02 -0.22465061740E+02 -0.80909156840E+02  0.15098832351E+03  0.12500000000E+03 0.  0.
         25    1    1    2    0    0 -0.28823085074E+02 -0.30339088291E+02  0.53192931643E+02  0.14214682018E+03  0.12500000000E+03 0.  0.
         25    1    1    2    0    0  0.17800237069E+02  0.52804150031E+02 -0.13422351873E+03  0.19169266987E+03  0.12500000000E+03 0.  0.
</event>
<event>
 5    0  0.5691975E-005  0.3343958E+03  0.7546771E-02  0.1069208E+00
         21   -1    0    0  502  501  0.00000000000E+00  0.00000000000E+00  0.91774421353E+03  0.91774421353E+03  0.00000000000E+00 0. -1.
         21   -1    0    0  501  502 -0.00000000000E+00 -0.00000000000E+00 -0.12184281932E+03  0.12184281932E+03  0.00000000000E+00 0. -1.
         25    1    1    2    0    0 -0.15860872790E+03  0.13620057921E+01  0.42801294099E+03  0.47326383898E+03  0.12500000000E+03 0.  0.
         25    1    1    2    0    0  0.98617903445E+02  0.14806499245E+03  0.13115035492E+03  0.25391760172E+03  0.12500000000E+03 0.  0.
         25    1    1    2    0    0  0.59990824452E+02 -0.14942699824E+03  0.23673809830E+03  0.31240559215E+03  0.12500000000E+03 0.  0.
</event>
<event>
 5    0  0.5691975E-005  0.2626117E+03  0.7546771E-02  0.1105584E+00
         21   -1    0    0  502  501  0.00000000000E+00  0.00000000000E+00  0.27740742113E+03  0.27740742113E+03  0.00000000000E+00 0.  1.
         21   -1    0    0  501  502 -0.00000000000E+00 -0.00000000000E+00 -0.24860515921E+03  0.24860515921E+03  0.00000000000E+00 0.  1.
         25    1    1    2    0    0 -0.85989703077E+02  0.77814240838E+02 -0.10017462885E+02  0.17080583911E+03  0.12500000000E+03 0.  0.
         25    1    1    2    0    0 -0.19653877187E+01  0.65609264977E+02 -0.41607121243E+01  0.14124712360E+03  0.12500000000E+03 0.  0.
         25    1    1    2    0    0  0.87955090796E+02 -0.14342350581E+03  0.42980436930E+02  0.21395961763E+03  0.12500000000E+03 0.  0.
</event>
<event>
 5    0  0.5691975E-005  0.3522327E+03  0.7546771E-02  0.1061702E+00
         21   -1    0    0  502  501  0.00000000000E+00  0.00000000000E+00  0.83344290861E+02  0.83344290861E+02  0.00000000000E+00 0.  1.
         21   -1    0    0  501  502 -0.00000000000E+00 -0.00000000000E+00 -0.14886190598E+04  0.14886190598E+04  0.00000000000E+00 0.  1.
         25    1    1    2    0    0 -0.50456600760E+02 -0.14184839842E+03 -0.44937570766E+03  0.49013300575E+03  0.12500000000E+03 0.  0.
         25    1    1    2    0    0  0.13329822496E+03  0.25676592415E+02 -0.10980411335E+03  0.21473157077E+03  0.12500000000E+03 0.  0.
         25    1    1    2    0    0 -0.82841624201E+02  0.11617180600E+03 -0.84609494794E+03  0.86709877416E+03  0.12500000000E+03 0.  0.
</event>
<event>
 5    0  0.5691975E-005  0.4151942E+03  0.7546771E-02  0.1038642E+00
         21   -1    0    0  502  501  0.00000000000E+00  0.00000000000E+00  0.20898905746E+03  0.20898905746E+03  0.00000000000E+00 0.  1.
         21   -1    0    0  501  502 -0.00000000000E+00 -0.00000000000E+00 -0.82485750434E+03  0.82485750434E+03  0.00000000000E+00 0.  1.
         25    1    1    2    0    0  0.41413786599E+02 -0.82896129451E+02 -0.15830189231E+03  0.22197152769E+03  0.12500000000E+03 0.  0.
         25    1    1    2    0    0  0.16354895971E+02  0.30787619057E+03 -0.43429126607E+03  0.54707324476E+03  0.12500000000E+03 0.  0.
         25    1    1    2    0    0 -0.57768682570E+02 -0.22498006112E+03 -0.23275288510E+02  0.26480178935E+03  0.12500000000E+03 0.  0.
</event>
<event>
 5    0  0.5691975E-005  0.3686656E+03  0.7546771E-02  0.1055204E+00
         21   -1    0    0  502  501  0.00000000000E+00  0.00000000000E+00  0.19293813671E+03  0.19293813671E+03  0.00000000000E+00 0.  1.
         21   -1    0    0  501  502 -0.00000000000E+00 -0.00000000000E+00 -0.70444525447E+03  0.70444525447E+03  0.00000000000E+00 0.  1.
         25    1    1    2    0    0 -0.90132494964E+02 -0.14457369086E+03 -0.23212750788E+03  0.31390061907E+03  0.12500000000E+03 0.  0.
         25    1    1    2    0    0 -0.96759439061E+02  0.15472614546E+03  0.44560592305E+01  0.22124065087E+03  0.12500000000E+03 0.  0.
         25    1    1    2    0    0  0.18689193403E+03 -0.10152454597E+02 -0.28383566911E+03  0.36224212123E+03  0.12500000000E+03 0.  0.
</event>
<event>
 5    0  0.5796702E-005  0.3727631E+03  0.7546771E-02  0.1053641E+00
         21   -1    0    0  502  501  0.00000000000E+00  0.00000000000E+00  0.59657585721E+03  0.59657585721E+03  0.00000000000E+00 0.  1.
         21   -1    0    0  501  502 -0.00000000000E+00 -0.00000000000E+00 -0.23291640140E+03  0.23291640140E+03  0.00000000000E+00 0.  1.
         25    1    1    2    0    0  0.11220317885E+03 -0.19647738611E+03  0.77234812096E+02  0.26978349245E+03  0.12500000000E+03 0.  0.
         25    1    1    2    0    0 -0.80658717162E+02  0.48848558831E+02 -0.55057909732E+02  0.16597705799E+03  0.12500000000E+03 0.  0.
         25    1    1    2    0    0 -0.31544461692E+02  0.14762882728E+03  0.34148255345E+03  0.39373170817E+03  0.12500000000E+03 0.  0.
</event>
<event>
 5    0  0.5691975E-005  0.5959683E+03  0.7546771E-02  0.9913806E-01
         21   -1    0    0  502  501  0.00000000000E+00  0.00000000000E+00  0.14060527108E+03  0.14060527108E+03  0.00000000000E+00 0.  1.
         21   -1    0    0  501  502 -0.00000000000E+00 -0.00000000000E+00 -0.25260657316E+04  0.25260657316E+04  0.00000000000E+00 0.  1.
         25    1    1    2    0    0 -0.82164815518E+02 -0.33728561720E+03 -0.19821137916E+04  0.20161628723E+04  0.12500000000E+03 0.  0.
         25    1    1    2    0    0 -0.38426280421E+02  0.67229655422E+01 -0.15075860818E+03  0.19968709331E+03  0.12500000000E+03 0.  0.
         25    1    1    2    0    0  0.12059109594E+03  0.33056265166E+03 -0.25258806068E+03  0.45082103710E+03  0.12500000000E+03 0.  0.
</event>
<event>
 5    0  0.5691975E-005  0.4391116E+03  0.7546771E-02  0.1031020E+00
         21   -1    0    0  502  501  0.00000000000E+00  0.00000000000E+00  0.67425491582E+03  0.67425491582E+03  0.00000000000E+00 0. -1.
         21   -1    0    0  501  502 -0.00000000000E+00 -0.00000000000E+00 -0.28597346383E+03  0.28597346383E+03  0.00000000000E+00 0. -1.
         25    1    1    2    0    0 -0.20193993586E+03 -0.11784137692E+03 -0.11039646093E+03  0.28719106253E+03  0.12500000000E+03 0.  0.
         25    1    1    2    0    0  0.55009488915E+02  0.40646571103E+02  0.10967311371E+02  0.14291070475E+03  0.12500000000E+03 0.  0.
         25    1    1    2    0    0  0.14693044694E+03  0.77194805821E+02  0.48771060155E+03  0.53012661238E+03  0.12500000000E+03 0.  0.
</event>
<event>
 5    0  0.5691975E-005  0.2752173E+03  0.7546771E-02  0.1098330E+00
         21   -1    0    0  502  501  0.00000000000E+00  0.00000000000E+00  0.17591533219E+03  0.17591533219E+03  0.00000000000E+00 0.  1.
         21   -1    0    0  501  502 -0.00000000000E+00 -0.00000000000E+00 -0.43057401589E+03  0.43057401589E+03  0.00000000000E+00 0.  1.
         25    1    1    2    0    0  0.56955103235E+02  0.72657311135E+02  0.26557120375E+02  0.15764913348E+03  0.12500000000E+03 0.  0.
         25    1    1    2    0    0 -0.63252782679E+02 -0.13632506132E+03 -0.99947990396E+02  0.21954506974E+03  0.12500000000E+03 0.  0.
         25    1    1    2    0    0  0.62976794437E+01  0.63667750189E+02 -0.18126781367E+03  0.22929514486E+03  0.12500000000E+03 0.  0.
</event>
<event>
 5    0  0.5691975E-005  0.2731597E+03  0.7546771E-02  0.1099485E+00
         21   -1    0    0  502  501  0.00000000000E+00  0.00000000000E+00  0.10591819992E+04  0.10591819992E+04  0.00000000000E+00 0.  1.
         21   -1    0    0  501  502 -0.00000000000E+00 -0.00000000000E+00 -0.70447024758E+02  0.70447024758E+02  0.00000000000E+00 0.  1.
         25    1    1    2    0    0 -0.38942555117E+02 -0.12548485606E+03  0.26967237068E+03  0.32497870577E+03  0.12500000000E+03 0.  0.
         25    1    1    2    0    0  0.24788402993E+02 -0.21601444623E+02  0.12482102284E+03  0.17968409800E+03  0.12500000000E+03 0.  0.
         25    1    1    2    0    0  0.14154152124E+02  0.14708630068E+03  0.59424158096E+03  0.62496622022E+03  0.12500000000E+03 0.  0.
</event>
<event>
 5    0  0.5691975E-005  0.2500719E+03  0.7546771E-02  0.1113259E+00
         21   -1    0    0  502  501  0.00000000000E+00  0.00000000000E+00  0.52327872819E+03  0.52327872819E+03  0.00000000000E+00 0. -1.
         21   -1    0    0  501  502 -0.00000000000E+00 -0.00000000000E+00 -0.11950792154E+03  0.11950792154E+03  0.00000000000E+00 0. -1.
         25    1    1    2    0    0  0.30405487871E+02  0.42740203599E+01 -0.22919948094E+01  0.12873621939E+03  0.12500000000E+03 0.  0.
         25    1    1    2    0    0  0.71416007726E+02  0.37304786201E+02  0.19206753569E+03  0.24291321804E+03  0.12500000000E+03 0.  0.
         25    1    1    2    0    0 -0.10182149560E+03 -0.41578806561E+02  0.21399526577E+03  0.27113721230E+03  0.12500000000E+03 0.  0.
</event>
<event>
 5    0  0.5691975E-005  0.5233107E+03  0.7546771E-02  0.1007867E+00
         21   -1    0    0  502  501  0.00000000000E+00  0.00000000000E+00  0.12095470020E+04  0.12095470020E+04  0.00000000000E+00 0. -1.
         21   -1    0    0  501  502 -0.00000000000E+00 -0.00000000000E+00 -0.22641046864E+03  0.22641046864E+03  0.00000000000E+00 0. -1.
         25    1    1    2    0    0 -0.17872690973E+03  0.12862064720E+03  0.20539804612E+03  0.32603671036E+03  0.12500000000E+03 0.  0.
         25    1    1    2    0    0 -0.24984555498E+02 -0.19499133618E+03 -0.56392428423E+02  0.23968928884E+03  0.12500000000E+03 0.  0.
         25    1    1    2    0    0  0.20371146523E+03  0.66370688981E+02  0.83413091562E+03  0.87023147140E+03  0.12500000000E+03 0.  0.
</event>
<event>
 5    0  0.5691975E-005  0.3611947E+03  0.7546771E-02  0.1058112E+00
         21   -1    0    0  502  501  0.00000000000E+00  0.00000000000E+00  0.12371061768E+04  0.12371061768E+04  0.00000000000E+00 0. -1.
         21   -1    0    0  501  502 -0.00000000000E+00 -0.00000000000E+00 -0.10545710562E+03  0.10545710562E+03  0.00000000000E+00 0. -1.
         25    1    1    2    0    0  0.76522284529E+02 -0.30767216937E+02  0.12456117661E+03  0.19478903559E+03  0.12500000000E+03 0.  0.
         25    1    1    2    0    0 -0.23864212940E+03  0.94038124944E+02  0.80170401893E+03  0.85096860626E+03  0.12500000000E+03 0.  0.
         25    1    1    2    0    0  0.16211984487E+03 -0.63270908007E+02  0.20538387560E+03  0.29680564054E+03  0.12500000000E+03 0.  0.
</event>
<event>
 5    0  0.5691975E-005  0.2342832E+03  0.7546771E-02  0.1123661E+00
         21   -1    0    0  502  501  0.00000000000E+00  0.00000000000E+00  0.51631178467E+02  0.51631178467E+02  0.00000000000E+00 0.  1.
         21   -1    0    0  501  502 -0.00000000000E+00 -0.00000000000E+00 -0.10630901917E+04  0.10630901917E+04  0.00000000000E+00 0.  1.
         25    1    1    2    0    0 -0.13497226257E+02  0.12858478117E+02 -0.14609788199E+03  0.19317636164E+03  0.12500000000E+03 0.  0.
         25    1    1    2    0    0  0.71532734997E+02  0.65371815759E+02 -0.41515164332E+03  0.44425926374E+03  0.12500000000E+03 0.  0.
         25    1    1    2    0    0 -0.58035508740E+02 -0.78230293876E+02 -0.45020948797E+03  0.47728574482E+03  0.12500000000E+03 0.  0.
</event>
<event>
 5    0  0.5691975E-005  0.2998252E+03  0.7546771E-02  0.1085328E+00
         21   -1    0    0  502  501  0.00000000000E+00  0.00000000000E+00  0.11548386557E+03  0.11548386557E+03  0.00000000000E+00 0. -1.
         21   -1    0    0  501  502 -0.00000000000E+00 -0.00000000000E+00 -0.77842174818E+03  0.77842174818E+03  0.00000000000E+00 0. -1.
         25    1    1    2    0    0 -0.66635704747E+01 -0.32587738664E+02 -0.21189858459E+03  0.24825868371E+03  0.12500000000E+03 0.  0.
         25    1    1    2    0    0  0.12541607056E+03  0.15077845828E+03 -0.14181478905E+03  0.27239634475E+03  0.12500000000E+03 0.  0.
         25    1    1    2    0    0 -0.11875250009E+03 -0.11819071962E+03 -0.30922450897E+03  0.37325058530E+03  0.12500000000E+03 0.  0.
</event>
<event>
 5    0  0.5691975E-005  0.3437988E+03  0.7546771E-02  0.1065189E+00
         21   -1    0    0  502  501  0.00000000000E+00  0.00000000000E+00  0.13825545453E+03  0.13825545453E+03  0.00000000000E+00 0.  1.
         21   -1    0    0  501  502 -0.00000000000E+00 -0.00000000000E+00 -0.85492174481E+03  0.85492174481E+03  0.00000000000E+00 0.  1.
         25    1    1    2    0    0  0.38968252169E+02 -0.24670876164E+02 -0.10987185789E+03  0.17269627085E+03  0.12500000000E+03 0.  0.
         25    1    1    2    0    0  0.22313080158E+03  0.25490183944E+02 -0.33939059354E+03  0.42573240313E+03  0.12500000000E+03 0.  0.
         25    1    1    2    0    0 -0.26209905375E+03 -0.81930778042E+00 -0.26740383885E+03  0.39474852536E+03  0.12500000000E+03 0.  0.
</event>
<event>
 5    0  0.5691975E-005  0.3585237E+03  0.7546771E-02  0.1059170E+00
         21   -1    0    0  502  501  0.00000000000E+00  0.00000000000E+00  0.30415494617E+03  0.30415494617E+03  0.00000000000E+00 0. -1.
         21   -1    0    0  501  502 -0.00000000000E+00 -0.00000000000E+00 -0.42261106373E+03  0.42261106373E+03  0.00000000000E+00 0. -1.
         25    1    1    2    0    0 -0.13277083092E+03  0.49861350747E+02  0.26044576359E+02  0.19083387487E+03  0.12500000000E+03 0.  0.
         25    1    1    2    0    0  0.22513444751E+03  0.10590292208E+03 -0.14909795773E+03  0.31584196897E+03  0.12500000000E+03 0.  0.
         25    1    1    2    0    0 -0.92363616598E+02 -0.15576427283E+03  0.45972638073E+01  0.22009016606E+03  0.12500000000E+03 0.  0.
</event>
<event>
 5    0  0.5691975E-005  0.3014737E+03  0.7546771E-02  0.1084506E+00
         21   -1    0    0  502  501  0.00000000000E+00  0.00000000000E+00  0.83771610065E+02  0.83771610065E+02  0.00000000000E+00 0.  1.
         21   -1    0    0  501  502 -0.00000000000E+00 -0.00000000000E+00 -0.10849310131E+04  0.10849310131E+04  0.00000000000E+00 0.  1.
         25    1    1    2    0    0  0.28429745624E+02 -0.31200493718E+02 -0.65509160610E+03  0.66824526458E+03  0.12500000000E+03 0.  0.
         25    1    1    2    0    0 -0.82321939309E+02 -0.93849269666E+02 -0.17116760635E+03  0.24598361037E+03  0.12500000000E+03 0.  0.
         25    1    1    2    0    0  0.53892193685E+02  0.12504976338E+03 -0.17490019058E+03  0.25447374821E+03  0.12500000000E+03 0.  0.
</event>
<event>
 5    0  0.5691975E-005  0.5626146E+03  0.7546771E-02  0.9986156E-01
         21   -1    0    0  502  501  0.00000000000E+00  0.00000000000E+00  0.47281321983E+03  0.47281321983E+03  0.00000000000E+00 0.  1.
         21   -1    0    0  501  502 -0.00000000000E+00 -0.00000000000E+00 -0.66947195944E+03  0.66947195944E+03  0.00000000000E+00 0.  1.
         25    1    1    2    0    0 -0.33918437123E+02  0.84166240446E+02 -0.11762410522E+03  0.19415160709E+03  0.12500000000E+03 0.  0.
         25    1    1    2    0    0 -0.30435327904E+03 -0.31018010425E+03  0.13478509825E+03  0.47184175128E+03  0.12500000000E+03 0.  0.
         25    1    1    2    0    0  0.33827171616E+03  0.22601386380E+03 -0.21381973265E+03  0.47629182090E+03  0.12500000000E+03 0.  0.
</event>
<event>
 5    0  0.5691975E-005  0.2642781E+03  0.7546771E-02  0.1104600E+00
         21   -1    0    0  502  501  0.00000000000E+00  0.00000000000E+00  0.11498033840E+03  0.11498033840E+03  0.00000000000E+00 0.  1.
         21   -1    0    0  501  502 -0.00000000000E+00 -0.00000000000E+00 -0.60743371181E+03  0.60743371181E+03  0.00000000000E+00 0.  1.
         25    1    1    2    0    0  0.71743455351E+02  0.26894509553E+02  0.50172803588E+01  0.14669904953E+03  0.12500000000E+03 0.  0.
         25    1    1    2    0    0 -0.47820518524E+02  0.85278956245E+01 -0.13661151194E+03  0.19143466820E+03  0.12500000000E+03 0.  0.
         25    1    1    2    0    0 -0.23922936828E+02 -0.35422405177E+02 -0.36085914182E+03  0.38428033248E+03  0.12500000000E+03 0.  0.
</event>
<event>
 5    0  0.5691975E-005  0.2814161E+03  0.7546771E-02  0.1094918E+00
         21   -1    0    0  502  501  0.00000000000E+00  0.00000000000E+00  0.13192920385E+03  0.13192920385E+03  0.00000000000E+00 0.  1.
         21   -1    0    0  501  502 -0.00000000000E+00 -0.00000000000E+00 -0.60028414162E+03  0.60028414162E+03  0.00000000000E+00 0.  1.
         25    1    1    2    0    0 -0.74876495946E+02  0.79448846484E+02 -0.32849350566E+03  0.36803748738E+03  0.12500000000E+03 0.  0.
         25    1    1    2    0    0  0.13279196287E+03 -0.12679746739E+02 -0.67882183450E+02  0.19500633890E+03  0.12500000000E+03 0.  0.
         25    1    1    2    0    0 -0.57915466924E+02 -0.66769099745E+02 -0.71979248657E+02  0.16916951920E+03  0.12500000000E+03 0.  0.
</event>
<event>
 5    0  0.5691975E-005  0.3339148E+03  0.7546771E-02  0.1069418E+00
         21   -1    0    0  502  501  0.00000000000E+00  0.00000000000E+00  0.20685461713E+03  0.20685461713E+03  0.00000000000E+00 0.  1.
         21   -1    0    0  501  502 -0.00000000000E+00 -0.00000000000E+00 -0.53902160285E+03  0.53902160285E+03  0.00000000000E+00 0.  1.
         25    1    1    2    0    0  0.69060509639E+02  0.30078403794E+02 -0.18297732806E+03  0.23405077857E+03  0.12500000000E+03 0.  0.
         25    1    1    2    0    0  0.16567455741E+03 -0.73020264367E+02 -0.59784036034E+02  0.22798936148E+03  0.12500000000E+03 0.  0.
         25    1    1    2    0    0 -0.23473506705E+03  0.42941860573E+02 -0.89405621625E+02  0.28383607993E+03  0.12500000000E+03 0.  0.
</event>
<event>
 5    0  0.5691975E-005  0.3601597E+03  0.7546771E-02  0.1058521E+00
         21   -1    0    0  502  501  0.00000000000E+00  0.00000000000E+00  0.30798299098E+03  0.30798299098E+03  0.00000000000E+00 0. -1.
         21   -1    0    0  501  502 -0.00000000000E+00 -0.00000000000E+00 -0.42117584289E+03  0.42117584289E+03  0.00000000000E+00 0. -1.
         25    1    1    2    0    0  0.45039925232E+02 -0.28244941003E+03 -0.97839581182E+02  0.32711442606E+03  0.12500000000E+03 0.  0.
         25    1    1    2    0    0  0.10767546460E+02  0.82135786309E+02 -0.47505183752E+02  0.15730216125E+03  0.12500000000E+03 0.  0.
         25    1    1    2    0    0 -0.55807471692E+02  0.20031362372E+03  0.32151913022E+02  0.24474224657E+03  0.12500000000E+03 0.  0.
</event>
<event>
 5    0  0.5691975E-005  0.3003971E+03  0.7546771E-02  0.1085042E+00
         21   -1    0    0  502  501  0.00000000000E+00  0.00000000000E+00  0.34685796996E+03  0.34685796996E+03  0.00000000000E+00 0. -1.
         21   -1    0    0  501  502 -0.00000000000E+00 -0.00000000000E+00 -0.26015962541E+03  0.26015962541E+03  0.00000000000E+00 0. -1.
         25    1    1    2    0    0 -0.29298232427E+02  0.18209168077E+03  0.17320954939E+03  0.28220969974E+03  0.12500000000E+03 0.  0.
         25    1    1    2    0    0  0.11676119729E+02 -0.83523672613E+02 -0.60853116034E+02  0.16260577293E+03  0.12500000000E+03 0.  0.
         25    1    1    2    0    0  0.17622112698E+02 -0.98568008157E+02 -0.25658088805E+02  0.16220212270E+03  0.12500000000E+03 0.  0.
</event>
<event>
 5    0  0.5691975E-005  0.4214459E+03  0.7546771E-02  0.1036597E+00
         21   -1    0    0  502  501  0.00000000000E+00  0.00000000000E+00  0.18528158160E+03  0.18528158160E+03  0.00000000000E+00 0.  1.
         21   -1    0    0  501  502 -0.00000000000E+00 -0.00000000000E+00 -0.95863067258E+03  0.95863067258E+03  0.00000000000E+00 0.  1.
         25    1    1    2    0    0 -0.15349280541E+03 -0.24722662648E+02 -0.41397478343E+02  0.20374003675E+03  0.12500000000E+03 0.  0.
         25    1    1    2    0    0  0.19151263294E+03 -0.13548842745E+03 -0.67542738144E+03  0.72585215447E+03  0.12500000000E+03 0.  0.
         25    1    1    2    0    0 -0.38019827526E+02  0.16021109010E+03 -0.56524231203E+02  0.21432006296E+03  0.12500000000E+03 0.  0.
</event>
<event>
 5    0  0.5691975E-005  0.4887508E+03  0.7546771E-02  0.1016758E+00
         21   -1    0    0  502  501  0.00000000000E+00  0.00000000000E+00  0.25259227207E+03  0.25259227207E+03  0.00000000000E+00 0.  1.
         21   -1    0    0  501  502 -0.00000000000E+00 -0.00000000000E+00 -0.94570336004E+03  0.94570336004E+03  0.00000000000E+00 0.  1.
         25    1    1    2    0    0  0.17915388339E+03  0.14078949728E+03 -0.22293325419E+03  0.34240623870E+03  0.12500000000E+03 0.  0.
         25    1    1    2    0    0  0.10733907187E+03  0.60553614922E+02  0.79154097703E+02  0.19255853087E+03  0.12500000000E+03 0.  0.
         25    1    1    2    0    0 -0.28649295526E+03 -0.20134311220E+03 -0.54933193148E+03  0.66333086254E+03  0.12500000000E+03 0.  0.
</event>
<event>
 5    0  0.5691975E-005  0.2234651E+03  0.7546771E-02  0.1131326E+00
         21   -1    0    0  502  501  0.00000000000E+00  0.00000000000E+00  0.60722900614E+02  0.60722900614E+02  0.00000000000E+00 0.  1.
         21   -1    0    0  501  502 -0.00000000000E+00 -0.00000000000E+00 -0.82236923275E+03  0.82236923275E+03  0.00000000000E+00 0.  1.
         25    1    1    2    0    0 -0.38877962233E+02  0.92029760503E+01 -0.42116861833E+03  0.44113965565E+03  0.12500000000E+03 0.  0.
         25    1    1    2    0    0 -0.30976024253E+02 -0.13898303220E+02 -0.21746143968E+03  0.25311490406E+03  0.12500000000E+03 0.  0.
         25    1    1    2    0    0  0.69853986485E+02  0.46953271693E+01 -0.12301627413E+03  0.18883757366E+03  0.12500000000E+03 0.  0.
</event>
<event>
 5    0  0.5691975E-005  0.3082514E+03  0.7546771E-02  0.1081187E+00
         21   -1    0    0  502  501  0.00000000000E+00  0.00000000000E+00  0.24567411625E+03  0.24567411625E+03  0.00000000000E+00 0. -1.
         21   -1    0    0  501  502 -0.00000000000E+00 -0.00000000000E+00 -0.38676807710E+03  0.38676807710E+03  0.00000000000E+00 0. -1.
         25    1    1    2    0    0 -0.12003317943E+02 -0.70351529752E+02  0.11575850040E+03  0.18471179658E+03  0.12500000000E+03 0.  0.
         25    1    1    2    0    0 -0.11424900475E+03  0.74001668814E+02 -0.16473427656E+03  0.24757112907E+03  0.12500000000E+03 0.  0.
         25    1    1    2    0    0  0.12625232269E+03 -0.36501390614E+01 -0.92118184678E+02  0.20015926771E+03  0.12500000000E+03 0.  0.
</event>
<event>
 5    0  0.5691975E-005  0.3895423E+03  0.7546771E-02  0.1047462E+00
         21   -1    0    0  502  501  0.00000000000E+00  0.00000000000E+00  0.75090147393E+03  0.75090147393E+03  0.00000000000E+00 0. -1.
         21   -1    0    0  501  502 -0.00000000000E+00 -0.00000000000E+00 -0.20208132772E+03  0.20208132772E+03  0.00000000000E+00 0. -1.
         25    1    1    2    0    0  0.14451562996E+03 -0.90625976271E+02  0.10167666652E+03  0.23465076047E+03  0.12500000000E+03 0.  0.
         25    1    1    2    0    0 -0.18534314239E+03  0.26279723275E+03  0.25939684317E+03  0.43165517281E+03  0.12500000000E+03 0.  0.
         25    1    1    2    0    0  0.40827512435E+02 -0.17217125648E+03  0.18774663652E+03  0.28667686836E+03  0.12500000000E+03 0.  0.
</event>
<event>
 5    0  0.5691975E-005  0.3237170E+03  0.7546771E-02  0.1073951E+00
         21   -1    0    0  502  501  0.00000000000E+00  0.00000000000E+00  0.41547770451E+03  0.41547770451E+03  0.00000000000E+00 0.  1.
         21   -1    0    0  501  502 -0.00000000000E+00 -0.00000000000E+00 -0.25222222761E+03  0.25222222761E+03  0.00000000000E+00 0.  1.
         25    1    1    2    0    0  0.33804542493E+02  0.90245468084E+02 -0.79102967979E+02  0.17654821196E+03  0.12500000000E+03 0.  0.
         25    1    1    2    0    0  0.71317589615E+02  0.28824647299E+02 -0.32156241405E+02  0.15025339511E+03  0.12500000000E+03 0.  0.
         25    1    1    2    0    0 -0.10512213211E+03 -0.11907011538E+03  0.27451468629E+03  0.34089832505E+03  0.12500000000E+03 0.  0.
</event>
<event>
 5    0  0.5691975E-005  0.2593131E+03  0.7546771E-02  0.1107557E+00
         21   -1    0    0  502  501  0.00000000000E+00  0.00000000000E+00  0.53997647407E+03  0.53997647407E+03  0.00000000000E+00 0.  1.
         21   -1    0    0  501  502 -0.00000000000E+00 -0.00000000000E+00 -0.12453002125E+03  0.12453002125E+03  0.00000000000E+00 0.  1.
         25    1    1    2    0    0 -0.65745922558E+02 -0.10457557364E+02  0.11479050605E+03  0.18230125375E+03  0.12500000000E+03 0.  0.
         25    1    1    2    0    0  0.97015885464E+02 -0.10872318413E+03  0.10300672247E+03  0.21787197542E+03  0.12500000000E+03 0.  0.
         25    1    1    2    0    0 -0.31269962906E+02  0.11918074150E+03  0.19764922431E+03  0.26433326615E+03  0.12500000000E+03 0.  0.
</event>
<event>
 5    0  0.5691975E-005  0.2092746E+03  0.7546771E-02  0.1142142E+00
         21   -1    0    0  502  501  0.00000000000E+00  0.00000000000E+00  0.71970568344E+03  0.71970568344E+03  0.00000000000E+00 0. -1.
         21   -1    0    0  501  502 -0.00000000000E+00 -0.00000000000E+00 -0.60852477038E+02  0.60852477038E+02  0.00000000000E+00 0. -1.
         25    1    1    2    0    0 -0.28669669498E+02  0.63821170399E+02  0.19789442415E+03  0.24429960059E+03  0.12500000000E+03 0.  0.
         25    1    1    2    0    0  0.29193925219E+02  0.94826395048E+01  0.20236699872E+03  0.23983245796E+03  0.12500000000E+03 0.  0.
         25    1    1    2    0    0 -0.52425572109E+00 -0.73303809904E+02  0.25859178354E+03  0.29642610193E+03  0.12500000000E+03 0.  0.
</event>
<event>
 5    0  0.5691975E-005  0.2371134E+03  0.7546771E-02  0.1121731E+00
         21   -1    0    0  502  501  0.00000000000E+00  0.00000000000E+00  0.35575980239E+03  0.35575980239E+03  0.00000000000E+00 0.  1.
         21   -1    0    0  501  502 -0.00000000000E+00 -0.00000000000E+00 -0.15803569795E+03  0.15803569795E+03  0.00000000000E+00 0.  1.
         25    1    1    2    0    0  0.84263930965E+02  0.92774480780E+02  0.44010281384E+02  0.18239906582E+03  0.12500000000E+03 0.  0.
         25    1    1    2    0    0 -0.73016014473E+02 -0.66357494250E+02  0.11818497454E+03  0.19831122918E+03  0.12500000000E+03 0.  0.
         25    1    1    2    0    0 -0.11247916493E+02 -0.26416986530E+02  0.35528848519E+02  0.13308520534E+03  0.12500000000E+03 0.  0.
</event>
<event>
 5    0  0.6385872E-005  0.3027306E+03  0.7546771E-02  0.1083884E+00
         21   -1    0    0  502  501  0.00000000000E+00  0.00000000000E+00  0.23921726635E+03  0.23921726635E+03  0.00000000000E+00 0. -1.
         21   -1    0    0  501  502 -0.00000000000E+00 -0.00000000000E+00 -0.38310690319E+03  0.38310690319E+03  0.00000000000E+00 0. -1.
         25    1    1    2    0    0 -0.10554257349E+02 -0.12579926456E+03 -0.72634974202E+02  0.19193146378E+03  0.12500000000E+03 0.  0.
         25    1    1    2    0    0 -0.12608944939E+03  0.14214981298E+03  0.96295401236E+01  0.22764631915E+03  0.12500000000E+03 0.  0.
         25    1    1    2    0    0  0.13664370674E+03 -0.16350548419E+02 -0.80884202766E+02  0.20274638661E+03  0.12500000000E+03 0.  0.
</event>
<event>
 5    0  0.5691975E-005  0.2604311E+03  0.7546771E-02  0.1106885E+00
         21   -1    0    0  502  501  0.00000000000E+00  0.00000000000E+00  0.71159473845E+03  0.71159473845E+03  0.00000000000E+00 0.  1.
         21   -1    0    0  501  502 -0.00000000000E+00 -0.00000000000E+00 -0.95313166473E+02  0.95313166473E+02  0.00000000000E+00 0.  1.
         25    1    1    2    0    0 -0.44819314401E+02  0.10205383669E+03  0.36504761503E+03  0.40163231664E+03  0.12500000000E+03 0.  0.
         25    1    1    2    0    0  0.29277849449E+02  0.33249911697E+02  0.11654138081E+03  0.17654926377E+03  0.12500000000E+03 0.  0.
         25    1    1    2    0    0  0.15541464951E+02 -0.13530374839E+03  0.13469257614E+03  0.22872632452E+03  0.12500000000E+03 0.  0.
</event>
<event>
 5    0  0.5691975E-005  0.1941533E+03  0.7546771E-02  0.1154768E+00
         21   -1    0    0  502  501  0.00000000000E+00  0.00000000000E+00  0.23427132310E+03  0.23427132310E+03  0.00000000000E+00 0. -1.
         21   -1    0    0  501  502 -0.00000000000E+00 -0.00000000000E+00 -0.16090539489E+03  0.16090539489E+03  0.00000000000E+00 0. -1.
         25    1    1    2    0    0  0.29763116605E+02  0.21041489550E+02  0.38424636795E+01  0.13026262672E+03  0.12500000000E+03 0.  0.
         25    1    1    2    0    0 -0.12321130426E+02 -0.21480423879E+01  0.52552067534E+02  0.13617321375E+03  0.12500000000E+03 0.  0.
         25    1    1    2    0    0 -0.17441986179E+02 -0.18893447162E+02  0.16971396996E+02  0.12874087752E+03  0.12500000000E+03 0.  0.
</event>
<event>
 5    0  0.5691975E-005  0.4977434E+03  0.7546771E-02  0.1014370E+00
         21   -1    0    0  502  501  0.00000000000E+00  0.00000000000E+00  0.53119014319E+03  0.53119014319E+03  0.00000000000E+00 0. -1.
         21   -1    0    0  501  502 -0.00000000000E+00 -0.00000000000E+00 -0.46640256431E+03  0.46640256431E+03  0.00000000000E+00 0. -1.
         25    1    1    2    0    0  0.41160501382E+03  0.10953643960E+03  0.15741810198E+03  0.47098023083E+03  0.12500000000E+03 0.  0.
         25    1    1    2    0    0 -0.20665674457E+03 -0.28455695735E+01  0.16601862294E+02  0.24210685487E+03  0.12500000000E+03 0.  0.
         25    1    1    2    0    0 -0.20494826925E+03 -0.10669087003E+03 -0.10923238539E+03  0.28450562180E+03  0.12500000000E+03 0.  0.
</event>
<event>
 5    0  0.5691975E-005  0.2901874E+03  0.7546771E-02  0.1090251E+00
         21   -1    0    0  502  501  0.00000000000E+00  0.00000000000E+00  0.77206768595E+02  0.77206768595E+02  0.00000000000E+00 0.  1.
         21   -1    0    0  501  502 -0.00000000000E+00 -0.00000000000E+00 -0.10906908049E+04  0.10906908049E+04  0.00000000000E+00 0.  1.
         25    1    1    2    0    0  0.44962511582E+02  0.96623875391E+02 -0.33288267239E+03  0.37120570352E+03  0.12500000000E+03 0.  0.
         25    1    1    2    0    0  0.28081743493E+02 -0.55091273107E+02 -0.49682243385E+02  0.14804377055E+03  0.12500000000E+03 0.  0.
         25    1    1    2    0    0 -0.73044255074E+02 -0.41532602284E+02 -0.63091912056E+03  0.64864809946E+03  0.12500000000E+03 0.  0.
</event>
<event>
 5    0  0.5691975E-005  0.2322766E+03  0.7546771E-02  0.1125048E+00
         21   -1    0    0  502  501  0.00000000000E+00  0.00000000000E+00  0.30467358320E+03  0.30467358320E+03  0.00000000000E+00 0. -1.
         21   -1    0    0  501  502 -0.00000000000E+00 -0.00000000000E+00 -0.17708265433E+03  0.17708265433E+03  0.00000000000E+00 0. -1.
         25    1    1    2    0    0  0.42225220595E+02  0.56273964301E+02  0.54996836715E+02  0.15362089819E+03  0.12500000000E+03 0.  0.
         25    1    1    2    0    0 -0.60547551712E+02  0.55214522063E+02  0.52640590443E+02  0.15846350125E+03  0.12500000000E+03 0.  0.
         25    1    1    2    0    0  0.18322331117E+02 -0.11148848636E+03  0.19953501713E+02  0.16967183809E+03  0.12500000000E+03 0.  0.
</event>
<event>
 5    0  0.5691975E-005  0.2976430E+03  0.7546771E-02  0.1086425E+00
         21   -1    0    0  502  501  0.00000000000E+00  0.00000000000E+00  0.80225177954E+02  0.80225177954E+02  0.00000000000E+00 0. -1.
         21   -1    0    0  501  502 -0.00000000000E+00 -0.00000000000E+00 -0.11042839898E+04  0.11042839898E+04  0.00000000000E+00 0. -1.
         25    1    1    2    0    0 -0.87673440676E+01 -0.64819498615E+02 -0.33391450648E+03  0.36249459494E+03  0.12500000000E+03 0.  0.
         25    1    1    2    0    0  0.12742211826E+03 -0.55720778037E+02 -0.51639746592E+03  0.54921083760E+03  0.12500000000E+03 0.  0.
         25    1    1    2    0    0 -0.11865477420E+03  0.12054027665E+03 -0.17374683947E+03  0.27280373524E+03  0.12500000000E+03 0.  0.
</event>
<event>
 5    0  0.5940675E-005  0.2991698E+03  0.7546771E-02  0.1085656E+00
         21   -1    0    0  502  501  0.00000000000E+00  0.00000000000E+00  0.12656693482E+03  0.12656693482E+03  0.00000000000E+00 0.  1.
         21   -1    0    0  501  502 -0.00000000000E+00 -0.00000000000E+00 -0.70715583740E+03  0.70715583740E+03  0.00000000000E+00 0.  1.
         25    1    1    2    0    0 -0.85156622821E+02  0.99677055839E+02 -0.14077922217E+03  0.22941437459E+03  0.12500000000E+03 0.  0.
         25    1    1    2    0    0 -0.28612893714E+02 -0.18498821866E+03 -0.24148356192E+03  0.33011914426E+03  0.12500000000E+03 0.  0.
         25    1    1    2    0    0  0.11376951654E+03  0.85311162820E+02 -0.19832611848E+03  0.27418925337E+03  0.12500000000E+03 0.  0.
</event>
<event>
 5    0  0.6554634E-005  0.3557524E+03  0.7546771E-02  0.1060278E+00
         21   -1    0    0  502  501  0.00000000000E+00  0.00000000000E+00  0.28249981340E+03  0.28249981340E+03  0.00000000000E+00 0.  1.
         21   -1    0    0  501  502 -0.00000000000E+00 -0.00000000000E+00 -0.44799959925E+03  0.44799959925E+03  0.00000000000E+00 0.  1.
         25    1    1    2    0    0 -0.13676512157E+03  0.13267080659E+03  0.12116786488E+03  0.25809473625E+03  0.12500000000E+03 0.  0.
         25    1    1    2    0    0  0.17755229392E+03 -0.74291179365E+02 -0.15142000807E+03  0.27494911393E+03  0.12500000000E+03 0.  0.
         25    1    1    2    0    0 -0.40787172355E+02 -0.58379627227E+02 -0.13524764267E+03  0.19745556247E+03  0.12500000000E+03 0.  0.
</event>
<event>
 5    0  0.5691975E-005  0.3286757E+03  0.7546771E-02  0.1071724E+00
         21   -1    0    0  502  501  0.00000000000E+00  0.00000000000E+00  0.14632812432E+03  0.14632812432E+03  0.00000000000E+00 0.  1.
         21   -1    0    0  501  502 -0.00000000000E+00 -0.00000000000E+00 -0.73825685025E+03  0.73825685025E+03  0.00000000000E+00 0.  1.
         25    1    1    2    0    0 -0.78189849178E+02  0.97062655339E+02 -0.69012056918E+02  0.18953225471E+03  0.12500000000E+03 0.  0.
         25    1    1    2    0    0  0.80885623784E+02 -0.19672891219E+03 -0.46237815649E+03  0.52408330313E+03  0.12500000000E+03 0.  0.
         25    1    1    2    0    0 -0.26957746058E+01  0.99666256848E+02 -0.60538512528E+02  0.17096941672E+03  0.12500000000E+03 0.  0.
</event>
<event>
 5    0  0.5691975E-005  0.3360872E+03  0.7546771E-02  0.1068475E+00
         21   -1    0    0  502  501  0.00000000000E+00  0.00000000000E+00  0.10075698684E+04  0.10075698684E+04  0.00000000000E+00 0.  1.
         21   -1    0    0  501  502 -0.00000000000E+00 -0.00000000000E+00 -0.11210599412E+03  0.11210599412E+03  0.00000000000E+00 0.  1.
         25    1    1    2    0    0 -0.17728829141E+03 -0.18315616249E+03  0.47717079505E+03  0.55524254680E+03  0.12500000000E+03 0.  0.
         25    1    1    2    0    0  0.12439343523E+03  0.38366087203E+02  0.19557490623E+03  0.26612070067E+03  0.12500000000E+03 0.  0.
         25    1    1    2    0    0  0.52894856185E+02  0.14479007529E+03  0.22271817295E+03  0.29831261502E+03  0.12500000000E+03 0.  0.
</event>
<event>
 5    0  0.5691975E-005  0.3101172E+03  0.7546771E-02  0.1080290E+00
         21   -1    0    0  502  501  0.00000000000E+00  0.00000000000E+00  0.32311385552E+02  0.32311385552E+02  0.00000000000E+00 0. -1.
         21   -1    0    0  501  502 -0.00000000000E+00 -0.00000000000E+00 -0.29764331835E+04  0.29764331835E+04  0.00000000000E+00 0. -1.
         25    1    1    2    0    0 -0.55282533419E+02  0.95683503184E+02 -0.10323490355E+04  0.10457442433E+04  0.12500000000E+03 0.  0.
         25    1    1    2    0    0  0.15536738450E+03 -0.16188198106E+03 -0.13803293250E+04  0.14040223807E+04  0.12500000000E+03 0.  0.
         25    1    1    2    0    0 -0.10008485108E+03  0.66198477879E+02 -0.53144343742E+03  0.55897794507E+03  0.12500000000E+03 0.  0.
</event>
<event>
 5    0  0.6490861E-005  0.3469000E+03  0.7546771E-02  0.1063895E+00
         21   -1    0    0  502  501  0.00000000000E+00  0.00000000000E+00  0.72720316287E+03  0.72720316287E+03  0.00000000000E+00 0.  1.
         21   -1    0    0  501  502 -0.00000000000E+00 -0.00000000000E+00 -0.16548276102E+03  0.16548276102E+03  0.00000000000E+00 0.  1.
         25    1    1    2    0    0  0.73107731203E+02 -0.95158058591E+02 -0.16674443825E+02  0.17407709083E+03  0.12500000000E+03 0.  0.
         25    1    1    2    0    0 -0.16524644910E+03  0.15280496575E+03  0.30704415704E+03  0.40069547149E+03  0.12500000000E+03 0.  0.
         25    1    1    2    0    0  0.92138717894E+02 -0.57646907156E+02  0.27135068864E+03  0.31791336157E+03  0.12500000000E+03 0.  0.
</event>
<event>
 5    0  0.5691975E-005  0.2504220E+03  0.7546771E-02  0.1113038E+00
         21   -1    0    0  502  501  0.00000000000E+00  0.00000000000E+00  0.96377837178E+02  0.96377837178E+02  0.00000000000E+00 0.  1.
         21   -1    0    0  501  502 -0.00000000000E+00 -0.00000000000E+00 -0.65068071766E+03  0.65068071766E+03  0.00000000000E+00 0.  1.
         25    1    1    2    0    0 -0.33583223289E+02  0.37342646921E+02 -0.11013706537E+03  0.17400425091E+03  0.12500000000E+03 0.  0.
         25    1    1    2    0    0  0.12959489751E+03 -0.15377705850E+01 -0.32742860433E+03  0.37367324380E+03  0.12500000000E+03 0.  0.
         25    1    1    2    0    0 -0.96011674223E+02 -0.35804876337E+02 -0.11673721078E+03  0.19938106013E+03  0.12500000000E+03 0.  0.
</event>
<event>
 5    0  0.5691975E-005  0.4492543E+03  0.7546771E-02  0.1027945E+00
         21   -1    0    0  502  501  0.00000000000E+00  0.00000000000E+00  0.27926631167E+03  0.27926631167E+03  0.00000000000E+00 0. -1.
         21   -1    0    0  501  502 -0.00000000000E+00 -0.00000000000E+00 -0.72271318460E+03  0.72271318460E+03  0.00000000000E+00 0. -1.
         25    1    1    2    0    0 -0.25023883656E+03  0.23449510240E+03  0.34938780321E+01  0.36502689703E+03  0.12500000000E+03 0.  0.
         25    1    1    2    0    0  0.71127641860E+02 -0.98807137033E+02 -0.88028185051E+02  0.19543784979E+03  0.12500000000E+03 0.  0.
         25    1    1    2    0    0  0.17911119470E+03 -0.13568796537E+03 -0.35891256592E+03  0.44151474945E+03  0.12500000000E+03 0.  0.
</event>
<event>
 5    0  0.5691975E-005  0.3308786E+03  0.7546771E-02  0.1070749E+00
         21   -1    0    0  502  501  0.00000000000E+00  0.00000000000E+00  0.11482066561E+04  0.11482066561E+04  0.00000000000E+00 0.  1.
         21   -1    0    0  501  502 -0.00000000000E+00 -0.00000000000E+00 -0.95349269646E+02  0.95349269646E+02  0.00000000000E+00 0.  1.
         25    1    1    2    0    0  0.12651739559E+02  0.17677035382E+03  0.79754747956E+03  0.82650759625E+03  0.12500000000E+03 0.  0.
         25    1    1    2    0    0 -0.20842733353E+02 -0.71005637801E+02  0.48515315200E+02  0.15315010918E+03  0.12500000000E+03 0.  0.
         25    1    1    2    0    0  0.81909937938E+01 -0.10576471602E+03  0.20679459170E+03  0.26389822032E+03  0.12500000000E+03 0.  0.
</event>
<event>
 5    0  0.5691975E-005  0.4432037E+03  0.7546771E-02  0.1029768E+00
         21   -1    0    0  502  501  0.00000000000E+00  0.00000000000E+00  0.12303788787E+04  0.12303788787E+04  0.00000000000E+00 0. -1.
         21   -1    0    0  501  502 -0.00000000000E+00 -0.00000000000E+00 -0.15964960019E+03  0.15964960019E+03  0.00000000000E+00 0. -1.
         25    1    1    2    0    0 -0.15536431119E+03  0.14260330772E+03  0.68488690053E+03  0.72743992129E+03  0.12500000000E+03 0.  0.
         25    1    1    2    0    0  0.15121630189E+03 -0.28208380806E+03  0.30153798474E+03  0.45715183579E+03  0.12500000000E+03 0.  0.
         25    1    1    2    0    0  0.41480093086E+01  0.13948050035E+03  0.84304393288E+02  0.20543672185E+03  0.12500000000E+03 0.  0.
</event>
<event>
 5    0  0.5691975E-005  0.2907093E+03  0.7546771E-02  0.1089979E+00
         21   -1    0    0  502  501  0.00000000000E+00  0.00000000000E+00  0.63993342156E+03  0.63993342156E+03  0.00000000000E+00 0.  1.
         21   -1    0    0  501  502 -0.00000000000E+00 -0.00000000000E+00 -0.13206358262E+03  0.13206358262E+03  0.00000000000E+00 0.  1.
         25    1    1    2    0    0 -0.82667622833E+01 -0.12773279428E+03  0.56734465535E+02  0.18769071813E+03  0.12500000000E+03 0.  0.
         25    1    1    2    0    0 -0.51065565988E+02  0.90887777480E+02  0.40069673876E+03  0.43249411161E+03  0.12500000000E+03 0.  0.
         25    1    1    2    0    0  0.59332328271E+02  0.36845016799E+02  0.50438634648E+02  0.15181217443E+03  0.12500000000E+03 0.  0.
</event>
<event>
 5    0  0.5691975E-005  0.3588088E+03  0.7546771E-02  0.1059057E+00
         21   -1    0    0  502  501  0.00000000000E+00  0.00000000000E+00  0.13429938239E+03  0.13429938239E+03  0.00000000000E+00 0. -1.
         21   -1    0    0  501  502 -0.00000000000E+00 -0.00000000000E+00 -0.95863230981E+03  0.95863230981E+03  0.00000000000E+00 0. -1.
         25    1    1    2    0    0 -0.16073735951E+03  0.39989821221E+02 -0.41831549410E+03  0.46695667588E+03  0.12500000000E+03 0.  0.
         25    1    1    2    0    0  0.13066376973E+03 -0.18834090953E+03 -0.31628334601E+03  0.41012860652E+03  0.12500000000E+03 0.  0.
         25    1    1    2    0    0  0.30073589773E+02  0.14835108830E+03 -0.89734087305E+02  0.21584640981E+03  0.12500000000E+03 0.  0.
</event>
<event>
 5    0  0.5691975E-005  0.3422382E+03  0.7546771E-02  0.1065847E+00
         21   -1    0    0  502  501  0.00000000000E+00  0.00000000000E+00  0.25259999136E+03  0.25259999136E+03  0.00000000000E+00 0. -1.
         21   -1    0    0  501  502 -0.00000000000E+00 -0.00000000000E+00 -0.46368565095E+03  0.46368565095E+03  0.00000000000E+00 0. -1.
         25    1    1    2    0    0 -0.32212332397E+02  0.95832551373E+02 -0.21778569844E+03  0.27069747451E+03  0.12500000000E+03 0.  0.
         25    1    1    2    0    0  0.68517638952E+02  0.83707693241E+02 -0.10646196415E+03  0.19662348427E+03  0.12500000000E+03 0.  0.
         25    1    1    2    0    0 -0.36305306555E+02 -0.17954024461E+03  0.11316200300E+03  0.24896468353E+03  0.12500000000E+03 0.  0.
</event>
<event>
 5    0  0.5691975E-005  0.4665559E+03  0.7546771E-02  0.1022897E+00
         21   -1    0    0  502  501  0.00000000000E+00  0.00000000000E+00  0.99510145110E+03  0.99510145110E+03  0.00000000000E+00 0. -1.
         21   -1    0    0  501  502 -0.00000000000E+00 -0.00000000000E+00 -0.21874591095E+03  0.21874591095E+03  0.00000000000E+00 0. -1.
         25    1    1    2    0    0  0.83817987073E+02 -0.13127204085E+02  0.40912971668E+03  0.43613060374E+03  0.12500000000E+03 0.  0.
         25    1    1    2    0    0  0.81630783237E+02 -0.24603338635E+02 -0.15375447693E+03  0.21571821485E+03  0.12500000000E+03 0.  0.
         25    1    1    2    0    0 -0.16544877031E+03  0.37730542720E+02  0.52098030040E+03  0.56199854346E+03  0.12500000000E+03 0.  0.
</event>
<event>
 5    0  0.5691975E-005  0.2943850E+03  0.7546771E-02  0.1088082E+00
         21   -1    0    0  502  501  0.00000000000E+00  0.00000000000E+00  0.65966038698E+03  0.65966038698E+03  0.00000000000E+00 0. -1.
         21   -1    0    0  501  502 -0.00000000000E+00 -0.00000000000E+00 -0.13137445020E+03  0.13137445020E+03  0.00000000000E+00 0. -1.
         25    1    1    2    0    0 -0.97505184334E+02 -0.13736372879E+03  0.27821084070E+03  0.34842836687E+03  0.12500000000E+03 0.  0.
         25    1    1    2    0    0  0.10162920202E+03  0.16064322077E+03  0.20896957455E+03  0.30891426347E+03  0.12500000000E+03 0.  0.
         25    1    1    2    0    0 -0.41240176833E+01 -0.23279491982E+02  0.41105521532E+02  0.13369220684E+03  0.12500000000E+03 0.  0.
</event>
<event>
 5    0  0.5691975E-005  0.4505998E+03  0.7546771E-02  0.1027543E+00
         21   -1    0    0  502  501  0.00000000000E+00  0.00000000000E+00  0.31266841029E+03  0.31266841029E+03  0.00000000000E+00 0.  1.
         21   -1    0    0  501  502 -0.00000000000E+00 -0.00000000000E+00 -0.64937851316E+03  0.64937851316E+03  0.00000000000E+00 0.  1.
         25    1    1    2    0    0 -0.95205846687E+02 -0.16677465471E+03  0.58262341150E+02  0.23642639255E+03  0.12500000000E+03 0.  0.
         25    1    1    2    0    0  0.36901141933E+02  0.31968186642E+03 -0.38831504273E+03  0.51958806992E+03  0.12500000000E+03 0.  0.
         25    1    1    2    0    0  0.58304704755E+02 -0.15290721171E+03 -0.66574012831E+01  0.20603246099E+03  0.12500000000E+03 0.  0.
</event>
<event>
 5    0  0.5691975E-005  0.2818303E+03  0.7546771E-02  0.1094693E+00
         21   -1    0    0  502  501  0.00000000000E+00  0.00000000000E+00  0.96439790179E+03  0.96439790179E+03  0.00000000000E+00 0.  1.
         21   -1    0    0  501  502 -0.00000000000E+00 -0.00000000000E+00 -0.82360530091E+02  0.82360530091E+02  0.00000000000E+00 0.  1.
         25    1    1    2    0    0 -0.42288744220E+02 -0.10869434161E+03  0.66464128213E+02  0.18342649243E+03  0.12500000000E+03 0.  0.
         25    1    1    2    0    0  0.11311947712E+02  0.62298518654E+02  0.32280856229E+03  0.35190827424E+03  0.12500000000E+03 0.  0.
         25    1    1    2    0    0  0.30976796508E+02  0.46395822955E+02  0.49276468120E+03  0.51142366522E+03  0.12500000000E+03 0.  0.
</event>
<event>
 5    0  0.5691975E-005  0.3374564E+03  0.7546771E-02  0.1067884E+00
         21   -1    0    0  502  501  0.00000000000E+00  0.00000000000E+00  0.32762888860E+03  0.32762888860E+03  0.00000000000E+00 0. -1.
         21   -1    0    0  501  502 -0.00000000000E+00 -0.00000000000E+00 -0.34757861121E+03  0.34757861121E+03  0.00000000000E+00 0. -1.
         25    1    1    2    0    0 -0.14681431598E+03  0.15316177085E+02  0.19342004228E+03  0.27354221139E+03  0.12500000000E+03 0.  0.
         25    1    1    2    0    0  0.13387013738E+03 -0.49762180581E+02 -0.57104321417E+02  0.19820038300E+03  0.12500000000E+03 0.  0.
         25    1    1    2    0    0  0.12944178605E+02  0.34446003496E+02 -0.15626544347E+03  0.20346490543E+03  0.12500000000E+03 0.  0.
</event>
<event>
 5    0  0.5691975E-005  0.2477562E+03  0.7546771E-02  0.1114731E+00
         21   -1    0    0  502  501  0.00000000000E+00  0.00000000000E+00  0.30974902519E+03  0.30974902519E+03  0.00000000000E+00 0.  1.
         21   -1    0    0  501  502 -0.00000000000E+00 -0.00000000000E+00 -0.19817055462E+03  0.19817055462E+03  0.00000000000E+00 0.  1.
         25    1    1    2    0    0 -0.57367746221E+02 -0.41913042663E+02 -0.46101202136E+02  0.15099033840E+03  0.12500000000E+03 0.  0.
         25    1    1    2    0    0  0.18581574468E+01  0.98511347368E+02  0.13183173973E+03  0.20667013792E+03  0.12500000000E+03 0.  0.
         25    1    1    2    0    0  0.55509588774E+02 -0.56598304706E+02  0.25847932976E+02  0.15025910349E+03  0.12500000000E+03 0.  0.
</event>
<event>
 5    0  0.5691975E-005  0.5563031E+03  0.7546771E-02  0.1000045E+00
         21   -1    0    0  502  501  0.00000000000E+00  0.00000000000E+00  0.19439044581E+04  0.19439044581E+04  0.00000000000E+00 0.  1.
         21   -1    0    0  501  502 -0.00000000000E+00 -0.00000000000E+00 -0.15920181738E+03  0.15920181738E+03  0.00000000000E+00 0.  1.
         25    1    1    2    0    0 -0.13907849403E+03  0.34568269852E+03  0.14008193330E+04  0.14549086430E+04  0.12500000000E+03 0.  0.
         25    1    1    2    0    0  0.15572818473E+03 -0.22666865977E+03  0.36497311196E+03  0.47377243619E+03  0.12500000000E+03 0.  0.
         25    1    1    2    0    0 -0.16649690697E+02 -0.11901403876E+03  0.18910195765E+02  0.17442519636E+03  0.12500000000E+03 0.  0.
</event>
<event>
 5    0  0.5691975E-005  0.2341832E+03  0.7546771E-02  0.1123730E+00
         21   -1    0    0  502  501  0.00000000000E+00  0.00000000000E+00  0.15893534573E+04  0.15893534573E+04  0.00000000000E+00 0.  1.
         21   -1    0    0  501  502 -0.00000000000E+00 -0.00000000000E+00 -0.34505700348E+02  0.34505700348E+02  0.00000000000E+00 0.  1.
         25    1    1    2    0    0 -0.56503325111E+02  0.41942083690E+02  0.39022347664E+03  0.41575368411E+03  0.12500000000E+03 0.  0.
         25    1    1    2    0    0 -0.45852670009E+02 -0.48696443938E+02  0.35065091500E+03  0.37822595785E+03  0.12500000000E+03 0.  0.
         25    1    1    2    0    0  0.10235599512E+03  0.67543602478E+01  0.81397336531E+03  0.82987951569E+03  0.12500000000E+03 0.  0.
</event>
<event>
 5    0  0.5691975E-005  0.3727731E+03  0.7546771E-02  0.1053638E+00
         21   -1    0    0  502  501  0.00000000000E+00  0.00000000000E+00  0.13468100700E+03  0.13468100700E+03  0.00000000000E+00 0.  1.
         21   -1    0    0  501  502 -0.00000000000E+00 -0.00000000000E+00 -0.10317696140E+04  0.10317696140E+04  0.00000000000E+00 0.  1.
         25    1    1    2    0    0  0.35471597138E+02 -0.37283537606E+02 -0.15536253913E+03  0.20593886215E+03  0.12500000000E+03 0.  0.
         25    1    1    2    0    0 -0.29107688795E+03  0.28089663511E+02 -0.31562680194E+03  0.44806256483E+03  0.12500000000E+03 0.  0.
         25    1    1    2    0    0  0.25560529082E+03  0.91938740950E+01 -0.42609926592E+03  0.51244919400E+03  0.12500000000E+03 0.  0.
</event>
<event>
 5    0  0.5846136E-005  0.6876976E+03  0.7546771E-02  0.9738505E-01
         21   -1    0    0  502  501  0.00000000000E+00  0.00000000000E+00  0.26941549286E+03  0.26941549286E+03  0.00000000000E+00 0. -1.
         21   -1    0    0  501  502 -0.00000000000E+00 -0.00000000000E+00 -0.17553855087E+04  0.17553855087E+04  0.00000000000E+00 0. -1.
         25    1    1    2    0    0  0.24602325844E+03  0.37005460310E+03 -0.32394441472E+03  0.56394400147E+03  0.12500000000E+03 0.  0.
         25    1    1    2    0    0 -0.94225386084E+02 -0.23178105309E+03 -0.56360545089E+01  0.27974567926E+03  0.12500000000E+03 0.  0.
         25    1    1    2    0    0 -0.15179787235E+03 -0.13827355001E+03 -0.11563895466E+04  0.11811113208E+04  0.12500000000E+03 0.  0.
</event>
<event>
 5    0  0.5691975E-005  0.4455894E+03  0.7546771E-02  0.1029046E+00
         21   -1    0    0  502  501  0.00000000000E+00  0.00000000000E+00  0.10858377928E+03  0.10858377928E+03  0.00000000000E+00 0.  1.
         21   -1    0    0  501  502 -0.00000000000E+00 -0.00000000000E+00 -0.18285409468E+04  0.18285409468E+04  0.00000000000E+00 0.  1.
         25    1    1    2    0    0 -0.48645469806E+02 -0.59495236136E+02 -0.12240405557E+04  0.12328042614E+04  0.12500000000E+03 0.  0.
         25    1    1    2    0    0  0.12862135400E+02  0.24218779481E+03 -0.31056495363E+03  0.41339563726E+03  0.12500000000E+03 0.  0.
         25    1    1    2    0    0  0.35783334406E+02 -0.18269255867E+03 -0.18535165812E+03  0.29092482737E+03  0.12500000000E+03 0.  0.
</event>
<event>
 5    0  0.5691975E-005  0.2944641E+03  0.7546771E-02  0.1088041E+00
         21   -1    0    0  502  501  0.00000000000E+00  0.00000000000E+00  0.20203831845E+04  0.20203831845E+04  0.00000000000E+00 0. -1.
         21   -1    0    0  501  502 -0.00000000000E+00 -0.00000000000E+00 -0.42917148454E+02  0.42917148454E+02  0.00000000000E+00 0. -1.
         25    1    1    2    0    0  0.17968715480E+02  0.14528143517E+03  0.45354227630E+03  0.49270190434E+03  0.12500000000E+03 0.  0.
         25    1    1    2    0    0  0.64856342579E+02 -0.58565730417E+02  0.11303462044E+04  0.11405892476E+04  0.12500000000E+03 0.  0.
         25    1    1    2    0    0 -0.82825058059E+02 -0.86715704751E+02  0.39357755542E+03  0.43000918110E+03  0.12500000000E+03 0.  0.
</event>
<event>
 5    0  0.5691975E-005  0.3607720E+03  0.7546771E-02  0.1058279E+00
         21   -1    0    0  502  501  0.00000000000E+00  0.00000000000E+00  0.47335988489E+03  0.47335988489E+03  0.00000000000E+00 0.  1.
         21   -1    0    0  501  502 -0.00000000000E+00 -0.00000000000E+00 -0.27496291914E+03  0.27496291914E+03  0.00000000000E+00 0.  1.
         25    1    1    2    0    0 -0.17083072555E+03  0.43078415219E+02  0.15562580306E+03  0.26623913542E+03  0.12500000000E+03 0.  0.
         25    1    1    2    0    0  0.15794722855E+03  0.14393455685E+03 -0.19477749925E+02  0.24833216949E+03  0.12500000000E+03 0.  0.
         25    1    1    2    0    0  0.12883496997E+02 -0.18701297207E+03  0.62248912626E+02  0.23375149912E+03  0.12500000000E+03 0.  0.
</event>
<event>
 5    0  0.5691975E-005  0.3402292E+03  0.7546771E-02  0.1066698E+00
         21   -1    0    0  502  501  0.00000000000E+00  0.00000000000E+00  0.21355605229E+03  0.21355605229E+03  0.00000000000E+00 0. -1.
         21   -1    0    0  501  502 -0.00000000000E+00 -0.00000000000E+00 -0.54203985434E+03  0.54203985434E+03  0.00000000000E+00 0. -1.
         25    1    1    2    0    0 -0.23060645693E+02 -0.88521875286E+02 -0.29607395673E+03  0.33414473456E+03  0.12500000000E+03 0.  0.
         25    1    1    2    0    0  0.16972458580E+02  0.25991476998E+02 -0.17788796704E+03  0.21961955752E+03  0.12500000000E+03 0.  0.
         25    1    1    2    0    0  0.60881871131E+01  0.62530398287E+02  0.14547812172E+03  0.20183161455E+03  0.12500000000E+03 0.  0.
</event>
<event>
 5    0  0.5691975E-005  0.3699131E+03  0.7546771E-02  0.1054726E+00
         21   -1    0    0  502  501  0.00000000000E+00  0.00000000000E+00  0.24799060870E+03  0.24799060870E+03  0.00000000000E+00 0.  1.
         21   -1    0    0  501  502 -0.00000000000E+00 -0.00000000000E+00 -0.55177765278E+03  0.55177765278E+03  0.00000000000E+00 0.  1.
         25    1    1    2    0    0  0.11264015324E+03 -0.65287224317E+02 -0.70400590893E+02  0.19373040283E+03  0.12500000000E+03 0.  0.
         25    1    1    2    0    0 -0.97565586941E+02  0.10045760952E+03  0.12435048099E+03  0.22516397845E+03  0.12500000000E+03 0.  0.
         25    1    1    2    0    0 -0.15074566302E+02 -0.35170385208E+02 -0.35773693418E+03  0.38087388021E+03  0.12500000000E+03 0.  0.
</event>
<event>
 5    0  0.5691975E-005  0.2515398E+03  0.7546771E-02  0.1112336E+00
         21   -1    0    0  502  501  0.00000000000E+00  0.00000000000E+00  0.73546944289E+03  0.73546944289E+03  0.00000000000E+00 0. -1.
         21   -1    0    0  501  502 -0.00000000000E+00 -0.00000000000E+00 -0.86029807656E+02  0.86029807656E+02  0.00000000000E+00 0. -1.
         25    1    1    2    0    0  0.53243623218E+02  0.37008538709E+02  0.63143664150E+02  0.15432639979E+03  0.12500000000E+03 0.  0.
         25    1    1    2    0    0 -0.10204579165E+02 -0.49317534600E+02  0.11382870372E+03  0.17640387310E+03  0.12500000000E+03 0.  0.
         25    1    1    2    0    0 -0.43039044054E+02  0.12308995890E+02  0.47246726736E+03  0.49076897765E+03  0.12500000000E+03 0.  0.
</event>
<event>
 5    0  0.5977211E-005  0.4357353E+03  0.7546771E-02  0.1032063E+00
         21   -1    0    0  502  501  0.00000000000E+00  0.00000000000E+00  0.44778602459E+03  0.44778602459E+03  0.00000000000E+00 0.  1.
         21   -1    0    0  501  502 -0.00000000000E+00 -0.00000000000E+00 -0.42400886995E+03  0.42400886995E+03  0.00000000000E+00 0.  1.
         25    1    1    2    0    0 -0.22405568866E+03 -0.19397523627E+03 -0.12614563594E+03  0.34549249685E+03  0.12500000000E+03 0.  0.
         25    1    1    2    0    0  0.19049075719E+03  0.65536871675E+02 -0.63654351857E+02  0.24547644823E+03  0.12500000000E+03 0.  0.
         25    1    1    2    0    0  0.33564931472E+02  0.12843836460E+03  0.21357714243E+03  0.28082594947E+03  0.12500000000E+03 0.  0.
</event>
<event>
 5    0  0.5691975E-005  0.3259215E+03  0.7546771E-02  0.1072956E+00
         21   -1    0    0  502  501  0.00000000000E+00  0.00000000000E+00  0.16394198729E+03  0.16394198729E+03  0.00000000000E+00 0.  1.
         21   -1    0    0  501  502 -0.00000000000E+00 -0.00000000000E+00 -0.64794150565E+03  0.64794150565E+03  0.00000000000E+00 0.  1.
         25    1    1    2    0    0  0.70408508505E+02 -0.13804407947E+03 -0.26808811527E+03  0.33393077650E+03  0.12500000000E+03 0.  0.
         25    1    1    2    0    0 -0.18220447240E+03  0.26324299252E+02 -0.88085028120E+02  0.23932281686E+03  0.12500000000E+03 0.  0.
         25    1    1    2    0    0  0.11179596389E+03  0.11171978022E+03 -0.12782637497E+03  0.23862989958E+03  0.12500000000E+03 0.  0.
</event>
<event>
 5    0  0.5691975E-005  0.2891506E+03  0.7546771E-02  0.1090793E+00
         21   -1    0    0  502  501  0.00000000000E+00  0.00000000000E+00  0.70429190691E+02  0.70429190691E+02  0.00000000000E+00 0. -1.
         21   -1    0    0  501  502 -0.00000000000E+00 -0.00000000000E+00 -0.11871226818E+04  0.11871226818E+04  0.00000000000E+00 0. -1.
         25    1    1    2    0    0  0.15461855300E+02 -0.93223378825E+02 -0.95111447063E+02  0.18330535914E+03  0.12500000000E+03 0.  0.
         25    1    1    2    0    0  0.21332124697E+02  0.92569450062E+02 -0.27744194611E+03  0.31878393323E+03  0.12500000000E+03 0.  0.
         25    1    1    2    0    0 -0.36793979997E+02  0.65392876290E+00 -0.74414009790E+03  0.75546258007E+03  0.12500000000E+03 0.  0.
</event>
<event>
 5    0  0.5691975E-005  0.2616068E+03  0.7546771E-02  0.1106182E+00
         21   -1    0    0  502  501  0.00000000000E+00  0.00000000000E+00  0.95304505260E+02  0.95304505260E+02  0.00000000000E+00 0. -1.
         21   -1    0    0  501  502 -0.00000000000E+00 -0.00000000000E+00 -0.71809971563E+03  0.71809971563E+03  0.00000000000E+00 0. -1.
         25    1    1    2    0    0 -0.83911267656E+02 -0.13597527053E+03 -0.17675315427E+03  0.26906700389E+03  0.12500000000E+03 0.  0.
         25    1    1    2    0    0  0.52906624828E+02  0.98067904870E+02 -0.31494019852E+03  0.35669139821E+03  0.12500000000E+03 0.  0.
         25    1    1    2    0    0  0.31004642828E+02  0.37907365665E+02 -0.13110185758E+03  0.18764581879E+03  0.12500000000E+03 0.  0.
</event>
<event>
 5    0  0.5691975E-005  0.3561538E+03  0.7546771E-02  0.1060117E+00
         21   -1    0    0  502  501  0.00000000000E+00  0.00000000000E+00  0.57558381010E+03  0.57558381010E+03  0.00000000000E+00 0. -1.
         21   -1    0    0  501  502 -0.00000000000E+00 -0.00000000000E+00 -0.22037716571E+03  0.22037716571E+03  0.00000000000E+00 0. -1.
         25    1    1    2    0    0  0.71606838985E+02  0.12633028253E+02  0.30943867559E+03  0.34156174660E+03  0.12500000000E+03 0.  0.
         25    1    1    2    0    0  0.10046361251E+03 -0.90927637575E+02 -0.73300390811E+02  0.19839032236E+03  0.12500000000E+03 0.  0.
         25    1    1    2    0    0 -0.17207045149E+03  0.78294609323E+02  0.11906835961E+03  0.25600890685E+03  0.12500000000E+03 0.  0.
</event>
<event>
 5    0  0.5691975E-005  0.3357792E+03  0.7546771E-02  0.1068608E+00
         21   -1    0    0  502  501  0.00000000000E+00  0.00000000000E+00  0.56679319407E+03  0.56679319407E+03  0.00000000000E+00 0. -1.
         21   -1    0    0  501  502 -0.00000000000E+00 -0.00000000000E+00 -0.19892211251E+03  0.19892211251E+03  0.00000000000E+00 0. -1.
         25    1    1    2    0    0 -0.66661345404E+02 -0.16402971230E+03  0.26186371889E+03  0.33992218045E+03  0.12500000000E+03 0.  0.
         25    1    1    2    0    0 -0.16383532817E+02 -0.59383767890E+02  0.64182610494E+02  0.15342509419E+03  0.12500000000E+03 0.  0.
         25    1    1    2    0    0  0.83044878220E+02  0.22341348019E+03  0.41824752169E+02  0.27236803194E+03  0.12500000000E+03 0.  0.
</event>
<event>
 5    0  0.5691975E-005  0.2780532E+03  0.7546771E-02  0.1096757E+00
         21   -1    0    0  502  501  0.00000000000E+00  0.00000000000E+00  0.11446083000E+04  0.11446083000E+04  0.00000000000E+00 0. -1.
         21   -1    0    0  501  502 -0.00000000000E+00 -0.00000000000E+00 -0.67545874385E+02  0.67545874385E+02  0.00000000000E+00 0. -1.
         25    1    1    2    0    0  0.95565911518E+02  0.73994948846E+02  0.30068129194E+03  0.34733605517E+03  0.12500000000E+03 0.  0.
         25    1    1    2    0    0 -0.94632251365E+02 -0.77657466559E+01  0.66912379836E+03  0.68728976957E+03  0.12500000000E+03 0.  0.
         25    1    1    2    0    0 -0.93366015311E+00 -0.66229202190E+02  0.10725733528E+03  0.17752834961E+03  0.12500000000E+03 0.  0.
</event>
<event>
 5    0  0.5740585E-005  0.2474828E+03  0.7546771E-02  0.1114906E+00
         21   -1    0    0  502  501  0.00000000000E+00  0.00000000000E+00  0.50378536475E+03  0.50378536475E+03  0.00000000000E+00 0.  1.
         21   -1    0    0  501  502 -0.00000000000E+00 -0.00000000000E+00 -0.12157505083E+03  0.12157505083E+03  0.00000000000E+00 0.  1.
         25    1    1    2    0    0 -0.53556772205E+00 -0.89903873436E+02  0.17357122025E+03  0.23202362335E+03  0.12500000000E+03 0.  0.
         25    1    1    2    0    0 -0.40047774168E+02  0.12447126790E+03  0.17851549172E+03  0.25414504035E+03  0.12500000000E+03 0.  0.
         25    1    1    2    0    0  0.40583341890E+02 -0.34567394465E+02  0.30123601942E+02  0.13919175189E+03  0.12500000000E+03 0.  0.
</event>
<event>
 5    0  0.6872644E-005  0.2873458E+03  0.7546771E-02  0.1091743E+00
         21   -1    0    0  502  501  0.00000000000E+00  0.00000000000E+00  0.55147313623E+02  0.55147313623E+02  0.00000000000E+00 0.  1.
         21   -1    0    0  501  502 -0.00000000000E+00 -0.00000000000E+00 -0.14972194216E+04  0.14972194216E+04  0.00000000000E+00 0.  1.
         25    1    1    2    0    0 -0.67705149631E+02  0.69639980218E+02 -0.35035014883E+03  0.38445278113E+03  0.12500000000E+03 0.  0.
         25    1    1    2    0    0  0.60298787684E+02 -0.14908829126E+03 -0.30122579506E+03  0.36362788946E+03  0.12500000000E+03 0.  0.
         25    1    1    2    0    0  0.74063619475E+01  0.79448311041E+02 -0.79049616408E+03  0.80428606462E+03  0.12500000000E+03 0.  0.
</event>
<event>
 5    0  0.5691975E-005  0.2469756E+03  0.7546771E-02  0.1115231E+00
         21   -1    0    0  502  501  0.00000000000E+00  0.00000000000E+00  0.40541802962E+02  0.40541802962E+02  0.00000000000E+00 0.  1.
         21   -1    0    0  501  502 -0.00000000000E+00 -0.00000000000E+00 -0.15045449073E+04  0.15045449073E+04  0.00000000000E+00 0.  1.
         25    1    1    2    0    0  0.23051479723E+02 -0.12618160670E+03 -0.48299657984E+03  0.51513480248E+03  0.12500000000E+03 0.  0.
         25    1    1    2    0    0 -0.25159188354E+00 -0.84422823079E+01 -0.32450681451E+03  0.34785199164E+03  0.12500000000E+03 0.  0.
         25    1    1    2    0    0 -0.22799887839E+02  0.13462388901E+03 -0.65649970994E+03  0.68209991609E+03  0.12500000000E+03 0.  0.
</event>
<event>
 5    0  0.5691975E-005  0.3291683E+03  0.7546771E-02  0.1071505E+00
         21   -1    0    0  502  501  0.00000000000E+00  0.00000000000E+00  0.49544562755E+02  0.49544562755E+02  0.00000000000E+00 0.  1.
         21   -1    0    0  501  502 -0.00000000000E+00 -0.00000000000E+00 -0.21869563604E+04  0.21869563604E+04  0.00000000000E+00 0.  1.
         25    1    1    2    0    0 -0.17379371008E+00 -0.10720047333E+02 -0.18664516203E+03  0.22489189876E+03  0.12500000000E+03 0.  0.
         25    1    1    2    0    0  0.12014463516E+03 -0.16716583102E+03 -0.87356073631E+03  0.90615258563E+03  0.12500000000E+03 0.  0.
         25    1    1    2    0    0 -0.11997084145E+03  0.17788587835E+03 -0.10772058994E+04  0.11054564388E+04  0.12500000000E+03 0.  0.
</event>
<event>
 5    0  0.6444579E-005  0.3672351E+03  0.7546771E-02  0.1055755E+00
         21   -1    0    0  502  501  0.00000000000E+00  0.00000000000E+00  0.24752587468E+03  0.24752587468E+03  0.00000000000E+00 0. -1.
         21   -1    0    0  501  502 -0.00000000000E+00 -0.00000000000E+00 -0.54483836366E+03  0.54483836366E+03  0.00000000000E+00 0. -1.
         25    1    1    2    0    0 -0.18927436076E+03  0.90190296140E+02 -0.10783438283E+03  0.26685637950E+03  0.12500000000E+03 0.  0.
         25    1    1    2    0    0  0.77423418004E+02 -0.13481435376E+03  0.71644535015E+02  0.21196045629E+03  0.12500000000E+03 0.  0.
         25    1    1    2    0    0  0.11185094275E+03  0.44624057618E+02 -0.26112264117E+03  0.31354740254E+03  0.12500000000E+03 0.  0.
</event>
<event>
 5    0  0.7533562E-005  0.6349476E+03  0.7546771E-02  0.9835441E-01
         21   -1    0    0  502  501  0.00000000000E+00  0.00000000000E+00  0.10934589843E+04  0.10934589843E+04  0.00000000000E+00 0. -1.
         21   -1    0    0  501  502 -0.00000000000E+00 -0.00000000000E+00 -0.36870012375E+03  0.36870012375E+03  0.00000000000E+00 0. -1.
         25    1    1    2    0    0 -0.23815196406E+03 -0.49732393941E+02  0.19326039765E+01  0.27352953031E+03  0.12500000000E+03 0.  0.
         25    1    1    2    0    0  0.42203010654E+03 -0.44926559483E+02  0.17203011919E+02  0.44277392673E+03  0.12500000000E+03 0.  0.
         25    1    1    2    0    0 -0.18387814247E+03  0.94658953424E+02  0.70562324464E+03  0.74585565099E+03  0.12500000000E+03 0.  0.
</event>
<event>
 5    0  0.5691975E-005  0.3765297E+03  0.7546771E-02  0.1052224E+00
         21   -1    0    0  502  501  0.00000000000E+00  0.00000000000E+00  0.79578950380E+03  0.79578950380E+03  0.00000000000E+00 0. -1.
         21   -1    0    0  501  502 -0.00000000000E+00 -0.00000000000E+00 -0.17815588046E+03  0.17815588046E+03  0.00000000000E+00 0. -1.
         25    1    1    2    0    0 -0.22135495493E+02 -0.70983223078E+02  0.29968258300E+03  0.33311146584E+03  0.12500000000E+03 0.  0.
         25    1    1    2    0    0  0.92783206835E+02 -0.18217886978E+03  0.49084209123E+02  0.24460605808E+03  0.12500000000E+03 0.  0.
         25    1    1    2    0    0 -0.70647711343E+02  0.25316209286E+03  0.26886683121E+03  0.39622786033E+03  0.12500000000E+03 0.  0.
</event>
<event>
 5    0  0.5691975E-005  0.3170857E+03  0.7546771E-02  0.1076998E+00
         21   -1    0    0  502  501  0.00000000000E+00  0.00000000000E+00  0.23817620982E+03  0.23817620982E+03  0.00000000000E+00 0. -1.
         21   -1    0    0  501  502 -0.00000000000E+00 -0.00000000000E+00 -0.42213854465E+03  0.42213854465E+03  0.00000000000E+00 0. -1.
         25    1    1    2    0    0 -0.72487813425E+02 -0.11482825645E+03  0.61268875596E+02  0.19447078622E+03  0.12500000000E+03 0.  0.
         25    1    1    2    0    0  0.48693211147E+02 -0.70149887594E+02 -0.17324796183E+03  0.23006931960E+03  0.12500000000E+03 0.  0.
         25    1    1    2    0    0  0.23794602278E+02  0.18497814404E+03 -0.71983248593E+02  0.23577464866E+03  0.12500000000E+03 0.  0.
</event>
<event>
 5    0  0.5691975E-005  0.2984796E+03  0.7546771E-02  0.1086003E+00
         21   -1    0    0  502  501  0.00000000000E+00  0.00000000000E+00  0.49207832134E+03  0.49207832134E+03  0.00000000000E+00 0. -1.
         21   -1    0    0  501  502 -0.00000000000E+00 -0.00000000000E+00 -0.18104856972E+03  0.18104856972E+03  0.00000000000E+00 0. -1.
         25    1    1    2    0    0  0.11722968838E+03 -0.85059895287E+02  0.28578151067E+03  0.34390995546E+03  0.12500000000E+03 0.  0.
         25    1    1    2    0    0 -0.10249839350E+03  0.87905575642E+02  0.68134359175E+02  0.19621570223E+03  0.12500000000E+03 0.  0.
         25    1    1    2    0    0 -0.14731294880E+02 -0.28456803551E+01 -0.42886118216E+02  0.13300123338E+03  0.12500000000E+03 0.  0.
</event>
<event>
 5    0  0.5691975E-005  0.3364993E+03  0.7546771E-02  0.1068297E+00
         21   -1    0    0  502  501  0.00000000000E+00  0.00000000000E+00  0.81028047534E+03  0.81028047534E+03  0.00000000000E+00 0. -1.
         21   -1    0    0  501  502 -0.00000000000E+00 -0.00000000000E+00 -0.13974392680E+03  0.13974392680E+03  0.00000000000E+00 0. -1.
         25    1    1    2    0    0 -0.47526858771E+02  0.11158558845E+03  0.10988786531E+03  0.20593807029E+03  0.12500000000E+03 0.  0.
         25    1    1    2    0    0 -0.98608088829E+02  0.28439714827E+02  0.45668758861E+03  0.48448005754E+03  0.12500000000E+03 0.  0.
         25    1    1    2    0    0  0.14613494760E+03 -0.14002530328E+03  0.10396109463E+03  0.25960627431E+03  0.12500000000E+03 0.  0.
</event>
<event>
 5    0  0.5691975E-005  0.3147216E+03  0.7546771E-02  0.1078105E+00
         21   -1    0    0  502  501  0.00000000000E+00  0.00000000000E+00  0.98411276267E+02  0.98411276267E+02  0.00000000000E+00 0. -1.
         21   -1    0    0  501  502 -0.00000000000E+00 -0.00000000000E+00 -0.10064872565E+04  0.10064872565E+04  0.00000000000E+00 0. -1.
         25    1    1    2    0    0 -0.16007957764E+01  0.14744702477E+03 -0.15516295092E+03  0.24787845610E+03  0.12500000000E+03 0.  0.
         25    1    1    2    0    0 -0.11788875001E+03 -0.13698976195E+03 -0.53683167175E+03  0.58006654450E+03  0.12500000000E+03 0.  0.
         25    1    1    2    0    0  0.11948954578E+03 -0.10457262818E+02 -0.21608135760E+03  0.27695353220E+03  0.12500000000E+03 0.  0.
</event>
<event>
 5    0  0.5963055E-005  0.3504707E+03  0.7546771E-02  0.1062422E+00
         21   -1    0    0  502  501  0.00000000000E+00  0.00000000000E+00  0.21324075457E+03  0.21324075457E+03  0.00000000000E+00 0.  1.
         21   -1    0    0  501  502 -0.00000000000E+00 -0.00000000000E+00 -0.57601433691E+03  0.57601433691E+03  0.00000000000E+00 0.  1.
         25    1    1    2    0    0 -0.55482143378E+02  0.58719752319E+02  0.28546009179E+01  0.14886042554E+03  0.12500000000E+03 0.  0.
         25    1    1    2    0    0  0.17663011623E+03 -0.19322953331E+03 -0.28335469558E+03  0.40552525694E+03  0.12500000000E+03 0.  0.
         25    1    1    2    0    0 -0.12114797286E+03  0.13450978099E+03 -0.82273487671E+02  0.23486940900E+03  0.12500000000E+03 0.  0.
</event>
<event>
 5    0  0.5691975E-005  0.3090533E+03  0.7546771E-02  0.1080801E+00
         21   -1    0    0  502  501  0.00000000000E+00  0.00000000000E+00  0.28628340305E+03  0.28628340305E+03  0.00000000000E+00 0.  1.
         21   -1    0    0  501  502 -0.00000000000E+00 -0.00000000000E+00 -0.33363412593E+03  0.33363412593E+03  0.00000000000E+00 0.  1.
         25    1    1    2    0    0  0.10010182650E+02  0.13777204142E+03  0.14234456939E+03  0.23445322687E+03  0.12500000000E+03 0.  0.
         25    1    1    2    0    0 -0.44952079481E+02  0.64150968148E+01 -0.12059062334E+03  0.17952420827E+03  0.12500000000E+03 0.  0.
         25    1    1    2    0    0  0.34941896831E+02 -0.14418713823E+03 -0.69104668938E+02  0.20594009385E+03  0.12500000000E+03 0.  0.
</event>
<event>
 5    0  0.6362888E-005  0.3161238E+03  0.7546771E-02  0.1077447E+00
         21   -1    0    0  502  501  0.00000000000E+00  0.00000000000E+00  0.53633665282E+03  0.53633665282E+03  0.00000000000E+00 0. -1.
         21   -1    0    0  501  502 -0.00000000000E+00 -0.00000000000E+00 -0.18632747517E+03  0.18632747517E+03  0.00000000000E+00 0. -1.
         25    1    1    2    0    0  0.55872931300E+02 -0.27744936388E+02 -0.50468910672E+02  0.14853846940E+03  0.12500000000E+03 0.  0.
         25    1    1    2    0    0  0.12858796491E+03  0.51612236208E+02  0.19838682457E+03  0.27236192798E+03  0.12500000000E+03 0.  0.
         25    1    1    2    0    0 -0.18446089621E+03 -0.23867299820E+02  0.20209126375E+03  0.30176373062E+03  0.12500000000E+03 0.  0.
</event>
<event>
 5    0  0.5691975E-005  0.3340999E+03  0.7546771E-02  0.1069337E+00
         21   -1    0    0  502  501  0.00000000000E+00  0.00000000000E+00  0.68549312207E+03  0.68549312207E+03  0.00000000000E+00 0. -1.
         21   -1    0    0  501  502 -0.00000000000E+00 -0.00000000000E+00 -0.16283565031E+03  0.16283565031E+03  0.00000000000E+00 0. -1.
         25    1    1    2    0    0 -0.62283908952E+02  0.84717599834E+01 -0.51371579144E+02  0.14904729174E+03  0.12500000000E+03 0.  0.
         25    1    1    2    0    0 -0.10447713606E+03 -0.74849862620E+02  0.23021083461E+03  0.29178759786E+03  0.12500000000E+03 0.  0.
         25    1    1    2    0    0  0.16676104502E+03  0.66378102637E+02  0.34381821630E+03  0.40749388278E+03  0.12500000000E+03 0.  0.
</event>
<event>
 5    0  0.5691975E-005  0.2870309E+03  0.7546771E-02  0.1091910E+00
         21   -1    0    0  502  501  0.00000000000E+00  0.00000000000E+00  0.90637021745E+03  0.90637021745E+03  0.00000000000E+00 0.  1.
         21   -1    0    0  501  502 -0.00000000000E+00 -0.00000000000E+00 -0.90897433540E+02  0.90897433540E+02  0.00000000000E+00 0.  1.
         25    1    1    2    0    0  0.40562120077E+02  0.76439266777E+02  0.18242243806E+03  0.23746829893E+03  0.12500000000E+03 0.  0.
         25    1    1    2    0    0  0.11341529478E+03 -0.50011948115E+02  0.46937263743E+03  0.50129821146E+03  0.12500000000E+03 0.  0.
         25    1    1    2    0    0 -0.15397741485E+03 -0.26427318663E+02  0.16367770842E+03  0.25850114060E+03  0.12500000000E+03 0.  0.
</event>
<event>
 5    0  0.5691975E-005  0.4344014E+03  0.7546771E-02  0.1032479E+00
         21   -1    0    0  502  501  0.00000000000E+00  0.00000000000E+00  0.12906868815E+04  0.12906868815E+04  0.00000000000E+00 0. -1.
         21   -1    0    0  501  502 -0.00000000000E+00 -0.00000000000E+00 -0.14620479616E+03  0.14620479616E+03  0.00000000000E+00 0. -1.
         25    1    1    2    0    0  0.78447671410E+01 -0.37931902450E+02  0.19440834610E+03  0.23435011122E+03  0.12500000000E+03 0.  0.
         25    1    1    2    0    0  0.66620332053E+02 -0.18301288275E+03  0.16278955062E+02  0.23199566434E+03  0.12500000000E+03 0.  0.
         25    1    1    2    0    0 -0.74465099194E+02  0.22094478520E+03  0.93379478413E+03  0.97054590205E+03  0.12500000000E+03 0.  0.
</event>
<event>
 5    0  0.5691975E-005  0.2773667E+03  0.7546771E-02  0.1097136E+00
         21   -1    0    0  502  501  0.00000000000E+00  0.00000000000E+00  0.18158628765E+03  0.18158628765E+03  0.00000000000E+00 0.  1.
         21   -1    0    0  501  502 -0.00000000000E+00 -0.00000000000E+00 -0.42366789151E+03  0.42366789151E+03  0.00000000000E+00 0.  1.
         25    1    1    2    0    0  0.17070699347E+03  0.17967848539E+02 -0.40495402873E+02  0.21616798758E+03  0.12500000000E+03 0.  0.
         25    1    1    2    0    0 -0.64126426147E+02 -0.18061364808E+02 -0.18078043184E+02  0.14279435239E+03  0.12500000000E+03 0.  0.
         25    1    1    2    0    0 -0.10658056732E+03  0.93516268806E-01 -0.18350815780E+03  0.24629183920E+03  0.12500000000E+03 0.  0.
</event>
<event>
 5    0  0.5691975E-005  0.3611466E+03  0.7546771E-02  0.1058131E+00
         21   -1    0    0  502  501  0.00000000000E+00  0.00000000000E+00  0.34986301167E+04  0.34986301167E+04  0.00000000000E+00 0.  1.
         21   -1    0    0  501  502 -0.00000000000E+00 -0.00000000000E+00 -0.37279399928E+02  0.37279399928E+02  0.00000000000E+00 0.  1.
         25    1    1    2    0    0  0.12878950887E+02 -0.22159530845E+03  0.13220080897E+04  0.13463286142E+04  0.12500000000E+03 0.  0.
         25    1    1    2    0    0 -0.44773314463E+02 -0.28077256350E+02  0.12386646314E+04  0.12460770647E+04  0.12500000000E+03 0.  0.
         25    1    1    2    0    0  0.31894363576E+02  0.24967256480E+03  0.90067799573E+03  0.94350383785E+03  0.12500000000E+03 0.  0.
</event>
<event>
 5    0  0.5691975E-005  0.2472998E+03  0.7546771E-02  0.1115023E+00
         21   -1    0    0  502  501  0.00000000000E+00  0.00000000000E+00  0.59436036797E+03  0.59436036797E+03  0.00000000000E+00 0. -1.
         21   -1    0    0  501  502 -0.00000000000E+00 -0.00000000000E+00 -0.10289580182E+03  0.10289580182E+03  0.00000000000E+00 0. -1.
         25    1    1    2    0    0 -0.53959541533E+02  0.47327230363E+02  0.10933450843E+03  0.18091581907E+03  0.12500000000E+03 0.  0.
         25    1    1    2    0    0 -0.64842045197E+02  0.14097864748E+02  0.78609700523E+02  0.16188800336E+03  0.12500000000E+03 0.  0.
         25    1    1    2    0    0  0.11880158673E+03 -0.61425095111E+02  0.30352035720E+03  0.35445234736E+03  0.12500000000E+03 0.  0.
</event>
<event>
 5    0  0.5691975E-005  0.4181990E+03  0.7546771E-02  0.1037654E+00
         21   -1    0    0  502  501  0.00000000000E+00  0.00000000000E+00  0.83671016327E+03  0.83671016327E+03  0.00000000000E+00 0.  1.
         21   -1    0    0  501  502 -0.00000000000E+00 -0.00000000000E+00 -0.20902153334E+03  0.20902153334E+03  0.00000000000E+00 0.  1.
         25    1    1    2    0    0  0.16681139988E+03  0.41342180133E+02 -0.58530939293E+02  0.22042252571E+03  0.12500000000E+03 0.  0.
         25    1    1    2    0    0 -0.25403632073E+03 -0.24057223001E+02  0.31822206338E+03  0.42661866327E+03  0.12500000000E+03 0.  0.
         25    1    1    2    0    0  0.87224920850E+02 -0.17284957131E+02  0.36799750585E+03  0.39869050763E+03  0.12500000000E+03 0.  0.
</event>
<event>
 5    0  0.5691975E-005  0.3061311E+03  0.7546771E-02  0.1082215E+00
         21   -1    0    0  502  501  0.00000000000E+00  0.00000000000E+00  0.15954366737E+04  0.15954366737E+04  0.00000000000E+00 0. -1.
         21   -1    0    0  501  502 -0.00000000000E+00 -0.00000000000E+00 -0.58740182546E+02  0.58740182546E+02  0.00000000000E+00 0. -1.
         25    1    1    2    0    0 -0.16055520167E+03  0.21690669434E+02  0.40166560046E+03  0.45078677056E+03  0.12500000000E+03 0.  0.
         25    1    1    2    0    0  0.14746033333E+02 -0.11305266720E+03  0.33133203739E+03  0.37202724371E+03  0.12500000000E+03 0.  0.
         25    1    1    2    0    0  0.14580916834E+03  0.91361997768E+02  0.80369885327E+03  0.83136284194E+03  0.12500000000E+03 0.  0.
</event>
<event>
 5    0  0.5691975E-005  0.3543730E+03  0.7546771E-02  0.1060834E+00
         21   -1    0    0  502  501  0.00000000000E+00  0.00000000000E+00  0.77516274642E+02  0.77516274642E+02  0.00000000000E+00 0.  1.
         21   -1    0    0  501  502 -0.00000000000E+00 -0.00000000000E+00 -0.16200494352E+04  0.16200494352E+04  0.00000000000E+00 0.  1.
         25    1    1    2    0    0 -0.19686074614E+03 -0.47470580105E+02 -0.22082745832E+03  0.32464961988E+03  0.12500000000E+03 0.  0.
         25    1    1    2    0    0  0.29927917649E+02  0.88667740723E+02 -0.47884112866E+03  0.50365809335E+03  0.12500000000E+03 0.  0.
         25    1    1    2    0    0  0.16693282849E+03 -0.41197160618E+02 -0.84286457360E+03  0.86925799662E+03  0.12500000000E+03 0.  0.
</event>
<event>
 5    0  0.5691975E-005  0.2575626E+03  0.7546771E-02  0.1108617E+00
         21   -1    0    0  502  501  0.00000000000E+00  0.00000000000E+00  0.61854596849E+02  0.61854596849E+02  0.00000000000E+00 0. -1.
         21   -1    0    0  501  502 -0.00000000000E+00 -0.00000000000E+00 -0.10724905018E+04  0.10724905018E+04  0.00000000000E+00 0. -1.
         25    1    1    2    0    0  0.43372360977E+02 -0.70082113817E+02 -0.17731844463E+03  0.23207648562E+03  0.12500000000E+03 0.  0.
         25    1    1    2    0    0 -0.87198994395E+02  0.22988382095E+02 -0.66661111775E+03  0.68419844537E+03  0.12500000000E+03 0.  0.
         25    1    1    2    0    0  0.43826633418E+02  0.47093731723E+02 -0.16670634253E+03  0.21807016762E+03  0.12500000000E+03 0.  0.
</event>
<event>
 5    0  0.5691975E-005  0.4443146E+03  0.7546771E-02  0.1029431E+00
         21   -1    0    0  502  501  0.00000000000E+00  0.00000000000E+00  0.11262781476E+03  0.11262781476E+03  0.00000000000E+00 0.  1.
         21   -1    0    0  501  502 -0.00000000000E+00 -0.00000000000E+00 -0.17528125954E+04  0.17528125954E+04  0.00000000000E+00 0.  1.
         25    1    1    2    0    0  0.24133026718E+03  0.90119796521E+02 -0.26313288756E+03  0.38887760555E+03  0.12500000000E+03 0.  0.
         25    1    1    2    0    0 -0.12117362746E+03  0.11598350191E+03 -0.29595957790E+03  0.36242556817E+03  0.12500000000E+03 0.  0.
         25    1    1    2    0    0 -0.12015663972E+03 -0.20610329843E+03 -0.10810923152E+04  0.11141372365E+04  0.12500000000E+03 0.  0.
</event>
<event>
 5    0  0.5691975E-005  0.2881571E+03  0.7546771E-02  0.1091315E+00
         21   -1    0    0  502  501  0.00000000000E+00  0.00000000000E+00  0.43210252097E+03  0.43210252097E+03  0.00000000000E+00 0.  1.
         21   -1    0    0  501  502 -0.00000000000E+00 -0.00000000000E+00 -0.19216387750E+03  0.19216387750E+03  0.00000000000E+00 0.  1.
         25    1    1    2    0    0 -0.62187502465E+01  0.12785403814E+03  0.46255848231E+02  0.18479700056E+03  0.12500000000E+03 0.  0.
         25    1    1    2    0    0  0.25932353041E+02  0.58405708833E+02  0.15820261486E+03  0.21151071157E+03  0.12500000000E+03 0.  0.
         25    1    1    2    0    0 -0.19713602795E+02 -0.18625974697E+03  0.35480180385E+02  0.22795868634E+03  0.12500000000E+03 0.  0.
</event>
<event>
 5    0  0.5691975E-005  0.3372435E+03  0.7546771E-02  0.1067976E+00
         21   -1    0    0  502  501  0.00000000000E+00  0.00000000000E+00  0.89714317198E+03  0.89714317198E+03  0.00000000000E+00 0. -1.
         21   -1    0    0  501  502 -0.00000000000E+00 -0.00000000000E+00 -0.12677262903E+03  0.12677262903E+03  0.00000000000E+00 0. -1.
         25    1    1    2    0    0 -0.19581892699E+02  0.15421953603E+03  0.19542798777E+03  0.27925653836E+03  0.12500000000E+03 0.  0.
         25    1    1    2    0    0 -0.10923425954E+03  0.74244138809E+02  0.19983685242E+03  0.27019267790E+03  0.12500000000E+03 0.  0.
         25    1    1    2    0    0  0.12881615224E+03 -0.22846367484E+03  0.37510570276E+03  0.47446658475E+03  0.12500000000E+03 0.  0.
</event>
<event>
 5    0  0.5691975E-005  0.2996031E+03  0.7546771E-02  0.1085439E+00
         21   -1    0    0  502  501  0.00000000000E+00  0.00000000000E+00  0.93228012118E+02  0.93228012118E+02  0.00000000000E+00 0.  1.
         21   -1    0    0  501  502 -0.00000000000E+00 -0.00000000000E+00 -0.96282241576E+03  0.96282241576E+03  0.00000000000E+00 0.  1.
         25    1    1    2    0    0  0.10919627388E+03 -0.31388730367E+02 -0.15812279431E+03  0.23138041556E+03  0.12500000000E+03 0.  0.
         25    1    1    2    0    0 -0.14543753617E+03  0.12474542694E+03 -0.26366503499E+03  0.34908129303E+03  0.12500000000E+03 0.  0.
         25    1    1    2    0    0  0.36241262289E+02 -0.93356696577E+02 -0.44780657435E+03  0.47558871929E+03  0.12500000000E+03 0.  0.
</event>
<event>
 5    0  0.5691975E-005  0.2496136E+03  0.7546771E-02  0.1113549E+00
         21   -1    0    0  502  501  0.00000000000E+00  0.00000000000E+00  0.48510938317E+03  0.48510938317E+03  0.00000000000E+00 0. -1.
         21   -1    0    0  501  502 -0.00000000000E+00 -0.00000000000E+00 -0.12843892550E+03  0.12843892550E+03  0.00000000000E+00 0. -1.
         25    1    1    2    0    0  0.12282402702E+02  0.98896296030E+02  0.67621008191E+02  0.17357688652E+03  0.12500000000E+03 0.  0.
         25    1    1    2    0    0  0.16562563505E+02 -0.14790504851E+03  0.16735258195E+03  0.25648023037E+03  0.12500000000E+03 0.  0.
         25    1    1    2    0    0 -0.28844966207E+02  0.49008752485E+02  0.12169686753E+03  0.18349119178E+03  0.12500000000E+03 0.  0.
</event>
<event>
 5    0  0.5691975E-005  0.2846750E+03  0.7546771E-02  0.1093163E+00
         21   -1    0    0  502  501  0.00000000000E+00  0.00000000000E+00  0.18531611243E+03  0.18531611243E+03  0.00000000000E+00 0.  1.
         21   -1    0    0  501  502 -0.00000000000E+00 -0.00000000000E+00 -0.43730598660E+03  0.43730598660E+03  0.00000000000E+00 0.  1.
         25    1    1    2    0    0  0.65912153284E+02  0.14770914048E+01  0.15570633844E+02  0.14217608233E+03  0.12500000000E+03 0.  0.
         25    1    1    2    0    0 -0.14310519933E+03  0.63245612173E+01 -0.18285076523E+02  0.19099330400E+03  0.12500000000E+03 0.  0.
         25    1    1    2    0    0  0.77193046044E+02 -0.78016526220E+01 -0.24927543149E+03  0.28945271269E+03  0.12500000000E+03 0.  0.
</event>
<event>
 5    0  0.5691975E-005  0.2559353E+03  0.7546771E-02  0.1109610E+00
         21   -1    0    0  502  501  0.00000000000E+00  0.00000000000E+00  0.20209431785E+03  0.20209431785E+03  0.00000000000E+00 0. -1.
         21   -1    0    0  501  502 -0.00000000000E+00 -0.00000000000E+00 -0.32412027008E+03  0.32412027008E+03  0.00000000000E+00 0. -1.
         25    1    1    2    0    0  0.46465119118E+02  0.19559718257E+02 -0.10239720535E+03  0.16926835953E+03  0.12500000000E+03 0.  0.
         25    1    1    2    0    0 -0.11165080665E+03  0.25570826351E+02 -0.91213671200E+02  0.19252195615E+03  0.12500000000E+03 0.  0.
         25    1    1    2    0    0  0.65185687531E+02 -0.45130544608E+02  0.71584924319E+02  0.16442427225E+03  0.12500000000E+03 0.  0.
</event>
<event>
 5    0  0.5691975E-005  0.2102548E+03  0.7546771E-02  0.1141364E+00
         21   -1    0    0  502  501  0.00000000000E+00  0.00000000000E+00  0.54160314527E+03  0.54160314527E+03  0.00000000000E+00 0.  1.
         21   -1    0    0  501  502 -0.00000000000E+00 -0.00000000000E+00 -0.81622678017E+02  0.81622678017E+02  0.00000000000E+00 0.  1.
         25    1    1    2    0    0 -0.42663764077E+02  0.76310760973E+01  0.14705402104E+03  0.19780878441E+03  0.12500000000E+03 0.  0.
         25    1    1    2    0    0  0.44224929410E+02 -0.67251222717E+02  0.14406474796E+03  0.20702227644E+03  0.12500000000E+03 0.  0.
         25    1    1    2    0    0 -0.15611653327E+01  0.59620146619E+02  0.16886169825E+03  0.21839476243E+03  0.12500000000E+03 0.  0.
</event>
<event>
 5    0  0.5691975E-005  0.6975159E+03  0.7546771E-02  0.9721490E-01
         21   -1    0    0  502  501  0.00000000000E+00  0.00000000000E+00  0.29381910110E+03  0.29381910110E+03  0.00000000000E+00 0. -1.
         21   -1    0    0  501  502 -0.00000000000E+00 -0.00000000000E+00 -0.16558772413E+04  0.16558772413E+04  0.00000000000E+00 0. -1.
         25    1    1    2    0    0  0.43093647440E+03 -0.27482972341E+03 -0.12126324285E+03  0.53996981018E+03  0.12500000000E+03 0.  0.
         25    1    1    2    0    0 -0.26178030785E+03  0.89089185452E+02 -0.98265547613E+03  0.10284466915E+04  0.12500000000E+03 0.  0.
         25    1    1    2    0    0 -0.16915616655E+03  0.18574053796E+03 -0.25813942117E+03  0.38127984065E+03  0.12500000000E+03 0.  0.
</event>
<event>
 5    0  0.5691975E-005  0.3296704E+03  0.7546771E-02  0.1071283E+00
         21   -1    0    0  502  501  0.00000000000E+00  0.00000000000E+00  0.18558592478E+03  0.18558592478E+03  0.00000000000E+00 0. -1.
         21   -1    0    0  501  502 -0.00000000000E+00 -0.00000000000E+00 -0.58561856961E+03  0.58561856961E+03  0.00000000000E+00 0. -1.
         25    1    1    2    0    0 -0.26864381125E+02  0.20198460967E+02 -0.25898334946E+03  0.28952901081E+03  0.12500000000E+03 0.  0.
         25    1    1    2    0    0 -0.43774833670E+02 -0.18378944110E+03 -0.13544381979E+03  0.26394094613E+03  0.12500000000E+03 0.  0.
         25    1    1    2    0    0  0.70639214795E+02  0.16359098013E+03 -0.56054755687E+01  0.21773453746E+03  0.12500000000E+03 0.  0.
</event>
<event>
 5    0  0.5691975E-005  0.2923748E+03  0.7546771E-02  0.1089116E+00
         21   -1    0    0  502  501  0.00000000000E+00  0.00000000000E+00  0.22620980874E+04  0.22620980874E+04  0.00000000000E+00 0.  1.
         21   -1    0    0  501  502 -0.00000000000E+00 -0.00000000000E+00 -0.37789275858E+02  0.37789275858E+02  0.00000000000E+00 0.  1.
         25    1    1    2    0    0  0.12513662553E+02  0.52638914148E+02  0.18889218385E+03  0.23287916212E+03  0.12500000000E+03 0.  0.
         25    1    1    2    0    0  0.17530662066E+02 -0.14519081420E+03  0.13425046926E+04  0.13562195790E+04  0.12500000000E+03 0.  0.
         25    1    1    2    0    0 -0.30044324619E+02  0.92551900049E+02  0.69291193504E+03  0.71078862214E+03  0.12500000000E+03 0.  0.
</event>
<event>
 5    0  0.5691975E-005  0.2245321E+03  0.7546771E-02  0.1130549E+00
         21   -1    0    0  502  501  0.00000000000E+00  0.00000000000E+00  0.16176612395E+04  0.16176612395E+04  0.00000000000E+00 0. -1.
         21   -1    0    0  501  502 -0.00000000000E+00 -0.00000000000E+00 -0.31165167054E+02  0.31165167054E+02  0.00000000000E+00 0. -1.
         25    1    1    2    0    0  0.67273801164E+02 -0.34803492152E+02  0.70995083294E+03  0.72483945297E+03  0.12500000000E+03 0.  0.
         25    1    1    2    0    0  0.44456678873E+01 -0.30546818944E+02  0.48178492003E+03  0.49869287270E+03  0.12500000000E+03 0.  0.
         25    1    1    2    0    0 -0.71719469051E+02  0.65350311096E+02  0.39476031943E+03  0.42529408084E+03  0.12500000000E+03 0.  0.
</event>
<event>
 5    0  0.5691975E-005  0.4155183E+03  0.7546771E-02  0.1038535E+00
         21   -1    0    0  502  501  0.00000000000E+00  0.00000000000E+00  0.14270448096E+03  0.14270448096E+03  0.00000000000E+00 0. -1.
         21   -1    0    0  501  502 -0.00000000000E+00 -0.00000000000E+00 -0.12098808357E+04  0.12098808357E+04  0.00000000000E+00 0. -1.
         25    1    1    2    0    0  0.10523919035E+03  0.25187418678E+02 -0.38835248844E+03  0.42208097389E+03  0.12500000000E+03 0.  0.
         25    1    1    2    0    0 -0.29632567748E+03  0.81093371806E+02 -0.19422064483E+03  0.38435881798E+03  0.12500000000E+03 0.  0.
         25    1    1    2    0    0  0.19108648713E+03 -0.10628079048E+03 -0.48460322148E+03  0.54614552480E+03  0.12500000000E+03 0.  0.
</event>
<event>
 5    0  0.5691975E-005  0.9449788E+03  0.7546771E-02  0.9371039E-01
         21   -1    0    0  502  501  0.00000000000E+00  0.00000000000E+00  0.69827438274E+03  0.69827438274E+03  0.00000000000E+00 0. -1.
         21   -1    0    0  501  502 -0.00000000000E+00 -0.00000000000E+00 -0.12788453877E+04  0.12788453877E+04  0.00000000000E+00 0. -1.
         25    1    1    2    0    0 -0.89455745601E+02 -0.55004729512E+03  0.40045924049E+03  0.69752918260E+03  0.12500000000E+03 0.  0.
         25    1    1    2    0    0  0.18982427204E+03  0.26300748316E+00 -0.42188148574E+03  0.47921009113E+03  0.12500000000E+03 0.  0.
         25    1    1    2    0    0 -0.10036852644E+03  0.54978428764E+03 -0.55914875975E+03  0.80038049674E+03  0.12500000000E+03 0.  0.
</event>
<event>
 5    0  0.5691975E-005  0.4033451E+03  0.7546771E-02  0.1042628E+00
         21   -1    0    0  502  501  0.00000000000E+00  0.00000000000E+00  0.43249480453E+03  0.43249480453E+03  0.00000000000E+00 0.  1.
         21   -1    0    0  501  502 -0.00000000000E+00 -0.00000000000E+00 -0.37615997225E+03  0.37615997225E+03  0.00000000000E+00 0.  1.
         25    1    1    2    0    0 -0.15372195299E+03  0.96997105577E+02 -0.24708004232E+03  0.33122865914E+03  0.12500000000E+03 0.  0.
         25    1    1    2    0    0  0.44684795176E+02 -0.33191819686E+00  0.18740368254E+02  0.13406357631E+03  0.12500000000E+03 0.  0.
         25    1    1    2    0    0  0.10903715781E+03 -0.96665187380E+02  0.28467450635E+03  0.34336254134E+03  0.12500000000E+03 0.  0.
</event>
<event>
 5    0  0.6628544E-005  0.2924121E+03  0.7546771E-02  0.1089096E+00
         21   -1    0    0  502  501  0.00000000000E+00  0.00000000000E+00  0.72103198272E+03  0.72103198272E+03  0.00000000000E+00 0.  1.
         21   -1    0    0  501  502 -0.00000000000E+00 -0.00000000000E+00 -0.11858674011E+03  0.11858674011E+03  0.00000000000E+00 0.  1.
         25    1    1    2    0    0  0.87137156629E+02 -0.36862305387E+02  0.36624404045E+03  0.39838600727E+03  0.12500000000E+03 0.  0.
         25    1    1    2    0    0  0.55871242574E+02  0.86419041936E+02  0.16826625042E+03  0.23351312080E+03  0.12500000000E+03 0.  0.
         25    1    1    2    0    0 -0.14300839920E+03 -0.49556736549E+02  0.67934951740E+02  0.20771959476E+03  0.12500000000E+03 0.  0.
</event>
<event>
 5    0  0.5691975E-005  0.2829292E+03  0.7546771E-02  0.1094100E+00
         21   -1    0    0  502  501  0.00000000000E+00  0.00000000000E+00  0.12786024107E+04  0.12786024107E+04  0.00000000000E+00 0. -1.
         21   -1    0    0  501  502 -0.00000000000E+00 -0.00000000000E+00 -0.62606601309E+02  0.62606601309E+02  0.00000000000E+00 0. -1.
         25    1    1    2    0    0 -0.10384951864E+03  0.12362854232E+03  0.27491081167E+03  0.34244662850E+03  0.12500000000E+03 0.  0.
         25    1    1    2    0    0  0.91858914841E+02 -0.79731895307E+01  0.33804232640E+03  0.37202049194E+03  0.12500000000E+03 0.  0.
         25    1    1    2    0    0  0.11990603795E+02 -0.11565535279E+03  0.60304267130E+03  0.62674189155E+03  0.12500000000E+03 0.  0.
</event>
<event>
 5    0  0.5691975E-005  0.3397615E+03  0.7546771E-02  0.1066898E+00
         21   -1    0    0  502  501  0.00000000000E+00  0.00000000000E+00  0.37682008050E+03  0.37682008050E+03  0.00000000000E+00 0. -1.
         21   -1    0    0  501  502 -0.00000000000E+00 -0.00000000000E+00 -0.30634744637E+03  0.30634744637E+03  0.00000000000E+00 0. -1.
         25    1    1    2    0    0  0.78016797683E+01 -0.55688097080E+02  0.66736245312E+02  0.15244919417E+03  0.12500000000E+03 0.  0.
         25    1    1    2    0    0  0.36501206918E+02 -0.54116531587E+02  0.21565721738E+03  0.25767027866E+03  0.12500000000E+03 0.  0.
         25    1    1    2    0    0 -0.44302886687E+02  0.10980462867E+03 -0.21192082856E+03  0.27304805405E+03  0.12500000000E+03 0.  0.
</event>
<event>
 5    0  0.5691975E-005  0.5688897E+03  0.7546771E-02  0.9972139E-01
         21   -1    0    0  502  501  0.00000000000E+00  0.00000000000E+00  0.26846291030E+03  0.26846291030E+03  0.00000000000E+00 0. -1.
         21   -1    0    0  501  502 -0.00000000000E+00 -0.00000000000E+00 -0.12055127739E+04  0.12055127739E+04  0.00000000000E+00 0. -1.
         25    1    1    2    0    0 -0.40482463894E+02  0.97572018721E+02  0.75490988917E+01  0.16383259021E+03  0.12500000000E+03 0.  0.
         25    1    1    2    0    0 -0.27796671793E+03 -0.25276137953E+03 -0.13619841593E+03  0.41872284361E+03  0.12500000000E+03 0.  0.
         25    1    1    2    0    0  0.31844918182E+03  0.15518936081E+03 -0.80840054654E+03  0.89142025036E+03  0.12500000000E+03 0.  0.
</event>
<event>
 5    0  0.5691975E-005  0.6621020E+03  0.7546771E-02  0.9784332E-01
         21   -1    0    0  502  501  0.00000000000E+00  0.00000000000E+00  0.67648931675E+03  0.67648931675E+03  0.00000000000E+00 0. -1.
         21   -1    0    0  501  502 -0.00000000000E+00 -0.00000000000E+00 -0.64802058373E+03  0.64802058373E+03  0.00000000000E+00 0. -1.
         25    1    1    2    0    0  0.25581149720E+03  0.95839941446E+00  0.17220162706E+03  0.33274440790E+03  0.12500000000E+03 0.  0.
         25    1    1    2    0    0  0.21697185651E+03  0.23779734846E+03  0.14637635868E+03  0.37506719909E+03  0.12500000000E+03 0.  0.
         25    1    1    2    0    0 -0.47278335371E+03 -0.23875574787E+03 -0.29010925271E+03  0.61669829349E+03  0.12500000000E+03 0.  0.
</event>
<event>
 5    0  0.5691975E-005  0.3185136E+03  0.7546771E-02  0.1076335E+00
         21   -1    0    0  502  501  0.00000000000E+00  0.00000000000E+00  0.29274813464E+03  0.29274813464E+03  0.00000000000E+00 0. -1.
         21   -1    0    0  501  502 -0.00000000000E+00 -0.00000000000E+00 -0.34654675743E+03  0.34654675743E+03  0.00000000000E+00 0. -1.
         25    1    1    2    0    0  0.56060133077E+02  0.35291323837E+02 -0.11142113956E+03  0.18007744556E+03  0.12500000000E+03 0.  0.
         25    1    1    2    0    0  0.11135029534E+03  0.85210713123E+02  0.10235001735E+03  0.21391652567E+03  0.12500000000E+03 0.  0.
         25    1    1    2    0    0 -0.16741042842E+03 -0.12050203696E+03 -0.44727500580E+02  0.24530092084E+03  0.12500000000E+03 0.  0.
</event>
<event>
 5    0  0.5691975E-005  0.4016557E+03  0.7546771E-02  0.1043208E+00
         21   -1    0    0  502  501  0.00000000000E+00  0.00000000000E+00  0.68492581690E+03  0.68492581690E+03  0.00000000000E+00 0. -1.
         21   -1    0    0  501  502 -0.00000000000E+00 -0.00000000000E+00 -0.23553980048E+03  0.23553980048E+03  0.00000000000E+00 0. -1.
         25    1    1    2    0    0 -0.26694680514E+03  0.83972830784E+02  0.21307170741E+03  0.37327816114E+03  0.12500000000E+03 0.  0.
         25    1    1    2    0    0  0.31856779748E+03 -0.29170803898E+02  0.13259949550E+03  0.36816301226E+03  0.12500000000E+03 0.  0.
         25    1    1    2    0    0 -0.51620992340E+02 -0.54802026886E+02  0.10371481350E+03  0.17902444398E+03  0.12500000000E+03 0.  0.
</event>
<event>
 5    0  0.6343376E-005  0.6412122E+03  0.7546771E-02  0.9823410E-01
         21   -1    0    0  502  501  0.00000000000E+00  0.00000000000E+00  0.43308561197E+03  0.43308561197E+03  0.00000000000E+00 0.  1.
         21   -1    0    0  501  502 -0.00000000000E+00 -0.00000000000E+00 -0.94935751925E+03  0.94935751925E+03  0.00000000000E+00 0.  1.
         25    1    1    2    0    0 -0.12431830407E+03 -0.31537628394E+03 -0.61038558228E+03  0.70930444821E+03  0.12500000000E+03 0.  0.
         25    1    1    2    0    0  0.23916794960E+03  0.31390948755E+03 -0.89021313082E+02  0.42342681619E+03  0.12500000000E+03 0.  0.
         25    1    1    2    0    0 -0.11484964553E+03  0.14667963918E+01  0.18313498808E+03  0.24971186682E+03  0.12500000000E+03 0.  0.
</event>
<event>
 5    0  0.5691975E-005  0.3853084E+03  0.7546771E-02  0.1048989E+00
         21   -1    0    0  502  501  0.00000000000E+00  0.00000000000E+00  0.62890752513E+03  0.62890752513E+03  0.00000000000E+00 0. -1.
         21   -1    0    0  501  502 -0.00000000000E+00 -0.00000000000E+00 -0.23606415940E+03  0.23606415940E+03  0.00000000000E+00 0. -1.
         25    1    1    2    0    0  0.85816318412E+02  0.84612345711E+02  0.17623997558E+03  0.24740496872E+03  0.12500000000E+03 0.  0.
         25    1    1    2    0    0 -0.92407475214E+02 -0.11801534017E+03 -0.13866375386E+03  0.23941470010E+03  0.12500000000E+03 0.  0.
         25    1    1    2    0    0  0.65911568018E+01  0.33402994456E+02  0.35526714400E+03  0.37815201572E+03  0.12500000000E+03 0.  0.
</event>
<event>
 5    0  0.5691975E-005  0.5115120E+03  0.7546771E-02  0.1010817E+00
         21   -1    0    0  502  501  0.00000000000E+00  0.00000000000E+00  0.13233229335E+04  0.13233229335E+04  0.00000000000E+00 0.  1.
         21   -1    0    0  501  502 -0.00000000000E+00 -0.00000000000E+00 -0.19771782799E+03  0.19771782799E+03  0.00000000000E+00 0.  1.
         25    1    1    2    0    0 -0.46757738768E+01  0.23514180952E+03  0.15163737831E+03  0.30648397666E+03  0.12500000000E+03 0.  0.
         25    1    1    2    0    0  0.21354698532E+03 -0.12763101345E+03  0.89451950384E+03  0.93684691027E+03  0.12500000000E+03 0.  0.
         25    1    1    2    0    0 -0.20887121145E+03 -0.10751079607E+03  0.79448223386E+02  0.27770987458E+03  0.12500000000E+03 0.  0.
</event>
<event>
 5    0  0.5691975E-005  0.5055009E+03  0.7546771E-02  0.1012353E+00
         21   -1    0    0  502  501  0.00000000000E+00  0.00000000000E+00  0.11232431523E+04  0.11232431523E+04  0.00000000000E+00 0. -1.
         21   -1    0    0  501  502 -0.00000000000E+00 -0.00000000000E+00 -0.22749409027E+03  0.22749409027E+03  0.00000000000E+00 0. -1.
         25    1    1    2    0    0  0.25644322176E+03 -0.42429166698E+02  0.73669246846E+03  0.79114104511E+03  0.12500000000E+03 0.  0.
         25    1    1    2    0    0 -0.20066964445E+03  0.19259250519E+03  0.18199996599E+03  0.35511852511E+03  0.12500000000E+03 0.  0.
         25    1    1    2    0    0 -0.55773577308E+02 -0.15016333849E+03 -0.22943372410E+02  0.20447767235E+03  0.12500000000E+03 0.  0.
</event>
<event>
 5    0  0.5691975E-005  0.2464888E+03  0.7546771E-02  0.1115544E+00
         21   -1    0    0  502  501  0.00000000000E+00  0.00000000000E+00  0.15881232759E+03  0.15881232759E+03  0.00000000000E+00 0.  1.
         21   -1    0    0  501  502 -0.00000000000E+00 -0.00000000000E+00 -0.38256939975E+03  0.38256939975E+03  0.00000000000E+00 0.  1.
         25    1    1    2    0    0  0.17073729196E+02 -0.20077746578E+02  0.20527802643E+02  0.12938708907E+03  0.12500000000E+03 0.  0.
         25    1    1    2    0    0 -0.54954025826E+02 -0.66945030827E+02 -0.45531365109E+02  0.15874409380E+03  0.12500000000E+03 0.  0.
         25    1    1    2    0    0  0.37880296630E+02  0.87022777406E+02 -0.19875350970E+03  0.25325054448E+03  0.12500000000E+03 0.  0.
</event>
<event>
 5    0  0.5691975E-005  0.2352432E+03  0.7546771E-02  0.1123003E+00
         21   -1    0    0  502  501  0.00000000000E+00  0.00000000000E+00  0.54917919920E+03  0.54917919920E+03  0.00000000000E+00 0.  1.
         21   -1    0    0  501  502 -0.00000000000E+00 -0.00000000000E+00 -0.10076739319E+03  0.10076739319E+03  0.00000000000E+00 0.  1.
         25    1    1    2    0    0  0.56407960293E+02 -0.13061623507E+02  0.64569731237E+02  0.15214044231E+03  0.12500000000E+03 0.  0.
         25    1    1    2    0    0 -0.44001509675E+02 -0.85104575910E+02  0.19578435246E+03  0.25126765483E+03  0.12500000000E+03 0.  0.
         25    1    1    2    0    0 -0.12406450618E+02  0.98166199417E+02  0.18805772231E+03  0.24653849526E+03  0.12500000000E+03 0.  0.
</event>
<event>
 5    0  0.6004231E-005  0.2809412E+03  0.7546771E-02  0.1095176E+00
         21   -1    0    0  502  501  0.00000000000E+00  0.00000000000E+00  0.69179078701E+03  0.69179078701E+03  0.00000000000E+00 0.  1.
         21   -1    0    0  501  502 -0.00000000000E+00 -0.00000000000E+00 -0.11409220558E+03  0.11409220558E+03  0.00000000000E+00 0.  1.
         25    1    1    2    0    0  0.25098083815E+02  0.92094835903E+02  0.21832204283E+03  0.26907412919E+03  0.12500000000E+03 0.  0.
         25    1    1    2    0    0  0.68634832448E+02 -0.12954232229E+03  0.68430970415E+02  0.20444987455E+03  0.12500000000E+03 0.  0.
         25    1    1    2    0    0 -0.93732916263E+02  0.37447486388E+02  0.29094556818E+03  0.33235898886E+03  0.12500000000E+03 0.  0.
</event>
<event>
 5    0  0.5691975E-005  0.2624647E+03  0.7546771E-02  0.1105671E+00
         21   -1    0    0  502  501  0.00000000000E+00  0.00000000000E+00  0.13416016379E+04  0.13416016379E+04  0.00000000000E+00 0.  1.
         21   -1    0    0  501  502 -0.00000000000E+00 -0.00000000000E+00 -0.51347370894E+02  0.51347370894E+02  0.00000000000E+00 0.  1.
         25    1    1    2    0    0  0.40595737926E+00  0.21378235731E+02  0.78676890998E+03  0.79692378022E+03  0.12500000000E+03 0.  0.
         25    1    1    2    0    0 -0.85273892432E+02  0.19096372203E+02  0.32296884342E+03  0.35716968234E+03  0.12500000000E+03 0.  0.
         25    1    1    2    0    0  0.84867935053E+02 -0.40474607934E+02  0.18051651364E+03  0.23885554627E+03  0.12500000000E+03 0.  0.
</event>
<event>
 5    0  0.5828395E-005  0.3880181E+03  0.7546771E-02  0.1048009E+00
         21   -1    0    0  502  501  0.00000000000E+00  0.00000000000E+00  0.15599412089E+03  0.15599412089E+03  0.00000000000E+00 0.  1.
         21   -1    0    0  501  502 -0.00000000000E+00 -0.00000000000E+00 -0.96515197836E+03  0.96515197836E+03  0.00000000000E+00 0.  1.
         25    1    1    2    0    0 -0.82654858939E+02 -0.17937648683E+03 -0.10028240837E+03  0.25434093489E+03  0.12500000000E+03 0.  0.
         25    1    1    2    0    0  0.20758781815E+03  0.34036188386E+02 -0.22885867950E+03  0.33504098189E+03  0.12500000000E+03 0.  0.
         25    1    1    2    0    0 -0.12493295921E+03  0.14534029844E+03 -0.48001676960E+03  0.53176418246E+03  0.12500000000E+03 0.  0.
</event>
<event>
 5    0  0.5691975E-005  0.2435573E+03  0.7546771E-02  0.1117445E+00
         21   -1    0    0  502  501  0.00000000000E+00  0.00000000000E+00  0.16796075740E+02  0.16796075740E+02  0.00000000000E+00 0.  1.
         21   -1    0    0  501  502 -0.00000000000E+00 -0.00000000000E+00 -0.35317866408E+04  0.35317866408E+04  0.00000000000E+00 0.  1.
         25    1    1    2    0    0 -0.66262365820E+02  0.26709130328E+02 -0.68589162582E+03  0.70083978278E+03  0.12500000000E+03 0.  0.
         25    1    1    2    0    0  0.71110858079E+02  0.26932500664E+02 -0.74663671862E+03  0.76083736982E+03  0.12500000000E+03 0.  0.
         25    1    1    2    0    0 -0.48484922582E+01 -0.53641630993E+02 -0.20824622207E+04  0.20869055640E+04  0.12500000000E+03 0.  0.
</event>
<event>
 5    0  0.5691975E-005  0.2664778E+03  0.7546771E-02  0.1103313E+00
         21   -1    0    0  502  501  0.00000000000E+00  0.00000000000E+00  0.29551847433E+03  0.29551847433E+03  0.00000000000E+00 0. -1.
         21   -1    0    0  501  502 -0.00000000000E+00 -0.00000000000E+00 -0.24029102796E+03  0.24029102796E+03  0.00000000000E+00 0. -1.
         25    1    1    2    0    0  0.88910834242E+02  0.87015391046E+02 -0.77108074502E+02  0.19247719314E+03  0.12500000000E+03 0.  0.
         25    1    1    2    0    0 -0.11797567974E+03 -0.56708184481E+02  0.49624642383E+02  0.18767441043E+03  0.12500000000E+03 0.  0.
         25    1    1    2    0    0  0.29064845499E+02 -0.30307206565E+02  0.82710878488E+02  0.15565789872E+03  0.12500000000E+03 0.  0.
</event>
<event>
 5    0  0.5691975E-005  0.2097611E+03  0.7546771E-02  0.1141755E+00
         21   -1    0    0  502  501  0.00000000000E+00  0.00000000000E+00  0.11875270856E+03  0.11875270856E+03  0.00000000000E+00 0. -1.
         21   -1    0    0  501  502 -0.00000000000E+00 -0.00000000000E+00 -0.37051555607E+03  0.37051555607E+03  0.00000000000E+00 0. -1.
         25    1    1    2    0    0  0.26486300838E+01  0.46813919925E+02 -0.62981934417E+02  0.14761531900E+03  0.12500000000E+03 0.  0.
         25    1    1    2    0    0 -0.25183804043E+02  0.24248451095E+02 -0.45833809548E+02  0.13765155090E+03  0.12500000000E+03 0.  0.
         25    1    1    2    0    0  0.22535173959E+02 -0.71062371020E+02 -0.14294710355E+03  0.20400139473E+03  0.12500000000E+03 0.  0.
</event>
<event>
 5    0  0.5691975E-005  0.2293393E+03  0.7546771E-02  0.1127106E+00
         21   -1    0    0  502  501  0.00000000000E+00  0.00000000000E+00  0.10927818271E+03  0.10927818271E+03  0.00000000000E+00 0.  1.
         21   -1    0    0  501  502 -0.00000000000E+00 -0.00000000000E+00 -0.48130835624E+03  0.48130835624E+03  0.00000000000E+00 0.  1.
         25    1    1    2    0    0 -0.27683575300E+02 -0.90254157594E+02 -0.10851192634E+03  0.19055716062E+03  0.12500000000E+03 0.  0.
         25    1    1    2    0    0 -0.54202409081E+02  0.30367950458E+02 -0.13258556333E+03  0.19252024613E+03  0.12500000000E+03 0.  0.
         25    1    1    2    0    0  0.81885984381E+02  0.59886207136E+02 -0.13093268387E+03  0.20750913220E+03  0.12500000000E+03 0.  0.
</event>
<event>
 5    0  0.5691975E-005  0.3074844E+03  0.7546771E-02  0.1081558E+00
         21   -1    0    0  502  501  0.00000000000E+00  0.00000000000E+00  0.70199510032E+02  0.70199510032E+02  0.00000000000E+00 0.  1.
         21   -1    0    0  501  502 -0.00000000000E+00 -0.00000000000E+00 -0.13468282504E+04  0.13468282504E+04  0.00000000000E+00 0.  1.
         25    1    1    2    0    0 -0.35814372889E+02 -0.38148498752E+02 -0.83390154124E+02  0.15911283753E+03  0.12500000000E+03 0.  0.
         25    1    1    2    0    0  0.16756467223E+03  0.52624156213E+02 -0.61859567062E+03  0.65508230391E+03  0.12500000000E+03 0.  0.
         25    1    1    2    0    0 -0.13175029934E+03 -0.14475657461E+02 -0.57464291566E+03  0.60283261902E+03  0.12500000000E+03 0.  0.
</event>
<event>
 5    0  0.5691975E-005  0.2925520E+03  0.7546771E-02  0.1089024E+00
         21   -1    0    0  502  501  0.00000000000E+00  0.00000000000E+00  0.17527807782E+03  0.17527807782E+03  0.00000000000E+00 0.  1.
         21   -1    0    0  501  502 -0.00000000000E+00 -0.00000000000E+00 -0.48829090951E+03  0.48829090951E+03  0.00000000000E+00 0.  1.
         25    1    1    2    0    0 -0.14910678087E+03  0.34296954976E+01 -0.12888716461E+03  0.23341271626E+03  0.12500000000E+03 0.  0.
         25    1    1    2    0    0  0.18070479500E+03  0.57857283648E+02 -0.46625229070E+02  0.23194956390E+03  0.12500000000E+03 0.  0.
         25    1    1    2    0    0 -0.31598014122E+02 -0.61286979146E+02 -0.13750043801E+03  0.19820670716E+03  0.12500000000E+03 0.  0.
</event>
<event>
 5    0  0.5691975E-005  0.1934862E+03  0.7546771E-02  0.1155354E+00
         21   -1    0    0  502  501  0.00000000000E+00  0.00000000000E+00  0.92122706945E+02  0.92122706945E+02  0.00000000000E+00 0.  1.
         21   -1    0    0  501  502 -0.00000000000E+00 -0.00000000000E+00 -0.40638077999E+03  0.40638077999E+03  0.00000000000E+00 0.  1.
         25    1    1    2    0    0  0.14084217281E+02 -0.64332244528E+01 -0.14550953732E+03  0.19245201221E+03  0.12500000000E+03 0.  0.
         25    1    1    2    0    0 -0.41741488575E+01  0.22269447287E+02 -0.10322577404E+03  0.16368846089E+03  0.12500000000E+03 0.  0.
         25    1    1    2    0    0 -0.99100684237E+01 -0.15836222834E+02 -0.65522761686E+02  0.14236301384E+03  0.12500000000E+03 0.  0.
</event>
<event>
 5    0  0.5941676E-005  0.3546877E+03  0.7546771E-02  0.1060707E+00
         21   -1    0    0  502  501  0.00000000000E+00  0.00000000000E+00  0.60464817000E+03  0.60464817000E+03  0.00000000000E+00 0.  1.
         21   -1    0    0  501  502 -0.00000000000E+00 -0.00000000000E+00 -0.20806043214E+03  0.20806043214E+03  0.00000000000E+00 0.  1.
         25    1    1    2    0    0 -0.11507986933E+03 -0.15906870983E+03  0.13075120926E+03  0.26695900340E+03  0.12500000000E+03 0.  0.
         25    1    1    2    0    0  0.31165768747E+02 -0.10741356743E+03  0.12295421785E+03  0.20797047699E+03  0.12500000000E+03 0.  0.
         25    1    1    2    0    0  0.83914100582E+02  0.26648227726E+03  0.14288231074E+03  0.33777912175E+03  0.12500000000E+03 0.  0.
</event>
<event>
 5    0  0.5849614E-005  0.3303703E+03  0.7546771E-02  0.1070973E+00
         21   -1    0    0  502  501  0.00000000000E+00  0.00000000000E+00  0.46617855609E+03  0.46617855609E+03  0.00000000000E+00 0.  1.
         21   -1    0    0  501  502 -0.00000000000E+00 -0.00000000000E+00 -0.23412599676E+03  0.23412599676E+03  0.00000000000E+00 0.  1.
         25    1    1    2    0    0  0.11903328897E+02  0.61259157485E+02  0.36944876778E+02  0.14451400463E+03  0.12500000000E+03 0.  0.
         25    1    1    2    0    0  0.17631397686E+03  0.92183516360E+02  0.15054410327E+03  0.27905724530E+03  0.12500000000E+03 0.  0.
         25    1    1    2    0    0 -0.18821730576E+03 -0.15344267385E+03  0.44563579278E+02  0.27673330292E+03  0.12500000000E+03 0.  0.
</event>
<event>
 5    0  0.5691975E-005  0.4320278E+03  0.7546771E-02  0.1033221E+00
         21   -1    0    0  502  501  0.00000000000E+00  0.00000000000E+00  0.25449805486E+03  0.25449805486E+03  0.00000000000E+00 0.  1.
         21   -1    0    0  501  502 -0.00000000000E+00 -0.00000000000E+00 -0.73339674841E+03  0.73339674841E+03  0.00000000000E+00 0.  1.
         25    1    1    2    0    0 -0.18603537735E+03 -0.17312371461E+03 -0.32590729003E+03  0.43176561221E+03  0.12500000000E+03 0.  0.
         25    1    1    2    0    0  0.14813222324E+03  0.28802256957E+03 -0.41820044158E+02  0.34967709710E+03  0.12500000000E+03 0.  0.
         25    1    1    2    0    0  0.37903154115E+02 -0.11489885495E+03 -0.11117135936E+03  0.20645209396E+03  0.12500000000E+03 0.  0.
</event>
<event>
 5    0  0.6172053E-005  0.2801872E+03  0.7546771E-02  0.1095587E+00
         21   -1    0    0  502  501  0.00000000000E+00  0.00000000000E+00  0.24106018562E+03  0.24106018562E+03  0.00000000000E+00 0. -1.
         21   -1    0    0  501  502 -0.00000000000E+00 -0.00000000000E+00 -0.32566510632E+03  0.32566510632E+03  0.00000000000E+00 0. -1.
         25    1    1    2    0    0 -0.10048337876E+02 -0.18621086049E+02  0.40037075628E+02  0.13294992051E+03  0.12500000000E+03 0.  0.
         25    1    1    2    0    0  0.16103405795E+03  0.49785335008E+02 -0.10407138841E+03  0.23423578140E+03  0.12500000000E+03 0.  0.
         25    1    1    2    0    0 -0.15098572007E+03 -0.31164248958E+02 -0.20570607921E+02  0.19953959003E+03  0.12500000000E+03 0.  0.
</event>
<event>
 5    0  0.5691975E-005  0.4486728E+03  0.7546771E-02  0.1028119E+00
         21   -1    0    0  502  501  0.00000000000E+00  0.00000000000E+00  0.15895746506E+03  0.15895746506E+03  0.00000000000E+00 0.  1.
         21   -1    0    0  501  502 -0.00000000000E+00 -0.00000000000E+00 -0.12664223035E+04  0.12664223035E+04  0.00000000000E+00 0.  1.
         25    1    1    2    0    0  0.27874582433E+02  0.24559140641E+03 -0.77076066799E+03  0.81901717843E+03  0.12500000000E+03 0.  0.
         25    1    1    2    0    0 -0.81799007287E+02 -0.22572733256E+03 -0.32666063936E+02  0.27264625065E+03  0.12500000000E+03 0.  0.
         25    1    1    2    0    0  0.53924424854E+02 -0.19864073850E+02 -0.30403810649E+03  0.33371633947E+03  0.12500000000E+03 0.  0.
</event>
<event>
 5    0  0.5691975E-005  0.2893686E+03  0.7546771E-02  0.1090679E+00
         21   -1    0    0  502  501  0.00000000000E+00  0.00000000000E+00  0.18642927183E+03  0.18642927183E+03  0.00000000000E+00 0.  1.
         21   -1    0    0  501  502 -0.00000000000E+00 -0.00000000000E+00 -0.44914723735E+03  0.44914723735E+03  0.00000000000E+00 0.  1.
         25    1    1    2    0    0  0.15173562414E+03 -0.62711348619E+02 -0.18427281781E+03  0.27665481066E+03  0.12500000000E+03 0.  0.
         25    1    1    2    0    0 -0.76890077733E+02 -0.39202894790E+01 -0.12421202995E+03  0.19230465701E+03  0.12500000000E+03 0.  0.
         25    1    1    2    0    0 -0.74845546407E+02  0.66631638098E+02  0.45766882241E+02  0.16661704151E+03  0.12500000000E+03 0.  0.
</event>
<event>
 5    0  0.5691975E-005  0.2920943E+03  0.7546771E-02  0.1089261E+00
         21   -1    0    0  502  501  0.00000000000E+00  0.00000000000E+00  0.50756058278E+03  0.50756058278E+03  0.00000000000E+00 0.  1.
         21   -1    0    0  501  502 -0.00000000000E+00 -0.00000000000E+00 -0.16809635114E+03  0.16809635114E+03  0.00000000000E+00 0.  1.
         25    1    1    2    0    0  0.16051146745E+02  0.10426431301E+03 -0.47873379872E+02  0.17042754114E+03  0.12500000000E+03 0.  0.
         25    1    1    2    0    0  0.36215402249E+02 -0.60134253039E+00  0.26522375578E+03  0.29543283095E+03  0.12500000000E+03 0.  0.
         25    1    1    2    0    0 -0.52266548994E+02 -0.10366297048E+03  0.12211385573E+03  0.20979656182E+03  0.12500000000E+03 0.  0.
</event>
<event>
 5    0  0.5691975E-005  0.3068321E+03  0.7546771E-02  0.1081874E+00
         21   -1    0    0  502  501  0.00000000000E+00  0.00000000000E+00  0.70126644869E+02  0.70126644869E+02  0.00000000000E+00 0.  1.
         21   -1    0    0  501  502 -0.00000000000E+00 -0.00000000000E+00 -0.13425134833E+04  0.13425134833E+04  0.00000000000E+00 0.  1.
         25    1    1    2    0    0 -0.83060719913E+02 -0.50160807335E+02 -0.81844060725E+03  0.83359775514E+03  0.12500000000E+03 0.  0.
         25    1    1    2    0    0  0.13786809159E+03  0.95036467530E+02 -0.32268353962E+03  0.38443361921E+03  0.12500000000E+03 0.  0.
         25    1    1    2    0    0 -0.54807371676E+02 -0.44875660194E+02 -0.13126269158E+03  0.19460875383E+03  0.12500000000E+03 0.  0.
</event>
<event>
 5    0  0.5691975E-005  0.3130468E+03  0.7546771E-02  0.1078895E+00
         21   -1    0    0  502  501  0.00000000000E+00  0.00000000000E+00  0.10296723088E+04  0.10296723088E+04  0.00000000000E+00 0. -1.
         21   -1    0    0  501  502 -0.00000000000E+00 -0.00000000000E+00 -0.95174244933E+02  0.95174244933E+02  0.00000000000E+00 0. -1.
         25    1    1    2    0    0  0.31476364733E+02 -0.15113995437E+03  0.20544635439E+03  0.28577482723E+03  0.12500000000E+03 0.  0.
         25    1    1    2    0    0  0.69261286936E+02  0.19289508016E+03  0.34075672360E+03  0.41682824100E+03  0.12500000000E+03 0.  0.
         25    1    1    2    0    0 -0.10073765167E+03 -0.41755125788E+02  0.38829498586E+03  0.42224348549E+03  0.12500000000E+03 0.  0.
</event>
<event>
 5    0  0.5691975E-005  0.2642870E+03  0.7546771E-02  0.1104595E+00
         21   -1    0    0  502  501  0.00000000000E+00  0.00000000000E+00  0.30117897485E+03  0.30117897485E+03  0.00000000000E+00 0. -1.
         21   -1    0    0  501  502 -0.00000000000E+00 -0.00000000000E+00 -0.23191392877E+03  0.23191392877E+03  0.00000000000E+00 0. -1.
         25    1    1    2    0    0 -0.49068304520E+02  0.90598634571E+02  0.79036133268E+01  0.16218285421E+03  0.12500000000E+03 0.  0.
         25    1    1    2    0    0 -0.83887640392E+02 -0.86774563675E+02  0.71968477799E+02  0.18807291912E+03  0.12500000000E+03 0.  0.
         25    1    1    2    0    0  0.13295594491E+03 -0.38240708964E+01 -0.10607045045E+02  0.18283713028E+03  0.12500000000E+03 0.  0.
</event>
<event>
 5    0  0.5691975E-005  0.3512995E+03  0.7546771E-02  0.1062083E+00
         21   -1    0    0  502  501  0.00000000000E+00  0.00000000000E+00  0.12020722810E+04  0.12020722810E+04  0.00000000000E+00 0.  1.
         21   -1    0    0  501  502 -0.00000000000E+00 -0.00000000000E+00 -0.10266548480E+03  0.10266548480E+03  0.00000000000E+00 0.  1.
         25    1    1    2    0    0  0.68880904156E+02 -0.11853121618E+03  0.49690790729E+03  0.53041181783E+03  0.12500000000E+03 0.  0.
         25    1    1    2    0    0 -0.15302457698E+03  0.93454810715E+02  0.58013219668E+03  0.61994248800E+03  0.12500000000E+03 0.  0.
         25    1    1    2    0    0  0.84143672822E+02  0.25076405462E+02  0.22366692225E+02  0.15438345996E+03  0.12500000000E+03 0.  0.
</event>
<event>
 5    0  0.5691975E-005  0.2767989E+03  0.7546771E-02  0.1097450E+00
         21   -1    0    0  502  501  0.00000000000E+00  0.00000000000E+00  0.45774594893E+03  0.45774594893E+03  0.00000000000E+00 0.  1.
         21   -1    0    0  501  502 -0.00000000000E+00 -0.00000000000E+00 -0.16738026102E+03  0.16738026102E+03  0.00000000000E+00 0.  1.
         25    1    1    2    0    0  0.42307547262E+02 -0.68575968926E+02  0.25912248148E+03  0.29876755593E+03  0.12500000000E+03 0.  0.
         25    1    1    2    0    0  0.59370593288E+02  0.81935334617E+02  0.35190942196E+02  0.16462584493E+03  0.12500000000E+03 0.  0.
         25    1    1    2    0    0 -0.10167814055E+03 -0.13359365691E+02 -0.39477357667E+01  0.16173280909E+03  0.12500000000E+03 0.  0.
</event>
<event>
 5    0  0.5691975E-005  0.3843172E+03  0.7546771E-02  0.1049350E+00
         21   -1    0    0  502  501  0.00000000000E+00  0.00000000000E+00  0.10452450620E+04  0.10452450620E+04  0.00000000000E+00 0.  1.
         21   -1    0    0  501  502 -0.00000000000E+00 -0.00000000000E+00 -0.14130633431E+03  0.14130633431E+03  0.00000000000E+00 0.  1.
         25    1    1    2    0    0  0.13548349929E+03 -0.23132213443E+02  0.37368365476E+03  0.41731924436E+03  0.12500000000E+03 0.  0.
         25    1    1    2    0    0 -0.28980472505E+03 -0.45202844799E+02  0.43316285375E+03  0.53785233448E+03  0.12500000000E+03 0.  0.
         25    1    1    2    0    0  0.15432122576E+03  0.68335058242E+02  0.97092219169E+02  0.23137981746E+03  0.12500000000E+03 0.  0.
</event>
<event>
 5    0  0.5691975E-005  0.3154550E+03  0.7546771E-02  0.1077760E+00
         21   -1    0    0  502  501  0.00000000000E+00  0.00000000000E+00  0.92095171269E+02  0.92095171269E+02  0.00000000000E+00 0. -1.
         21   -1    0    0  501  502 -0.00000000000E+00 -0.00000000000E+00 -0.10805331425E+04  0.10805331425E+04  0.00000000000E+00 0. -1.
         25    1    1    2    0    0  0.88426473633E+02  0.13898940132E+03 -0.29876458544E+03  0.36334910545E+03  0.12500000000E+03 0.  0.
         25    1    1    2    0    0 -0.27738646151E+00 -0.12119586082E+02 -0.55545542750E+03  0.56947580568E+03  0.12500000000E+03 0.  0.
         25    1    1    2    0    0 -0.88149087171E+02 -0.12686981524E+03 -0.13421795828E+03  0.23980340263E+03  0.12500000000E+03 0.  0.
</event>
<event>
 5    0  0.5691975E-005  0.2896400E+03  0.7546771E-02  0.1090537E+00
         21   -1    0    0  502  501  0.00000000000E+00  0.00000000000E+00  0.45484995127E+02  0.45484995127E+02  0.00000000000E+00 0.  1.
         21   -1    0    0  501  502 -0.00000000000E+00 -0.00000000000E+00 -0.18443731927E+04  0.18443731927E+04  0.00000000000E+00 0.  1.
         25    1    1    2    0    0 -0.10481627384E+03  0.16949400094E+02 -0.24338752776E+03  0.29348973081E+03  0.12500000000E+03 0.  0.
         25    1    1    2    0    0 -0.26353720037E+02  0.80444135875E+02 -0.57213271053E+03  0.59171497870E+03  0.12500000000E+03 0.  0.
         25    1    1    2    0    0  0.13116999388E+03 -0.97393535969E+02 -0.98336795933E+03  0.10046534784E+04  0.12500000000E+03 0.  0.
</event>
<event>
 5    0  0.5691975E-005  0.2978907E+03  0.7546771E-02  0.1086300E+00
         21   -1    0    0  502  501  0.00000000000E+00  0.00000000000E+00  0.68229398851E+03  0.68229398851E+03  0.00000000000E+00 0.  1.
         21   -1    0    0  501  502 -0.00000000000E+00 -0.00000000000E+00 -0.13005956950E+03  0.13005956950E+03  0.00000000000E+00 0.  1.
         25    1    1    2    0    0  0.66806527381E+02 -0.57647829513E+02  0.44859594789E+03  0.47397226587E+03  0.12500000000E+03 0.  0.
         25    1    1    2    0    0 -0.83496469668E+02  0.52516238322E+02  0.13451697229E+03  0.20844527236E+03  0.12500000000E+03 0.  0.
         25    1    1    2    0    0  0.16689942287E+02  0.51315911911E+01 -0.30878501174E+02  0.12993601978E+03  0.12500000000E+03 0.  0.
</event>
<event>
 5    0  0.5691975E-005  0.2732385E+03  0.7546771E-02  0.1099440E+00
         21   -1    0    0  502  501  0.00000000000E+00  0.00000000000E+00  0.59185520601E+03  0.59185520601E+03  0.00000000000E+00 0. -1.
         21   -1    0    0  501  502 -0.00000000000E+00 -0.00000000000E+00 -0.12614452186E+03  0.12614452186E+03  0.00000000000E+00 0. -1.
         25    1    1    2    0    0  0.22595821065E+02 -0.76997033006E+02  0.31089952659E+03  0.34456150373E+03  0.12500000000E+03 0.  0.
         25    1    1    2    0    0  0.10561052893E+02  0.84760899522E+01 -0.38022602689E+02  0.13135485623E+03  0.12500000000E+03 0.  0.
         25    1    1    2    0    0 -0.33156873958E+02  0.68520943054E+02  0.19283376025E+03  0.24208336791E+03  0.12500000000E+03 0.  0.
</event>
<event>
 5    0  0.5691975E-005  0.3765922E+03  0.7546771E-02  0.1052201E+00
         21   -1    0    0  502  501  0.00000000000E+00  0.00000000000E+00  0.26042670039E+03  0.26042670039E+03  0.00000000000E+00 0.  1.
         21   -1    0    0  501  502 -0.00000000000E+00 -0.00000000000E+00 -0.54457415355E+03  0.54457415355E+03  0.00000000000E+00 0.  1.
         25    1    1    2    0    0  0.23097263179E+03  0.28187877755E+02 -0.64974480162E+02  0.27201028687E+03  0.12500000000E+03 0.  0.
         25    1    1    2    0    0  0.22550746409E+01  0.64535122359E+02  0.45041670571E+02  0.14772819456E+03  0.12500000000E+03 0.  0.
         25    1    1    2    0    0 -0.23322770643E+03 -0.92723000114E+02 -0.26421464357E+03  0.38526237251E+03  0.12500000000E+03 0.  0.
</event>
<event>
 5    0  0.5691975E-005  0.3796592E+03  0.7546771E-02  0.1051060E+00
         21   -1    0    0  502  501  0.00000000000E+00  0.00000000000E+00  0.52682738295E+03  0.52682738295E+03  0.00000000000E+00 0. -1.
         21   -1    0    0  501  502 -0.00000000000E+00 -0.00000000000E+00 -0.27360209431E+03  0.27360209431E+03  0.00000000000E+00 0. -1.
         25    1    1    2    0    0 -0.37639500521E+02 -0.84692589802E+02  0.15057034849E+03  0.21653174505E+03  0.12500000000E+03 0.  0.
         25    1    1    2    0    0 -0.21056327967E+03  0.46899988574E+02  0.16186295997E+03  0.29725598645E+03  0.12500000000E+03 0.  0.
         25    1    1    2    0    0  0.24820278019E+03  0.37792601228E+02 -0.59208019830E+02  0.28664174576E+03  0.12500000000E+03 0.  0.
</event>
<event>
 5    0  0.5691975E-005  0.2801776E+03  0.7546771E-02  0.1095592E+00
         21   -1    0    0  502  501  0.00000000000E+00  0.00000000000E+00  0.97560947789E+02  0.97560947789E+02  0.00000000000E+00 0. -1.
         21   -1    0    0  501  502 -0.00000000000E+00 -0.00000000000E+00 -0.80461984334E+03  0.80461984334E+03  0.00000000000E+00 0. -1.
         25    1    1    2    0    0 -0.15271217079E+03 -0.12810099612E+02 -0.87589571580E+02  0.21629155973E+03  0.12500000000E+03 0.  0.
         25    1    1    2    0    0  0.81582868788E+02 -0.12288192441E+01 -0.33794342820E+03  0.36944287128E+03  0.12500000000E+03 0.  0.
         25    1    1    2    0    0  0.71129302001E+02  0.14038918856E+02 -0.28152589577E+03  0.31644636013E+03  0.12500000000E+03 0.  0.
</event>
<event>
 5    0  0.6648375E-005  0.3129697E+03  0.7546771E-02  0.1078931E+00
         21   -1    0    0  502  501  0.00000000000E+00  0.00000000000E+00  0.24848185622E+03  0.24848185622E+03  0.00000000000E+00 0.  1.
         21   -1    0    0  501  502 -0.00000000000E+00 -0.00000000000E+00 -0.39419394781E+03  0.39419394781E+03  0.00000000000E+00 0.  1.
         25    1    1    2    0    0 -0.35307904303E+02 -0.11490680422E+03 -0.98047173314E+02  0.19921965254E+03  0.12500000000E+03 0.  0.
         25    1    1    2    0    0  0.14316205218E+03 -0.60677048766E+02 -0.30627598201E+02  0.20184183710E+03  0.12500000000E+03 0.  0.
         25    1    1    2    0    0 -0.10785414788E+03  0.17558385299E+03 -0.17037320069E+02  0.24161431439E+03  0.12500000000E+03 0.  0.
</event>
<event>
 5    0  0.5691975E-005  0.3664838E+03  0.7546771E-02  0.1056046E+00
         21   -1    0    0  502  501  0.00000000000E+00  0.00000000000E+00  0.43182302282E+03  0.43182302282E+03  0.00000000000E+00 0.  1.
         21   -1    0    0  501  502 -0.00000000000E+00 -0.00000000000E+00 -0.31103100107E+03  0.31103100107E+03  0.00000000000E+00 0.  1.
         25    1    1    2    0    0  0.11221753801E+03 -0.12733189282E+03  0.23473126758E+03  0.31548368380E+03  0.12500000000E+03 0.  0.
         25    1    1    2    0    0 -0.10155259142E+03 -0.67784785084E+02 -0.82664930581E+02  0.19330337985E+03  0.12500000000E+03 0.  0.
         25    1    1    2    0    0 -0.10664946590E+02  0.19511667790E+03 -0.31274315248E+02  0.23406696024E+03  0.12500000000E+03 0.  0.
</event>
<event>
 5    0  0.6256266E-005  0.3297600E+03  0.7546771E-02  0.1071243E+00
         21   -1    0    0  502  501  0.00000000000E+00  0.00000000000E+00  0.48953649260E+03  0.48953649260E+03  0.00000000000E+00 0. -1.
         21   -1    0    0  501  502 -0.00000000000E+00 -0.00000000000E+00 -0.22213185204E+03  0.22213185204E+03  0.00000000000E+00 0. -1.
         25    1    1    2    0    0  0.90658640918E+02 -0.11915195873E+03  0.21763686269E+03  0.29224473040E+03  0.12500000000E+03 0.  0.
         25    1    1    2    0    0  0.42580552515E+02 -0.46394521996E+02 -0.56517965565E+02  0.15094646586E+03  0.12500000000E+03 0.  0.
         25    1    1    2    0    0 -0.13323919343E+03  0.16554648072E+03  0.10628574344E+03  0.26847714838E+03  0.12500000000E+03 0.  0.
</event>
<event>
 5    0  0.5691975E-005  0.3606440E+03  0.7546771E-02  0.1058329E+00
         21   -1    0    0  502  501  0.00000000000E+00  0.00000000000E+00  0.17507278817E+04  0.17507278817E+04  0.00000000000E+00 0. -1.
         21   -1    0    0  501  502 -0.00000000000E+00 -0.00000000000E+00 -0.74291450297E+02  0.74291450297E+02  0.00000000000E+00 0. -1.
         25    1    1    2    0    0 -0.10537286272E+03  0.21804621110E+03  0.64698967977E+03  0.70204575072E+03  0.12500000000E+03 0.  0.
         25    1    1    2    0    0 -0.23463255562E+02 -0.86619789644E+02  0.75079515312E+03  0.76640190127E+03  0.12500000000E+03 0.  0.
         25    1    1    2    0    0  0.12883611828E+03 -0.13142642145E+03  0.27865159850E+03  0.35657168000E+03  0.12500000000E+03 0.  0.
</event>
<event>
 5    0  0.5691975E-005  0.3005898E+03  0.7546771E-02  0.1084946E+00
         21   -1    0    0  502  501  0.00000000000E+00  0.00000000000E+00  0.57390082572E+03  0.57390082572E+03  0.00000000000E+00 0.  1.
         21   -1    0    0  501  502 -0.00000000000E+00 -0.00000000000E+00 -0.15743878261E+03  0.15743878261E+03  0.00000000000E+00 0.  1.
         25    1    1    2    0    0 -0.14346741465E+02 -0.33868520636E+02  0.36968059384E+03  0.39197148767E+03  0.12500000000E+03 0.  0.
         25    1    1    2    0    0 -0.90607422781E+02  0.48194810963E+02 -0.18928433995E+02  0.16283651458E+03  0.12500000000E+03 0.  0.
         25    1    1    2    0    0  0.10495416425E+03 -0.14326290326E+02  0.65709883268E+02  0.17653160608E+03  0.12500000000E+03 0.  0.
</event>
<event>
 5    0  0.5691975E-005  0.2351041E+03  0.7546771E-02  0.1123098E+00
         21   -1    0    0  502  501  0.00000000000E+00  0.00000000000E+00  0.10208841401E+04  0.10208841401E+04  0.00000000000E+00 0. -1.
         21   -1    0    0  501  502 -0.00000000000E+00 -0.00000000000E+00 -0.54143208151E+02  0.54143208151E+02  0.00000000000E+00 0. -1.
         25    1    1    2    0    0  0.37128099339E+02  0.10746285922E+03  0.34946119876E+03  0.38816863772E+03  0.12500000000E+03 0.  0.
         25    1    1    2    0    0 -0.79214625700E+02 -0.41607028826E+02  0.30690733439E+03  0.34325386185E+03  0.12500000000E+03 0.  0.
         25    1    1    2    0    0  0.42086526361E+02 -0.65855830397E+02  0.31037239879E+03  0.34360484867E+03  0.12500000000E+03 0.  0.
</event>
<event>
 5    0  0.5691975E-005  0.3128264E+03  0.7546771E-02  0.1078999E+00
         21   -1    0    0  502  501  0.00000000000E+00  0.00000000000E+00  0.74770184553E+03  0.74770184553E+03  0.00000000000E+00 0. -1.
         21   -1    0    0  501  502 -0.00000000000E+00 -0.00000000000E+00 -0.13088152311E+03  0.13088152311E+03  0.00000000000E+00 0. -1.
         25    1    1    2    0    0 -0.94136610782E+02  0.11769701379E+02  0.26262345887E+03  0.30593513775E+03  0.12500000000E+03 0.  0.
         25    1    1    2    0    0  0.18772214700E+03  0.10898517793E+03  0.22525190851E+03  0.33686910777E+03  0.12500000000E+03 0.  0.
         25    1    1    2    0    0 -0.93585536216E+02 -0.12075487931E+03  0.12894495504E+03  0.23577912312E+03  0.12500000000E+03 0.  0.
</event>
<event>
 5    0  0.5691975E-005  0.3086301E+03  0.7546771E-02  0.1081004E+00
         21   -1    0    0  502  501  0.00000000000E+00  0.00000000000E+00  0.47270417193E+03  0.47270417193E+03  0.00000000000E+00 0.  1.
         21   -1    0    0  501  502 -0.00000000000E+00 -0.00000000000E+00 -0.20150565147E+03  0.20150565147E+03  0.00000000000E+00 0.  1.
         25    1    1    2    0    0 -0.17769021557E+02  0.20821011625E+02 -0.13135215689E+03  0.18337841141E+03  0.12500000000E+03 0.  0.
         25    1    1    2    0    0 -0.38483919075E+02 -0.17025300692E+02  0.26810517453E+03  0.29879132768E+03  0.12500000000E+03 0.  0.
         25    1    1    2    0    0  0.56252940632E+02 -0.37957109328E+01  0.13444550282E+03  0.19204008430E+03  0.12500000000E+03 0.  0.
</event>
<event>
 5    0  0.5691975E-005  0.3146700E+03  0.7546771E-02  0.1078129E+00
         21   -1    0    0  502  501  0.00000000000E+00  0.00000000000E+00  0.19284708035E+04  0.19284708035E+04  0.00000000000E+00 0. -1.
         21   -1    0    0  501  502 -0.00000000000E+00 -0.00000000000E+00 -0.51344941477E+02  0.51344941477E+02  0.00000000000E+00 0. -1.
         25    1    1    2    0    0 -0.20975207685E+03  0.14314012684E+02  0.70172684948E+03  0.74313282527E+03  0.12500000000E+03 0.  0.
         25    1    1    2    0    0  0.13528609534E+03 -0.52098593079E+01  0.32263923716E+03  0.37155154095E+03  0.12500000000E+03 0.  0.
         25    1    1    2    0    0  0.74465981514E+02 -0.91041533761E+01  0.85275977538E+03  0.86513137876E+03  0.12500000000E+03 0.  0.
</event>
<event>
 5    0  0.5691975E-005  0.3287607E+03  0.7546771E-02  0.1071687E+00
         21   -1    0    0  502  501  0.00000000000E+00  0.00000000000E+00  0.34865433040E+03  0.34865433040E+03  0.00000000000E+00 0.  1.
         21   -1    0    0  501  502 -0.00000000000E+00 -0.00000000000E+00 -0.31000217683E+03  0.31000217683E+03  0.00000000000E+00 0.  1.
         25    1    1    2    0    0 -0.29952609611E+00 -0.93004422647E+02 -0.22048109592E+03  0.26997560262E+03  0.12500000000E+03 0.  0.
         25    1    1    2    0    0 -0.22040618797E+02  0.99009883317E+02  0.12440377035E+03  0.20344543236E+03  0.12500000000E+03 0.  0.
         25    1    1    2    0    0  0.22340144893E+02 -0.60054606706E+01  0.13472947914E+03  0.18523547225E+03  0.12500000000E+03 0.  0.
</event>
<event>
 5    0  0.5691975E-005  0.2428687E+03  0.7546771E-02  0.1117896E+00
         21   -1    0    0  502  501  0.00000000000E+00  0.00000000000E+00  0.68630638837E+02  0.68630638837E+02  0.00000000000E+00 0. -1.
         21   -1    0    0  501  502 -0.00000000000E+00 -0.00000000000E+00 -0.85945885704E+03  0.85945885704E+03  0.00000000000E+00 0. -1.
         25    1    1    2    0    0 -0.24707257884E+02 -0.12511370118E+02 -0.31282208962E+03  0.33800834712E+03  0.12500000000E+03 0.  0.
         25    1    1    2    0    0 -0.26906459711E+02  0.10375665869E+03 -0.33438275920E+03  0.37272809318E+03  0.12500000000E+03 0.  0.
         25    1    1    2    0    0  0.51613717595E+02 -0.91245288577E+02 -0.14362336939E+03  0.21735305557E+03  0.12500000000E+03 0.  0.
</event>
<event>
 5    0  0.5691975E-005  0.2977645E+03  0.7546771E-02  0.1086363E+00
         21   -1    0    0  502  501  0.00000000000E+00  0.00000000000E+00  0.55133539448E+02  0.55133539448E+02  0.00000000000E+00 0. -1.
         21   -1    0    0  501  502 -0.00000000000E+00 -0.00000000000E+00 -0.16081629446E+04  0.16081629446E+04  0.00000000000E+00 0. -1.
         25    1    1    2    0    0 -0.11195992920E+03 -0.10008806730E+03 -0.93056053557E+03  0.95085254236E+03  0.12500000000E+03 0.  0.
         25    1    1    2    0    0  0.85542327476E+01 -0.26425194309E+02 -0.33750052201E+03  0.36097516278E+03  0.12500000000E+03 0.  0.
         25    1    1    2    0    0  0.10340569646E+03  0.12651326161E+03 -0.28496834758E+03  0.35146877891E+03  0.12500000000E+03 0.  0.
</event>
<event>
 5    0  0.5691975E-005  0.2159082E+03  0.7546771E-02  0.1136971E+00
         21   -1    0    0  502  501  0.00000000000E+00  0.00000000000E+00  0.54751719097E+02  0.54751719097E+02  0.00000000000E+00 0.  1.
         21   -1    0    0  501  502 -0.00000000000E+00 -0.00000000000E+00 -0.85141354430E+03  0.85141354430E+03  0.00000000000E+00 0.  1.
         25    1    1    2    0    0 -0.58094248646E+02  0.49855689880E+02 -0.31416461803E+03  0.34667699486E+03  0.12500000000E+03 0.  0.
         25    1    1    2    0    0  0.34095951919E+02  0.14396354996E+02 -0.15656193323E+03  0.20373126395E+03  0.12500000000E+03 0.  0.
         25    1    1    2    0    0  0.23998296727E+02 -0.64252044875E+02 -0.32593527394E+03  0.35575700459E+03  0.12500000000E+03 0.  0.
</event>
<event>
 5    0  0.5691975E-005  0.2018710E+03  0.7546771E-02  0.1148170E+00
         21   -1    0    0  502  501  0.00000000000E+00  0.00000000000E+00  0.42069751733E+02  0.42069751733E+02  0.00000000000E+00 0. -1.
         21   -1    0    0  501  502 -0.00000000000E+00 -0.00000000000E+00 -0.96867494419E+03  0.96867494419E+03  0.00000000000E+00 0. -1.
         25    1    1    2    0    0 -0.26014209623E+02 -0.28810719354E+02 -0.27748136903E+03  0.30680239050E+03  0.12500000000E+03 0.  0.
         25    1    1    2    0    0  0.46526220224E+02  0.63171315106E+01 -0.23489992821E+03  0.27019913321E+03  0.12500000000E+03 0.  0.
         25    1    1    2    0    0 -0.20512010601E+02  0.22493587843E+02 -0.41422389522E+03  0.43374317221E+03  0.12500000000E+03 0.  0.
</event>
<event>
 5    0  0.5691975E-005  0.2711443E+03  0.7546771E-02  0.1100626E+00
         21   -1    0    0  502  501  0.00000000000E+00  0.00000000000E+00  0.44514725044E+03  0.44514725044E+03  0.00000000000E+00 0.  1.
         21   -1    0    0  501  502 -0.00000000000E+00 -0.00000000000E+00 -0.16515706170E+03  0.16515706170E+03  0.00000000000E+00 0.  1.
         25    1    1    2    0    0  0.52396563420E+02  0.75109550736E+02  0.15857261733E+03  0.22171404881E+03  0.12500000000E+03 0.  0.
         25    1    1    2    0    0 -0.13529657463E+02 -0.14806054637E+03  0.13733602163E+03  0.23788896540E+03  0.12500000000E+03 0.  0.
         25    1    1    2    0    0 -0.38866905957E+02  0.72950995633E+02 -0.15918450226E+02  0.15070129794E+03  0.12500000000E+03 0.  0.
</event>
<event>
 5    0  0.5691975E-005  0.3733536E+03  0.7546771E-02  0.1053418E+00
         21   -1    0    0  502  501  0.00000000000E+00  0.00000000000E+00  0.36247412262E+03  0.36247412262E+03  0.00000000000E+00 0.  1.
         21   -1    0    0  501  502 -0.00000000000E+00 -0.00000000000E+00 -0.38455971487E+03  0.38455971487E+03  0.00000000000E+00 0.  1.
         25    1    1    2    0    0 -0.24329271914E+03  0.13514480594E+03  0.81471464390E+02  0.31578167342E+03  0.12500000000E+03 0.  0.
         25    1    1    2    0    0  0.74461879537E+02 -0.75442642748E+01  0.33977337165E+02  0.14960262988E+03  0.12500000000E+03 0.  0.
         25    1    1    2    0    0  0.16883083960E+03 -0.12760054166E+03 -0.13753439381E+03  0.28164953419E+03  0.12500000000E+03 0.  0.
</event>
<event>
 5    0  0.5691975E-005  0.2183792E+03  0.7546771E-02  0.1135097E+00
         21   -1    0    0  502  501  0.00000000000E+00  0.00000000000E+00  0.64374951880E+02  0.64374951880E+02  0.00000000000E+00 0. -1.
         21   -1    0    0  501  502 -0.00000000000E+00 -0.00000000000E+00 -0.74080759740E+03  0.74080759740E+03  0.00000000000E+00 0. -1.
         25    1    1    2    0    0 -0.12745948349E+01 -0.70589582542E+02 -0.18006324603E+03  0.23028739941E+03  0.12500000000E+03 0.  0.
         25    1    1    2    0    0  0.58900471037E+00  0.52763125778E+02 -0.13211665725E+03  0.18937820754E+03  0.12500000000E+03 0.  0.
         25    1    1    2    0    0  0.68559012452E+00  0.17826456764E+02 -0.36425274224E+03  0.38551694233E+03  0.12500000000E+03 0.  0.
</event>
<event>
 5    0  0.5691975E-005  0.2431283E+03  0.7546771E-02  0.1117726E+00
         21   -1    0    0  502  501  0.00000000000E+00  0.00000000000E+00  0.97099346222E+03  0.97099346222E+03  0.00000000000E+00 0. -1.
         21   -1    0    0  501  502 -0.00000000000E+00 -0.00000000000E+00 -0.60877220910E+02  0.60877220910E+02  0.00000000000E+00 0. -1.
         25    1    1    2    0    0 -0.62090178234E+02  0.10760954635E+03  0.24908622542E+03  0.30512940270E+03  0.12500000000E+03 0.  0.
         25    1    1    2    0    0 -0.44541719456E+00 -0.19673588831E+02  0.19635472046E+03  0.23359671389E+03  0.12500000000E+03 0.  0.
         25    1    1    2    0    0  0.62535595429E+02 -0.87935957521E+02  0.46467529543E+03  0.49314456654E+03  0.12500000000E+03 0.  0.
</event>
<event>
 5    0  0.5691975E-005  0.2692500E+03  0.7546771E-02  0.1101710E+00
         21   -1    0    0  502  501  0.00000000000E+00  0.00000000000E+00  0.15335834932E+03  0.15335834932E+03  0.00000000000E+00 0. -1.
         21   -1    0    0  501  502 -0.00000000000E+00 -0.00000000000E+00 -0.47272011971E+03  0.47272011971E+03  0.00000000000E+00 0. -1.
         25    1    1    2    0    0  0.57523787581E+02 -0.22305800566E+02 -0.28763717282E+03  0.31963522657E+03  0.12500000000E+03 0.  0.
         25    1    1    2    0    0 -0.43422665896E+02  0.60638761853E+02 -0.80317937732E+02  0.16624848413E+03  0.12500000000E+03 0.  0.
         25    1    1    2    0    0 -0.14101121685E+02 -0.38332961287E+02  0.48593340167E+02  0.14019475833E+03  0.12500000000E+03 0.  0.
</event>
<event>
 5    0  0.5821849E-005  0.3026333E+03  0.7546771E-02  0.1083932E+00
         21   -1    0    0  502  501  0.00000000000E+00  0.00000000000E+00  0.41062324092E+03  0.41062324092E+03  0.00000000000E+00 0.  1.
         21   -1    0    0  501  502 -0.00000000000E+00 -0.00000000000E+00 -0.22304359863E+03  0.22304359863E+03  0.00000000000E+00 0.  1.
         25    1    1    2    0    0  0.11271960322E+03 -0.88505205923E+02  0.22671823686E+03  0.29591390530E+03  0.12500000000E+03 0.  0.
         25    1    1    2    0    0 -0.13750448151E+03  0.13798961328E+02 -0.63955486231E+01  0.18645052108E+03  0.12500000000E+03 0.  0.
         25    1    1    2    0    0  0.24784878290E+02  0.74706244594E+02 -0.32743045946E+02  0.15130241317E+03  0.12500000000E+03 0.  0.
</event>
<event>
 5    0  0.5691975E-005  0.2478393E+03  0.7546771E-02  0.1114678E+00
         21   -1    0    0  502  501  0.00000000000E+00  0.00000000000E+00  0.23641631185E+02  0.23641631185E+02  0.00000000000E+00 0. -1.
         21   -1    0    0  501  502 -0.00000000000E+00 -0.00000000000E+00 -0.25981417247E+04  0.25981417247E+04  0.00000000000E+00 0. -1.
         25    1    1    2    0    0  0.13700309187E+02  0.50278845097E+02 -0.43842864796E+03  0.45886854337E+03  0.12500000000E+03 0.  0.
         25    1    1    2    0    0  0.74046300311E+02  0.47953799704E+02 -0.11659216178E+04  0.11759169360E+04  0.12500000000E+03 0.  0.
         25    1    1    2    0    0 -0.87746609498E+02 -0.98232644800E+02 -0.97014982775E+03  0.98699787653E+03  0.12500000000E+03 0.  0.
</event>
<event>
 5    0  0.5691975E-005  0.3637560E+03  0.7546771E-02  0.1057106E+00
         21   -1    0    0  502  501  0.00000000000E+00  0.00000000000E+00  0.80061254363E+03  0.80061254363E+03  0.00000000000E+00 0. -1.
         21   -1    0    0  501  502 -0.00000000000E+00 -0.00000000000E+00 -0.16527148053E+03  0.16527148053E+03  0.00000000000E+00 0. -1.
         25    1    1    2    0    0  0.74375311594E+02 -0.10725448632E+03  0.33835569873E+03  0.38359456549E+03  0.12500000000E+03 0.  0.
         25    1    1    2    0    0  0.76167468085E+02  0.54533578756E+02 -0.63601901477E+02  0.16865822327E+03  0.12500000000E+03 0.  0.
         25    1    1    2    0    0 -0.15054277968E+03  0.52720907562E+02  0.36058726585E+03  0.41363123540E+03  0.12500000000E+03 0.  0.
</event>
<event>
 5    0  0.5691975E-005  0.3429834E+03  0.7546771E-02  0.1065532E+00
         21   -1    0    0  502  501  0.00000000000E+00  0.00000000000E+00  0.19247656362E+04  0.19247656362E+04  0.00000000000E+00 0.  1.
         21   -1    0    0  501  502 -0.00000000000E+00 -0.00000000000E+00 -0.61117876193E+02  0.61117876193E+02  0.00000000000E+00 0.  1.
         25    1    1    2    0    0 -0.80666824918E+02 -0.11607271906E+03  0.16831979758E+03  0.25285681128E+03  0.12500000000E+03 0.  0.
         25    1    1    2    0    0  0.10891250872E+02 -0.17188526139E+02  0.10790918092E+04  0.10864981350E+04  0.12500000000E+03 0.  0.
         25    1    1    2    0    0  0.69775574046E+02  0.13326124520E+03  0.61623615326E+03  0.64652856610E+03  0.12500000000E+03 0.  0.
</event>
<event>
 5    0  0.5691975E-005  0.3572676E+03  0.7546771E-02  0.1059671E+00
         21   -1    0    0  502  501  0.00000000000E+00  0.00000000000E+00  0.12578029538E+03  0.12578029538E+03  0.00000000000E+00 0.  1.
         21   -1    0    0  501  502 -0.00000000000E+00 -0.00000000000E+00 -0.10147862405E+04  0.10147862405E+04  0.00000000000E+00 0.  1.
         25    1    1    2    0    0 -0.93357589215E+02 -0.68788136909E+02 -0.32628528053E+03  0.36815014808E+03  0.12500000000E+03 0.  0.
         25    1    1    2    0    0  0.25856727846E+02  0.88498296528E+02 -0.60361442516E+03  0.62327834322E+03  0.12500000000E+03 0.  0.
         25    1    1    2    0    0  0.67500861369E+02 -0.19710159618E+02  0.40893760602E+02  0.14913804456E+03  0.12500000000E+03 0.  0.
</event>
<event>
 5    0  0.5691975E-005  0.3046786E+03  0.7546771E-02  0.1082925E+00
         21   -1    0    0  502  501  0.00000000000E+00  0.00000000000E+00  0.10508341683E+04  0.10508341683E+04  0.00000000000E+00 0. -1.
         21   -1    0    0  501  502 -0.00000000000E+00 -0.00000000000E+00 -0.88338420557E+02  0.88338420557E+02  0.00000000000E+00 0. -1.
         25    1    1    2    0    0 -0.57229429473E+02  0.16405746314E+03  0.48327918690E+03  0.52855825724E+03  0.12500000000E+03 0.  0.
         25    1    1    2    0    0  0.10108304329E+03 -0.52141539081E+02  0.10711791257E+03  0.20008940235E+03  0.12500000000E+03 0.  0.
         25    1    1    2    0    0 -0.43853613817E+02 -0.11191592406E+03  0.37209864828E+03  0.41052492928E+03  0.12500000000E+03 0.  0.
</event>
<event>
 5    0  0.5691975E-005  0.3952972E+03  0.7546771E-02  0.1045420E+00
         21   -1    0    0  502  501  0.00000000000E+00  0.00000000000E+00  0.76013316915E+03  0.76013316915E+03  0.00000000000E+00 0. -1.
         21   -1    0    0  501  502 -0.00000000000E+00 -0.00000000000E+00 -0.20556911268E+03  0.20556911268E+03  0.00000000000E+00 0. -1.
         25    1    1    2    0    0  0.11624100066E+03  0.17304270867E+03  0.32650770359E+03  0.40704794529E+03  0.12500000000E+03 0.  0.
         25    1    1    2    0    0 -0.38008360164E+02  0.41212443036E+02  0.26268440158E+03  0.29626203897E+03  0.12500000000E+03 0.  0.
         25    1    1    2    0    0 -0.78232640494E+02 -0.21425515170E+03 -0.34628048695E+02  0.26239229757E+03  0.12500000000E+03 0.  0.
</event>
<event>
 5    0  0.7234682E-005  0.4629890E+03  0.7546771E-02  0.1023918E+00
         21   -1    0    0  502  501  0.00000000000E+00  0.00000000000E+00  0.85280565937E+03  0.85280565937E+03  0.00000000000E+00 0. -1.
         21   -1    0    0  501  502 -0.00000000000E+00 -0.00000000000E+00 -0.25135721380E+03  0.25135721380E+03  0.00000000000E+00 0. -1.
         25    1    1    2    0    0 -0.26743423043E+03  0.21734121390E+02  0.10878138914E+03  0.31535984250E+03  0.12500000000E+03 0.  0.
         25    1    1    2    0    0 -0.69246929226E+02 -0.39120725003E+02  0.38646223713E+03  0.41388842586E+03  0.12500000000E+03 0.  0.
         25    1    1    2    0    0  0.33668115966E+03  0.17386603613E+02  0.10620481931E+03  0.37491460481E+03  0.12500000000E+03 0.  0.
</event>
<event>
 5    0  0.5691975E-005  0.4380938E+03  0.7546771E-02  0.1031333E+00
         21   -1    0    0  502  501  0.00000000000E+00  0.00000000000E+00  0.36218088219E+03  0.36218088219E+03  0.00000000000E+00 0.  1.
         21   -1    0    0  501  502 -0.00000000000E+00 -0.00000000000E+00 -0.52991801796E+03  0.52991801796E+03  0.00000000000E+00 0.  1.
         25    1    1    2    0    0 -0.97830079267E+02  0.15892909567E+03 -0.41017495816E+03  0.46765123561E+03  0.12500000000E+03 0.  0.
         25    1    1    2    0    0  0.12313177245E+03 -0.11695413068E+03  0.17589618431E+03  0.27459819687E+03  0.12500000000E+03 0.  0.
         25    1    1    2    0    0 -0.25301693185E+02 -0.41974964997E+02  0.66541638076E+02  0.14984946767E+03  0.12500000000E+03 0.  0.
</event>
<event>
 5    0  0.5691975E-005  0.3101499E+03  0.7546771E-02  0.1080274E+00
         21   -1    0    0  502  501  0.00000000000E+00  0.00000000000E+00  0.11681255939E+03  0.11681255939E+03  0.00000000000E+00 0. -1.
         21   -1    0    0  501  502 -0.00000000000E+00 -0.00000000000E+00 -0.82348137540E+03  0.82348137540E+03  0.00000000000E+00 0. -1.
         25    1    1    2    0    0 -0.14180608751E+03  0.21177245254E+02 -0.22221255744E+03  0.29250788512E+03  0.12500000000E+03 0.  0.
         25    1    1    2    0    0  0.77028334193E+02 -0.60319516890E+02 -0.18925021326E+02  0.15985920311E+03  0.12500000000E+03 0.  0.
         25    1    1    2    0    0  0.64777753313E+02  0.39142271636E+02 -0.46553123724E+03  0.48792684657E+03  0.12500000000E+03 0.  0.
</event>
<event>
 5    0  0.5691975E-005  0.3670293E+03  0.7546771E-02  0.1055835E+00
         21   -1    0    0  502  501  0.00000000000E+00  0.00000000000E+00  0.36818533120E+03  0.36818533120E+03  0.00000000000E+00 0. -1.
         21   -1    0    0  501  502 -0.00000000000E+00 -0.00000000000E+00 -0.36587682366E+03  0.36587682366E+03  0.00000000000E+00 0. -1.
         25    1    1    2    0    0  0.12979306048E+03  0.98146844697E+02 -0.99098053219E+02  0.22786940519E+03  0.12500000000E+03 0.  0.
         25    1    1    2    0    0  0.53703145913E+02 -0.15155282806E+03 -0.75627144854E+02  0.21724813604E+03  0.12500000000E+03 0.  0.
         25    1    1    2    0    0 -0.18349620639E+03  0.53405983363E+02  0.17703370562E+03  0.28894461363E+03  0.12500000000E+03 0.  0.
</event>
<event>
 5    0  0.5691975E-005  0.2865347E+03  0.7546771E-02  0.1092172E+00
         21   -1    0    0  502  501  0.00000000000E+00  0.00000000000E+00  0.49169574502E+03  0.49169574502E+03  0.00000000000E+00 0. -1.
         21   -1    0    0  501  502 -0.00000000000E+00 -0.00000000000E+00 -0.16697753998E+03  0.16697753998E+03  0.00000000000E+00 0. -1.
         25    1    1    2    0    0 -0.24098224956E+02 -0.12989172477E+02  0.13308375898E+03  0.18462321076E+03  0.12500000000E+03 0.  0.
         25    1    1    2    0    0  0.15071289172E+03 -0.57652490655E+02  0.19541802685E+03  0.28257988362E+03  0.12500000000E+03 0.  0.
         25    1    1    2    0    0 -0.12661466677E+03  0.70641663132E+02 -0.37835807976E+01  0.19147019062E+03  0.12500000000E+03 0.  0.
</event>
<event>
 5    0  0.5691975E-005  0.2995689E+03  0.7546771E-02  0.1085456E+00
         21   -1    0    0  502  501  0.00000000000E+00  0.00000000000E+00  0.91400235470E+02  0.91400235470E+02  0.00000000000E+00 0.  1.
         21   -1    0    0  501  502 -0.00000000000E+00 -0.00000000000E+00 -0.98185192612E+03  0.98185192612E+03  0.00000000000E+00 0.  1.
         25    1    1    2    0    0 -0.10507992070E+03 -0.67998050438E+01 -0.11249836942E+03  0.19841600290E+03  0.12500000000E+03 0.  0.
         25    1    1    2    0    0 -0.69427465170E+02 -0.34327705481E+02 -0.15053093699E+03  0.21043556561E+03  0.12500000000E+03 0.  0.
         25    1    1    2    0    0  0.17450738587E+03  0.41127510524E+02 -0.62742238423E+03  0.66440059308E+03  0.12500000000E+03 0.  0.
</event>
<event>
 5    0  0.5691975E-005  0.3496572E+03  0.7546771E-02  0.1062756E+00
         21   -1    0    0  502  501  0.00000000000E+00  0.00000000000E+00  0.51371683595E+03  0.51371683595E+03  0.00000000000E+00 0. -1.
         21   -1    0    0  501  502 -0.00000000000E+00 -0.00000000000E+00 -0.23799133000E+03  0.23799133000E+03  0.00000000000E+00 0. -1.
         25    1    1    2    0    0  0.43640899103E+02  0.49071411948E+02  0.16132188763E+03  0.21438815959E+03  0.12500000000E+03 0.  0.
         25    1    1    2    0    0 -0.67540239629E+02 -0.77768421023E+02  0.28183545174E+03  0.32506281414E+03  0.12500000000E+03 0.  0.
         25    1    1    2    0    0  0.23899340526E+02  0.28697009075E+02 -0.16743183342E+03  0.21225719222E+03  0.12500000000E+03 0.  0.
</event>
<event>
 5    0  0.5691975E-005  0.3266822E+03  0.7546771E-02  0.1072614E+00
         21   -1    0    0  502  501  0.00000000000E+00  0.00000000000E+00  0.14515711599E+03  0.14515711599E+03  0.00000000000E+00 0. -1.
         21   -1    0    0  501  502 -0.00000000000E+00 -0.00000000000E+00 -0.73521197780E+03  0.73521197780E+03  0.00000000000E+00 0. -1.
         25    1    1    2    0    0  0.16492878029E+03 -0.42473796523E+02 -0.42405023732E+03  0.47376062493E+03  0.12500000000E+03 0.  0.
         25    1    1    2    0    0 -0.10164383090E+03  0.86646415498E+02 -0.18296387381E+03  0.25872736384E+03  0.12500000000E+03 0.  0.
         25    1    1    2    0    0 -0.63284949392E+02 -0.44172618974E+02  0.16959249314E+02  0.14788110503E+03  0.12500000000E+03 0.  0.
</event>
<event>
 5    0  0.5691975E-005  0.2691289E+03  0.7546771E-02  0.1101779E+00
         21   -1    0    0  502  501  0.00000000000E+00  0.00000000000E+00  0.57464436984E+03  0.57464436984E+03  0.00000000000E+00 0. -1.
         21   -1    0    0  501  502 -0.00000000000E+00 -0.00000000000E+00 -0.12604376723E+03  0.12604376723E+03  0.00000000000E+00 0. -1.
         25    1    1    2    0    0 -0.58328136305E+02 -0.43363559905E+02 -0.66999326861E+01  0.14474964218E+03  0.12500000000E+03 0.  0.
         25    1    1    2    0    0  0.12398720464E+02 -0.32320989202E+02  0.34094851240E+03  0.36478659887E+03  0.12500000000E+03 0.  0.
         25    1    1    2    0    0  0.45929415841E+02  0.75684549107E+02  0.11435202290E+03  0.19115189602E+03  0.12500000000E+03 0.  0.
</event>
<event>
 5    0  0.5691975E-005  0.5529907E+03  0.7546771E-02  0.1000804E+00
         21   -1    0    0  502  501  0.00000000000E+00  0.00000000000E+00  0.12081808094E+04  0.12081808094E+04  0.00000000000E+00 0.  1.
         21   -1    0    0  501  502 -0.00000000000E+00 -0.00000000000E+00 -0.25310672371E+03  0.25310672371E+03  0.00000000000E+00 0.  1.
         25    1    1    2    0    0  0.17840631659E+03  0.19158251963E+03  0.29945938675E+03  0.41693356778E+03  0.12500000000E+03 0.  0.
         25    1    1    2    0    0 -0.36723827669E+03  0.19399303631E+01  0.79807208638E+02  0.39605795756E+03  0.12500000000E+03 0.  0.
         25    1    1    2    0    0  0.18883196010E+03 -0.19352245000E+03  0.57580749027E+03  0.64829600774E+03  0.12500000000E+03 0.  0.
</event>
<event>
 5    0  0.5691975E-005  0.2613033E+03  0.7546771E-02  0.1106363E+00
         21   -1    0    0  502  501  0.00000000000E+00  0.00000000000E+00  0.32281110271E+03  0.32281110271E+03  0.00000000000E+00 0. -1.
         21   -1    0    0  501  502 -0.00000000000E+00 -0.00000000000E+00 -0.21151513636E+03  0.21151513636E+03  0.00000000000E+00 0. -1.
         25    1    1    2    0    0 -0.58667181940E+02 -0.24189346998E+02  0.38377513398E+02  0.14534371772E+03  0.12500000000E+03 0.  0.
         25    1    1    2    0    0 -0.54128581078E+02 -0.52609613890E+02 -0.63344669125E+02  0.15917041770E+03  0.12500000000E+03 0.  0.
         25    1    1    2    0    0  0.11279576302E+03  0.76798960888E+02  0.13626312208E+03  0.22981210366E+03  0.12500000000E+03 0.  0.
</event>
<event>
 5    0  0.5691975E-005  0.4247868E+03  0.7546771E-02  0.1035520E+00
         21   -1    0    0  502  501  0.00000000000E+00  0.00000000000E+00  0.32870100607E+03  0.32870100607E+03  0.00000000000E+00 0.  1.
         21   -1    0    0  501  502 -0.00000000000E+00 -0.00000000000E+00 -0.54896048811E+03  0.54896048811E+03  0.00000000000E+00 0.  1.
         25    1    1    2    0    0 -0.14774170857E+03  0.10975837474E+03  0.18164954112E+03  0.28722128937E+03  0.12500000000E+03 0.  0.
         25    1    1    2    0    0 -0.80092236016E+02 -0.61408476821E+02 -0.20694309254E+03  0.26198513478E+03  0.12500000000E+03 0.  0.
         25    1    1    2    0    0  0.22783394458E+03 -0.48349897922E+02 -0.19496593062E+03  0.32845507004E+03  0.12500000000E+03 0.  0.
</event>
<event>
 5    0  0.5691975E-005  0.2704872E+03  0.7546771E-02  0.1101001E+00
         21   -1    0    0  502  501  0.00000000000E+00  0.00000000000E+00  0.28627366299E+03  0.28627366299E+03  0.00000000000E+00 0.  1.
         21   -1    0    0  501  502 -0.00000000000E+00 -0.00000000000E+00 -0.25557131199E+03  0.25557131199E+03  0.00000000000E+00 0.  1.
         25    1    1    2    0    0 -0.86926712442E+01  0.13109614773E+03  0.96113743384E+02  0.20524281754E+03  0.12500000000E+03 0.  0.
         25    1    1    2    0    0 -0.77189869487E+02 -0.57127407141E+02 -0.61072339469E+01  0.15774699650E+03  0.12500000000E+03 0.  0.
         25    1    1    2    0    0  0.85882540731E+02 -0.73968740591E+02 -0.59304158441E+02  0.17885516094E+03  0.12500000000E+03 0.  0.
</event>
<event>
 5    0  0.5691975E-005  0.3221920E+03  0.7546771E-02  0.1074645E+00
         21   -1    0    0  502  501  0.00000000000E+00  0.00000000000E+00  0.24813248532E+03  0.24813248532E+03  0.00000000000E+00 0. -1.
         21   -1    0    0  501  502 -0.00000000000E+00 -0.00000000000E+00 -0.41835600910E+03  0.41835600910E+03  0.00000000000E+00 0. -1.
         25    1    1    2    0    0 -0.42261477806E+01 -0.19922443922E+03 -0.46953387090E+02  0.23987050271E+03  0.12500000000E+03 0.  0.
         25    1    1    2    0    0 -0.42804311849E+02  0.38805281221E+02 -0.16378783709E+03  0.21398484652E+03  0.12500000000E+03 0.  0.
         25    1    1    2    0    0  0.47030459630E+02  0.16041915800E+03  0.40517700405E+02  0.21263314519E+03  0.12500000000E+03 0.  0.
</event>
<event>
 5    0  0.5691975E-005  0.2923139E+03  0.7546771E-02  0.1089147E+00
         21   -1    0    0  502  501  0.00000000000E+00  0.00000000000E+00  0.14127985768E+03  0.14127985768E+03  0.00000000000E+00 0. -1.
         21   -1    0    0  501  502 -0.00000000000E+00 -0.00000000000E+00 -0.60480966402E+03  0.60480966402E+03  0.00000000000E+00 0. -1.
         25    1    1    2    0    0 -0.45626058606E+02 -0.65340135639E+02 -0.38097752235E+03  0.40880306150E+03  0.12500000000E+03 0.  0.
         25    1    1    2    0    0  0.11702360526E+03  0.18881934015E+02 -0.68440948854E+02  0.18536508598E+03  0.12500000000E+03 0.  0.
         25    1    1    2    0    0 -0.71397546651E+02  0.46458201624E+02 -0.14111335131E+02  0.15192137422E+03  0.12500000000E+03 0.  0.
</event>
<event>
 5    0  0.5691975E-005  0.2386760E+03  0.7546771E-02  0.1120678E+00
         21   -1    0    0  502  501  0.00000000000E+00  0.00000000000E+00  0.12020072953E+03  0.12020072953E+03  0.00000000000E+00 0.  1.
         21   -1    0    0  501  502 -0.00000000000E+00 -0.00000000000E+00 -0.47392591029E+03  0.47392591029E+03  0.00000000000E+00 0.  1.
         25    1    1    2    0    0  0.95135714228E+02  0.49496533842E+01 -0.12205365008E+03  0.19899094625E+03  0.12500000000E+03 0.  0.
         25    1    1    2    0    0 -0.12564001031E+03  0.35393251153E+02 -0.99461115946E+02  0.20629010641E+03  0.12500000000E+03 0.  0.
         25    1    1    2    0    0  0.30504296085E+02 -0.40342904537E+02 -0.13221041473E+03  0.18884558716E+03  0.12500000000E+03 0.  0.
</event>
<event>
 5    0  0.5691975E-005  0.3080569E+03  0.7546771E-02  0.1081281E+00
         21   -1    0    0  502  501  0.00000000000E+00  0.00000000000E+00  0.16176419171E+03  0.16176419171E+03  0.00000000000E+00 0. -1.
         21   -1    0    0  501  502 -0.00000000000E+00 -0.00000000000E+00 -0.58665060239E+03  0.58665060239E+03  0.00000000000E+00 0. -1.
         25    1    1    2    0    0 -0.10413807807E+03  0.14947012347E+03 -0.28572756426E+03  0.36118042319E+03  0.12500000000E+03 0.  0.
         25    1    1    2    0    0  0.10469335453E+02 -0.58733494215E+02 -0.15260844680E+03  0.20609116518E+03  0.12500000000E+03 0.  0.
         25    1    1    2    0    0  0.93668742616E+02 -0.90736629256E+02  0.13449600384E+02  0.18114320573E+03  0.12500000000E+03 0.  0.
</event>
<event>
 5    0  0.5691975E-005  0.3494593E+03  0.7546771E-02  0.1062837E+00
         21   -1    0    0  502  501  0.00000000000E+00  0.00000000000E+00  0.79145473967E+03  0.79145473967E+03  0.00000000000E+00 0. -1.
         21   -1    0    0  501  502 -0.00000000000E+00 -0.00000000000E+00 -0.15430040986E+03  0.15430040986E+03  0.00000000000E+00 0. -1.
         25    1    1    2    0    0 -0.20231032704E+01 -0.49775895993E+02  0.44207244582E+03  0.46209823644E+03  0.12500000000E+03 0.  0.
         25    1    1    2    0    0 -0.15984082874E+03  0.42593926875E+02  0.97439005314E+01  0.20756511445E+03  0.12500000000E+03 0.  0.
         25    1    1    2    0    0  0.16186393201E+03  0.71819691181E+01  0.18533798345E+03  0.27609179864E+03  0.12500000000E+03 0.  0.
</event>
<event>
 5    0  0.5691975E-005  0.2846298E+03  0.7546771E-02  0.1093187E+00
         21   -1    0    0  502  501  0.00000000000E+00  0.00000000000E+00  0.12926838730E+03  0.12926838730E+03  0.00000000000E+00 0. -1.
         21   -1    0    0  501  502 -0.00000000000E+00 -0.00000000000E+00 -0.62671261168E+03  0.62671261168E+03  0.00000000000E+00 0. -1.
         25    1    1    2    0    0 -0.58602808744E+02  0.13885441949E+03 -0.10712310952E+03  0.22319318896E+03  0.12500000000E+03 0.  0.
         25    1    1    2    0    0  0.22125219934E+02 -0.74542576115E+02 -0.38488180375E+02  0.15215932781E+03  0.12500000000E+03 0.  0.
         25    1    1    2    0    0  0.36477588810E+02 -0.64311843376E+02 -0.35183293448E+03  0.38062848221E+03  0.12500000000E+03 0.  0.
</event>
<event>
 5    0  0.5691975E-005  0.4066248E+03  0.7546771E-02  0.1041510E+00
         21   -1    0    0  502  501  0.00000000000E+00  0.00000000000E+00  0.21032443530E+03  0.21032443530E+03  0.00000000000E+00 0. -1.
         21   -1    0    0  501  502 -0.00000000000E+00 -0.00000000000E+00 -0.78613665380E+03  0.78613665380E+03  0.00000000000E+00 0. -1.
         25    1    1    2    0    0  0.26828836767E+03 -0.41392558164E+02  0.21332955852E+01  0.29886709930E+03  0.12500000000E+03 0.  0.
         25    1    1    2    0    0 -0.15511090585E+03  0.83661933037E+02 -0.34170471011E+03  0.40428433195E+03  0.12500000000E+03 0.  0.
         25    1    1    2    0    0 -0.11317746182E+03 -0.42269374873E+02 -0.23624080398E+03  0.29330965784E+03  0.12500000000E+03 0.  0.
</event>
<event>
 5    0  0.5691975E-005  0.3773101E+03  0.7546771E-02  0.1051932E+00
         21   -1    0    0  502  501  0.00000000000E+00  0.00000000000E+00  0.15253155898E+03  0.15253155898E+03  0.00000000000E+00 0.  1.
         21   -1    0    0  501  502 -0.00000000000E+00 -0.00000000000E+00 -0.93333403578E+03  0.93333403578E+03  0.00000000000E+00 0.  1.
         25    1    1    2    0    0  0.61921247237E+02  0.15179900249E+03 -0.39641539573E+03  0.44681914014E+03  0.12500000000E+03 0.  0.
         25    1    1    2    0    0 -0.15508112677E+03 -0.25435958973E+03 -0.22583734468E+03  0.39417821226E+03  0.12500000000E+03 0.  0.
         25    1    1    2    0    0  0.93159879538E+02  0.10256058724E+03 -0.15854973639E+03  0.24486824237E+03  0.12500000000E+03 0.  0.
</event>
<event>
 5    0  0.5691975E-005  0.3877472E+03  0.7546771E-02  0.1048107E+00
         21   -1    0    0  502  501  0.00000000000E+00  0.00000000000E+00  0.25793969893E+03  0.25793969893E+03  0.00000000000E+00 0.  1.
         21   -1    0    0  501  502 -0.00000000000E+00 -0.00000000000E+00 -0.58288014424E+03  0.58288014424E+03  0.00000000000E+00 0.  1.
         25    1    1    2    0    0  0.60639063787E+02  0.14960440633E+03 -0.44668569469E+03  0.49113306170E+03  0.12500000000E+03 0.  0.
         25    1    1    2    0    0  0.79366795297E+01 -0.95993852282E+02  0.51965564410E+01  0.15789178179E+03  0.12500000000E+03 0.  0.
         25    1    1    2    0    0 -0.68575743317E+02 -0.53610554044E+02  0.11654869295E+03  0.19179499968E+03  0.12500000000E+03 0.  0.
</event>
<event>
 5    0  0.5691975E-005  0.3191010E+03  0.7546771E-02  0.1076064E+00
         21   -1    0    0  502  501  0.00000000000E+00  0.00000000000E+00  0.42921855683E+03  0.42921855683E+03  0.00000000000E+00 0. -1.
         21   -1    0    0  501  502 -0.00000000000E+00 -0.00000000000E+00 -0.23723450022E+03  0.23723450022E+03  0.00000000000E+00 0. -1.
         25    1    1    2    0    0 -0.84218553870E+01 -0.99384596068E+02  0.38807435054E+01  0.15996338879E+03  0.12500000000E+03 0.  0.
         25    1    1    2    0    0  0.11431393377E+03 -0.94087432763E+02  0.51154929674E+01  0.19383314662E+03  0.12500000000E+03 0.  0.
         25    1    1    2    0    0 -0.10589207839E+03  0.19347202883E+03  0.18298782013E+03  0.31265652164E+03  0.12500000000E+03 0.  0.
</event>
<event>
 5    0  0.5691975E-005  0.6231209E+03  0.7546771E-02  0.9858565E-01
         21   -1    0    0  502  501  0.00000000000E+00  0.00000000000E+00  0.21687126734E+03  0.21687126734E+03  0.00000000000E+00 0. -1.
         21   -1    0    0  501  502 -0.00000000000E+00 -0.00000000000E+00 -0.17903694725E+04  0.17903694725E+04  0.00000000000E+00 0. -1.
         25    1    1    2    0    0  0.36803014338E+02  0.67051612538E+02 -0.74629643624E+03  0.76054832282E+03  0.12500000000E+03 0.  0.
         25    1    1    2    0    0 -0.25135097184E+03 -0.11898817881E+03 -0.92565677782E+03  0.97457732790E+03  0.12500000000E+03 0.  0.
         25    1    1    2    0    0  0.21454795750E+03  0.51936566273E+02  0.98455008853E+02  0.27211508916E+03  0.12500000000E+03 0.  0.
</event>
<event>
 5    0  0.5781060E-005  0.2996961E+03  0.7546771E-02  0.1085393E+00
         21   -1    0    0  502  501  0.00000000000E+00  0.00000000000E+00  0.24317967291E+03  0.24317967291E+03  0.00000000000E+00 0. -1.
         21   -1    0    0  501  502 -0.00000000000E+00 -0.00000000000E+00 -0.36934717922E+03  0.36934717922E+03  0.00000000000E+00 0. -1.
         25    1    1    2    0    0  0.22757865809E-01 -0.92168590596E+02 -0.39615108097E+02  0.16027915148E+03  0.12500000000E+03 0.  0.
         25    1    1    2    0    0  0.11551257264E+03 -0.91061618288E+02 -0.24560601482E+02  0.19458570325E+03  0.12500000000E+03 0.  0.
         25    1    1    2    0    0 -0.11553533051E+03  0.18323020888E+03 -0.61991796723E+02  0.25766199740E+03  0.12500000000E+03 0.  0.
</event>
<event>
 5    0  0.5691975E-005  0.2742323E+03  0.7546771E-02  0.1098882E+00
         21   -1    0    0  502  501  0.00000000000E+00  0.00000000000E+00  0.19536222110E+04  0.19536222110E+04  0.00000000000E+00 0.  1.
         21   -1    0    0  501  502 -0.00000000000E+00 -0.00000000000E+00 -0.38494310958E+02  0.38494310958E+02  0.00000000000E+00 0.  1.
         25    1    1    2    0    0  0.17143505937E+03  0.36221276777E+02  0.90250448922E+03  0.92781534452E+03  0.12500000000E+03 0.  0.
         25    1    1    2    0    0 -0.58491964362E+02 -0.25509905568E+02  0.64024887511E+03  0.65545075120E+03  0.12500000000E+03 0.  0.
         25    1    1    2    0    0 -0.11294309500E+03 -0.10711371209E+02  0.37237453573E+03  0.40885042624E+03  0.12500000000E+03 0.  0.
</event>
<event>
 5    0  0.5691975E-005  0.6438331E+03  0.7546771E-02  0.9818420E-01
         21   -1    0    0  502  501  0.00000000000E+00  0.00000000000E+00  0.43632044133E+03  0.43632044133E+03  0.00000000000E+00 0. -1.
         21   -1    0    0  501  502 -0.00000000000E+00 -0.00000000000E+00 -0.95003800360E+03  0.95003800360E+03  0.00000000000E+00 0. -1.
         25    1    1    2    0    0 -0.31842882388E+03  0.45281815125E+03 -0.48082494351E+03  0.74381369999E+03  0.12500000000E+03 0.  0.
         25    1    1    2    0    0  0.19182115485E+03 -0.20203446480E+03  0.78882736896E+02  0.31537401065E+03  0.12500000000E+03 0.  0.
         25    1    1    2    0    0  0.12660766903E+03 -0.25078368645E+03 -0.11177535565E+03  0.32717073429E+03  0.12500000000E+03 0.  0.
</event>
<event>
 5    0  0.5691975E-005  0.3062188E+03  0.7546771E-02  0.1082173E+00
         21   -1    0    0  502  501  0.00000000000E+00  0.00000000000E+00  0.22537439306E+04  0.22537439306E+04  0.00000000000E+00 0.  1.
         21   -1    0    0  501  502 -0.00000000000E+00 -0.00000000000E+00 -0.41606296761E+02  0.41606296761E+02  0.00000000000E+00 0.  1.
         25    1    1    2    0    0  0.84173860820E+02 -0.86210626150E+02  0.38263335226E+03  0.42017947733E+03  0.12500000000E+03 0.  0.
         25    1    1    2    0    0  0.13130081443E+02 -0.59097570084E+02  0.29946141069E+03  0.33010158788E+03  0.12500000000E+03 0.  0.
         25    1    1    2    0    0 -0.97303942263E+02  0.14530819623E+03  0.15300428708E+04  0.15450691621E+04  0.12500000000E+03 0.  0.
</event>
<event>
 5    0  0.5691975E-005  0.2428288E+03  0.7546771E-02  0.1117923E+00
         21   -1    0    0  502  501  0.00000000000E+00  0.00000000000E+00  0.21421391240E+03  0.21421391240E+03  0.00000000000E+00 0. -1.
         21   -1    0    0  501  502 -0.00000000000E+00 -0.00000000000E+00 -0.27526607022E+03  0.27526607022E+03  0.00000000000E+00 0. -1.
         25    1    1    2    0    0  0.11912816473E+03 -0.32619302315E+02 -0.26718326070E+01  0.17574890385E+03  0.12500000000E+03 0.  0.
         25    1    1    2    0    0 -0.12749897097E+03  0.31268647676E+02 -0.50614107239E+02  0.18820335751E+03  0.12500000000E+03 0.  0.
         25    1    1    2    0    0  0.83708062443E+01  0.13506546396E+01 -0.77662179717E+01  0.12552772127E+03  0.12500000000E+03 0.  0.
</event>
<event>
 5    0  0.5691975E-005  0.2931235E+03  0.7546771E-02  0.1088729E+00
         21   -1    0    0  502  501  0.00000000000E+00  0.00000000000E+00  0.10174247519E+04  0.10174247519E+04  0.00000000000E+00 0. -1.
         21   -1    0    0  501  502 -0.00000000000E+00 -0.00000000000E+00 -0.84449888632E+02  0.84449888632E+02  0.00000000000E+00 0. -1.
         25    1    1    2    0    0 -0.10426870006E+02  0.15460028900E+03  0.63118862687E+03  0.66184140976E+03  0.12500000000E+03 0.  0.
         25    1    1    2    0    0  0.50877038730E+02 -0.31675550106E+02  0.10912013951E+03  0.17642000564E+03  0.12500000000E+03 0.  0.
         25    1    1    2    0    0 -0.40450168724E+02 -0.12292473889E+03  0.19266609694E+03  0.26361322518E+03  0.12500000000E+03 0.  0.
</event>
<event>
 5    0  0.5691975E-005  0.4850173E+03  0.7546771E-02  0.1017765E+00
         21   -1    0    0  502  501  0.00000000000E+00  0.00000000000E+00  0.17405931316E+04  0.17405931316E+04  0.00000000000E+00 0.  1.
         21   -1    0    0  501  502 -0.00000000000E+00 -0.00000000000E+00 -0.13515034597E+03  0.13515034597E+03  0.00000000000E+00 0.  1.
         25    1    1    2    0    0  0.24304246825E+03 -0.84779492785E+02  0.18069586740E+03  0.33842754064E+03  0.12500000000E+03 0.  0.
         25    1    1    2    0    0  0.39847168018E+02  0.32751331317E+01  0.77044846466E+02  0.15218223176E+03  0.12500000000E+03 0.  0.
         25    1    1    2    0    0 -0.28288963627E+03  0.81504359654E+02  0.13477020717E+04  0.13851337051E+04  0.12500000000E+03 0.  0.
</event>
<event>
 5    0  0.5691975E-005  0.4442983E+03  0.7546771E-02  0.1029436E+00
         21   -1    0    0  502  501  0.00000000000E+00  0.00000000000E+00  0.17845668337E+03  0.17845668337E+03  0.00000000000E+00 0. -1.
         21   -1    0    0  501  502 -0.00000000000E+00 -0.00000000000E+00 -0.11061564874E+04  0.11061564874E+04  0.00000000000E+00 0. -1.
         25    1    1    2    0    0  0.13778724263E+03 -0.45294195569E+02 -0.20034099394E+03  0.27712524648E+03  0.12500000000E+03 0.  0.
         25    1    1    2    0    0 -0.36982677639E+03  0.13018246118E+03 -0.35514506313E+03  0.54357366897E+03  0.12500000000E+03 0.  0.
         25    1    1    2    0    0  0.23203953375E+03 -0.84888265615E+02 -0.37221374696E+03  0.46391425532E+03  0.12500000000E+03 0.  0.
</event>
<event>
 5    0  0.5691975E-005  0.2749362E+03  0.7546771E-02  0.1098487E+00
         21   -1    0    0  502  501  0.00000000000E+00  0.00000000000E+00  0.13934194743E+04  0.13934194743E+04  0.00000000000E+00 0. -1.
         21   -1    0    0  501  502 -0.00000000000E+00 -0.00000000000E+00 -0.54247761721E+02  0.54247761721E+02  0.00000000000E+00 0. -1.
         25    1    1    2    0    0 -0.11510456654E-01 -0.50456424220E+02  0.56028589608E+03  0.57627349082E+03  0.12500000000E+03 0.  0.
         25    1    1    2    0    0  0.27685926869E+02 -0.47250712331E+02  0.65264797951E+03  0.66676347045E+03  0.12500000000E+03 0.  0.
         25    1    1    2    0    0 -0.27674416412E+02  0.97707136551E+02  0.12623783698E+03  0.20463027475E+03  0.12500000000E+03 0.  0.
</event>
<event>
 5    0  0.5691975E-005  0.2073753E+03  0.7546771E-02  0.1143661E+00
         21   -1    0    0  502  501  0.00000000000E+00  0.00000000000E+00  0.10249845785E+03  0.10249845785E+03  0.00000000000E+00 0.  1.
         21   -1    0    0  501  502 -0.00000000000E+00 -0.00000000000E+00 -0.41956275654E+03  0.41956275654E+03  0.00000000000E+00 0.  1.
         25    1    1    2    0    0 -0.15180637096E+02  0.12369208283E+02 -0.70491720022E+02  0.14483622353E+03  0.12500000000E+03 0.  0.
         25    1    1    2    0    0 -0.13901315388E+02 -0.10027033038E+02 -0.20785825562E+03  0.24315394792E+03  0.12500000000E+03 0.  0.
         25    1    1    2    0    0  0.29081952484E+02 -0.23421752451E+01 -0.38714323046E+02  0.13407104294E+03  0.12500000000E+03 0.  0.
</event>
<event>
 5    0  0.5691975E-005  0.3299378E+03  0.7546771E-02  0.1071164E+00
         21   -1    0    0  502  501  0.00000000000E+00  0.00000000000E+00  0.20254933444E+03  0.20254933444E+03  0.00000000000E+00 0.  1.
         21   -1    0    0  501  502 -0.00000000000E+00 -0.00000000000E+00 -0.53744401179E+03  0.53744401179E+03  0.00000000000E+00 0.  1.
         25    1    1    2    0    0  0.80347828099E+02  0.22338843810E+03 -0.63068084311E+02  0.27560978034E+03  0.12500000000E+03 0.  0.
         25    1    1    2    0    0 -0.56520226619E+02 -0.18848044143E+03 -0.11660361935E+03  0.26065459302E+03  0.12500000000E+03 0.  0.
         25    1    1    2    0    0 -0.23827601480E+02 -0.34907996675E+02 -0.15522297370E+03  0.20372897287E+03  0.12500000000E+03 0.  0.
</event>
<event>
 5    0  0.5691975E-005  0.4140728E+03  0.7546771E-02  0.1039013E+00
         21   -1    0    0  502  501  0.00000000000E+00  0.00000000000E+00  0.73774932592E+03  0.73774932592E+03  0.00000000000E+00 0. -1.
         21   -1    0    0  501  502 -0.00000000000E+00 -0.00000000000E+00 -0.23240447316E+03  0.23240447316E+03  0.00000000000E+00 0. -1.
         25    1    1    2    0    0  0.31321482937E+02  0.95597591918E+02  0.36706523009E+03  0.40060181979E+03  0.12500000000E+03 0.  0.
         25    1    1    2    0    0 -0.14232482203E+03  0.41252606744E+01 -0.13599410724E+03  0.23322257598E+03  0.12500000000E+03 0.  0.
         25    1    1    2    0    0  0.11100333909E+03 -0.99722852593E+02  0.27427372991E+03  0.33632940332E+03  0.12500000000E+03 0.  0.
</event>
<event>
 5    0  0.5691975E-005  0.3510237E+03  0.7546771E-02  0.1062196E+00
         21   -1    0    0  502  501  0.00000000000E+00  0.00000000000E+00  0.39500885148E+03  0.39500885148E+03  0.00000000000E+00 0. -1.
         21   -1    0    0  501  502 -0.00000000000E+00 -0.00000000000E+00 -0.31193641856E+03  0.31193641856E+03  0.00000000000E+00 0. -1.
         25    1    1    2    0    0 -0.23795880692E+03 -0.11149777971E+03 -0.10093407096E+02  0.29117524884E+03  0.12500000000E+03 0.  0.
         25    1    1    2    0    0  0.13960289024E+03  0.13429863057E+03  0.10277692260E+01  0.23054532189E+03  0.12500000000E+03 0.  0.
         25    1    1    2    0    0  0.98355916680E+02 -0.22800850869E+02  0.92138070792E+02  0.18522469931E+03  0.12500000000E+03 0.  0.
</event>
<event>
 5    0  0.5691975E-005  0.3189063E+03  0.7546771E-02  0.1076154E+00
         21   -1    0    0  502  501  0.00000000000E+00  0.00000000000E+00  0.11123344267E+04  0.11123344267E+04  0.00000000000E+00 0. -1.
         21   -1    0    0  501  502 -0.00000000000E+00 -0.00000000000E+00 -0.91430426955E+02  0.91430426955E+02  0.00000000000E+00 0. -1.
         25    1    1    2    0    0 -0.42678200287E+02  0.19727211729E+03  0.22533154003E+03  0.32731791880E+03  0.12500000000E+03 0.  0.
         25    1    1    2    0    0 -0.22710205119E+02 -0.32581286044E+02  0.44774451694E+03  0.46655915602E+03  0.12500000000E+03 0.  0.
         25    1    1    2    0    0  0.65388405407E+02 -0.16469083124E+03  0.34782794277E+03  0.40988777882E+03  0.12500000000E+03 0.  0.
</event>
<event>
 5    0  0.5691975E-005  0.2598998E+03  0.7546771E-02  0.1107203E+00
         21   -1    0    0  502  501  0.00000000000E+00  0.00000000000E+00  0.85134900053E+02  0.85134900053E+02  0.00000000000E+00 0. -1.
         21   -1    0    0  501  502 -0.00000000000E+00 -0.00000000000E+00 -0.79342218800E+03  0.79342218800E+03  0.00000000000E+00 0. -1.
         25    1    1    2    0    0 -0.34778810221E+02  0.11407133336E+03 -0.16677793928E+03  0.24012854009E+03  0.12500000000E+03 0.  0.
         25    1    1    2    0    0 -0.56010093750E+02 -0.67346754909E+02 -0.14585529290E+03  0.21111959280E+03  0.12500000000E+03 0.  0.
         25    1    1    2    0    0  0.90788903971E+02 -0.46724578448E+02 -0.39565405577E+03  0.42730895516E+03  0.12500000000E+03 0.  0.
</event>
<event>
 5    0  0.5691975E-005  0.3597300E+03  0.7546771E-02  0.1058691E+00
         21   -1    0    0  502  501  0.00000000000E+00  0.00000000000E+00  0.28022692748E+03  0.28022692748E+03  0.00000000000E+00 0.  1.
         21   -1    0    0  501  502 -0.00000000000E+00 -0.00000000000E+00 -0.46178892466E+03  0.46178892466E+03  0.00000000000E+00 0.  1.
         25    1    1    2    0    0 -0.11654500326E+03  0.74921989987E+01 -0.27575950242E+02  0.17327522576E+03  0.12500000000E+03 0.  0.
         25    1    1    2    0    0  0.24278249915E+03 -0.12882802314E+03 -0.18081895488E+03  0.35193819896E+03  0.12500000000E+03 0.  0.
         25    1    1    2    0    0 -0.12623749589E+03  0.12133582414E+03  0.26832907949E+02  0.21680242742E+03  0.12500000000E+03 0.  0.
</event>
<event>
 5    0  0.5691975E-005  0.3024275E+03  0.7546771E-02  0.1084033E+00
         21   -1    0    0  502  501  0.00000000000E+00  0.00000000000E+00  0.23013669474E+03  0.23013669474E+03  0.00000000000E+00 0.  1.
         21   -1    0    0  501  502 -0.00000000000E+00 -0.00000000000E+00 -0.39742647487E+03  0.39742647487E+03  0.00000000000E+00 0.  1.
         25    1    1    2    0    0 -0.15213659716E+02  0.83851463339E+02 -0.24051095381E+03  0.28413560538E+03  0.12500000000E+03 0.  0.
         25    1    1    2    0    0 -0.32162262140E+01 -0.26702038666E+02  0.13992414569E+03  0.18954447902E+03  0.12500000000E+03 0.  0.
         25    1    1    2    0    0  0.18429885930E+02 -0.57149424672E+02 -0.66702972014E+02  0.15388308520E+03  0.12500000000E+03 0.  0.
</event>
<event>
 5    0  0.5691975E-005  0.3453339E+03  0.7546771E-02  0.1064547E+00
         21   -1    0    0  502  501  0.00000000000E+00  0.00000000000E+00  0.12489004894E+03  0.12489004894E+03  0.00000000000E+00 0.  1.
         21   -1    0    0  501  502 -0.00000000000E+00 -0.00000000000E+00 -0.95488383125E+03  0.95488383125E+03  0.00000000000E+00 0.  1.
         25    1    1    2    0    0  0.16386677101E+03  0.10364527551E+03 -0.38361980252E+03  0.44764250766E+03  0.12500000000E+03 0.  0.
         25    1    1    2    0    0 -0.12655939949E+03 -0.21086076134E+03 -0.24151761773E+03  0.36665419941E+03  0.12500000000E+03 0.  0.
         25    1    1    2    0    0 -0.37307371516E+02  0.10721548583E+03 -0.20485636205E+03  0.26547717311E+03  0.12500000000E+03 0.  0.
</event>
<event>
 5    0  0.6831190E-005  0.5715462E+03  0.7546771E-02  0.9966263E-01
         21   -1    0    0  502  501  0.00000000000E+00  0.00000000000E+00  0.69528102873E+03  0.69528102873E+03  0.00000000000E+00 0. -1.
         21   -1    0    0  501  502 -0.00000000000E+00 -0.00000000000E+00 -0.46983160922E+03  0.46983160922E+03  0.00000000000E+00 0. -1.
         25    1    1    2    0    0 -0.20653396420E+03  0.23946274620E+03  0.21020510501E+02  0.34068394011E+03  0.12500000000E+03 0.  0.
         25    1    1    2    0    0  0.23016021484E+03 -0.11646633177E+03 -0.22212201891E+03  0.36263111038E+03  0.12500000000E+03 0.  0.
         25    1    1    2    0    0 -0.23626250638E+02 -0.12299641443E+03  0.42655092791E+03  0.46179758746E+03  0.12500000000E+03 0.  0.
</event>
<event>
 5    0  0.7714311E-005  0.3017763E+03  0.7546771E-02  0.1084356E+00
         21   -1    0    0  502  501  0.00000000000E+00  0.00000000000E+00  0.22446390672E+03  0.22446390672E+03  0.00000000000E+00 0. -1.
         21   -1    0    0  501  502 -0.00000000000E+00 -0.00000000000E+00 -0.40571740759E+03  0.40571740759E+03  0.00000000000E+00 0. -1.
         25    1    1    2    0    0  0.37791302942E+02 -0.64353771656E+02  0.31175066468E+02  0.14888410014E+03  0.12500000000E+03 0.  0.
         25    1    1    2    0    0  0.11614020859E+03 -0.64307532868E+02 -0.34836496593E+02  0.18564102006E+03  0.12500000000E+03 0.  0.
         25    1    1    2    0    0 -0.15393151153E+03  0.12866130452E+03 -0.17759207074E+03  0.29565619411E+03  0.12500000000E+03 0.  0.
</event>
<event>
 5    0  0.5691975E-005  0.3787078E+03  0.7546771E-02  0.1051412E+00
         21   -1    0    0  502  501  0.00000000000E+00  0.00000000000E+00  0.96893351200E+03  0.96893351200E+03  0.00000000000E+00 0. -1.
         21   -1    0    0  501  502 -0.00000000000E+00 -0.00000000000E+00 -0.14801800489E+03  0.14801800489E+03  0.00000000000E+00 0. -1.
         25    1    1    2    0    0 -0.14066952436E+03 -0.12019697548E+03  0.39451264415E+02  0.22675235448E+03  0.12500000000E+03 0.  0.
         25    1    1    2    0    0  0.10532432679E+03 -0.59198825621E+02  0.18464767876E+03  0.25360891160E+03  0.12500000000E+03 0.  0.
         25    1    1    2    0    0  0.35345197564E+02  0.17939580110E+03  0.59681656394E+03  0.63659025082E+03  0.12500000000E+03 0.  0.
</event>
<event>
 5    0  0.5691975E-005  0.3294635E+03  0.7546771E-02  0.1071374E+00
         21   -1    0    0  502  501  0.00000000000E+00  0.00000000000E+00  0.52419681180E+03  0.52419681180E+03  0.00000000000E+00 0. -1.
         21   -1    0    0  501  502 -0.00000000000E+00 -0.00000000000E+00 -0.20707147519E+03  0.20707147519E+03  0.00000000000E+00 0. -1.
         25    1    1    2    0    0 -0.10801449512E+02 -0.15879205225E+03 -0.24292832749E+02  0.20383014716E+03  0.12500000000E+03 0.  0.
         25    1    1    2    0    0  0.13541929374E+02 -0.68049375631E+02  0.12516246572E+03  0.19001248433E+03  0.12500000000E+03 0.  0.
         25    1    1    2    0    0 -0.27404798621E+01  0.22684142788E+03  0.21625570364E+03  0.33742565550E+03  0.12500000000E+03 0.  0.
</event>
<event>
 5    0  0.5691975E-005  0.2605766E+03  0.7546771E-02  0.1106797E+00
         21   -1    0    0  502  501  0.00000000000E+00  0.00000000000E+00  0.26866268716E+03  0.26866268716E+03  0.00000000000E+00 0. -1.
         21   -1    0    0  501  502 -0.00000000000E+00 -0.00000000000E+00 -0.25273394714E+03  0.25273394714E+03  0.00000000000E+00 0. -1.
         25    1    1    2    0    0 -0.50968880811E+00  0.18251552581E+02 -0.66757340770E+02  0.14288079472E+03  0.12500000000E+03 0.  0.
         25    1    1    2    0    0 -0.98734466840E+02 -0.70317811519E+02 -0.29493490735E+02  0.17660111991E+03  0.12500000000E+03 0.  0.
         25    1    1    2    0    0  0.99244155648E+02  0.52066258938E+02  0.11217957152E+03  0.20191471966E+03  0.12500000000E+03 0.  0.
</event>
<event>
 5    0  0.5691975E-005  0.3529793E+03  0.7546771E-02  0.1061399E+00
         21   -1    0    0  502  501  0.00000000000E+00  0.00000000000E+00  0.45038104143E+03  0.45038104143E+03  0.00000000000E+00 0.  1.
         21   -1    0    0  501  502 -0.00000000000E+00 -0.00000000000E+00 -0.27664220259E+03  0.27664220259E+03  0.00000000000E+00 0.  1.
         25    1    1    2    0    0 -0.88892789460E+02  0.12113255655E+03 -0.38663485290E+01  0.19548650318E+03  0.12500000000E+03 0.  0.
         25    1    1    2    0    0 -0.91543162195E+02  0.10371738361E+03  0.57110267058E+02  0.19499750975E+03  0.12500000000E+03 0.  0.
         25    1    1    2    0    0  0.18043595165E+03 -0.22484994016E+03  0.12049492031E+03  0.33653923109E+03  0.12500000000E+03 0.  0.
</event>
<event>
 5    0  0.5691975E-005  0.3952044E+03  0.7546771E-02  0.1045453E+00
         21   -1    0    0  502  501  0.00000000000E+00  0.00000000000E+00  0.36119703558E+03  0.36119703558E+03  0.00000000000E+00 0. -1.
         21   -1    0    0  501  502 -0.00000000000E+00 -0.00000000000E+00 -0.43241353212E+03  0.43241353212E+03  0.00000000000E+00 0. -1.
         25    1    1    2    0    0  0.23545972753E+03  0.12622966982E+03 -0.91036415259E+02  0.30868728794E+03  0.12500000000E+03 0.  0.
         25    1    1    2    0    0 -0.11196964363E+03 -0.10185362093E+03 -0.14399831099E+03  0.24345815813E+03  0.12500000000E+03 0.  0.
         25    1    1    2    0    0 -0.12349008390E+03 -0.24376048891E+02  0.16381822971E+03  0.24146512164E+03  0.12500000000E+03 0.  0.
</event>
<event>
 5    0  0.5691975E-005  0.2517141E+03  0.7546771E-02  0.1112226E+00
         21   -1    0    0  502  501  0.00000000000E+00  0.00000000000E+00  0.24517391808E+03  0.24517391808E+03  0.00000000000E+00 0.  1.
         21   -1    0    0  501  502 -0.00000000000E+00 -0.00000000000E+00 -0.25842865097E+03  0.25842865097E+03  0.00000000000E+00 0.  1.
         25    1    1    2    0    0 -0.12351609978E+02  0.37956883606E+02  0.52324694751E+02  0.14126627681E+03  0.12500000000E+03 0.  0.
         25    1    1    2    0    0 -0.28469267805E+00 -0.14475648821E+03 -0.41237290498E+02  0.19565284577E+03  0.12500000000E+03 0.  0.
         25    1    1    2    0    0  0.12636302656E+02  0.10679960461E+03 -0.24342137145E+02  0.16668344648E+03  0.12500000000E+03 0.  0.
</event>
<event>
 5    0  0.5691975E-005  0.3253981E+03  0.7546771E-02  0.1073191E+00
         21   -1    0    0  502  501  0.00000000000E+00  0.00000000000E+00  0.20141231561E+03  0.20141231561E+03  0.00000000000E+00 0.  1.
         21   -1    0    0  501  502 -0.00000000000E+00 -0.00000000000E+00 -0.52570726801E+03  0.52570726801E+03  0.00000000000E+00 0.  1.
         25    1    1    2    0    0 -0.13062120819E+03 -0.81009960199E+02 -0.18739724823E+03  0.27270357960E+03  0.12500000000E+03 0.  0.
         25    1    1    2    0    0 -0.28820092810E+02  0.12616077960E+02 -0.19415823684E+03  0.23304974599E+03  0.12500000000E+03 0.  0.
         25    1    1    2    0    0  0.15944130100E+03  0.68393882238E+02  0.57260532669E+02  0.22136625803E+03  0.12500000000E+03 0.  0.
</event>
<event>
 5    0  0.5691975E-005  0.3368591E+03  0.7546771E-02  0.1068142E+00
         21   -1    0    0  502  501  0.00000000000E+00  0.00000000000E+00  0.51810371042E+03  0.51810371042E+03  0.00000000000E+00 0. -1.
         21   -1    0    0  501  502 -0.00000000000E+00 -0.00000000000E+00 -0.21901809152E+03  0.21901809152E+03  0.00000000000E+00 0. -1.
         25    1    1    2    0    0  0.13632070017E+03 -0.51883798698E+02  0.17017766138E+02  0.19284674284E+03  0.12500000000E+03 0.  0.
         25    1    1    2    0    0 -0.24800906542E+03 -0.31475280143E+01  0.22916612993E+03  0.36008404376E+03  0.12500000000E+03 0.  0.
         25    1    1    2    0    0  0.11168836526E+03  0.55031326712E+02  0.52901722831E+02  0.18419101534E+03  0.12500000000E+03 0.  0.
</event>
<event>
 5    0  0.5691975E-005  0.3226558E+03  0.7546771E-02  0.1074433E+00
         21   -1    0    0  502  501  0.00000000000E+00  0.00000000000E+00  0.17980454985E+04  0.17980454985E+04  0.00000000000E+00 0. -1.
         21   -1    0    0  501  502 -0.00000000000E+00 -0.00000000000E+00 -0.57899952343E+02  0.57899952343E+02  0.00000000000E+00 0. -1.
         25    1    1    2    0    0 -0.89888411902E+02 -0.10545797036E+02  0.37970718506E+03  0.40987032927E+03  0.12500000000E+03 0.  0.
         25    1    1    2    0    0 -0.83152052463E+02  0.10512166208E+03  0.24223031838E+03  0.30375212725E+03  0.12500000000E+03 0.  0.
         25    1    1    2    0    0  0.17304046436E+03 -0.94575865049E+02  0.11182080427E+04  0.11423229943E+04  0.12500000000E+03 0.  0.
</event>
<event>
 5    0  0.5691975E-005  0.2833020E+03  0.7546771E-02  0.1093899E+00
         21   -1    0    0  502  501  0.00000000000E+00  0.00000000000E+00  0.14234985828E+03  0.14234985828E+03  0.00000000000E+00 0. -1.
         21   -1    0    0  501  502 -0.00000000000E+00 -0.00000000000E+00 -0.56382216056E+03  0.56382216056E+03  0.00000000000E+00 0. -1.
         25    1    1    2    0    0  0.54087484783E+02  0.73678125846E+02  0.21358327370E+02  0.15631730674E+03  0.12500000000E+03 0.  0.
         25    1    1    2    0    0 -0.66280705580E+02  0.43152594663E+02 -0.15122763757E+03  0.21154213936E+03  0.12500000000E+03 0.  0.
         25    1    1    2    0    0  0.12193220797E+02 -0.11683072051E+03 -0.29160299208E+03  0.33831257275E+03  0.12500000000E+03 0.  0.
</event>
<event>
 5    0  0.5691975E-005  0.4042131E+03  0.7546771E-02  0.1042331E+00
         21   -1    0    0  502  501  0.00000000000E+00  0.00000000000E+00  0.18504904545E+03  0.18504904545E+03  0.00000000000E+00 0. -1.
         21   -1    0    0  501  502 -0.00000000000E+00 -0.00000000000E+00 -0.88294569219E+03  0.88294569219E+03  0.00000000000E+00 0. -1.
         25    1    1    2    0    0 -0.57516443382E+02 -0.49699169568E+02 -0.48480812581E+03  0.50640109357E+03  0.12500000000E+03 0.  0.
         25    1    1    2    0    0 -0.15152959624E+03 -0.90595229164E+02 -0.13272669567E+02  0.21672535117E+03  0.12500000000E+03 0.  0.
         25    1    1    2    0    0  0.20904603962E+03  0.14029439873E+03 -0.19981585136E+03  0.34486829290E+03  0.12500000000E+03 0.  0.
</event>
<event>
 5    0  0.5691975E-005  0.2737622E+03  0.7546771E-02  0.1099146E+00
         21   -1    0    0  502  501  0.00000000000E+00  0.00000000000E+00  0.18606078102E+04  0.18606078102E+04  0.00000000000E+00 0.  1.
         21   -1    0    0  501  502 -0.00000000000E+00 -0.00000000000E+00 -0.40280248548E+02  0.40280248548E+02  0.00000000000E+00 0.  1.
         25    1    1    2    0    0 -0.14093640880E+00 -0.35683820172E+02  0.26313539279E+03  0.29349376454E+03  0.12500000000E+03 0.  0.
         25    1    1    2    0    0 -0.69419515585E+02  0.14995461951E+03  0.66186305741E+03  0.69353670690E+03  0.12500000000E+03 0.  0.
         25    1    1    2    0    0  0.69560451993E+02 -0.11427079934E+03  0.89532911146E+03  0.91385758732E+03  0.12500000000E+03 0.  0.
</event>
<event>
 5    0  0.5691975E-005  0.2997079E+03  0.7546771E-02  0.1085387E+00
         21   -1    0    0  502  501  0.00000000000E+00  0.00000000000E+00  0.46037103266E+03  0.46037103266E+03  0.00000000000E+00 0. -1.
         21   -1    0    0  501  502 -0.00000000000E+00 -0.00000000000E+00 -0.19511395499E+03  0.19511395499E+03  0.00000000000E+00 0. -1.
         25    1    1    2    0    0 -0.32765283367E+02 -0.63004725751E+02  0.32506144141E+03  0.35543367870E+03  0.12500000000E+03 0.  0.
         25    1    1    2    0    0  0.78431899379E+02  0.33232744728E+02 -0.30154292514E+00  0.15126489709E+03  0.12500000000E+03 0.  0.
         25    1    1    2    0    0 -0.45666616012E+02  0.29771981023E+02 -0.59502820811E+02  0.14878641187E+03  0.12500000000E+03 0.  0.
</event>
<event>
 5    0  0.5691975E-005  0.2472475E+03  0.7546771E-02  0.1115057E+00
         21   -1    0    0  502  501  0.00000000000E+00  0.00000000000E+00  0.97941611964E+02  0.97941611964E+02  0.00000000000E+00 0. -1.
         21   -1    0    0  501  502 -0.00000000000E+00 -0.00000000000E+00 -0.62416094442E+03  0.62416094442E+03  0.00000000000E+00 0. -1.
         25    1    1    2    0    0 -0.30217754742E+02  0.64382168087E+02 -0.19643352700E+03  0.24345288414E+03  0.12500000000E+03 0.  0.
         25    1    1    2    0    0 -0.86191479814E+02  0.25199040979E+02 -0.14005099737E+03  0.20809431689E+03  0.12500000000E+03 0.  0.
         25    1    1    2    0    0  0.11640923456E+03 -0.89581209066E+02 -0.18973480809E+03  0.27055535535E+03  0.12500000000E+03 0.  0.
</event>
<event>
 5    0  0.5691975E-005  0.2604640E+03  0.7546771E-02  0.1106865E+00
         21   -1    0    0  502  501  0.00000000000E+00  0.00000000000E+00  0.27223423557E+03  0.27223423557E+03  0.00000000000E+00 0.  1.
         21   -1    0    0  501  502 -0.00000000000E+00 -0.00000000000E+00 -0.24920271030E+03  0.24920271030E+03  0.00000000000E+00 0.  1.
         25    1    1    2    0    0  0.78960257742E+02 -0.12028269056E+03  0.31860185508E+02  0.19324264377E+03  0.12500000000E+03 0.  0.
         25    1    1    2    0    0 -0.94761189890E+02  0.45641353704E+01 -0.78183993067E+01  0.15711983264E+03  0.12500000000E+03 0.  0.
         25    1    1    2    0    0  0.15800932148E+02  0.11571855519E+03 -0.10102609287E+01  0.17107446946E+03  0.12500000000E+03 0.  0.
</event>
<event>
 5    0  0.5691975E-005  0.3772850E+03  0.7546771E-02  0.1051942E+00
         21   -1    0    0  502  501  0.00000000000E+00  0.00000000000E+00  0.46893346534E+03  0.46893346534E+03  0.00000000000E+00 0. -1.
         21   -1    0    0  501  502 -0.00000000000E+00 -0.00000000000E+00 -0.30354840608E+03  0.30354840608E+03  0.00000000000E+00 0. -1.
         25    1    1    2    0    0 -0.13213658962E+03 -0.96232013121E+02 -0.16998411130E+03  0.26690874238E+03  0.12500000000E+03 0.  0.
         25    1    1    2    0    0  0.12065151400E+03  0.12513814644E+03  0.97920026270E+02  0.23543507612E+03  0.12500000000E+03 0.  0.
         25    1    1    2    0    0  0.11485075620E+02 -0.28906133321E+02  0.23744914429E+03  0.27013805291E+03  0.12500000000E+03 0.  0.
</event>
<event>
 5    0  0.5691975E-005  0.2579703E+03  0.7546771E-02  0.1108369E+00
         21   -1    0    0  502  501  0.00000000000E+00  0.00000000000E+00  0.17858395914E+04  0.17858395914E+04  0.00000000000E+00 0.  1.
         21   -1    0    0  501  502 -0.00000000000E+00 -0.00000000000E+00 -0.37264631223E+02  0.37264631223E+02  0.00000000000E+00 0.  1.
         25    1    1    2    0    0 -0.39985182759E+00 -0.14985192798E+02  0.86821519183E+03  0.87729546631E+03  0.12500000000E+03 0.  0.
         25    1    1    2    0    0 -0.89208910717E+02 -0.12614959218E+01  0.22477685593E+03  0.27223052012E+03  0.12500000000E+03 0.  0.
         25    1    1    2    0    0  0.89608762545E+02  0.16246688720E+02  0.65558291247E+03  0.67357823624E+03  0.12500000000E+03 0.  0.
</event>
<event>
 5    0  0.5691975E-005  0.2662136E+03  0.7546771E-02  0.1103466E+00
         21   -1    0    0  502  501  0.00000000000E+00  0.00000000000E+00  0.76499425672E+03  0.76499425672E+03  0.00000000000E+00 0.  1.
         21   -1    0    0  501  502 -0.00000000000E+00 -0.00000000000E+00 -0.92640782460E+02  0.92640782460E+02  0.00000000000E+00 0.  1.
         25    1    1    2    0    0  0.67556764721E+02  0.60745442723E+01  0.96625230549E+02  0.17193676665E+03  0.12500000000E+03 0.  0.
         25    1    1    2    0    0 -0.11089685321E+03 -0.72544775482E+02  0.46912638005E+03  0.50325482309E+03  0.12500000000E+03 0.  0.
         25    1    1    2    0    0  0.43340088493E+02  0.66470231209E+02  0.10660186366E+03  0.18244344944E+03  0.12500000000E+03 0.  0.
</event>
<event>
 5    0  0.5691975E-005  0.4628722E+03  0.7546771E-02  0.1023951E+00
         21   -1    0    0  502  501  0.00000000000E+00  0.00000000000E+00  0.17890472473E+03  0.17890472473E+03  0.00000000000E+00 0. -1.
         21   -1    0    0  501  502 -0.00000000000E+00 -0.00000000000E+00 -0.11975686187E+04  0.11975686187E+04  0.00000000000E+00 0. -1.
         25    1    1    2    0    0  0.11060237071E+03 -0.25847113001E+02 -0.10381911466E+04  0.10518397285E+04  0.12500000000E+03 0.  0.
         25    1    1    2    0    0 -0.86507484271E+02 -0.60198530267E+02  0.43336644395E+02  0.16914630539E+03  0.12500000000E+03 0.  0.
         25    1    1    2    0    0 -0.24094886434E+02  0.86045643268E+02 -0.23809391768E+02  0.15548730950E+03  0.12500000000E+03 0.  0.
</event>
<event>
 5    0  0.5691975E-005  0.2939905E+03  0.7546771E-02  0.1088284E+00
         21   -1    0    0  502  501  0.00000000000E+00  0.00000000000E+00  0.50188256579E+03  0.50188256579E+03  0.00000000000E+00 0.  1.
         21   -1    0    0  501  502 -0.00000000000E+00 -0.00000000000E+00 -0.17221240259E+03  0.17221240259E+03  0.00000000000E+00 0.  1.
         25    1    1    2    0    0  0.83642488858E+02 -0.96837027300E+02 -0.22441907478E+02  0.18028342966E+03  0.12500000000E+03 0.  0.
         25    1    1    2    0    0 -0.34241833946E+02 -0.31202548724E+02  0.56588240053E+02  0.14482172196E+03  0.12500000000E+03 0.  0.
         25    1    1    2    0    0 -0.49400654912E+02  0.12803957602E+03  0.29552383063E+03  0.34898981676E+03  0.12500000000E+03 0.  0.
</event>
<event>
 5    0  0.5691975E-005  0.2377875E+03  0.7546771E-02  0.1121276E+00
         21   -1    0    0  502  501  0.00000000000E+00  0.00000000000E+00  0.19582251630E+03  0.19582251630E+03  0.00000000000E+00 0.  1.
         21   -1    0    0  501  502 -0.00000000000E+00 -0.00000000000E+00 -0.28874572003E+03  0.28874572003E+03  0.00000000000E+00 0.  1.
         25    1    1    2    0    0 -0.25083361734E+02 -0.29035764526E+02  0.23594164060E+02  0.13286811218E+03  0.12500000000E+03 0.  0.
         25    1    1    2    0    0  0.64065475691E+02 -0.51278541905E+02 -0.12914055691E+03  0.19757570062E+03  0.12500000000E+03 0.  0.
         25    1    1    2    0    0 -0.38982113957E+02  0.80314306431E+02  0.12623189121E+02  0.15412442353E+03  0.12500000000E+03 0.  0.
</event>
<event>
 5    0  0.5691975E-005  0.6205616E+03  0.7546771E-02  0.9863642E-01
         21   -1    0    0  502  501  0.00000000000E+00  0.00000000000E+00  0.11751204693E+04  0.11751204693E+04  0.00000000000E+00 0. -1.
         21   -1    0    0  501  502 -0.00000000000E+00 -0.00000000000E+00 -0.32770824540E+03  0.32770824540E+03  0.00000000000E+00 0. -1.
         25    1    1    2    0    0 -0.26352243815E+03 -0.50693035942E+03  0.29725868503E+03  0.65605654523E+03  0.12500000000E+03 0.  0.
         25    1    1    2    0    0  0.72125287765E+02  0.13340772320E+03  0.10711108624E+03  0.22382462451E+03  0.12500000000E+03 0.  0.
         25    1    1    2    0    0  0.19139715039E+03  0.37352263622E+03  0.44304245266E+03  0.62294754499E+03  0.12500000000E+03 0.  0.
</event>
<event>
 5    0  0.5691975E-005  0.4949039E+03  0.7546771E-02  0.1015118E+00
         21   -1    0    0  502  501  0.00000000000E+00  0.00000000000E+00  0.23353070345E+03  0.23353070345E+03  0.00000000000E+00 0. -1.
         21   -1    0    0  501  502 -0.00000000000E+00 -0.00000000000E+00 -0.10488124640E+04  0.10488124640E+04  0.00000000000E+00 0. -1.
         25    1    1    2    0    0  0.50609351180E+02  0.16240937698E+02 -0.52421728297E+03  0.54152916288E+03  0.12500000000E+03 0.  0.
         25    1    1    2    0    0  0.20927464021E+03 -0.51543668732E+02  0.87090657779E+02  0.26393637016E+03  0.12500000000E+03 0.  0.
         25    1    1    2    0    0 -0.25988399139E+03  0.35302731034E+02 -0.37815513533E+03  0.47687763439E+03  0.12500000000E+03 0.  0.
</event>
<event>
 5    0  0.5691975E-005  0.1931780E+03  0.7546771E-02  0.1155626E+00
         21   -1    0    0  502  501  0.00000000000E+00  0.00000000000E+00  0.88866852041E+02  0.88866852041E+02  0.00000000000E+00 0. -1.
         21   -1    0    0  501  502 -0.00000000000E+00 -0.00000000000E+00 -0.41992846919E+03  0.41992846919E+03  0.00000000000E+00 0. -1.
         25    1    1    2    0    0  0.26846741382E+02  0.10851908867E+02 -0.13644204913E+03  0.18729640739E+03  0.12500000000E+03 0.  0.
         25    1    1    2    0    0  0.41174639374E+01 -0.47509904382E+01 -0.11502135023E+03  0.16998363577E+03  0.12500000000E+03 0.  0.
         25    1    1    2    0    0 -0.30964205319E+02 -0.61009184287E+01 -0.79598217789E+02  0.15151527808E+03  0.12500000000E+03 0.  0.
</event>
<event>
 5    0  0.5691975E-005  0.3348956E+03  0.7546771E-02  0.1068991E+00
         21   -1    0    0  502  501  0.00000000000E+00  0.00000000000E+00  0.16554211641E+03  0.16554211641E+03  0.00000000000E+00 0.  1.
         21   -1    0    0  501  502 -0.00000000000E+00 -0.00000000000E+00 -0.67750181218E+03  0.67750181218E+03  0.00000000000E+00 0.  1.
         25    1    1    2    0    0 -0.84333579563E+02  0.60795665499E+02 -0.18163668947E+03  0.24377274775E+03  0.12500000000E+03 0.  0.
         25    1    1    2    0    0  0.22271474058E+03  0.62446381708E+02 -0.24693804958E+03  0.36070043885E+03  0.12500000000E+03 0.  0.
         25    1    1    2    0    0 -0.13838116101E+03 -0.12324204721E+03 -0.83384956727E+02  0.23857074199E+03  0.12500000000E+03 0.  0.
</event>
<event>
 5    0  0.5691975E-005  0.4050821E+03  0.7546771E-02  0.1042034E+00
         21   -1    0    0  502  501  0.00000000000E+00  0.00000000000E+00  0.35882866885E+03  0.35882866885E+03  0.00000000000E+00 0.  1.
         21   -1    0    0  501  502 -0.00000000000E+00 -0.00000000000E+00 -0.45729773513E+03  0.45729773513E+03  0.00000000000E+00 0.  1.
         25    1    1    2    0    0  0.13067607582E+03 -0.22075154281E+03 -0.57019514296E+02  0.29100464852E+03  0.12500000000E+03 0.  0.
         25    1    1    2    0    0  0.92135130198E+02  0.20915678138E+03 -0.64426544597E+02  0.26834906570E+03  0.12500000000E+03 0.  0.
         25    1    1    2    0    0 -0.22281120602E+03  0.11594761439E+02  0.22976992617E+02  0.25677268977E+03  0.12500000000E+03 0.  0.
</event>
<event>
 5    0  0.5691975E-005  0.3477872E+03  0.7546771E-02  0.1063527E+00
         21   -1    0    0  502  501  0.00000000000E+00  0.00000000000E+00  0.61301571041E+03  0.61301571041E+03  0.00000000000E+00 0.  1.
         21   -1    0    0  501  502 -0.00000000000E+00 -0.00000000000E+00 -0.19731298063E+03  0.19731298063E+03  0.00000000000E+00 0.  1.
         25    1    1    2    0    0 -0.44789754595E+01  0.97002962374E+01  0.51097605867E+02  0.13546262323E+03  0.12500000000E+03 0.  0.
         25    1    1    2    0    0  0.17177855007E+03  0.70471219574E+02  0.39006518446E+03  0.44972203769E+03  0.12500000000E+03 0.  0.
         25    1    1    2    0    0 -0.16729957461E+03 -0.80171515811E+02 -0.25460060541E+02  0.22514403012E+03  0.12500000000E+03 0.  0.
</event>
<event>
 5    0  0.5691975E-005  0.5434537E+03  0.7546771E-02  0.1003021E+00
         21   -1    0    0  502  501  0.00000000000E+00  0.00000000000E+00  0.70179345455E+03  0.70179345455E+03  0.00000000000E+00 0. -1.
         21   -1    0    0  501  502 -0.00000000000E+00 -0.00000000000E+00 -0.42083876765E+03  0.42083876765E+03  0.00000000000E+00 0. -1.
         25    1    1    2    0    0 -0.20480189386E+03 -0.21611970293E+03  0.15002966889E+03  0.35606943602E+03  0.12500000000E+03 0.  0.
         25    1    1    2    0    0  0.38838418031E+01 -0.17141713019E+03 -0.12406451464E+03  0.24579650230E+03  0.12500000000E+03 0.  0.
         25    1    1    2    0    0  0.20091805205E+03  0.38753683311E+03  0.25498953266E+03  0.52076628388E+03  0.12500000000E+03 0.  0.
</event>
<event>
 5    0  0.5691975E-005  0.3920926E+03  0.7546771E-02  0.1046553E+00
         21   -1    0    0  502  501  0.00000000000E+00  0.00000000000E+00  0.37576324451E+03  0.37576324451E+03  0.00000000000E+00 0.  1.
         21   -1    0    0  501  502 -0.00000000000E+00 -0.00000000000E+00 -0.40913151294E+03  0.40913151294E+03  0.00000000000E+00 0.  1.
         25    1    1    2    0    0 -0.14453910190E+03  0.26214878467E+03  0.39244665853E+02  0.32677007372E+03  0.12500000000E+03 0.  0.
         25    1    1    2    0    0  0.15273221506E+03 -0.99972198278E+02 -0.11427639440E+03  0.24900936582E+03  0.12500000000E+03 0.  0.
         25    1    1    2    0    0 -0.81931131578E+01 -0.16217658639E+03  0.41663460127E+02  0.20911531791E+03  0.12500000000E+03 0.  0.
</event>
<event>
 5    0  0.5691975E-005  0.3435202E+03  0.7546771E-02  0.1065306E+00
         21   -1    0    0  502  501  0.00000000000E+00  0.00000000000E+00  0.83049010123E+02  0.83049010123E+02  0.00000000000E+00 0.  1.
         21   -1    0    0  501  502 -0.00000000000E+00 -0.00000000000E+00 -0.14209216497E+04  0.14209216497E+04  0.00000000000E+00 0.  1.
         25    1    1    2    0    0  0.11922333617E+03 -0.20023877741E+03 -0.46795634878E+03  0.53751085220E+03  0.12500000000E+03 0.  0.
         25    1    1    2    0    0 -0.18543632270E+03  0.91634338843E+02 -0.53383281023E+03  0.58599142580E+03  0.12500000000E+03 0.  0.
         25    1    1    2    0    0  0.66212986526E+02  0.10860443857E+03 -0.33608348056E+03  0.38046838182E+03  0.12500000000E+03 0.  0.
</event>
<event>
 5    0  0.5691975E-005  0.3045984E+03  0.7546771E-02  0.1082964E+00
         21   -1    0    0  502  501  0.00000000000E+00  0.00000000000E+00  0.16246805222E+03  0.16246805222E+03  0.00000000000E+00 0. -1.
         21   -1    0    0  501  502 -0.00000000000E+00 -0.00000000000E+00 -0.57106716380E+03  0.57106716380E+03  0.00000000000E+00 0. -1.
         25    1    1    2    0    0 -0.43351939387E+02  0.24842263426E+02 -0.38971944407E+03  0.41231392626E+03  0.12500000000E+03 0.  0.
         25    1    1    2    0    0 -0.65166235194E+02  0.65856508907E+01  0.32994878201E+02  0.14492643304E+03  0.12500000000E+03 0.  0.
         25    1    1    2    0    0  0.10851817458E+03 -0.31427914317E+02 -0.51874545721E+02  0.17629485672E+03  0.12500000000E+03 0.  0.
</event>
<event>
 5    0  0.5691975E-005  0.4131563E+03  0.7546771E-02  0.1039317E+00
         21   -1    0    0  502  501  0.00000000000E+00  0.00000000000E+00  0.54522804918E+03  0.54522804918E+03  0.00000000000E+00 0. -1.
         21   -1    0    0  501  502 -0.00000000000E+00 -0.00000000000E+00 -0.31307662837E+03  0.31307662837E+03  0.00000000000E+00 0. -1.
         25    1    1    2    0    0  0.11546191238E+03  0.93108975850E+02  0.10917719472E+03  0.22258794765E+03  0.12500000000E+03 0.  0.
         25    1    1    2    0    0  0.18272774658E+03  0.10434501965E+03  0.42548186964E+02  0.24842033071E+03  0.12500000000E+03 0.  0.
         25    1    1    2    0    0 -0.29818965896E+03 -0.19745399550E+03  0.80426039130E+02  0.38729639918E+03  0.12500000000E+03 0.  0.
</event>
<event>
 5    0  0.5691975E-005  0.3234830E+03  0.7546771E-02  0.1074057E+00
         21   -1    0    0  502  501  0.00000000000E+00  0.00000000000E+00  0.23889082972E+03  0.23889082972E+03  0.00000000000E+00 0.  1.
         21   -1    0    0  501  502 -0.00000000000E+00 -0.00000000000E+00 -0.43802951994E+03  0.43802951994E+03  0.00000000000E+00 0.  1.
         25    1    1    2    0    0 -0.86013013612E+02  0.23560115227E+03 -0.59997231106E+02  0.28658473302E+03  0.12500000000E+03 0.  0.
         25    1    1    2    0    0  0.67516094471E+02 -0.12580839658E+03 -0.11313378051E+03  0.22093082165E+03  0.12500000000E+03 0.  0.
         25    1    1    2    0    0  0.18496919140E+02 -0.10979275568E+03 -0.26007678608E+02  0.16940479499E+03  0.12500000000E+03 0.  0.
</event>
<event>
 5    0  0.5691975E-005  0.4695009E+03  0.7546771E-02  0.1022061E+00
         21   -1    0    0  502  501  0.00000000000E+00  0.00000000000E+00  0.63737377227E+03  0.63737377227E+03  0.00000000000E+00 0. -1.
         21   -1    0    0  501  502 -0.00000000000E+00 -0.00000000000E+00 -0.34584281717E+03  0.34584281717E+03  0.00000000000E+00 0. -1.
         25    1    1    2    0    0 -0.18621026832E+03 -0.95818308157E+02  0.32515188549E+03  0.40645314717E+03  0.12500000000E+03 0.  0.
         25    1    1    2    0    0  0.25027765804E+03  0.21364231529E+03 -0.12290308933E+03  0.37284328391E+03  0.12500000000E+03 0.  0.
         25    1    1    2    0    0 -0.64067389718E+02 -0.11782400713E+03  0.89282158938E+02  0.20392015836E+03  0.12500000000E+03 0.  0.
</event>
<event>
 5    0  0.5691975E-005  0.4167255E+03  0.7546771E-02  0.1038137E+00
         21   -1    0    0  502  501  0.00000000000E+00  0.00000000000E+00  0.39529813413E+03  0.39529813413E+03  0.00000000000E+00 0. -1.
         21   -1    0    0  501  502 -0.00000000000E+00 -0.00000000000E+00 -0.43931436295E+03  0.43931436295E+03  0.00000000000E+00 0. -1.
         25    1    1    2    0    0 -0.59491464112E+02 -0.27131163159E+03  0.94902387203E+02  0.31903087442E+03  0.12500000000E+03 0.  0.
         25    1    1    2    0    0  0.11595272017E+03  0.81429796586E+02  0.70211271801E+02  0.20157000713E+03  0.12500000000E+03 0.  0.
         25    1    1    2    0    0 -0.56461256059E+02  0.18988183500E+03 -0.20912988782E+03  0.31401161552E+03  0.12500000000E+03 0.  0.
</event>
<event>
 5    0  0.5691975E-005  0.4171863E+03  0.7546771E-02  0.1037986E+00
         21   -1    0    0  502  501  0.00000000000E+00  0.00000000000E+00  0.91026851751E+03  0.91026851751E+03  0.00000000000E+00 0. -1.
         21   -1    0    0  501  502 -0.00000000000E+00 -0.00000000000E+00 -0.19120121079E+03  0.19120121079E+03  0.00000000000E+00 0. -1.
         25    1    1    2    0    0 -0.20090022121E+03  0.14063815183E+03  0.65654696960E+03  0.71191215183E+03  0.12500000000E+03 0.  0.
         25    1    1    2    0    0  0.30008541188E+02 -0.27136926158E+02  0.70674293963E+02  0.14918706758E+03  0.12500000000E+03 0.  0.
         25    1    1    2    0    0  0.17089168002E+03 -0.11350122567E+03 -0.81539568415E+01  0.24037050889E+03  0.12500000000E+03 0.  0.
</event>
<event>
 5    0  0.5691975E-005  0.3685082E+03  0.7546771E-02  0.1055265E+00
         21   -1    0    0  502  501  0.00000000000E+00  0.00000000000E+00  0.32379918173E+03  0.32379918173E+03  0.00000000000E+00 0. -1.
         21   -1    0    0  501  502 -0.00000000000E+00 -0.00000000000E+00 -0.41939039214E+03  0.41939039214E+03  0.00000000000E+00 0.  1.
         25    1    1    2    0    0 -0.77722385537E+02 -0.16729196839E+03  0.44075043377E+02  0.22714528687E+03  0.12500000000E+03 0.  0.
         25    1    1    2    0    0  0.11657261655E+03  0.22263348504E+03 -0.21651248559E+03  0.35448201647E+03  0.12500000000E+03 0.  0.
         25    1    1    2    0    0 -0.38850231009E+02 -0.55341516651E+02  0.76846231798E+02  0.16156227052E+03  0.12500000000E+03 0.  0.
</event>
<event>
 5    0  0.5691975E-005  0.3239219E+03  0.7546771E-02  0.1073858E+00
         21   -1    0    0  502  501  0.00000000000E+00  0.00000000000E+00  0.14747509846E+03  0.14747509846E+03  0.00000000000E+00 0.  1.
         21   -1    0    0  501  502 -0.00000000000E+00 -0.00000000000E+00 -0.71147895355E+03  0.71147895355E+03  0.00000000000E+00 0.  1.
         25    1    1    2    0    0 -0.47224466208E+02  0.70408787357E+02 -0.46818417876E+02  0.15812814992E+03  0.12500000000E+03 0.  0.
         25    1    1    2    0    0  0.70531675447E+02  0.14320181289E+03 -0.13046290549E+03  0.24109551254E+03  0.12500000000E+03 0.  0.
         25    1    1    2    0    0 -0.23307209240E+02 -0.21361060025E+03 -0.38672253172E+03  0.45973038955E+03  0.12500000000E+03 0.  0.
</event>
<event>
 5    0  0.5691975E-005  0.4546451E+03  0.7546771E-02  0.1026346E+00
         21   -1    0    0  502  501  0.00000000000E+00  0.00000000000E+00  0.15582773400E+03  0.15582773400E+03  0.00000000000E+00 0.  1.
         21   -1    0    0  501  502 -0.00000000000E+00 -0.00000000000E+00 -0.13264787401E+04  0.13264787401E+04  0.00000000000E+00 0.  1.
         25    1    1    2    0    0  0.26039699165E+03  0.12705571302E+03 -0.40418575598E+03  0.51277760560E+03  0.12500000000E+03 0.  0.
         25    1    1    2    0    0  0.41334594897E+01 -0.21862237477E+03 -0.18608273579E+03  0.31315269885E+03  0.12500000000E+03 0.  0.
         25    1    1    2    0    0 -0.26453045114E+03  0.91566661757E+02 -0.58038251431E+03  0.65637616962E+03  0.12500000000E+03 0.  0.
</event>
<event>
 5    0  0.5691975E-005  0.2472849E+03  0.7546771E-02  0.1115033E+00
         21   -1    0    0  502  501  0.00000000000E+00  0.00000000000E+00  0.10199472638E+03  0.10199472638E+03  0.00000000000E+00 0.  1.
         21   -1    0    0  501  502 -0.00000000000E+00 -0.00000000000E+00 -0.59953921609E+03  0.59953921609E+03  0.00000000000E+00 0.  1.
         25    1    1    2    0    0  0.60200285207E+01  0.39509452388E+02 -0.19734255499E+03  0.23699434926E+03  0.12500000000E+03 0.  0.
         25    1    1    2    0    0 -0.11032465612E+02  0.51613629660E+02 -0.10505083727E+02  0.13609202346E+03  0.12500000000E+03 0.  0.
         25    1    1    2    0    0  0.50124370918E+01 -0.91123082048E+02 -0.28969685098E+03  0.32844756975E+03  0.12500000000E+03 0.  0.
</event>
<event>
 5    0  0.5691975E-005  0.3965547E+03  0.7546771E-02  0.1044979E+00
         21   -1    0    0  502  501  0.00000000000E+00  0.00000000000E+00  0.35001362727E+03  0.35001362727E+03  0.00000000000E+00 0.  1.
         21   -1    0    0  501  502 -0.00000000000E+00 -0.00000000000E+00 -0.44928438387E+03  0.44928438387E+03  0.00000000000E+00 0.  1.
         25    1    1    2    0    0 -0.12902145987E+03  0.19098246264E+03 -0.22208589800E+03  0.34361022138E+03  0.12500000000E+03 0.  0.
         25    1    1    2    0    0 -0.65960994103E+02 -0.84832333889E+02 -0.15884468787E+02  0.16560402762E+03  0.12500000000E+03 0.  0.
         25    1    1    2    0    0  0.19498245398E+03 -0.10615012875E+03  0.13869961018E+03  0.29008376214E+03  0.12500000000E+03 0.  0.
</event>
<event>
 5    0  0.5691975E-005  0.5058378E+03  0.7546771E-02  0.1012266E+00
         21   -1    0    0  502  501  0.00000000000E+00  0.00000000000E+00  0.23201552878E+03  0.23201552878E+03  0.00000000000E+00 0. -1.
         21   -1    0    0  501  502 -0.00000000000E+00 -0.00000000000E+00 -0.11028220496E+04  0.11028220496E+04  0.00000000000E+00 0. -1.
         25    1    1    2    0    0 -0.13486813113E+03  0.87115692530E+02  0.70797963374E+02  0.21544351533E+03  0.12500000000E+03 0.  0.
         25    1    1    2    0    0 -0.10384048225E+03  0.14190783379E+03 -0.18491281797E+03  0.28414508494E+03  0.12500000000E+03 0.  0.
         25    1    1    2    0    0  0.23870861338E+03 -0.22902352632E+03 -0.75669166618E+03  0.83524897807E+03  0.12500000000E+03 0.  0.
</event>
<event>
 5    0  0.5691975E-005  0.4057919E+03  0.7546771E-02  0.1041792E+00
         21   -1    0    0  502  501  0.00000000000E+00  0.00000000000E+00  0.12873114271E+03  0.12873114271E+03  0.00000000000E+00 0.  1.
         21   -1    0    0  501  502 -0.00000000000E+00 -0.00000000000E+00 -0.12791547433E+04  0.12791547433E+04  0.00000000000E+00 0.  1.
         25    1    1    2    0    0 -0.85845383751E+02 -0.14805414483E+03 -0.42623473418E+03  0.47601523961E+03  0.12500000000E+03 0.  0.
         25    1    1    2    0    0  0.26317772999E+03  0.19745577703E+03 -0.34898449431E+03  0.49564753476E+03  0.12500000000E+03 0.  0.
         25    1    1    2    0    0 -0.17733234623E+03 -0.49401632200E+02 -0.37520437209E+03  0.43622311163E+03  0.12500000000E+03 0.  0.
</event>
<event>
 5    0  0.5691975E-005  0.4269291E+03  0.7546771E-02  0.1034834E+00
         21   -1    0    0  502  501  0.00000000000E+00  0.00000000000E+00  0.17587537364E+03  0.17587537364E+03  0.00000000000E+00 0.  1.
         21   -1    0    0  501  502 -0.00000000000E+00 -0.00000000000E+00 -0.10363501079E+04  0.10363501079E+04  0.00000000000E+00 0.  1.
         25    1    1    2    0    0 -0.19761650046E+03  0.58887752764E+02 -0.10397190725E+02  0.24135689394E+03  0.12500000000E+03 0.  0.
         25    1    1    2    0    0  0.15498785427E+02  0.12752545792E+03 -0.35171701487E+03  0.39475665076E+03  0.12500000000E+03 0.  0.
         25    1    1    2    0    0  0.18211771503E+03 -0.18641321068E+03 -0.49836052866E+03  0.57611193684E+03  0.12500000000E+03 0.  0.
</event>
<event>
 5    0  0.5691975E-005  0.3336847E+03  0.7546771E-02  0.1069518E+00
         21   -1    0    0  502  501  0.00000000000E+00  0.00000000000E+00  0.81729501354E+02  0.81729501354E+02  0.00000000000E+00 0. -1.
         21   -1    0    0  501  502 -0.00000000000E+00 -0.00000000000E+00 -0.13623660725E+04  0.13623660725E+04  0.00000000000E+00 0. -1.
         25    1    1    2    0    0  0.20585781198E+02  0.83942038192E+02 -0.25536420355E+03  0.29716311450E+03  0.12500000000E+03 0.  0.
         25    1    1    2    0    0 -0.93181978593E+02  0.12494300796E+03 -0.73278642748E+03  0.75953576918E+03  0.12500000000E+03 0.  0.
         25    1    1    2    0    0  0.72596197396E+02 -0.20888504615E+03 -0.29248594009E+03  0.38739669014E+03  0.12500000000E+03 0.  0.
</event>
<event>
 5    0  0.5983751E-005  0.2920210E+03  0.7546771E-02  0.1089299E+00
         21   -1    0    0  502  501  0.00000000000E+00  0.00000000000E+00  0.12187558049E+04  0.12187558049E+04  0.00000000000E+00 0. -1.
         21   -1    0    0  501  502 -0.00000000000E+00 -0.00000000000E+00 -0.69969928431E+02  0.69969928431E+02  0.00000000000E+00 0. -1.
         25    1    1    2    0    0 -0.53465773781E+02 -0.55059032961E+02  0.68889128733E+03  0.70433393489E+03  0.12500000000E+03 0.  0.
         25    1    1    2    0    0 -0.85748332626E+02  0.47401096867E+02  0.29429840079E+03  0.33441918193E+03  0.12500000000E+03 0.  0.
         25    1    1    2    0    0  0.13921410641E+03  0.76579360934E+01  0.16559618833E+03  0.24997261649E+03  0.12500000000E+03 0.  0.
</event>
<event>
 5    0  0.5691975E-005  0.6599416E+03  0.7546771E-02  0.9788301E-01
         21   -1    0    0  502  501  0.00000000000E+00  0.00000000000E+00  0.65918738500E+03  0.65918738500E+03  0.00000000000E+00 0. -1.
         21   -1    0    0  501  502 -0.00000000000E+00 -0.00000000000E+00 -0.66069660795E+03  0.66069660795E+03  0.00000000000E+00 0. -1.
         25    1    1    2    0    0  0.15989728267E+03  0.36910588005E+03  0.14942135960E+03  0.44694298786E+03  0.12500000000E+03 0.  0.
         25    1    1    2    0    0  0.23996203326E+03 -0.13893330447E+01  0.59638482755E+02  0.27706579774E+03  0.12500000000E+03 0.  0.
         25    1    1    2    0    0 -0.39985931593E+03 -0.36771654700E+03 -0.21056906531E+03  0.59587520735E+03  0.12500000000E+03 0.  0.
</event>
<event>
 5    0  0.5691975E-005  0.3823937E+03  0.7546771E-02  0.1050053E+00
         21   -1    0    0  502  501  0.00000000000E+00  0.00000000000E+00  0.20145430126E+04  0.20145430126E+04  0.00000000000E+00 0.  1.
         21   -1    0    0  501  502 -0.00000000000E+00 -0.00000000000E+00 -0.72584675513E+02  0.72584675513E+02  0.00000000000E+00 0.  1.
         25    1    1    2    0    0 -0.81242220128E+02  0.82143209288E+02  0.17390093648E+03  0.24333996974E+03  0.12500000000E+03 0.  0.
         25    1    1    2    0    0 -0.15467304239E+03 -0.41079847154E+02  0.11708718393E+04  0.11883506082E+04  0.12500000000E+03 0.  0.
         25    1    1    2    0    0  0.23591526252E+03 -0.41063362134E+02  0.59718556135E+03  0.65543711024E+03  0.12500000000E+03 0.  0.
</event>
<event>
 5    0  0.5758099E-005  0.3397749E+03  0.7546771E-02  0.1066892E+00
         21   -1    0    0  502  501  0.00000000000E+00  0.00000000000E+00  0.18949154922E+03  0.18949154922E+03  0.00000000000E+00 0.  1.
         21   -1    0    0  501  502 -0.00000000000E+00 -0.00000000000E+00 -0.60924624905E+03  0.60924624905E+03  0.00000000000E+00 0.  1.
         25    1    1    2    0    0  0.82827608251E+02  0.77807104219E+02 -0.21772327967E+03  0.27557718459E+03  0.12500000000E+03 0.  0.
         25    1    1    2    0    0  0.99852502357E+02 -0.22828826730E+02  0.63044201097E+02  0.17346829350E+03  0.12500000000E+03 0.  0.
         25    1    1    2    0    0 -0.18268011061E+03 -0.54978277489E+02 -0.26507562125E+03  0.34969232017E+03  0.12500000000E+03 0.  0.
</event>
<event>
 5    0  0.5921333E-005  0.3556907E+03  0.7546771E-02  0.1060303E+00
         21   -1    0    0  502  501  0.00000000000E+00  0.00000000000E+00  0.55888083634E+03  0.55888083634E+03  0.00000000000E+00 0.  1.
         21   -1    0    0  501  502 -0.00000000000E+00 -0.00000000000E+00 -0.22637361495E+03  0.22637361495E+03  0.00000000000E+00 0.  1.
         25    1    1    2    0    0 -0.11550244872E+02 -0.18752631876E+03 -0.23894347058E+02  0.22692612941E+03  0.12500000000E+03 0.  0.
         25    1    1    2    0    0 -0.21810936717E+02  0.11602062116E+03 -0.59742959928E+00  0.17193562289E+03  0.12500000000E+03 0.  0.
         25    1    1    2    0    0  0.33361181589E+02  0.71505697604E+02  0.35699899805E+03  0.38639269899E+03  0.12500000000E+03 0.  0.
</event>
<event>
 5    0  0.5691975E-005  0.3299883E+03  0.7546771E-02  0.1071142E+00
         21   -1    0    0  502  501  0.00000000000E+00  0.00000000000E+00  0.20602734251E+03  0.20602734251E+03  0.00000000000E+00 0.  1.
         21   -1    0    0  501  502 -0.00000000000E+00 -0.00000000000E+00 -0.52853302028E+03  0.52853302028E+03  0.00000000000E+00 0.  1.
         25    1    1    2    0    0 -0.72558296155E+02  0.14349799309E+03 -0.14770678920E+03  0.25159228116E+03  0.12500000000E+03 0.  0.
         25    1    1    2    0    0  0.13878081349E+03 -0.10201450194E+03  0.45757199032E+02  0.21768278311E+03  0.12500000000E+03 0.  0.
         25    1    1    2    0    0 -0.66222517331E+02 -0.41483491151E+02 -0.22055608759E+03  0.26528529853E+03  0.12500000000E+03 0.  0.
</event>
<event>
 5    0  0.5691975E-005  0.5075795E+03  0.7546771E-02  0.1011819E+00
         21   -1    0    0  502  501  0.00000000000E+00  0.00000000000E+00  0.12931819501E+04  0.12931819501E+04  0.00000000000E+00 0. -1.
         21   -1    0    0  501  502 -0.00000000000E+00 -0.00000000000E+00 -0.19922710661E+03  0.19922710661E+03  0.00000000000E+00 0. -1.
         25    1    1    2    0    0 -0.19992478636E+03  0.40786516401E+02  0.28199533954E+03  0.36983757468E+03  0.12500000000E+03 0.  0.
         25    1    1    2    0    0 -0.10783602769E+03 -0.27067655741E+03  0.56844273693E+03  0.65088136612E+03  0.12500000000E+03 0.  0.
         25    1    1    2    0    0  0.30776081406E+03  0.22989004101E+03  0.24351676702E+03  0.47169011591E+03  0.12500000000E+03 0.  0.
</event>
<event>
 5    0  0.5691975E-005  0.2334039E+03  0.7546771E-02  0.1124267E+00
         21   -1    0    0  502  501  0.00000000000E+00  0.00000000000E+00  0.18986602199E+03  0.18986602199E+03  0.00000000000E+00 0.  1.
         21   -1    0    0  501  502 -0.00000000000E+00 -0.00000000000E+00 -0.28692533751E+03  0.28692533751E+03  0.00000000000E+00 0.  1.
         25    1    1    2    0    0 -0.62403755805E+02  0.56973343385E+02 -0.13661270293E+03  0.20353923749E+03  0.12500000000E+03 0.  0.
         25    1    1    2    0    0  0.21404535332E+02 -0.35752653866E+02  0.46736760175E+02  0.13980604831E+03  0.12500000000E+03 0.  0.
         25    1    1    2    0    0  0.40999220473E+02 -0.21220689519E+02 -0.71833727698E+01  0.13344607371E+03  0.12500000000E+03 0.  0.
</event>
<event>
 5    0  0.5691975E-005  0.2590941E+03  0.7546771E-02  0.1107689E+00
         21   -1    0    0  502  501  0.00000000000E+00  0.00000000000E+00  0.69819681399E+02  0.69819681399E+02  0.00000000000E+00 0. -1.
         21   -1    0    0  501  502 -0.00000000000E+00 -0.00000000000E+00 -0.96147356578E+03  0.96147356578E+03  0.00000000000E+00 0.  1.
         25    1    1    2    0    0  0.59633182892E+02 -0.35768419597E+02 -0.19416890344E+03  0.24116811440E+03  0.12500000000E+03 0.  0.
         25    1    1    2    0    0 -0.12145302471E+03  0.11201739837E+03 -0.32864107366E+03  0.38849541831E+03  0.12500000000E+03 0.  0.
         25    1    1    2    0    0  0.61819841814E+02 -0.76248978776E+02 -0.36884390728E+03  0.40162971446E+03  0.12500000000E+03 0.  0.
</event>
<event>
 5    0  0.5691975E-005  0.3915111E+03  0.7546771E-02  0.1046759E+00
         21   -1    0    0  502  501  0.00000000000E+00  0.00000000000E+00  0.98144191674E+03  0.98144191674E+03  0.00000000000E+00 0. -1.
         21   -1    0    0  501  502 -0.00000000000E+00 -0.00000000000E+00 -0.15617933020E+03  0.15617933020E+03  0.00000000000E+00 0. -1.
         25    1    1    2    0    0 -0.43480117857E+02 -0.11280094290E+03 -0.60268291865E+02  0.18404303945E+03  0.12500000000E+03 0.  0.
         25    1    1    2    0    0 -0.67697218246E+02  0.11519070192E+03  0.52889980922E+03  0.55965330282E+03  0.12500000000E+03 0.  0.
         25    1    1    2    0    0  0.11117733610E+03 -0.23897590244E+01  0.35663106918E+03  0.39392490467E+03  0.12500000000E+03 0.  0.
</event>
<event>
 5    0  0.5691975E-005  0.2615501E+03  0.7546771E-02  0.1106215E+00
         21   -1    0    0  502  501  0.00000000000E+00  0.00000000000E+00  0.52874307320E+02  0.52874307320E+02  0.00000000000E+00 0. -1.
         21   -1    0    0  501  502 -0.00000000000E+00 -0.00000000000E+00 -0.12937936611E+04  0.12937936611E+04  0.00000000000E+00 0. -1.
         25    1    1    2    0    0  0.19503565335E+02 -0.33878707574E+02 -0.39959738758E+03  0.42051305336E+03  0.12500000000E+03 0.  0.
         25    1    1    2    0    0 -0.63248867566E+02  0.14825935207E+03 -0.54631993660E+03  0.58315669237E+03  0.12500000000E+03 0.  0.
         25    1    1    2    0    0  0.43745302231E+02 -0.11438064450E+03 -0.29500202962E+03  0.34299822271E+03  0.12500000000E+03 0.  0.
</event>
<event>
 5    0  0.5691975E-005  0.2635553E+03  0.7546771E-02  0.1105026E+00
         21   -1    0    0  502  501  0.00000000000E+00  0.00000000000E+00  0.42119848172E+03  0.42119848172E+03  0.00000000000E+00 0.  1.
         21   -1    0    0  501  502 -0.00000000000E+00 -0.00000000000E+00 -0.16491366819E+03  0.16491366819E+03  0.00000000000E+00 0.  1.
         25    1    1    2    0    0  0.58197430119E+02  0.41779415079E+00  0.22285955568E+03  0.26206582566E+03  0.12500000000E+03 0.  0.
         25    1    1    2    0    0  0.14044934365E+02 -0.44268623506E+01  0.10402152549E+03  0.16328605285E+03  0.12500000000E+03 0.  0.
         25    1    1    2    0    0 -0.72242364484E+02  0.40090681998E+01 -0.70596267632E+02  0.16076027139E+03  0.12500000000E+03 0.  0.
</event>
<event>
 5    0  0.5691975E-005  0.3460275E+03  0.7546771E-02  0.1064257E+00
         21   -1    0    0  502  501  0.00000000000E+00  0.00000000000E+00  0.69567310670E+02  0.69567310670E+02  0.00000000000E+00 0.  1.
         21   -1    0    0  501  502 -0.00000000000E+00 -0.00000000000E+00 -0.17211396937E+04  0.17211396937E+04  0.00000000000E+00 0.  1.
         25    1    1    2    0    0 -0.23556999100E+01  0.65560884447E+02 -0.91190228705E+03  0.92276462872E+03  0.12500000000E+03 0.  0.
         25    1    1    2    0    0  0.37851354846E+02 -0.20188564616E+03 -0.55186503080E+03  0.60197221814E+03  0.12500000000E+03 0.  0.
         25    1    1    2    0    0 -0.35495654936E+02  0.13632476172E+03 -0.18780506516E+03  0.26597015750E+03  0.12500000000E+03 0.  0.
</event>
<event>
 5    0  0.5691975E-005  0.3779811E+03  0.7546771E-02  0.1051682E+00
         21   -1    0    0  502  501  0.00000000000E+00  0.00000000000E+00  0.16017577917E+03  0.16017577917E+03  0.00000000000E+00 0. -1.
         21   -1    0    0  501  502 -0.00000000000E+00 -0.00000000000E+00 -0.89195579182E+03  0.89195579182E+03  0.00000000000E+00 0. -1.
         25    1    1    2    0    0  0.66549171349E+02  0.15213757013E+03 -0.68876598857E+03  0.71944299250E+03  0.12500000000E+03 0.  0.
         25    1    1    2    0    0  0.15037141893E+02 -0.12639504634E+03 -0.21319688576E+02  0.17967012133E+03  0.12500000000E+03 0.  0.
         25    1    1    2    0    0 -0.81586313242E+02 -0.25742523781E+02 -0.21694335505E+02  0.15301845716E+03  0.12500000000E+03 0.  0.
</event>
<event>
 5    0  0.5937652E-005  0.4875221E+03  0.7546771E-02  0.1017088E+00
         21   -1    0    0  502  501  0.00000000000E+00  0.00000000000E+00  0.57382471093E+03  0.57382471093E+03  0.00000000000E+00 0. -1.
         21   -1    0    0  501  502 -0.00000000000E+00 -0.00000000000E+00 -0.41419931197E+03  0.41419931197E+03  0.00000000000E+00 0. -1.
         25    1    1    2    0    0 -0.24194165208E+03 -0.79594731050E+02 -0.89838686257E+02  0.29760220727E+03  0.12500000000E+03 0.  0.
         25    1    1    2    0    0  0.40160778086E+01  0.27654305018E+03  0.17000791204E+03  0.34787911354E+03  0.12500000000E+03 0.  0.
         25    1    1    2    0    0  0.23792557427E+03 -0.19694831913E+03  0.79456173183E+02  0.34254270209E+03  0.12500000000E+03 0.  0.
</event>
<event>
 5    0  0.5691975E-005  0.3161449E+03  0.7546771E-02  0.1077437E+00
         21   -1    0    0  502  501  0.00000000000E+00  0.00000000000E+00  0.77633262596E+03  0.77633262596E+03  0.00000000000E+00 0.  1.
         21   -1    0    0  501  502 -0.00000000000E+00 -0.00000000000E+00 -0.12874324167E+03  0.12874324167E+03  0.00000000000E+00 0.  1.
         25    1    1    2    0    0 -0.47695356401E+02 -0.14296261685E+02  0.38399493750E+02  0.13992409099E+03  0.12500000000E+03 0.  0.
         25    1    1    2    0    0  0.27654369652E+02  0.17197389738E+03  0.47863506442E+03  0.52445811123E+03  0.12500000000E+03 0.  0.
         25    1    1    2    0    0  0.20040986750E+02 -0.15767763569E+03  0.13055482612E+03  0.24069366541E+03  0.12500000000E+03 0.  0.
</event>
<event>
 5    0  0.5691975E-005  0.5875828E+03  0.7546771E-02  0.9931508E-01
         21   -1    0    0  502  501  0.00000000000E+00  0.00000000000E+00  0.13739503629E+04  0.13739503629E+04  0.00000000000E+00 0. -1.
         21   -1    0    0  501  502 -0.00000000000E+00 -0.00000000000E+00 -0.25128531975E+03  0.25128531975E+03  0.00000000000E+00 0. -1.
         25    1    1    2    0    0 -0.15516605102E+03  0.29207609308E+03  0.56991564627E+03  0.67068158720E+03  0.12500000000E+03 0.  0.
         25    1    1    2    0    0  0.13630520027E+02 -0.26354192985E+03 -0.72434553168E+02  0.30085196420E+03  0.12500000000E+03 0.  0.
         25    1    1    2    0    0  0.14153553099E+03 -0.28534163230E+02  0.62518395004E+03  0.65370213124E+03  0.12500000000E+03 0.  0.
</event>
<event>
 5    0  0.5691975E-005  0.2771375E+03  0.7546771E-02  0.1097263E+00
         21   -1    0    0  502  501  0.00000000000E+00  0.00000000000E+00  0.22946049637E+03  0.22946049637E+03  0.00000000000E+00 0. -1.
         21   -1    0    0  501  502 -0.00000000000E+00 -0.00000000000E+00 -0.33472078679E+03  0.33472078679E+03  0.00000000000E+00 0. -1.
         25    1    1    2    0    0 -0.11768175756E+03 -0.24520846874E+02 -0.49870747498E+02  0.18045043488E+03  0.12500000000E+03 0.  0.
         25    1    1    2    0    0 -0.25457559927E+01 -0.19322906555E+02 -0.13754388605E+03  0.18687743626E+03  0.12500000000E+03 0.  0.
         25    1    1    2    0    0  0.12022751355E+03  0.43843753429E+02  0.82154343138E+02  0.19685341202E+03  0.12500000000E+03 0.  0.
</event>
<event>
 5    0  0.5691975E-005  0.2748780E+03  0.7546771E-02  0.1098520E+00
         21   -1    0    0  502  501  0.00000000000E+00  0.00000000000E+00  0.16382022372E+04  0.16382022372E+04  0.00000000000E+00 0. -1.
         21   -1    0    0  501  502 -0.00000000000E+00 -0.00000000000E+00 -0.46122466609E+02  0.46122466609E+02  0.00000000000E+00 0. -1.
         25    1    1    2    0    0 -0.63044949807E+02  0.12633255117E+03  0.52162872142E+03  0.55466756007E+03  0.12500000000E+03 0.  0.
         25    1    1    2    0    0  0.13354794672E+02  0.16969870549E+02  0.19657293944E+03  0.23394924144E+03  0.12500000000E+03 0.  0.
         25    1    1    2    0    0  0.49690155135E+02 -0.14330242172E+03  0.87387810973E+03  0.89570790231E+03  0.12500000000E+03 0.  0.
</event>
<event>
 5    0  0.5691975E-005  0.2109197E+03  0.7546771E-02  0.1140840E+00
         21   -1    0    0  502  501  0.00000000000E+00  0.00000000000E+00  0.63256372566E+03  0.63256372566E+03  0.00000000000E+00 0.  1.
         21   -1    0    0  501  502 -0.00000000000E+00 -0.00000000000E+00 -0.70328284034E+02  0.70328284034E+02  0.00000000000E+00 0.  1.
         25    1    1    2    0    0 -0.23027366857E+02 -0.37027025327E+02  0.16320050472E+03  0.21014439076E+03  0.12500000000E+03 0.  0.
         25    1    1    2    0    0 -0.39971678111E+02 -0.16527725544E+02  0.24122883924E+03  0.27511316516E+03  0.12500000000E+03 0.  0.
         25    1    1    2    0    0  0.62999044967E+02  0.53554750870E+02  0.15780609767E+03  0.21763445377E+03  0.12500000000E+03 0.  0.
</event>
<event>
 5    0  0.5691975E-005  0.3060472E+03  0.7546771E-02  0.1082256E+00
         21   -1    0    0  502  501  0.00000000000E+00  0.00000000000E+00  0.21758452149E+04  0.21758452149E+04  0.00000000000E+00 0.  1.
         21   -1    0    0  501  502 -0.00000000000E+00 -0.00000000000E+00 -0.43047577762E+02  0.43047577762E+02  0.00000000000E+00 0.  1.
         25    1    1    2    0    0 -0.96532080599E+01  0.17431373174E+03  0.96188129683E+03  0.98555521950E+03  0.12500000000E+03 0.  0.
         25    1    1    2    0    0  0.23243256700E+02 -0.91936742676E+02  0.96895348339E+03  0.98157448348E+03  0.12500000000E+03 0.  0.
         25    1    1    2    0    0 -0.13590048640E+02 -0.82376989062E+02  0.20196285688E+03  0.25176308965E+03  0.12500000000E+03 0.  0.
</event>
<event>
 5    0  0.5691975E-005  0.3845704E+03  0.7546771E-02  0.1049257E+00
         21   -1    0    0  502  501  0.00000000000E+00  0.00000000000E+00  0.67780204706E+02  0.67780204706E+02  0.00000000000E+00 0. -1.
         21   -1    0    0  501  502 -0.00000000000E+00 -0.00000000000E+00 -0.21819704232E+04  0.21819704232E+04  0.00000000000E+00 0. -1.
         25    1    1    2    0    0 -0.50010809752E+02  0.31436599782E+02 -0.16862117902E+03  0.21805376151E+03  0.12500000000E+03 0.  0.
         25    1    1    2    0    0 -0.22613450311E+03 -0.25367547850E+02 -0.62513894980E+03  0.67690769869E+03  0.12500000000E+03 0.  0.
         25    1    1    2    0    0  0.27614531287E+03 -0.60690519324E+01 -0.13204300897E+04  0.13547891677E+04  0.12500000000E+03 0.  0.
</event>
<event>
 5    0  0.5691975E-005  0.3450056E+03  0.7546771E-02  0.1064684E+00
         21   -1    0    0  502  501  0.00000000000E+00  0.00000000000E+00  0.17475088580E+03  0.17475088580E+03  0.00000000000E+00 0. -1.
         21   -1    0    0  501  502 -0.00000000000E+00 -0.00000000000E+00 -0.68113440023E+03  0.68113440023E+03  0.00000000000E+00 0. -1.
         25    1    1    2    0    0  0.10369540756E+03 -0.63671364861E+02 -0.80765446252E+02  0.19223641060E+03  0.12500000000E+03 0.  0.
         25    1    1    2    0    0 -0.14599374849E+03  0.20568413549E+03 -0.36416022109E+03  0.46028013733E+03  0.12500000000E+03 0.  0.
         25    1    1    2    0    0  0.42298340935E+02 -0.14201277063E+03 -0.61457847086E+02  0.20336873810E+03  0.12500000000E+03 0.  0.
</event>
<event>
 5    0  0.5691975E-005  0.2704835E+03  0.7546771E-02  0.1101003E+00
         21   -1    0    0  502  501  0.00000000000E+00  0.00000000000E+00  0.11049540700E+03  0.11049540700E+03  0.00000000000E+00 0.  1.
         21   -1    0    0  501  502 -0.00000000000E+00 -0.00000000000E+00 -0.66212075713E+03  0.66212075713E+03  0.00000000000E+00 0.  1.
         25    1    1    2    0    0  0.68931688228E+01  0.41839050381E+02 -0.44671332299E+03  0.46580662817E+03  0.12500000000E+03 0.  0.
         25    1    1    2    0    0 -0.91709702930E+00 -0.39619601738E+02 -0.12366992190E+03  0.18024928153E+03  0.12500000000E+03 0.  0.
         25    1    1    2    0    0 -0.59760717935E+01 -0.22194486430E+01  0.18757894761E+02  0.12656025443E+03  0.12500000000E+03 0.  0.
</event>
<event>
 5    0  0.5691975E-005  0.2664047E+03  0.7546771E-02  0.1103355E+00
         21   -1    0    0  502  501  0.00000000000E+00  0.00000000000E+00  0.28447318680E+03  0.28447318680E+03  0.00000000000E+00 0. -1.
         21   -1    0    0  501  502 -0.00000000000E+00 -0.00000000000E+00 -0.24948388734E+03  0.24948388734E+03  0.00000000000E+00 0. -1.
         25    1    1    2    0    0 -0.54474199391E+02  0.62249498350E+02  0.84805264699E+02  0.17221896343E+03  0.12500000000E+03 0.  0.
         25    1    1    2    0    0  0.13070995925E+03  0.24299694422E+02 -0.57943150578E+02  0.19146273083E+03  0.12500000000E+03 0.  0.
         25    1    1    2    0    0 -0.76235759861E+02 -0.86549192772E+02  0.81271853367E+01  0.17027537988E+03  0.12500000000E+03 0.  0.
</event>
<event>
 5    0  0.5691975E-005  0.2173074E+03  0.7546771E-02  0.1135907E+00
         21   -1    0    0  502  501  0.00000000000E+00  0.00000000000E+00  0.46428611369E+02  0.46428611369E+02  0.00000000000E+00 0.  1.
         21   -1    0    0  501  502 -0.00000000000E+00 -0.00000000000E+00 -0.10170991374E+04  0.10170991374E+04  0.00000000000E+00 0.  1.
         25    1    1    2    0    0 -0.40447794234E+02  0.29399237584E+01 -0.16997644921E+03  0.21485264834E+03  0.12500000000E+03 0.  0.
         25    1    1    2    0    0  0.47899299681E+02 -0.29690046384E+02 -0.55415470177E+03  0.57086624989E+03  0.12500000000E+03 0.  0.
         25    1    1    2    0    0 -0.74515054467E+01  0.26750122625E+02 -0.24653937506E+03  0.27780885056E+03  0.12500000000E+03 0.  0.
</event>
<event>
 5    0  0.5691975E-005  0.3592134E+03  0.7546771E-02  0.1058896E+00
         21   -1    0    0  502  501  0.00000000000E+00  0.00000000000E+00  0.22888997030E+03  0.22888997030E+03  0.00000000000E+00 0. -1.
         21   -1    0    0  501  502 -0.00000000000E+00 -0.00000000000E+00 -0.56373932968E+03  0.56373932968E+03  0.00000000000E+00 0. -1.
         25    1    1    2    0    0 -0.13922054318E+03  0.78687825464E+02  0.73161592663E+02  0.21575855061E+03  0.12500000000E+03 0.  0.
         25    1    1    2    0    0  0.21726356036E+03 -0.66618868513E+02 -0.27466761292E+03  0.37776821715E+03  0.12500000000E+03 0.  0.
         25    1    1    2    0    0 -0.78043017175E+02 -0.12068956952E+02 -0.13334333912E+03  0.19910253223E+03  0.12500000000E+03 0.  0.
</event>
<event>
 5    0  0.6712962E-005  0.2936508E+03  0.7546771E-02  0.1088458E+00
         21   -1    0    0  502  501  0.00000000000E+00  0.00000000000E+00  0.51461512324E+03  0.51461512324E+03  0.00000000000E+00 0. -1.
         21   -1    0    0  501  502 -0.00000000000E+00 -0.00000000000E+00 -0.16756363320E+03  0.16756363320E+03  0.00000000000E+00 0. -1.
         25    1    1    2    0    0  0.97498240413E+02 -0.77974514542E+02  0.57950598167E+02  0.18592795279E+03  0.12500000000E+03 0.  0.
         25    1    1    2    0    0 -0.13088935169E+03 -0.63894292931E+02  0.68500613013E+02  0.20379361383E+03  0.12500000000E+03 0.  0.
         25    1    1    2    0    0  0.33391111275E+02  0.14186880747E+03  0.22060027886E+03  0.29245718982E+03  0.12500000000E+03 0.  0.
</event>
<event>
 5    0  0.6189152E-005  0.3007284E+03  0.7546771E-02  0.1084877E+00
         21   -1    0    0  502  501  0.00000000000E+00  0.00000000000E+00  0.46951408939E+03  0.46951408939E+03  0.00000000000E+00 0. -1.
         21   -1    0    0  501  502 -0.00000000000E+00 -0.00000000000E+00 -0.19261946447E+03  0.19261946447E+03  0.00000000000E+00 0. -1.
         25    1    1    2    0    0 -0.16820102200E+03  0.31178302843E+02 -0.60215316618E+00  0.21187032109E+03  0.12500000000E+03 0.  0.
         25    1    1    2    0    0  0.35672313516E+02 -0.40313674274E+02  0.22057073560E+03  0.25917977484E+03  0.12500000000E+03 0.  0.
         25    1    1    2    0    0  0.13252870848E+03  0.91353714310E+01  0.56926042482E+02  0.19108345793E+03  0.12500000000E+03 0.  0.
</event>
<event>
 5    0  0.5691975E-005  0.2989298E+03  0.7546771E-02  0.1085777E+00
         21   -1    0    0  502  501  0.00000000000E+00  0.00000000000E+00  0.16675217925E+03  0.16675217925E+03  0.00000000000E+00 0. -1.
         21   -1    0    0  501  502 -0.00000000000E+00 -0.00000000000E+00 -0.53587911778E+03  0.53587911778E+03  0.00000000000E+00 0.  1.
         25    1    1    2    0    0 -0.26145602101E+02 -0.40165842219E+02 -0.69417292889E+02  0.15080002633E+03  0.12500000000E+03 0.  0.
         25    1    1    2    0    0 -0.88833055325E+02 -0.55392777075E+02  0.32902736998E+02  0.16633478762E+03  0.12500000000E+03 0.  0.
         25    1    1    2    0    0  0.11497865743E+03  0.95558619294E+02 -0.33261238263E+03  0.38549648308E+03  0.12500000000E+03 0.  0.
</event>
<event>
 5    0  0.5691975E-005  0.3735840E+03  0.7546771E-02  0.1053331E+00
         21   -1    0    0  502  501  0.00000000000E+00  0.00000000000E+00  0.10146046058E+03  0.10146046058E+03  0.00000000000E+00 0.  1.
         21   -1    0    0  501  502 -0.00000000000E+00 -0.00000000000E+00 -0.13755608697E+04  0.13755608697E+04  0.00000000000E+00 0.  1.
         25    1    1    2    0    0  0.10689488051E+03 -0.21515561509E+03 -0.76404012981E+03  0.81061752642E+03  0.12500000000E+03 0.  0.
         25    1    1    2    0    0  0.75576745532E+02  0.11012115060E+03 -0.19480985609E+03  0.26723471388E+03  0.12500000000E+03 0.  0.
         25    1    1    2    0    0 -0.18247162604E+03  0.10503446449E+03 -0.31525042319E+03  0.39916908994E+03  0.12500000000E+03 0.  0.
</event>
<event>
 5    0  0.5691975E-005  0.3066526E+03  0.7546771E-02  0.1081962E+00
         21   -1    0    0  502  501  0.00000000000E+00  0.00000000000E+00  0.69043331205E+02  0.69043331205E+02  0.00000000000E+00 0.  1.
         21   -1    0    0  501  502 -0.00000000000E+00 -0.00000000000E+00 -0.13619826839E+04  0.13619826839E+04  0.00000000000E+00 0.  1.
         25    1    1    2    0    0 -0.13162512537E+03 -0.10089193461E+01 -0.25171547331E+03  0.31034153936E+03  0.12500000000E+03 0.  0.
         25    1    1    2    0    0 -0.48032209485E+02 -0.38831015335E+02 -0.69716581088E+03  0.71097124327E+03  0.12500000000E+03 0.  0.
         25    1    1    2    0    0  0.17965733486E+03  0.39839934681E+02 -0.34405806853E+03  0.40971323250E+03  0.12500000000E+03 0.  0.
</event>
<event>
 5    0  0.5691975E-005  0.3667278E+03  0.7546771E-02  0.1055951E+00
         21   -1    0    0  502  501  0.00000000000E+00  0.00000000000E+00  0.55329533562E+03  0.55329533562E+03  0.00000000000E+00 0. -1.
         21   -1    0    0  501  502 -0.00000000000E+00 -0.00000000000E+00 -0.24306962006E+03  0.24306962006E+03  0.00000000000E+00 0. -1.
         25    1    1    2    0    0 -0.35737488860E+02  0.58267341137E+02  0.13966156928E+02  0.14315133493E+03  0.12500000000E+03 0.  0.
         25    1    1    2    0    0  0.14400017808E+03 -0.11576566617E+03  0.39395120404E+03  0.45272540454E+03  0.12500000000E+03 0.  0.
         25    1    1    2    0    0 -0.10826268921E+03  0.57498325034E+02 -0.97691645402E+02  0.20048821621E+03  0.12500000000E+03 0.  0.
</event>
<event>
 5    0  0.5691975E-005  0.3830971E+03  0.7546771E-02  0.1049795E+00
         21   -1    0    0  502  501  0.00000000000E+00  0.00000000000E+00  0.81769569945E+03  0.81769569945E+03  0.00000000000E+00 0.  1.
         21   -1    0    0  501  502 -0.00000000000E+00 -0.00000000000E+00 -0.17948408635E+03  0.17948408635E+03  0.00000000000E+00 0.  1.
         25    1    1    2    0    0 -0.12822920581E+02  0.38897116890E+02  0.27587297050E+03  0.30562772919E+03  0.12500000000E+03 0.  0.
         25    1    1    2    0    0  0.15949295513E+03  0.28228032026E+02  0.43030239185E+03  0.47646612992E+03  0.12500000000E+03 0.  0.
         25    1    1    2    0    0 -0.14667003455E+03 -0.67125148915E+02 -0.67963749244E+02  0.21508592670E+03  0.12500000000E+03 0.  0.
</event>
<event>
 5    0  0.5691975E-005  0.3081475E+03  0.7546771E-02  0.1081237E+00
         21   -1    0    0  502  501  0.00000000000E+00  0.00000000000E+00  0.53666750777E+03  0.53666750777E+03  0.00000000000E+00 0.  1.
         21   -1    0    0  501  502 -0.00000000000E+00 -0.00000000000E+00 -0.17693430618E+03  0.17693430618E+03  0.00000000000E+00 0.  1.
         25    1    1    2    0    0 -0.62871987796E+02  0.96468277832E+02  0.33808489434E+03  0.37839848210E+03  0.12500000000E+03 0.  0.
         25    1    1    2    0    0  0.17943660923E+02 -0.59044670652E+02  0.10451763214E+03  0.17423312982E+03  0.12500000000E+03 0.  0.
         25    1    1    2    0    0  0.44928326872E+02 -0.37423607180E+02 -0.82869324895E+02  0.16097020202E+03  0.12500000000E+03 0.  0.
</event>
<event>
 5    0  0.5691975E-005  0.4228616E+03  0.7546771E-02  0.1036139E+00
         21   -1    0    0  502  501  0.00000000000E+00  0.00000000000E+00  0.28941643103E+03  0.28941643103E+03  0.00000000000E+00 0.  1.
         21   -1    0    0  501  502 -0.00000000000E+00 -0.00000000000E+00 -0.61783627846E+03  0.61783627846E+03  0.00000000000E+00 0.  1.
         25    1    1    2    0    0 -0.92056192345E+02 -0.32906260652E+02 -0.46462598300E+02  0.16535095276E+03  0.12500000000E+03 0.  0.
         25    1    1    2    0    0  0.82800605380E+02  0.21704753483E+03 -0.40808027444E+03  0.48592188983E+03  0.12500000000E+03 0.  0.
         25    1    1    2    0    0  0.92555869655E+01 -0.18414127418E+03  0.12612302531E+03  0.25597986690E+03  0.12500000000E+03 0.  0.
</event>
<event>
 5    0  0.5691975E-005  0.2621383E+03  0.7546771E-02  0.1105865E+00
         21   -1    0    0  502  501  0.00000000000E+00  0.00000000000E+00  0.96967461465E+03  0.96967461465E+03  0.00000000000E+00 0.  1.
         21   -1    0    0  501  502 -0.00000000000E+00 -0.00000000000E+00 -0.70865522803E+02  0.70865522803E+02  0.00000000000E+00 0.  1.
         25    1    1    2    0    0 -0.20802423987E+02  0.51345819316E+02  0.27082666024E+03  0.30338294926E+03  0.12500000000E+03 0.  0.
         25    1    1    2    0    0  0.13516679815E+03 -0.22410156508E+01  0.45166458569E+03  0.48775094407E+03  0.12500000000E+03 0.  0.
         25    1    1    2    0    0 -0.11436437416E+03 -0.49104803665E+02  0.17631784592E+03  0.24940624412E+03  0.12500000000E+03 0.  0.
</event>
<event>
 5    0  0.5691975E-005  0.3151437E+03  0.7546771E-02  0.1077906E+00
         21   -1    0    0  502  501  0.00000000000E+00  0.00000000000E+00  0.24825137266E+03  0.24825137266E+03  0.00000000000E+00 0.  1.
         21   -1    0    0  501  502 -0.00000000000E+00 -0.00000000000E+00 -0.40006037136E+03  0.40006037136E+03  0.00000000000E+00 0.  1.
         25    1    1    2    0    0 -0.20030270429E+02 -0.97312242480E+02  0.11709557396E+03  0.19800822637E+03  0.12500000000E+03 0.  0.
         25    1    1    2    0    0  0.92434675698E+02  0.13457199680E+03 -0.11342239734E+03  0.23482638653E+03  0.12500000000E+03 0.  0.
         25    1    1    2    0    0 -0.72404405269E+02 -0.37259754315E+02 -0.15548217532E+03  0.21547713112E+03  0.12500000000E+03 0.  0.
</event>
<event>
 5    0  0.5691975E-005  0.3613161E+03  0.7546771E-02  0.1058064E+00
         21   -1    0    0  502  501  0.00000000000E+00  0.00000000000E+00  0.94538459222E+02  0.94538459222E+02  0.00000000000E+00 0. -1.
         21   -1    0    0  501  502 -0.00000000000E+00 -0.00000000000E+00 -0.13809123926E+04  0.13809123926E+04  0.00000000000E+00 0. -1.
         25    1    1    2    0    0  0.10417460504E+03  0.51406554890E+02 -0.79626272622E+03  0.81434287090E+03  0.12500000000E+03 0.  0.
         25    1    1    2    0    0 -0.12464614048E+01  0.13528448662E+03 -0.13457710102E+03  0.22812155117E+03  0.12500000000E+03 0.  0.
         25    1    1    2    0    0 -0.10292814364E+03 -0.18669104151E+03 -0.35553410617E+03  0.43298642979E+03  0.12500000000E+03 0.  0.
</event>
<event>
 5    0  0.5691975E-005  0.2341084E+03  0.7546771E-02  0.1123781E+00
         21   -1    0    0  502  501  0.00000000000E+00  0.00000000000E+00  0.63546150568E+02  0.63546150568E+02  0.00000000000E+00 0.  1.
         21   -1    0    0  501  502 -0.00000000000E+00 -0.00000000000E+00 -0.86247152362E+03  0.86247152362E+03  0.00000000000E+00 0.  1.
         25    1    1    2    0    0 -0.84295962291E+02  0.68421503819E+02 -0.32239353880E+03  0.36242227484E+03  0.12500000000E+03 0.  0.
         25    1    1    2    0    0  0.19001543157E+02  0.28514583829E+02 -0.19557107952E+03  0.23462137003E+03  0.12500000000E+03 0.  0.
         25    1    1    2    0    0  0.65294419133E+02 -0.96936087648E+02 -0.28096075473E+03  0.32897402931E+03  0.12500000000E+03 0.  0.
</event>
<event>
 5    0  0.5691975E-005  0.2501044E+03  0.7546771E-02  0.1113239E+00
         21   -1    0    0  502  501  0.00000000000E+00  0.00000000000E+00  0.36671016023E+03  0.36671016023E+03  0.00000000000E+00 0.  1.
         21   -1    0    0  501  502 -0.00000000000E+00 -0.00000000000E+00 -0.17057666734E+03  0.17057666734E+03  0.00000000000E+00 0.  1.
         25    1    1    2    0    0 -0.20806787452E+02  0.27192787766E+02  0.29022090402E+02  0.13281435104E+03  0.12500000000E+03 0.  0.
         25    1    1    2    0    0  0.33493602985E+02 -0.90395042411E+01 -0.61050210517E+02  0.14337245998E+03  0.12500000000E+03 0.  0.
         25    1    1    2    0    0 -0.12686815533E+02 -0.18153283525E+02  0.22816161300E+03  0.26110001655E+03  0.12500000000E+03 0.  0.
</event>
<event>
 5    0  0.5691975E-005  0.4303446E+03  0.7546771E-02  0.1033751E+00
         21   -1    0    0  502  501  0.00000000000E+00  0.00000000000E+00  0.10071047371E+03  0.10071047371E+03  0.00000000000E+00 0. -1.
         21   -1    0    0  501  502 -0.00000000000E+00 -0.00000000000E+00 -0.18389001289E+04  0.18389001289E+04  0.00000000000E+00 0. -1.
         25    1    1    2    0    0 -0.14439292855E+03 -0.41007041464E+02 -0.47947031710E+03  0.51773321338E+03  0.12500000000E+03 0.  0.
         25    1    1    2    0    0  0.27042547920E+03  0.36911025852E+02 -0.11967373062E+04  0.12338142258E+04  0.12500000000E+03 0.  0.
         25    1    1    2    0    0 -0.12603255064E+03  0.40960156129E+01 -0.61982031849E+02  0.18806316343E+03  0.12500000000E+03 0.  0.
</event>
<event>
 5    0  0.5691975E-005  0.3392049E+03  0.7546771E-02  0.1067135E+00
         21   -1    0    0  502  501  0.00000000000E+00  0.00000000000E+00  0.40221770891E+03  0.40221770891E+03  0.00000000000E+00 0. -1.
         21   -1    0    0  501  502 -0.00000000000E+00 -0.00000000000E+00 -0.28606389897E+03  0.28606389897E+03  0.00000000000E+00 0. -1.
         25    1    1    2    0    0 -0.65376767679E+02 -0.54456912929E+02  0.40543641375E+02  0.15655179326E+03  0.12500000000E+03 0.  0.
         25    1    1    2    0    0  0.89619319667E+02 -0.81331230737E+02  0.23103888594E+03  0.28922371681E+03  0.12500000000E+03 0.  0.
         25    1    1    2    0    0 -0.24242551988E+02  0.13578814367E+03 -0.15542871738E+03  0.24250609781E+03  0.12500000000E+03 0.  0.
</event>
<event>
 5    0  0.5691975E-005  0.3971274E+03  0.7546771E-02  0.1044779E+00
         21   -1    0    0  502  501  0.00000000000E+00  0.00000000000E+00  0.29517153000E+03  0.29517153000E+03  0.00000000000E+00 0. -1.
         21   -1    0    0  501  502 -0.00000000000E+00 -0.00000000000E+00 -0.53430015021E+03  0.53430015021E+03  0.00000000000E+00 0. -1.
         25    1    1    2    0    0 -0.41490047622E+02 -0.15953866944E+03  0.76330754230E+02  0.22051166667E+03  0.12500000000E+03 0.  0.
         25    1    1    2    0    0  0.30714024691E+02 -0.94110769049E+02  0.30149594323E+02  0.16227811375E+03  0.12500000000E+03 0.  0.
         25    1    1    2    0    0  0.10776022931E+02  0.25364943849E+03 -0.34560896876E+03  0.44668189979E+03  0.12500000000E+03 0.  0.
</event>
<event>
 5    0  0.5691975E-005  0.2796170E+03  0.7546771E-02  0.1095898E+00
         21   -1    0    0  502  501  0.00000000000E+00  0.00000000000E+00  0.19676201429E+03  0.19676201429E+03  0.00000000000E+00 0. -1.
         21   -1    0    0  501  502 -0.00000000000E+00 -0.00000000000E+00 -0.39736171492E+03  0.39736171492E+03  0.00000000000E+00 0. -1.
         25    1    1    2    0    0 -0.12034666996E+03  0.75439565666E+02  0.33766552505E+02  0.19219684989E+03  0.12500000000E+03 0.  0.
         25    1    1    2    0    0  0.13395055802E+03 -0.26260990747E+02 -0.17399453047E+03  0.25403048687E+03  0.12500000000E+03 0.  0.
         25    1    1    2    0    0 -0.13603888065E+02 -0.49178574919E+02 -0.60371722662E+02  0.14789639245E+03  0.12500000000E+03 0.  0.
</event>
<event>
 5    0  0.6421328E-005  0.2854873E+03  0.7546771E-02  0.1092729E+00
         21   -1    0    0  502  501  0.00000000000E+00  0.00000000000E+00  0.43177095108E+03  0.43177095108E+03  0.00000000000E+00 0. -1.
         21   -1    0    0  501  502 -0.00000000000E+00 -0.00000000000E+00 -0.18876437806E+03  0.18876437806E+03  0.00000000000E+00 0. -1.
         25    1    1    2    0    0 -0.83465561054E+01 -0.11259999302E+03  0.30835599043E+02  0.17124327022E+03  0.12500000000E+03 0.  0.
         25    1    1    2    0    0  0.12742196258E+03  0.13193188447E+03  0.12849068745E+03  0.25647073020E+03  0.12500000000E+03 0.  0.
         25    1    1    2    0    0 -0.11907540648E+03 -0.19331891450E+02  0.83680286530E+02  0.19282132872E+03  0.12500000000E+03 0.  0.
</event>
<event>
 5    0  0.5691975E-005  0.2683263E+03  0.7546771E-02  0.1102241E+00
         21   -1    0    0  502  501  0.00000000000E+00  0.00000000000E+00  0.14121609674E+03  0.14121609674E+03  0.00000000000E+00 0. -1.
         21   -1    0    0  501  502 -0.00000000000E+00 -0.00000000000E+00 -0.50984979866E+03  0.50984979866E+03  0.00000000000E+00 0. -1.
         25    1    1    2    0    0 -0.13266359020E+03  0.65637545963E+02 -0.14843838625E+03  0.24406325024E+03  0.12500000000E+03 0.  0.
         25    1    1    2    0    0 -0.16097449156E+02 -0.27911202543E+02 -0.14782304023E+03  0.19625191546E+03  0.12500000000E+03 0.  0.
         25    1    1    2    0    0  0.14876103936E+03 -0.37726343420E+02 -0.72372275439E+02  0.21075072970E+03  0.12500000000E+03 0.  0.
</event>
<event>
 5    0  0.5691975E-005  0.2627874E+03  0.7546771E-02  0.1105480E+00
         21   -1    0    0  502  501  0.00000000000E+00  0.00000000000E+00  0.48273267976E+02  0.48273267976E+02  0.00000000000E+00 0. -1.
         21   -1    0    0  501  502 -0.00000000000E+00 -0.00000000000E+00 -0.14305480990E+04  0.14305480990E+04  0.00000000000E+00 0. -1.
         25    1    1    2    0    0 -0.31121055564E+02 -0.41709888763E+01 -0.74519070064E+03  0.75625399012E+03  0.12500000000E+03 0.  0.
         25    1    1    2    0    0  0.44808180964E+02  0.10923152126E+03 -0.26362693596E+03  0.31474348235E+03  0.12500000000E+03 0.  0.
         25    1    1    2    0    0 -0.13687125400E+02 -0.10506053239E+03 -0.37345719445E+03  0.40782389454E+03  0.12500000000E+03 0.  0.
</event>
<event>
 5    0  0.5691975E-005  0.4478764E+03  0.7546771E-02  0.1028357E+00
         21   -1    0    0  502  501  0.00000000000E+00  0.00000000000E+00  0.10764918978E+04  0.10764918978E+04  0.00000000000E+00 0.  1.
         21   -1    0    0  501  502 -0.00000000000E+00 -0.00000000000E+00 -0.18633979962E+03  0.18633979962E+03  0.00000000000E+00 0.  1.
         25    1    1    2    0    0  0.29170872478E+03 -0.14243744297E+03  0.23492785932E+03  0.41976005569E+03  0.12500000000E+03 0.  0.
         25    1    1    2    0    0 -0.28584947221E+03 -0.33091768430E+02  0.36006963152E+03  0.47757735022E+03  0.12500000000E+03 0.  0.
         25    1    1    2    0    0 -0.58592525649E+01  0.17552921140E+03  0.29515460735E+03  0.36549429152E+03  0.12500000000E+03 0.  0.
</event>
<event>
 5    0  0.5691975E-005  0.3070951E+03  0.7546771E-02  0.1081747E+00
         21   -1    0    0  502  501  0.00000000000E+00  0.00000000000E+00  0.11026223651E+03  0.11026223651E+03  0.00000000000E+00 0. -1.
         21   -1    0    0  501  502 -0.00000000000E+00 -0.00000000000E+00 -0.85530097129E+03  0.85530097129E+03  0.00000000000E+00 0. -1.
         25    1    1    2    0    0  0.83340336681E+02  0.12948698927E+03 -0.27793964637E+03  0.34144976077E+03  0.12500000000E+03 0.  0.
         25    1    1    2    0    0  0.18952716920E+02 -0.95276767455E+02 -0.42528929153E+03  0.45379824744E+03  0.12500000000E+03 0.  0.
         25    1    1    2    0    0 -0.10229305360E+03 -0.34210221819E+02 -0.41809796888E+02  0.17031519958E+03  0.12500000000E+03 0.  0.
</event>
<event>
 5    0  0.6599293E-005  0.3105369E+03  0.7546771E-02  0.1080089E+00
         21   -1    0    0  502  501  0.00000000000E+00  0.00000000000E+00  0.48378205030E+03  0.48378205030E+03  0.00000000000E+00 0. -1.
         21   -1    0    0  501  502 -0.00000000000E+00 -0.00000000000E+00 -0.19933185529E+03  0.19933185529E+03  0.00000000000E+00 0. -1.
         25    1    1    2    0    0  0.54592912693E+02 -0.53844628757E+02  0.15520789387E+03  0.21352779791E+03  0.12500000000E+03 0.  0.
         25    1    1    2    0    0 -0.17787663254E+03 -0.15879070728E+02 -0.33129921775E+02  0.22048771623E+03  0.12500000000E+03 0.  0.
         25    1    1    2    0    0  0.12328371985E+03  0.69723699484E+02  0.16237222291E+03  0.24909839145E+03  0.12500000000E+03 0.  0.
</event>
<event>
 5    0  0.5691975E-005  0.2386640E+03  0.7546771E-02  0.1120686E+00
         21   -1    0    0  502  501  0.00000000000E+00  0.00000000000E+00  0.89799617878E+02  0.89799617878E+02  0.00000000000E+00 0.  1.
         21   -1    0    0  501  502 -0.00000000000E+00 -0.00000000000E+00 -0.63430651303E+03  0.63430651303E+03  0.00000000000E+00 0.  1.
         25    1    1    2    0    0  0.11194387931E+03  0.11499970584E+02 -0.17110083023E+03  0.23992535411E+03  0.12500000000E+03 0.  0.
         25    1    1    2    0    0  0.47955550723E+01 -0.26939947473E+02 -0.10494155368E+03  0.16548863347E+03  0.12500000000E+03 0.  0.
         25    1    1    2    0    0 -0.11673943438E+03  0.15439976889E+02 -0.26846451124E+03  0.31869214333E+03  0.12500000000E+03 0.  0.
</event>
<event>
 5    0  0.5691975E-005  0.4475839E+03  0.7546771E-02  0.1028445E+00
         21   -1    0    0  502  501  0.00000000000E+00  0.00000000000E+00  0.78333307645E+03  0.78333307645E+03  0.00000000000E+00 0. -1.
         21   -1    0    0  501  502 -0.00000000000E+00 -0.00000000000E+00 -0.25574220568E+03  0.25574220568E+03  0.00000000000E+00 0. -1.
         25    1    1    2    0    0  0.15234670699E+03 -0.18811903963E+03 -0.16798643997E+02  0.27295693184E+03  0.12500000000E+03 0.  0.
         25    1    1    2    0    0 -0.23065902444E+03  0.25499821798E+03  0.44502655943E+03  0.57610877039E+03  0.12500000000E+03 0.  0.
         25    1    1    2    0    0  0.78312317443E+02 -0.66879178349E+02  0.99362955333E+02  0.19000957990E+03  0.12500000000E+03 0.  0.
</event>
<event>
 5    0  0.5691975E-005  0.4037708E+03  0.7546771E-02  0.1042482E+00
         21   -1    0    0  502  501  0.00000000000E+00  0.00000000000E+00  0.13327475758E+03  0.13327475758E+03  0.00000000000E+00 0.  1.
         21   -1    0    0  501  502 -0.00000000000E+00 -0.00000000000E+00 -0.12232688000E+04  0.12232688000E+04  0.00000000000E+00 0.  1.
         25    1    1    2    0    0 -0.15202037797E+03  0.26899476784E+03 -0.52896340571E+03  0.62521649452E+03  0.12500000000E+03 0.  0.
         25    1    1    2    0    0  0.22513225899E+02 -0.40951051499E+01 -0.69990520701E+02  0.14507683555E+03  0.12500000000E+03 0.  0.
         25    1    1    2    0    0  0.12950715207E+03 -0.26489966269E+03 -0.49104011600E+03  0.58625022750E+03  0.12500000000E+03 0.  0.
</event>
<event>
 5    0  0.5691975E-005  0.2724072E+03  0.7546771E-02  0.1099910E+00
         21   -1    0    0  502  501  0.00000000000E+00  0.00000000000E+00  0.41535607530E+03  0.41535607530E+03  0.00000000000E+00 0.  1.
         21   -1    0    0  501  502 -0.00000000000E+00 -0.00000000000E+00 -0.17865554892E+03  0.17865554892E+03  0.00000000000E+00 0.  1.
         25    1    1    2    0    0  0.82506208103E+02 -0.26459254307E+02  0.27898610928E+03  0.31775087047E+03  0.12500000000E+03 0.  0.
         25    1    1    2    0    0 -0.57672421641E+02  0.18714722470E+02  0.77100601571E+01  0.13914307055E+03  0.12500000000E+03 0.  0.
         25    1    1    2    0    0 -0.24833786462E+02  0.77445318374E+01 -0.49995643051E+02  0.13711768321E+03  0.12500000000E+03 0.  0.
</event>
<event>
 5    0  0.5691975E-005  0.5511137E+03  0.7546771E-02  0.1001236E+00
         21   -1    0    0  502  501  0.00000000000E+00  0.00000000000E+00  0.20935500070E+03  0.20935500070E+03  0.00000000000E+00 0.  1.
         21   -1    0    0  501  502 -0.00000000000E+00 -0.00000000000E+00 -0.14507717461E+04  0.14507717461E+04  0.00000000000E+00 0.  1.
         25    1    1    2    0    0 -0.42822699218E+03 -0.14858550639E+03 -0.25275810527E+03  0.53382363129E+03  0.12500000000E+03 0.  0.
         25    1    1    2    0    0  0.26425986624E+03  0.13839139904E+03 -0.49592751692E+03  0.59207648008E+03  0.12500000000E+03 0.  0.
         25    1    1    2    0    0  0.16396712595E+03  0.10194107356E+02 -0.49273112320E+03  0.53422663541E+03  0.12500000000E+03 0.  0.
</event>
<event>
 5    0  0.5691975E-005  0.3485304E+03  0.7546771E-02  0.1063220E+00
         21   -1    0    0  502  501  0.00000000000E+00  0.00000000000E+00  0.83979913204E+03  0.83979913204E+03  0.00000000000E+00 0. -1.
         21   -1    0    0  501  502 -0.00000000000E+00 -0.00000000000E+00 -0.14464585976E+03  0.14464585976E+03  0.00000000000E+00 0. -1.
         25    1    1    2    0    0 -0.32619259145E+02  0.25017080418E+03  0.20642062883E+03  0.34911878113E+03  0.12500000000E+03 0.  0.
         25    1    1    2    0    0 -0.54553896237E+02 -0.11284361219E+03  0.12157054569E+03  0.21474218492E+03  0.12500000000E+03 0.  0.
         25    1    1    2    0    0  0.87173155382E+02 -0.13732719199E+03  0.36716209777E+03  0.42058402575E+03  0.12500000000E+03 0.  0.
</event>
<event>
 5    0  0.5691975E-005  0.3554942E+03  0.7546771E-02  0.1060382E+00
         21   -1    0    0  502  501  0.00000000000E+00  0.00000000000E+00  0.13883673844E+03  0.13883673844E+03  0.00000000000E+00 0. -1.
         21   -1    0    0  501  502 -0.00000000000E+00 -0.00000000000E+00 -0.91025000782E+03  0.91025000782E+03  0.00000000000E+00 0. -1.
         25    1    1    2    0    0  0.81615508362E+02  0.16916012967E+03 -0.40915560890E+03  0.46723607841E+03  0.12500000000E+03 0.  0.
         25    1    1    2    0    0 -0.13742963279E+03 -0.21922030554E+03 -0.32001529793E+03  0.43009212645E+03  0.12500000000E+03 0.  0.
         25    1    1    2    0    0  0.55814124423E+02  0.50060175870E+02 -0.42242362540E+02  0.15175854139E+03  0.12500000000E+03 0.  0.
</event>
<event>
 5    0  0.5691975E-005  0.2485603E+03  0.7546771E-02  0.1114218E+00
         21   -1    0    0  502  501  0.00000000000E+00  0.00000000000E+00  0.28353483872E+03  0.28353483872E+03  0.00000000000E+00 0.  1.
         21   -1    0    0  501  502 -0.00000000000E+00 -0.00000000000E+00 -0.21789986600E+03  0.21789986600E+03  0.00000000000E+00 0.  1.
         25    1    1    2    0    0  0.35988577024E+02  0.10077227861E+03  0.10882021345E+01  0.16454912335E+03  0.12500000000E+03 0.  0.
         25    1    1    2    0    0 -0.11137648603E+03 -0.63148241604E+02  0.47833829405E+02  0.18521743248E+03  0.12500000000E+03 0.  0.
         25    1    1    2    0    0  0.75387909007E+02 -0.37624037006E+02  0.16712941179E+02  0.15166814889E+03  0.12500000000E+03 0.  0.
</event>
<event>
 5    0  0.5691975E-005  0.4969916E+03  0.7546771E-02  0.1014567E+00
         21   -1    0    0  502  501  0.00000000000E+00  0.00000000000E+00  0.11343541030E+03  0.11343541030E+03  0.00000000000E+00 0.  1.
         21   -1    0    0  501  502 -0.00000000000E+00 -0.00000000000E+00 -0.21774567225E+04  0.21774567225E+04  0.00000000000E+00 0.  1.
         25    1    1    2    0    0 -0.58676985988E+02  0.34029930556E+03 -0.78517372040E+03  0.86681565356E+03  0.12500000000E+03 0.  0.
         25    1    1    2    0    0  0.93524638339E+02 -0.35463510453E+03 -0.12214943661E+04  0.12814782096E+04  0.12500000000E+03 0.  0.
         25    1    1    2    0    0 -0.34847652351E+02  0.14335798971E+02 -0.57353225750E+02  0.14259826966E+03  0.12500000000E+03 0.  0.
</event>
<event>
 5    0  0.5691975E-005  0.2908858E+03  0.7546771E-02  0.1089888E+00
         21   -1    0    0  502  501  0.00000000000E+00  0.00000000000E+00  0.12929683543E+03  0.12929683543E+03  0.00000000000E+00 0. -1.
         21   -1    0    0  501  502 -0.00000000000E+00 -0.00000000000E+00 -0.65442069010E+03  0.65442069010E+03  0.00000000000E+00 0. -1.
         25    1    1    2    0    0  0.73308404321E+02  0.80084679452E+02 -0.90382257566E+02  0.18863093731E+03  0.12500000000E+03 0.  0.
         25    1    1    2    0    0 -0.75932289659E+02 -0.17479606899E+02 -0.96763381951E+01  0.14761395866E+03  0.12500000000E+03 0.  0.
         25    1    1    2    0    0  0.26238853388E+01 -0.62605072554E+02 -0.42506525891E+03  0.44747262957E+03  0.12500000000E+03 0.  0.
</event>
<event>
 5    0  0.5691975E-005  0.3238094E+03  0.7546771E-02  0.1073909E+00
         21   -1    0    0  502  501  0.00000000000E+00  0.00000000000E+00  0.16945103136E+03  0.16945103136E+03  0.00000000000E+00 0. -1.
         21   -1    0    0  501  502 -0.00000000000E+00 -0.00000000000E+00 -0.61877777223E+03  0.61877777223E+03  0.00000000000E+00 0. -1.
         25    1    1    2    0    0  0.77377798486E+02  0.21658503183E+03 -0.13220175840E+03  0.29325535738E+03  0.12500000000E+03 0.  0.
         25    1    1    2    0    0  0.32164812620E+02 -0.13890966528E+03 -0.20822441913E+03  0.28162542322E+03  0.12500000000E+03 0.  0.
         25    1    1    2    0    0 -0.10954261111E+03 -0.77675366546E+02 -0.10890056334E+03  0.21334802299E+03  0.12500000000E+03 0.  0.
</event>
<event>
 5    0  0.5691975E-005  0.2949702E+03  0.7546771E-02  0.1087782E+00
         21   -1    0    0  502  501  0.00000000000E+00  0.00000000000E+00  0.99965515208E+03  0.99965515208E+03  0.00000000000E+00 0. -1.
         21   -1    0    0  501  502 -0.00000000000E+00 -0.00000000000E+00 -0.87037420966E+02  0.87037420966E+02  0.00000000000E+00 0. -1.
         25    1    1    2    0    0  0.35838685538E+02  0.28658066934E+01  0.93129358519E+02  0.15997094001E+03  0.12500000000E+03 0.  0.
         25    1    1    2    0    0  0.87799621066E+02 -0.67364669776E+02  0.12813475443E+03  0.21045257776E+03  0.12500000000E+03 0.  0.
         25    1    1    2    0    0 -0.12363830660E+03  0.64498863083E+02  0.69135361816E+03  0.71626905528E+03  0.12500000000E+03 0.  0.
</event>
<event>
 5    0  0.5691975E-005  0.2281948E+03  0.7546771E-02  0.1127917E+00
         21   -1    0    0  502  501  0.00000000000E+00  0.00000000000E+00  0.53638277023E+03  0.53638277023E+03  0.00000000000E+00 0.  1.
         21   -1    0    0  501  502 -0.00000000000E+00 -0.00000000000E+00 -0.97081521446E+02  0.97081521446E+02  0.00000000000E+00 0.  1.
         25    1    1    2    0    0 -0.15303127698E+02 -0.67031517996E+02  0.91720531452E+02  0.16960267101E+03  0.12500000000E+03 0.  0.
         25    1    1    2    0    0 -0.39996731391E+02  0.10270211338E+02  0.26118953011E+03  0.29248963469E+03  0.12500000000E+03 0.  0.
         25    1    1    2    0    0  0.55299859090E+02  0.56761306658E+02  0.86391187221E+02  0.17137198598E+03  0.12500000000E+03 0.  0.
</event>
<event>
 5    0  0.5691975E-005  0.3193405E+03  0.7546771E-02  0.1075953E+00
         21   -1    0    0  502  501  0.00000000000E+00  0.00000000000E+00  0.55162539206E+03  0.55162539206E+03  0.00000000000E+00 0.  1.
         21   -1    0    0  501  502 -0.00000000000E+00 -0.00000000000E+00 -0.18486882411E+03  0.18486882411E+03  0.00000000000E+00 0.  1.
         25    1    1    2    0    0  0.44679542051E+02 -0.66319676481E+02 -0.60830388230E+02  0.16037424076E+03  0.12500000000E+03 0.  0.
         25    1    1    2    0    0 -0.15880229158E+03  0.74551939317E+02  0.21621362335E+03  0.30520401438E+03  0.12500000000E+03 0.  0.
         25    1    1    2    0    0  0.11412274953E+03 -0.82322628365E+01  0.21137333283E+03  0.27091596103E+03  0.12500000000E+03 0.  0.
</event>
<event>
 5    0  0.5691975E-005  0.4414643E+03  0.7546771E-02  0.1030298E+00
         21   -1    0    0  502  501  0.00000000000E+00  0.00000000000E+00  0.28390257393E+03  0.28390257393E+03  0.00000000000E+00 0. -1.
         21   -1    0    0  501  502 -0.00000000000E+00 -0.00000000000E+00 -0.68647059063E+03  0.68647059063E+03  0.00000000000E+00 0. -1.
         25    1    1    2    0    0  0.23980842449E+03 -0.45114008295E+02 -0.11184037320E+03  0.29610238648E+03  0.12500000000E+03 0.  0.
         25    1    1    2    0    0 -0.37626505834E+03 -0.29947917938E+02 -0.13128172695E+03  0.41872683667E+03  0.12500000000E+03 0.  0.
         25    1    1    2    0    0  0.13645663385E+03  0.75061926233E+02 -0.15944591654E+03  0.25554394141E+03  0.12500000000E+03 0.  0.
</event>
<event>
 5    0  0.5691975E-005  0.5999099E+03  0.7546771E-02  0.9905593E-01
         21   -1    0    0  502  501  0.00000000000E+00  0.00000000000E+00  0.29299986333E+04  0.29299986333E+04  0.00000000000E+00 0.  1.
         21   -1    0    0  501  502 -0.00000000000E+00 -0.00000000000E+00 -0.12283006646E+03  0.12283006646E+03  0.00000000000E+00 0.  1.
         25    1    1    2    0    0 -0.21624992283E+03 -0.40233702729E+03  0.15766855344E+04  0.16462689291E+04  0.12500000000E+03 0.  0.
         25    1    1    2    0    0  0.26511663206E+03  0.45164835217E+03  0.97455315090E+03  0.11133965630E+04  0.12500000000E+03 0.  0.
         25    1    1    2    0    0 -0.48866709226E+02 -0.49311324885E+02  0.25592988157E+03  0.29316320763E+03  0.12500000000E+03 0.  0.
</event>
<event>
 5    0  0.5691975E-005  0.5812365E+03  0.7546771E-02  0.9945117E-01
         21   -1    0    0  502  501  0.00000000000E+00  0.00000000000E+00  0.45035795459E+03  0.45035795459E+03  0.00000000000E+00 0.  1.
         21   -1    0    0  501  502 -0.00000000000E+00 -0.00000000000E+00 -0.75014978932E+03  0.75014978932E+03  0.00000000000E+00 0.  1.
         25    1    1    2    0    0  0.64774769711E+02 -0.40107891132E+03  0.71417593180E+02  0.43102846369E+03  0.12500000000E+03 0.  0.
         25    1    1    2    0    0 -0.12758995181E+03  0.47760419836E+03 -0.31997853828E+03  0.60199354735E+03  0.12500000000E+03 0.  0.
         25    1    1    2    0    0  0.62815182099E+02 -0.76525287045E+02 -0.51230889629E+02  0.16748573286E+03  0.12500000000E+03 0.  0.
</event>
<event>
 5    0  0.5691975E-005  0.2400578E+03  0.7546771E-02  0.1119754E+00
         21   -1    0    0  502  501  0.00000000000E+00  0.00000000000E+00  0.72502329297E+03  0.72502329297E+03  0.00000000000E+00 0. -1.
         21   -1    0    0  501  502 -0.00000000000E+00 -0.00000000000E+00 -0.79483992523E+02  0.79483992523E+02  0.00000000000E+00 0. -1.
         25    1    1    2    0    0 -0.82942286189E+02 -0.68776692077E+02  0.26650560711E+03  0.31346434380E+03  0.12500000000E+03 0.  0.
         25    1    1    2    0    0 -0.36071278284E+02  0.28856261953E+02  0.18884339086E+03  0.23112907052E+03  0.12500000000E+03 0.  0.
         25    1    1    2    0    0  0.11901356447E+03  0.39920430124E+02  0.19019030248E+03  0.25991387117E+03  0.12500000000E+03 0.  0.
</event>
<event>
 5    0  0.5691975E-005  0.2661832E+03  0.7546771E-02  0.1103484E+00
         21   -1    0    0  502  501  0.00000000000E+00  0.00000000000E+00  0.10171828786E+03  0.10171828786E+03  0.00000000000E+00 0. -1.
         21   -1    0    0  501  502 -0.00000000000E+00 -0.00000000000E+00 -0.69656579183E+03  0.69656579183E+03  0.00000000000E+00 0. -1.
         25    1    1    2    0    0 -0.37117581208E+02 -0.14999582812E+02 -0.39537077809E+03  0.41658823134E+03  0.12500000000E+03 0.  0.
         25    1    1    2    0    0  0.80450072467E+02 -0.26676307990E+02 -0.18993592793E+03  0.24266127892E+03  0.12500000000E+03 0.  0.
         25    1    1    2    0    0 -0.43332491259E+02  0.41675890801E+02 -0.95407979488E+01  0.13903456944E+03  0.12500000000E+03 0.  0.
</event>
<event>
 5    0  0.5691975E-005  0.2659538E+03  0.7546771E-02  0.1103618E+00
         21   -1    0    0  502  501  0.00000000000E+00  0.00000000000E+00  0.67591211379E+03  0.67591211379E+03  0.00000000000E+00 0. -1.
         21   -1    0    0  501  502 -0.00000000000E+00 -0.00000000000E+00 -0.10464585128E+03  0.10464585128E+03  0.00000000000E+00 0. -1.
         25    1    1    2    0    0  0.48960801132E+02  0.28111002434E+02  0.23338214998E+03  0.27070208058E+03  0.12500000000E+03 0.  0.
         25    1    1    2    0    0  0.40454285175E+02 -0.11512017503E+03  0.68274368273E+02  0.18755157491E+03  0.12500000000E+03 0.  0.
         25    1    1    2    0    0 -0.89415086306E+02  0.87009172596E+02  0.26960974426E+03  0.32230430958E+03  0.12500000000E+03 0.  0.
</event>
<event>
 5    0  0.6560269E-005  0.2971982E+03  0.7546771E-02  0.1086650E+00
         21   -1    0    0  502  501  0.00000000000E+00  0.00000000000E+00  0.49661648543E+03  0.49661648543E+03  0.00000000000E+00 0. -1.
         21   -1    0    0  501  502 -0.00000000000E+00 -0.00000000000E+00 -0.17785711549E+03  0.17785711549E+03  0.00000000000E+00 0. -1.
         25    1    1    2    0    0 -0.88303307805E+02 -0.44939836591E+02  0.14950535813E+03  0.21861819502E+03  0.12500000000E+03 0.  0.
         25    1    1    2    0    0  0.55153082743E+02  0.12496388544E+03 -0.47425310512E+02  0.19113344887E+03  0.12500000000E+03 0.  0.
         25    1    1    2    0    0  0.33150225062E+02 -0.80024048849E+02  0.21667932232E+03  0.26472195704E+03  0.12500000000E+03 0.  0.
</event>
<event>
 5    0  0.5691975E-005  0.3972848E+03  0.7546771E-02  0.1044724E+00
         21   -1    0    0  502  501  0.00000000000E+00  0.00000000000E+00  0.25169078046E+03  0.25169078046E+03  0.00000000000E+00 0.  1.
         21   -1    0    0  501  502 -0.00000000000E+00 -0.00000000000E+00 -0.62709959043E+03  0.62709959043E+03  0.00000000000E+00 0.  1.
         25    1    1    2    0    0 -0.18897108785E+03  0.28096446135E+02  0.63317169534E+02  0.23692519133E+03  0.12500000000E+03 0.  0.
         25    1    1    2    0    0  0.24024618992E+03 -0.31404742495E+02 -0.42646219238E+03  0.50616152673E+03  0.12500000000E+03 0.  0.
         25    1    1    2    0    0 -0.51275102063E+02  0.33082963610E+01 -0.12263787133E+02  0.13570365283E+03  0.12500000000E+03 0.  0.
</event>
<event>
 5    0  0.5691975E-005  0.3010833E+03  0.7546771E-02  0.1084700E+00
         21   -1    0    0  502  501  0.00000000000E+00  0.00000000000E+00  0.17802942085E+04  0.17802942085E+04  0.00000000000E+00 0. -1.
         21   -1    0    0  501  502 -0.00000000000E+00 -0.00000000000E+00 -0.50919188452E+02  0.50919188452E+02  0.00000000000E+00 0. -1.
         25    1    1    2    0    0 -0.21467914516E+02 -0.11697223630E+03  0.18485236032E+03  0.25286116850E+03  0.12500000000E+03 0.  0.
         25    1    1    2    0    0 -0.21555427624E+02  0.13899577225E+03  0.79719009065E+03  0.81909798058E+03  0.12500000000E+03 0.  0.
         25    1    1    2    0    0  0.43023342140E+02 -0.22023535947E+02  0.74733256908E+03  0.75925424787E+03  0.12500000000E+03 0.  0.
</event>
<event>
 5    0  0.5691975E-005  0.4330287E+03  0.7546771E-02  0.1032907E+00
         21   -1    0    0  502  501  0.00000000000E+00  0.00000000000E+00  0.24296268333E+04  0.24296268333E+04  0.00000000000E+00 0.  1.
         21   -1    0    0  501  502 -0.00000000000E+00 -0.00000000000E+00 -0.77178040278E+02  0.77178040278E+02  0.00000000000E+00 0.  1.
         25    1    1    2    0    0  0.82133552990E+02 -0.21577827493E+03  0.11077333818E+04  0.11384219031E+04  0.12500000000E+03 0.  0.
         25    1    1    2    0    0  0.26493077207E+02  0.26055611834E+03  0.11181528229E+04  0.11551978659E+04  0.12500000000E+03 0.  0.
         25    1    1    2    0    0 -0.10862663020E+03 -0.44777843405E+02  0.12656258839E+03  0.21318510461E+03  0.12500000000E+03 0.  0.
</event>
<event>
 5    0  0.5691975E-005  0.3681088E+03  0.7546771E-02  0.1055418E+00
         21   -1    0    0  502  501  0.00000000000E+00  0.00000000000E+00  0.13643909180E+04  0.13643909180E+04  0.00000000000E+00 0.  1.
         21   -1    0    0  501  502 -0.00000000000E+00 -0.00000000000E+00 -0.99314731598E+02  0.99314731598E+02  0.00000000000E+00 0.  1.
         25    1    1    2    0    0  0.55439162308E+02  0.11390679013E+03  0.29490453333E+02  0.18039663077E+03  0.12500000000E+03 0.  0.
         25    1    1    2    0    0 -0.44573506424E+02  0.12640398341E+02  0.82523675118E+03  0.83593496914E+03  0.12500000000E+03 0.  0.
         25    1    1    2    0    0 -0.10865655884E+02 -0.12654718847E+03  0.41034898186E+03  0.44737404965E+03  0.12500000000E+03 0.  0.
</event>
<event>
 5    0  0.5691975E-005  0.2325837E+03  0.7546771E-02  0.1124834E+00
         21   -1    0    0  502  501  0.00000000000E+00  0.00000000000E+00  0.14405133755E+03  0.14405133755E+03  0.00000000000E+00 0. -1.
         21   -1    0    0  501  502 -0.00000000000E+00 -0.00000000000E+00 -0.37552708287E+03  0.37552708287E+03  0.00000000000E+00 0. -1.
         25    1    1    2    0    0 -0.92031277334E+02  0.30283943379E+02 -0.14219378719E+03  0.21267568350E+03  0.12500000000E+03 0.  0.
         25    1    1    2    0    0  0.59371137973E+02 -0.52088263000E+01 -0.10578784062E+03  0.17426454349E+03  0.12500000000E+03 0.  0.
         25    1    1    2    0    0  0.32660139361E+02 -0.25075117079E+02  0.16505882497E+02  0.13263819343E+03  0.12500000000E+03 0.  0.
</event>
<event>
 5    0  0.5691975E-005  0.2669052E+03  0.7546771E-02  0.1103064E+00
         21   -1    0    0  502  501  0.00000000000E+00  0.00000000000E+00  0.61402363810E+02  0.61402363810E+02  0.00000000000E+00 0. -1.
         21   -1    0    0  501  502 -0.00000000000E+00 -0.00000000000E+00 -0.11601900049E+04  0.11601900049E+04  0.00000000000E+00 0. -1.
         25    1    1    2    0    0 -0.34513052768E+02 -0.13655446936E+03 -0.22690647708E+03  0.29487255426E+03  0.12500000000E+03 0.  0.
         25    1    1    2    0    0 -0.27097721117E+02  0.27746477185E+02 -0.46537317390E+03  0.48342666918E+03  0.12500000000E+03 0.  0.
         25    1    1    2    0    0  0.61610773885E+02  0.10880799218E+03 -0.40650799008E+03  0.44329314524E+03  0.12500000000E+03 0.  0.
</event>
<event>
 5    0  0.5691975E-005  0.2804607E+03  0.7546771E-02  0.1095438E+00
         21   -1    0    0  502  501  0.00000000000E+00  0.00000000000E+00  0.81500473496E+03  0.81500473496E+03  0.00000000000E+00 0.  1.
         21   -1    0    0  501  502 -0.00000000000E+00 -0.00000000000E+00 -0.96512566086E+02  0.96512566086E+02  0.00000000000E+00 0.  1.
         25    1    1    2    0    0 -0.13998944925E+03 -0.53761029751E+02  0.34564587059E+03  0.39696770912E+03  0.12500000000E+03 0.  0.
         25    1    1    2    0    0 -0.45042647476E+01  0.35783049072E+02  0.50805700527E+02  0.13966722668E+03  0.12500000000E+03 0.  0.
         25    1    1    2    0    0  0.14449371400E+03  0.17977980680E+02  0.32204059775E+03  0.37488236525E+03  0.12500000000E+03 0.  0.
</event>
<event>
 5    0  0.5691975E-005  0.2722934E+03  0.7546771E-02  0.1099974E+00
         21   -1    0    0  502  501  0.00000000000E+00  0.00000000000E+00  0.86489580434E+03  0.86489580434E+03  0.00000000000E+00 0.  1.
         21   -1    0    0  501  502 -0.00000000000E+00 -0.00000000000E+00 -0.85725553982E+02  0.85725553982E+02  0.00000000000E+00 0.  1.
         25    1    1    2    0    0 -0.11594148435E+03  0.11548747591E+03  0.19707720954E+03  0.28503370222E+03  0.12500000000E+03 0.  0.
         25    1    1    2    0    0  0.65832243365E+02  0.36249530925E+00  0.20777883223E+03  0.25125894768E+03  0.12500000000E+03 0.  0.
         25    1    1    2    0    0  0.50109240983E+02 -0.11584997121E+03  0.37431420859E+03  0.41432870842E+03  0.12500000000E+03 0.  0.
</event>
<event>
 5    0  0.5691975E-005  0.3059207E+03  0.7546771E-02  0.1082318E+00
         21   -1    0    0  502  501  0.00000000000E+00  0.00000000000E+00  0.41020964491E+02  0.41020964491E+02  0.00000000000E+00 0. -1.
         21   -1    0    0  501  502 -0.00000000000E+00 -0.00000000000E+00 -0.22814554187E+04  0.22814554187E+04  0.00000000000E+00 0. -1.
         25    1    1    2    0    0  0.20011490841E+03 -0.78424116041E+02 -0.92865642851E+03  0.96136573725E+03  0.12500000000E+03 0.  0.
         25    1    1    2    0    0 -0.44745051305E+02 -0.29925388497E+02 -0.47779877816E+03  0.49680410717E+03  0.12500000000E+03 0.  0.
         25    1    1    2    0    0 -0.15536985710E+03  0.10834950454E+03 -0.83397924752E+03  0.86430653875E+03  0.12500000000E+03 0.  0.
</event>
<event>
 5    0  0.5691975E-005  0.3033265E+03  0.7546771E-02  0.1083589E+00
         21   -1    0    0  502  501  0.00000000000E+00  0.00000000000E+00  0.12238163239E+03  0.12238163239E+03  0.00000000000E+00 0. -1.
         21   -1    0    0  501  502 -0.00000000000E+00 -0.00000000000E+00 -0.75180393381E+03  0.75180393381E+03  0.00000000000E+00 0. -1.
         25    1    1    2    0    0  0.14430502125E+03 -0.14310966860E+03 -0.27843201283E+03  0.36667929063E+03  0.12500000000E+03 0.  0.
         25    1    1    2    0    0 -0.10365014264E+03  0.15461252680E+03 -0.27649565668E+03  0.35598206931E+03  0.12500000000E+03 0.  0.
         25    1    1    2    0    0 -0.40654878611E+02 -0.11502858196E+02 -0.74494631916E+02  0.15152420627E+03  0.12500000000E+03 0.  0.
</event>
<event>
 5    0  0.5691975E-005  0.3290727E+03  0.7546771E-02  0.1071548E+00
         21   -1    0    0  502  501  0.00000000000E+00  0.00000000000E+00  0.33460836001E+03  0.33460836001E+03  0.00000000000E+00 0.  1.
         21   -1    0    0  501  502 -0.00000000000E+00 -0.00000000000E+00 -0.32362865640E+03  0.32362865640E+03  0.00000000000E+00 0.  1.
         25    1    1    2    0    0 -0.57686898996E+02 -0.24564747134E+03 -0.21036075736E+02  0.28237913339E+03  0.12500000000E+03 0.  0.
         25    1    1    2    0    0  0.21151852359E+02  0.43941653150E+02  0.17685286236E+02  0.13533676178E+03  0.12500000000E+03 0.  0.
         25    1    1    2    0    0  0.36535046637E+02  0.20170581819E+03  0.14330493113E+02  0.24052112123E+03  0.12500000000E+03 0.  0.
</event>
<event>
 5    0  0.5691975E-005  0.3214377E+03  0.7546771E-02  0.1074990E+00
         21   -1    0    0  502  501  0.00000000000E+00  0.00000000000E+00  0.24191551822E+03  0.24191551822E+03  0.00000000000E+00 0. -1.
         21   -1    0    0  501  502 -0.00000000000E+00 -0.00000000000E+00 -0.42710038919E+03  0.42710038919E+03  0.00000000000E+00 0. -1.
         25    1    1    2    0    0  0.19494408337E+03  0.49354707593E+02 -0.16025519412E+03  0.28591224186E+03  0.12500000000E+03 0.  0.
         25    1    1    2    0    0 -0.10673824088E+03 -0.60505950617E+02 -0.11085154874E+03  0.20728504042E+03  0.12500000000E+03 0.  0.
         25    1    1    2    0    0 -0.88205842498E+02  0.11151243024E+02  0.85921871884E+02  0.17581862512E+03  0.12500000000E+03 0.  0.
</event>
<event>
 5    0  0.5691975E-005  0.4761186E+03  0.7546771E-02  0.1020207E+00
         21   -1    0    0  502  501  0.00000000000E+00  0.00000000000E+00  0.51366295883E+03  0.51366295883E+03  0.00000000000E+00 0.  1.
         21   -1    0    0  501  502 -0.00000000000E+00 -0.00000000000E+00 -0.44131835533E+03  0.44131835533E+03  0.00000000000E+00 0.  1.
         25    1    1    2    0    0  0.14238092172E+03  0.48571473536E+02  0.33929793838E+03  0.39163708443E+03  0.12500000000E+03 0.  0.
         25    1    1    2    0    0 -0.13037329465E+03  0.95815570913E+02  0.33446004213E+02  0.20717493764E+03  0.12500000000E+03 0.  0.
         25    1    1    2    0    0 -0.12007627070E+02 -0.14438704445E+03 -0.30039933909E+03  0.35616929210E+03  0.12500000000E+03 0.  0.
</event>
<event>
 5    0  0.5691975E-005  0.2565304E+03  0.7546771E-02  0.1109246E+00
         21   -1    0    0  502  501  0.00000000000E+00  0.00000000000E+00  0.54280564373E+03  0.54280564373E+03  0.00000000000E+00 0. -1.
         21   -1    0    0  501  502 -0.00000000000E+00 -0.00000000000E+00 -0.12123649461E+03  0.12123649461E+03  0.00000000000E+00 0. -1.
         25    1    1    2    0    0 -0.94319905372E+01 -0.25012895719E+02  0.10660973053E+03  0.16644891721E+03  0.12500000000E+03 0.  0.
         25    1    1    2    0    0 -0.11408706839E+03 -0.11008822567E+02  0.48528693849E+02  0.17640036133E+03  0.12500000000E+03 0.  0.
         25    1    1    2    0    0  0.12351905893E+03  0.36021718285E+02  0.26643072474E+03  0.32119285981E+03  0.12500000000E+03 0.  0.
</event>
<event>
 5    0  0.6973996E-005  0.2834434E+03  0.7546771E-02  0.1093823E+00
         21   -1    0    0  502  501  0.00000000000E+00  0.00000000000E+00  0.34720909305E+03  0.34720909305E+03  0.00000000000E+00 0.  1.
         21   -1    0    0  501  502 -0.00000000000E+00 -0.00000000000E+00 -0.23138841463E+03  0.23138841463E+03  0.00000000000E+00 0.  1.
         25    1    1    2    0    0 -0.93987394864E+02  0.35906024725E+02  0.78847725353E+02  0.17878712705E+03  0.12500000000E+03 0.  0.
         25    1    1    2    0    0  0.10573372752E+03 -0.11292802611E+03 -0.77303282369E+02  0.21338499873E+03  0.12500000000E+03 0.  0.
         25    1    1    2    0    0 -0.11746332659E+02  0.77022001389E+02  0.11427623544E+03  0.18642538190E+03  0.12500000000E+03 0.  0.
</event>
<event>
 5    0  0.5691975E-005  0.3629367E+03  0.7546771E-02  0.1057427E+00
         21   -1    0    0  502  501  0.00000000000E+00  0.00000000000E+00  0.60898701697E+03  0.60898701697E+03  0.00000000000E+00 0. -1.
         21   -1    0    0  501  502 -0.00000000000E+00 -0.00000000000E+00 -0.21629855730E+03  0.21629855730E+03  0.00000000000E+00 0. -1.
         25    1    1    2    0    0 -0.15491466502E+02  0.25224588625E+03  0.91060135790E+02  0.29628520212E+03  0.12500000000E+03 0.  0.
         25    1    1    2    0    0  0.43953169826E+02 -0.26227177317E+03  0.14911971175E+03  0.32951487459E+03  0.12500000000E+03 0.  0.
         25    1    1    2    0    0 -0.28461703324E+02  0.10025886919E+02  0.15250861213E+03  0.19948549757E+03  0.12500000000E+03 0.  0.
</event>
<event>
 5    0  0.5691975E-005  0.3165672E+03  0.7546771E-02  0.1077240E+00
         21   -1    0    0  502  501  0.00000000000E+00  0.00000000000E+00  0.26103582339E+04  0.26103582339E+04  0.00000000000E+00 0. -1.
         21   -1    0    0  501  502 -0.00000000000E+00 -0.00000000000E+00 -0.38391212430E+02  0.38391212430E+02  0.00000000000E+00 0. -1.
         25    1    1    2    0    0  0.65590716229E+02 -0.20173771671E+02  0.13223111682E+04  0.13299778000E+04  0.12500000000E+03 0.  0.
         25    1    1    2    0    0 -0.18884866710E+03  0.53227575207E+02  0.84502039439E+03  0.87645961730E+03  0.12500000000E+03 0.  0.
         25    1    1    2    0    0  0.12325795087E+03 -0.33053803536E+02  0.40463545889E+03  0.44231202897E+03  0.12500000000E+03 0.  0.
</event>
<event>
 5    0  0.5691975E-005  0.2880270E+03  0.7546771E-02  0.1091384E+00
         21   -1    0    0  502  501  0.00000000000E+00  0.00000000000E+00  0.19153092018E+03  0.19153092018E+03  0.00000000000E+00 0.  1.
         21   -1    0    0  501  502 -0.00000000000E+00 -0.00000000000E+00 -0.43313930139E+03  0.43313930139E+03  0.00000000000E+00 0.  1.
         25    1    1    2    0    0  0.47325380855E+02 -0.10083657566E+03 -0.10064807199E+03  0.19535286294E+03  0.12500000000E+03 0.  0.
         25    1    1    2    0    0  0.50760560651E+02  0.81091154721E+02 -0.20363122266E+03  0.25737731977E+03  0.12500000000E+03 0.  0.
         25    1    1    2    0    0 -0.98085941507E+02  0.19745420939E+02  0.62670913447E+02  0.17194003886E+03  0.12500000000E+03 0.  0.
</event>
<event>
 5    0  0.5691975E-005  0.3205389E+03  0.7546771E-02  0.1075402E+00
         21   -1    0    0  502  501  0.00000000000E+00  0.00000000000E+00  0.54425970478E+03  0.54425970478E+03  0.00000000000E+00 0.  1.
         21   -1    0    0  501  502 -0.00000000000E+00 -0.00000000000E+00 -0.18877965027E+03  0.18877965027E+03  0.00000000000E+00 0.  1.
         25    1    1    2    0    0  0.52031769737E+02 -0.43692343093E+02  0.36920080959E+03  0.39566471123E+03  0.12500000000E+03 0.  0.
         25    1    1    2    0    0  0.18154935366E+01 -0.76232653624E+02  0.32909157590E+02  0.15007573471E+03  0.12500000000E+03 0.  0.
         25    1    1    2    0    0 -0.53847263274E+02  0.11992499672E+03 -0.46629912666E+02  0.18729890911E+03  0.12500000000E+03 0.  0.
</event>
<event>
 5    0  0.5691975E-005  0.4150026E+03  0.7546771E-02  0.1038705E+00
         21   -1    0    0  502  501  0.00000000000E+00  0.00000000000E+00  0.37355543906E+03  0.37355543906E+03  0.00000000000E+00 0. -1.
         21   -1    0    0  501  502 -0.00000000000E+00 -0.00000000000E+00 -0.46104843096E+03  0.46104843096E+03  0.00000000000E+00 0. -1.
         25    1    1    2    0    0  0.71466088750E+02 -0.14939968598E+03  0.12144173472E+03  0.24041789231E+03  0.12500000000E+03 0.  0.
         25    1    1    2    0    0 -0.21136302615E+03  0.18060557503E+03  0.89734186624E+01  0.30495610307E+03  0.12500000000E+03 0.  0.
         25    1    1    2    0    0  0.13989693740E+03 -0.31205889047E+02 -0.21790814528E+03  0.28922987464E+03  0.12500000000E+03 0.  0.
</event>
<event>
 5    0  0.5691975E-005  0.3205585E+03  0.7546771E-02  0.1075393E+00
         21   -1    0    0  502  501  0.00000000000E+00  0.00000000000E+00  0.12360667360E+04  0.12360667360E+04  0.00000000000E+00 0. -1.
         21   -1    0    0  501  502 -0.00000000000E+00 -0.00000000000E+00 -0.83132871026E+02  0.83132871026E+02  0.00000000000E+00 0. -1.
         25    1    1    2    0    0 -0.12843646912E+03 -0.57544439979E+00  0.69646512511E+02  0.19228076982E+03  0.12500000000E+03 0.  0.
         25    1    1    2    0    0  0.84998245629E+02  0.54013212565E+02  0.69325181736E+03  0.71159343109E+03  0.12500000000E+03 0.  0.
         25    1    1    2    0    0  0.43438223491E+02 -0.53437768165E+02  0.39003553506E+03  0.41532540608E+03  0.12500000000E+03 0.  0.
</event>
<event>
 5    0  0.5691975E-005  0.2827835E+03  0.7546771E-02  0.1094178E+00
         21   -1    0    0  502  501  0.00000000000E+00  0.00000000000E+00  0.15098068712E+03  0.15098068712E+03  0.00000000000E+00 0. -1.
         21   -1    0    0  501  502 -0.00000000000E+00 -0.00000000000E+00 -0.52964724642E+03  0.52964724642E+03  0.00000000000E+00 0. -1.
         25    1    1    2    0    0 -0.21419292889E+02 -0.13605018762E+03 -0.22957621435E+02  0.18740462118E+03  0.12500000000E+03 0.  0.
         25    1    1    2    0    0  0.36105557805E+02  0.14528588043E+03 -0.29384471855E+03  0.35267735535E+03  0.12500000000E+03 0.  0.
         25    1    1    2    0    0 -0.14686264916E+02 -0.92356928132E+01 -0.61864219326E+02  0.14054595701E+03  0.12500000000E+03 0.  0.
</event>
<event>
 5    0  0.5691975E-005  0.4078255E+03  0.7546771E-02  0.1041103E+00
         21   -1    0    0  502  501  0.00000000000E+00  0.00000000000E+00  0.31894168455E+03  0.31894168455E+03  0.00000000000E+00 0.  1.
         21   -1    0    0  501  502 -0.00000000000E+00 -0.00000000000E+00 -0.52147976659E+03  0.52147976659E+03  0.00000000000E+00 0.  1.
         25    1    1    2    0    0  0.31445322605E+03 -0.15121007879E+02 -0.16707409045E+03  0.37768800345E+03  0.12500000000E+03 0.  0.
         25    1    1    2    0    0 -0.57246596804E+02  0.30544800856E+02  0.70340308461E+02  0.15742590860E+03  0.12500000000E+03 0.  0.
         25    1    1    2    0    0 -0.25720662924E+03 -0.15423792976E+02 -0.10580430005E+03  0.30530753909E+03  0.12500000000E+03 0.  0.
</event>
<event>
 5    0  0.5691975E-005  0.3544430E+03  0.7546771E-02  0.1060806E+00
         21   -1    0    0  502  501  0.00000000000E+00  0.00000000000E+00  0.65033304916E+02  0.65033304916E+02  0.00000000000E+00 0.  1.
         21   -1    0    0  501  502 -0.00000000000E+00 -0.00000000000E+00 -0.19317767800E+04  0.19317767800E+04  0.00000000000E+00 0.  1.
         25    1    1    2    0    0 -0.17958429875E+03 -0.87373884363E+02 -0.80572432692E+03  0.83946495282E+03  0.12500000000E+03 0.  0.
         25    1    1    2    0    0  0.24783829921E+03 -0.20840752406E+02 -0.56026126734E+03  0.62560038939E+03  0.12500000000E+03 0.  0.
         25    1    1    2    0    0 -0.68254000462E+02  0.10821463677E+03 -0.50075788082E+03  0.53174474270E+03  0.12500000000E+03 0.  0.
</event>
<event>
 5    0  0.5691975E-005  0.2553995E+03  0.7546771E-02  0.1109939E+00
         21   -1    0    0  502  501  0.00000000000E+00  0.00000000000E+00  0.80629236557E+03  0.80629236557E+03  0.00000000000E+00 0. -1.
         21   -1    0    0  501  502 -0.00000000000E+00 -0.00000000000E+00 -0.80899790581E+02  0.80899790581E+02  0.00000000000E+00 0. -1.
         25    1    1    2    0    0 -0.60646876866E+02 -0.76536950328E+02  0.39887059781E+03  0.42925365722E+03  0.12500000000E+03 0.  0.
         25    1    1    2    0    0 -0.15765586030E+01  0.78351835883E+02  0.64477954748E+02  0.16100901332E+03  0.12500000000E+03 0.  0.
         25    1    1    2    0    0  0.62223435469E+02 -0.18148855550E+01  0.26204402243E+03  0.29692948561E+03  0.12500000000E+03 0.  0.
</event>
<event>
 5    0  0.5691975E-005  0.2415579E+03  0.7546771E-02  0.1118759E+00
         21   -1    0    0  502  501  0.00000000000E+00  0.00000000000E+00  0.60888521464E+02  0.60888521464E+02  0.00000000000E+00 0. -1.
         21   -1    0    0  501  502 -0.00000000000E+00 -0.00000000000E+00 -0.95831251583E+03  0.95831251583E+03  0.00000000000E+00 0. -1.
         25    1    1    2    0    0 -0.86432766475E+02 -0.62623253362E+02 -0.46690919694E+03  0.49499645774E+03  0.12500000000E+03 0.  0.
         25    1    1    2    0    0  0.96539034332E+02  0.15638015767E+02 -0.17878048229E+03  0.23906441294E+03  0.12500000000E+03 0.  0.
         25    1    1    2    0    0 -0.10106267858E+02  0.46985237595E+02 -0.25173431513E+03  0.28514016661E+03  0.12500000000E+03 0.  0.
</event>
<event>
 5    0  0.5691975E-005  0.4591897E+03  0.7546771E-02  0.1025016E+00
         21   -1    0    0  502  501  0.00000000000E+00  0.00000000000E+00  0.53668363315E+03  0.53668363315E+03  0.00000000000E+00 0. -1.
         21   -1    0    0  501  502 -0.00000000000E+00 -0.00000000000E+00 -0.39288546153E+03  0.39288546153E+03  0.00000000000E+00 0. -1.
         25    1    1    2    0    0  0.21711167394E+03  0.16898069011E+03  0.31253043438E+03  0.43473236020E+03  0.12500000000E+03 0.  0.
         25    1    1    2    0    0 -0.68732942321E+01 -0.17302548100E+03 -0.36182577241E+02  0.21660849047E+03  0.12500000000E+03 0.  0.
         25    1    1    2    0    0 -0.21023837971E+03  0.40447908873E+01 -0.13254968552E+03  0.27822824401E+03  0.12500000000E+03 0.  0.
</event>
<event>
 5    0  0.5691975E-005  0.2664682E+03  0.7546771E-02  0.1103318E+00
         21   -1    0    0  502  501  0.00000000000E+00  0.00000000000E+00  0.42212731960E+03  0.42212731960E+03  0.00000000000E+00 0.  1.
         21   -1    0    0  501  502 -0.00000000000E+00 -0.00000000000E+00 -0.16820830996E+03  0.16820830996E+03  0.00000000000E+00 0.  1.
         25    1    1    2    0    0  0.10053590309E+03  0.84578850283E+02  0.12417326082E+03  0.21978409503E+03  0.12500000000E+03 0.  0.
         25    1    1    2    0    0 -0.17687723513E+02 -0.13324304039E+03  0.10349595260E+03  0.21072013568E+03  0.12500000000E+03 0.  0.
         25    1    1    2    0    0 -0.82848179581E+02  0.48664190104E+02  0.26249796209E+02  0.15983139885E+03  0.12500000000E+03 0.  0.
</event>
<event>
 5    0  0.5691975E-005  0.3046860E+03  0.7546771E-02  0.1082921E+00
         21   -1    0    0  502  501  0.00000000000E+00  0.00000000000E+00  0.61662922569E+02  0.61662922569E+02  0.00000000000E+00 0. -1.
         21   -1    0    0  501  502 -0.00000000000E+00 -0.00000000000E+00 -0.15055004033E+04  0.15055004033E+04  0.00000000000E+00 0. -1.
         25    1    1    2    0    0  0.30963713431E+02 -0.21822941666E+03 -0.57631515720E+03  0.62956095040E+03  0.12500000000E+03 0.  0.
         25    1    1    2    0    0  0.82206704802E+01  0.17981946190E+03 -0.53146431004E+03  0.57487557884E+03  0.12500000000E+03 0.  0.
         25    1    1    2    0    0 -0.39184383911E+02  0.38409954756E+02 -0.33605801354E+03  0.36272679668E+03  0.12500000000E+03 0.  0.
</event>
<event>
 5    0  0.5691975E-005  0.3475908E+03  0.7546771E-02  0.1063608E+00
         21   -1    0    0  502  501  0.00000000000E+00  0.00000000000E+00  0.93239094504E+03  0.93239094504E+03  0.00000000000E+00 0.  1.
         21   -1    0    0  501  502 -0.00000000000E+00 -0.00000000000E+00 -0.12958013451E+03  0.12958013451E+03  0.00000000000E+00 0.  1.
         25    1    1    2    0    0 -0.19176364692E+02 -0.11035881651E+03  0.66964001516E+02  0.18070965343E+03  0.12500000000E+03 0.  0.
         25    1    1    2    0    0  0.90701426703E+01 -0.27943580277E+02  0.67168659569E+03  0.68385012539E+03  0.12500000000E+03 0.  0.
         25    1    1    2    0    0  0.10106222022E+02  0.13830239679E+03  0.64160213319E+02  0.19741130073E+03  0.12500000000E+03 0.  0.
</event>
<event>
 5    0  0.5939234E-005  0.2431006E+03  0.7546771E-02  0.1117744E+00
         21   -1    0    0  502  501  0.00000000000E+00  0.00000000000E+00  0.17429108917E+03  0.17429108917E+03  0.00000000000E+00 0.  1.
         21   -1    0    0  501  502 -0.00000000000E+00 -0.00000000000E+00 -0.33907588017E+03  0.33907588017E+03  0.00000000000E+00 0.  1.
         25    1    1    2    0    0 -0.44016934293E+01  0.50776117313E+02 -0.10167995880E+03  0.16900119235E+03  0.12500000000E+03 0.  0.
         25    1    1    2    0    0 -0.20754151012E+02 -0.13510456344E+03 -0.25848002110E+02  0.18702164864E+03  0.12500000000E+03 0.  0.
         25    1    1    2    0    0  0.25155844441E+02  0.84328446129E+02 -0.37256830096E+02  0.15734412835E+03  0.12500000000E+03 0.  0.
</event>
<event>
 5    0  0.5691975E-005  0.2575618E+03  0.7546771E-02  0.1108617E+00
         21   -1    0    0  502  501  0.00000000000E+00  0.00000000000E+00  0.24021158472E+03  0.24021158472E+03  0.00000000000E+00 0. -1.
         21   -1    0    0  501  502 -0.00000000000E+00 -0.00000000000E+00 -0.27616509675E+03  0.27616509675E+03  0.00000000000E+00 0. -1.
         25    1    1    2    0    0  0.41332954845E+02  0.10576861349E+03 -0.55464534487E+02  0.17775468304E+03  0.12500000000E+03 0.  0.
         25    1    1    2    0    0 -0.10991940385E+03 -0.60698043027E+02  0.53882017815E+02  0.18518855152E+03  0.12500000000E+03 0.  0.
         25    1    1    2    0    0  0.68586449009E+02 -0.45070570461E+02 -0.34370995354E+02  0.15343344691E+03  0.12500000000E+03 0.  0.
</event>
<event>
 5    0  0.6419113E-005  0.2906419E+03  0.7546771E-02  0.1090014E+00
         21   -1    0    0  502  501  0.00000000000E+00  0.00000000000E+00  0.25647385753E+03  0.25647385753E+03  0.00000000000E+00 0.  1.
         21   -1    0    0  501  502 -0.00000000000E+00 -0.00000000000E+00 -0.32936197234E+03  0.32936197234E+03  0.00000000000E+00 0.  1.
         25    1    1    2    0    0 -0.23932066061E+02 -0.13928373836E+03 -0.16508459278E+03  0.25070027190E+03  0.12500000000E+03 0.  0.
         25    1    1    2    0    0  0.62925059101E+02  0.98759830262E+02  0.24519678099E+01  0.17130113626E+03  0.12500000000E+03 0.  0.
         25    1    1    2    0    0 -0.38992993040E+02  0.40523908103E+02  0.89744510154E+02  0.16383442171E+03  0.12500000000E+03 0.  0.
</event>
<event>
 5    0  0.5691975E-005  0.2490056E+03  0.7546771E-02  0.1113935E+00
         21   -1    0    0  502  501  0.00000000000E+00  0.00000000000E+00  0.60632932978E+03  0.60632932978E+03  0.00000000000E+00 0.  1.
         21   -1    0    0  501  502 -0.00000000000E+00 -0.00000000000E+00 -0.10226092762E+03  0.10226092762E+03  0.00000000000E+00 0.  1.
         25    1    1    2    0    0 -0.48838858089E+02 -0.63801715203E+02  0.16965471916E+02  0.14956176035E+03  0.12500000000E+03 0.  0.
         25    1    1    2    0    0 -0.46286575961E+01  0.54293717630E+02  0.21293176514E+03  0.25285206911E+03  0.12500000000E+03 0.  0.
         25    1    1    2    0    0  0.53467515686E+02  0.95079975737E+01  0.27417116511E+03  0.30617642794E+03  0.12500000000E+03 0.  0.
</event>
<event>
 5    0  0.5691975E-005  0.7152192E+03  0.7546771E-02  0.9691554E-01
         21   -1    0    0  502  501  0.00000000000E+00  0.00000000000E+00  0.70601982313E+03  0.70601982313E+03  0.00000000000E+00 0.  1.
         21   -1    0    0  501  502 -0.00000000000E+00 -0.00000000000E+00 -0.72453848862E+03  0.72453848862E+03  0.00000000000E+00 0.  1.
         25    1    1    2    0    0  0.10291395503E+03 -0.14351298663E+03 -0.18014572504E+03  0.28153994694E+03  0.12500000000E+03 0.  0.
         25    1    1    2    0    0  0.11521564605E+03 -0.14009799774E+03  0.55842362859E+03  0.60030329254E+03  0.12500000000E+03 0.  0.
         25    1    1    2    0    0 -0.21812960109E+03  0.28361098437E+03 -0.39679656904E+03  0.54871507227E+03  0.12500000000E+03 0.  0.
</event>
<event>
 5    0  0.5691975E-005  0.2135831E+03  0.7546771E-02  0.1138760E+00
         21   -1    0    0  502  501  0.00000000000E+00  0.00000000000E+00  0.21022126051E+03  0.21022126051E+03  0.00000000000E+00 0.  1.
         21   -1    0    0  501  502 -0.00000000000E+00 -0.00000000000E+00 -0.21699862598E+03  0.21699862598E+03  0.00000000000E+00 0.  1.
         25    1    1    2    0    0 -0.34929967379E+02 -0.29154570587E+02  0.60473641965E+01  0.13316028770E+03  0.12500000000E+03 0.  0.
         25    1    1    2    0    0 -0.73448566304E+01  0.69443559199E+02 -0.49158915326E+02  0.15138676887E+03  0.12500000000E+03 0.  0.
         25    1    1    2    0    0  0.42274824009E+02 -0.40288988612E+02  0.36334185668E+02  0.14267282992E+03  0.12500000000E+03 0.  0.
</event>
<event>
 5    0  0.5691975E-005  0.3144504E+03  0.7546771E-02  0.1078232E+00
         21   -1    0    0  502  501  0.00000000000E+00  0.00000000000E+00  0.21900694815E+03  0.21900694815E+03  0.00000000000E+00 0.  1.
         21   -1    0    0  501  502 -0.00000000000E+00 -0.00000000000E+00 -0.45148829191E+03  0.45148829191E+03  0.00000000000E+00 0.  1.
         25    1    1    2    0    0 -0.10158696049E+03  0.92840669451E+02 -0.47173138940E+02  0.19180616644E+03  0.12500000000E+03 0.  0.
         25    1    1    2    0    0  0.20133262039E+03  0.21756828992E+02 -0.14238589963E+03  0.27732098380E+03  0.12500000000E+03 0.  0.
         25    1    1    2    0    0 -0.99745659901E+02 -0.11459749844E+03 -0.42922305194E+02  0.20136808983E+03  0.12500000000E+03 0.  0.
</event>
<event>
 5    0  0.5691975E-005  0.2586753E+03  0.7546771E-02  0.1107942E+00
         21   -1    0    0  502  501  0.00000000000E+00  0.00000000000E+00  0.11135632725E+03  0.11135632725E+03  0.00000000000E+00 0.  1.
         21   -1    0    0  501  502 -0.00000000000E+00 -0.00000000000E+00 -0.60088987380E+03  0.60088987380E+03  0.00000000000E+00 0.  1.
         25    1    1    2    0    0 -0.62905391771E+02 -0.13541616034E+03 -0.98597740692E+02  0.21826850269E+03  0.12500000000E+03 0.  0.
         25    1    1    2    0    0  0.20963064987E+02  0.23314264936E+02 -0.16342677595E+03  0.20812572196E+03  0.12500000000E+03 0.  0.
         25    1    1    2    0    0  0.41942326783E+02  0.11210189540E+03 -0.22750902990E+03  0.28585197640E+03  0.12500000000E+03 0.  0.
</event>
<event>
 5    0  0.6229935E-005  0.2698035E+03  0.7546771E-02  0.1101392E+00
         21   -1    0    0  502  501  0.00000000000E+00  0.00000000000E+00  0.16303141389E+03  0.16303141389E+03  0.00000000000E+00 0.  1.
         21   -1    0    0  501  502 -0.00000000000E+00 -0.00000000000E+00 -0.44650244986E+03  0.44650244986E+03  0.00000000000E+00 0.  1.
         25    1    1    2    0    0  0.46281297028E+02 -0.75452922331E+02 -0.17870675853E+03  0.23536398936E+03  0.12500000000E+03 0.  0.
         25    1    1    2    0    0 -0.30355721073E+02  0.56572423653E+02  0.70712502777E+02  0.15731232300E+03  0.12500000000E+03 0.  0.
         25    1    1    2    0    0 -0.15925575955E+02  0.18880498678E+02 -0.17547678022E+03  0.21685755139E+03  0.12500000000E+03 0.  0.
</event>
<event>
 5    0  0.5691975E-005  0.2240056E+03  0.7546771E-02  0.1130931E+00
         21   -1    0    0  502  501  0.00000000000E+00  0.00000000000E+00  0.66402258784E+03  0.66402258784E+03  0.00000000000E+00 0.  1.
         21   -1    0    0  501  502 -0.00000000000E+00 -0.00000000000E+00 -0.75567475639E+02  0.75567475639E+02  0.00000000000E+00 0.  1.
         25    1    1    2    0    0  0.52550999364E+02 -0.65677566356E+02  0.13584996631E+03  0.20286784763E+03  0.12500000000E+03 0.  0.
         25    1    1    2    0    0 -0.60167723786E+02 -0.51489720942E+01  0.16896688235E+03  0.21868121600E+03  0.12500000000E+03 0.  0.
         25    1    1    2    0    0  0.76167244213E+01  0.70826538451E+02  0.28363826354E+03  0.31804099985E+03  0.12500000000E+03 0.  0.
</event>
<event>
 5    0  0.5691975E-005  0.6675922E+03  0.7546771E-02  0.9774317E-01
         21   -1    0    0  502  501  0.00000000000E+00  0.00000000000E+00  0.33747310659E+03  0.33747310659E+03  0.00000000000E+00 0.  1.
         21   -1    0    0  501  502 -0.00000000000E+00 -0.00000000000E+00 -0.13206364735E+04  0.13206364735E+04  0.00000000000E+00 0.  1.
         25    1    1    2    0    0 -0.25122734210E+03 -0.68447688639E+02  0.65344256147E+02  0.29613364434E+03  0.12500000000E+03 0.  0.
         25    1    1    2    0    0 -0.20188266939E+03 -0.17958009793E+01 -0.31672060349E+02  0.23955783542E+03  0.12500000000E+03 0.  0.
         25    1    1    2    0    0  0.45311001149E+03  0.70243489618E+02 -0.10168355627E+04  0.11224181003E+04  0.12500000000E+03 0.  0.
</event>
<event>
 5    0  0.5691975E-005  0.3201951E+03  0.7546771E-02  0.1075560E+00
         21   -1    0    0  502  501  0.00000000000E+00  0.00000000000E+00  0.80904287021E+02  0.80904287021E+02  0.00000000000E+00 0.  1.
         21   -1    0    0  501  502 -0.00000000000E+00 -0.00000000000E+00 -0.12672367139E+04  0.12672367139E+04  0.00000000000E+00 0.  1.
         25    1    1    2    0    0  0.31717342954E+02 -0.63227367211E+02 -0.12266560712E+03  0.18887969975E+03  0.12500000000E+03 0.  0.
         25    1    1    2    0    0 -0.11938044622E+03  0.97749377051E+02 -0.93725862062E+03  0.95806333484E+03  0.12500000000E+03 0.  0.
         25    1    1    2    0    0  0.87663103264E+02 -0.34522009840E+02 -0.12640819911E+03  0.20119796629E+03  0.12500000000E+03 0.  0.
</event>
<event>
 5    0  0.5691975E-005  0.2978686E+03  0.7546771E-02  0.1086311E+00
         21   -1    0    0  502  501  0.00000000000E+00  0.00000000000E+00  0.31257112714E+03  0.31257112714E+03  0.00000000000E+00 0. -1.
         21   -1    0    0  501  502 -0.00000000000E+00 -0.00000000000E+00 -0.28385764793E+03  0.28385764793E+03  0.00000000000E+00 0. -1.
         25    1    1    2    0    0 -0.12872231630E+01 -0.13941899021E+03 -0.10747962229E+03  0.21590780667E+03  0.12500000000E+03 0.  0.
         25    1    1    2    0    0 -0.21907968182E+02  0.16458054371E+02  0.15687336471E+03  0.20244771962E+03  0.12500000000E+03 0.  0.
         25    1    1    2    0    0  0.23195191345E+02  0.12296093584E+03 -0.20680263216E+02  0.17807324878E+03  0.12500000000E+03 0.  0.
</event>
<event>
 5    0  0.5691975E-005  0.3811450E+03  0.7546771E-02  0.1050511E+00
         21   -1    0    0  502  501  0.00000000000E+00  0.00000000000E+00  0.26138162342E+03  0.26138162342E+03  0.00000000000E+00 0.  1.
         21   -1    0    0  501  502 -0.00000000000E+00 -0.00000000000E+00 -0.55578318709E+03  0.55578318709E+03  0.00000000000E+00 0.  1.
         25    1    1    2    0    0  0.14027245972E+03  0.28003891635E+03 -0.17807049464E+03  0.38135581638E+03  0.12500000000E+03 0.  0.
         25    1    1    2    0    0 -0.24945183289E+02 -0.16849982436E+03 -0.24651618732E+02  0.21271378724E+03  0.12500000000E+03 0.  0.
         25    1    1    2    0    0 -0.11532727643E+03 -0.11153909199E+03 -0.91679450295E+02  0.22309520689E+03  0.12500000000E+03 0.  0.
</event>
<event>
 5    0  0.5691975E-005  0.3977386E+03  0.7546771E-02  0.1044566E+00
         21   -1    0    0  502  501  0.00000000000E+00  0.00000000000E+00  0.12303267788E+03  0.12303267788E+03  0.00000000000E+00 0.  1.
         21   -1    0    0  501  502 -0.00000000000E+00 -0.00000000000E+00 -0.12858049881E+04  0.12858049881E+04  0.00000000000E+00 0. -1.
         25    1    1    2    0    0  0.84981518649E+02 -0.13379141966E+03 -0.48136976268E+03  0.52198069975E+03  0.12500000000E+03 0.  0.
         25    1    1    2    0    0  0.11644952394E+03 -0.40709468342E+02 -0.38532774121E+02  0.17979857374E+03  0.12500000000E+03 0.  0.
         25    1    1    2    0    0 -0.20143104259E+03  0.17450088800E+03 -0.64286977346E+03  0.70705839254E+03  0.12500000000E+03 0.  0.
</event>
<event>
 5    0  0.5691975E-005  0.3894332E+03  0.7546771E-02  0.1047501E+00
         21   -1    0    0  502  501  0.00000000000E+00  0.00000000000E+00  0.10002127334E+04  0.10002127334E+04  0.00000000000E+00 0.  1.
         21   -1    0    0  501  502 -0.00000000000E+00 -0.00000000000E+00 -0.15162599247E+03  0.15162599247E+03  0.00000000000E+00 0.  1.
         25    1    1    2    0    0  0.22909199545E+03 -0.95003429439E+02  0.28096534508E+03  0.39506368995E+03  0.12500000000E+03 0.  0.
         25    1    1    2    0    0 -0.10193910374E+03  0.22423106131E+03  0.36325811611E+03  0.45634702655E+03  0.12500000000E+03 0.  0.
         25    1    1    2    0    0 -0.12715289172E+03 -0.12922763187E+03  0.20436327979E+03  0.30042800941E+03  0.12500000000E+03 0.  0.
</event>
<event>
 5    0  0.5691975E-005  0.3484140E+03  0.7546771E-02  0.1063268E+00
         21   -1    0    0  502  501  0.00000000000E+00  0.00000000000E+00  0.42268758837E+02  0.42268758837E+02  0.00000000000E+00 0. -1.
         21   -1    0    0  501  502 -0.00000000000E+00 -0.00000000000E+00 -0.28719150026E+04  0.28719150026E+04  0.00000000000E+00 0. -1.
         25    1    1    2    0    0  0.18845144095E+03  0.10517017370E+03 -0.99359979822E+03  0.10244219199E+04  0.12500000000E+03 0.  0.
         25    1    1    2    0    0 -0.16241293153E+03 -0.45401242698E+02 -0.44986794127E+03  0.49643267192E+03  0.12500000000E+03 0.  0.
         25    1    1    2    0    0 -0.26038509422E+02 -0.59768930999E+02 -0.13861785043E+04  0.13933291696E+04  0.12500000000E+03 0.  0.
</event>
<event>
 5    0  0.5691975E-005  0.3116902E+03  0.7546771E-02  0.1079539E+00
         21   -1    0    0  502  501  0.00000000000E+00  0.00000000000E+00  0.10248231717E+03  0.10248231717E+03  0.00000000000E+00 0.  1.
         21   -1    0    0  501  502 -0.00000000000E+00 -0.00000000000E+00 -0.94797624355E+03  0.94797624355E+03  0.00000000000E+00 0.  1.
         25    1    1    2    0    0 -0.17044548124E+03  0.11170707057E+02 -0.30124223623E+03  0.36816889014E+03  0.12500000000E+03 0.  0.
         25    1    1    2    0    0 -0.50890927199E+02 -0.54344159207E+02 -0.13432627661E+03  0.19801950081E+03  0.12500000000E+03 0.  0.
         25    1    1    2    0    0  0.22133640844E+03  0.43173452150E+02 -0.40992541354E+03  0.48427016978E+03  0.12500000000E+03 0.  0.
</event>
<event>
 5    0  0.5691975E-005  0.3033786E+03  0.7546771E-02  0.1083564E+00
         21   -1    0    0  502  501  0.00000000000E+00  0.00000000000E+00  0.18835584675E+04  0.18835584675E+04  0.00000000000E+00 0. -1.
         21   -1    0    0  501  502 -0.00000000000E+00 -0.00000000000E+00 -0.48864190397E+02  0.48864190397E+02  0.00000000000E+00 0. -1.
         25    1    1    2    0    0 -0.43818543367E+02 -0.70722660723E+02  0.26633587276E+03  0.30574753736E+03  0.12500000000E+03 0.  0.
         25    1    1    2    0    0  0.14565423076E+02 -0.56273537326E+02  0.18051633631E+03  0.22713434400E+03  0.12500000000E+03 0.  0.
         25    1    1    2    0    0  0.29253120292E+02  0.12699619805E+03  0.13878420680E+04  0.13995407765E+04  0.12500000000E+03 0.  0.
</event>
<event>
 5    0  0.5691975E-005  0.3351725E+03  0.7546771E-02  0.1068871E+00
         21   -1    0    0  502  501  0.00000000000E+00  0.00000000000E+00  0.10616947098E+03  0.10616947098E+03  0.00000000000E+00 0. -1.
         21   -1    0    0  501  502 -0.00000000000E+00 -0.00000000000E+00 -0.10581252861E+04  0.10581252861E+04  0.00000000000E+00 0. -1.
         25    1    1    2    0    0 -0.75054002408E+02 -0.10186003662E+03 -0.67683394395E+03  0.69981265923E+03  0.12500000000E+03 0.  0.
         25    1    1    2    0    0  0.15072087267E+03  0.27184510999E+02 -0.90329001593E+02  0.21734789538E+03  0.12500000000E+03 0.  0.
         25    1    1    2    0    0 -0.75666870261E+02  0.74675525623E+02 -0.18479286957E+03  0.24713420246E+03  0.12500000000E+03 0.  0.
</event>
<event>
 5    0  0.5691975E-005  0.3664200E+03  0.7546771E-02  0.1056070E+00
         21   -1    0    0  502  501  0.00000000000E+00  0.00000000000E+00  0.36996056318E+03  0.36996056318E+03  0.00000000000E+00 0.  1.
         21   -1    0    0  501  502 -0.00000000000E+00 -0.00000000000E+00 -0.36291333656E+03  0.36291333656E+03  0.00000000000E+00 0.  1.
         25    1    1    2    0    0  0.47502232093E+02 -0.93364349437E+02 -0.16318833749E+03  0.23071366950E+03  0.12500000000E+03 0.  0.
         25    1    1    2    0    0  0.13198017212E+03  0.47943482067E+02  0.20266229157E+03  0.27643145213E+03  0.12500000000E+03 0.  0.
         25    1    1    2    0    0 -0.17948240422E+03  0.45420867370E+02 -0.32426727453E+02  0.22572877811E+03  0.12500000000E+03 0.  0.
</event>
<event>
 5    0  0.5691975E-005  0.4370514E+03  0.7546771E-02  0.1031655E+00
         21   -1    0    0  502  501  0.00000000000E+00  0.00000000000E+00  0.77788046447E+03  0.77788046447E+03  0.00000000000E+00 0.  1.
         21   -1    0    0  501  502 -0.00000000000E+00 -0.00000000000E+00 -0.24555686842E+03  0.24555686842E+03  0.00000000000E+00 0.  1.
         25    1    1    2    0    0 -0.74907492793E+02 -0.11998004452E+03 -0.52866936645E+02  0.19602616292E+03  0.12500000000E+03 0.  0.
         25    1    1    2    0    0  0.62549492724E+02  0.23102170044E+03  0.60114234097E+03  0.65899968075E+03  0.12500000000E+03 0.  0.
         25    1    1    2    0    0  0.12358000068E+02 -0.11104165592E+03 -0.15951808280E+02  0.16841148922E+03  0.12500000000E+03 0.  0.
</event>
<event>
 5    0  0.5691975E-005  0.4051648E+03  0.7546771E-02  0.1042006E+00
         21   -1    0    0  502  501  0.00000000000E+00  0.00000000000E+00  0.62847108466E+03  0.62847108466E+03  0.00000000000E+00 0.  1.
         21   -1    0    0  501  502 -0.00000000000E+00 -0.00000000000E+00 -0.26120302199E+03  0.26120302199E+03  0.00000000000E+00 0.  1.
         25    1    1    2    0    0 -0.17584160513E+03  0.48972357582E+02  0.29903409321E+03  0.37197439536E+03  0.12500000000E+03 0.  0.
         25    1    1    2    0    0  0.25177024356E+03 -0.26144534519E+02  0.17771646618E+03  0.33358647242E+03  0.12500000000E+03 0.  0.
         25    1    1    2    0    0 -0.75928638427E+02 -0.22827823063E+02 -0.10948249672E+03  0.18411323887E+03  0.12500000000E+03 0.  0.
</event>
<event>
 5    0  0.5691975E-005  0.3077271E+03  0.7546771E-02  0.1081440E+00
         21   -1    0    0  502  501  0.00000000000E+00  0.00000000000E+00  0.56753697416E+03  0.56753697416E+03  0.00000000000E+00 0. -1.
         21   -1    0    0  501  502 -0.00000000000E+00 -0.00000000000E+00 -0.16685429126E+03  0.16685429126E+03  0.00000000000E+00 0. -1.
         25    1    1    2    0    0  0.17010786337E+03 -0.41512232307E+02  0.14663932395E+03  0.26036136798E+03  0.12500000000E+03 0.  0.
         25    1    1    2    0    0 -0.15433972464E+03 -0.89598851329E+02  0.15011296697E+03  0.26458950776E+03  0.12500000000E+03 0.  0.
         25    1    1    2    0    0 -0.15768138722E+02  0.13111108364E+03  0.10393039197E+03  0.20944038967E+03  0.12500000000E+03 0.  0.
</event>
<event>
 5    0  0.5691975E-005  0.3362643E+03  0.7546771E-02  0.1068398E+00
         21   -1    0    0  502  501  0.00000000000E+00  0.00000000000E+00  0.10359148140E+04  0.10359148140E+04  0.00000000000E+00 0.  1.
         21   -1    0    0  501  502 -0.00000000000E+00 -0.00000000000E+00 -0.10915345183E+03  0.10915345183E+03  0.00000000000E+00 0.  1.
         25    1    1    2    0    0  0.49956640728E+02  0.20879841263E+03  0.19192562417E+03  0.31393134327E+03  0.12500000000E+03 0.  0.
         25    1    1    2    0    0 -0.51067047163E+02  0.10713728164E+02  0.27149852093E+03  0.30341238298E+03  0.12500000000E+03 0.  0.
         25    1    1    2    0    0  0.11104064351E+01 -0.21951214080E+03  0.46333721709E+03  0.52772453961E+03  0.12500000000E+03 0.  0.
</event>
<event>
 5    0  0.5691975E-005  0.2574905E+03  0.7546771E-02  0.1108660E+00
         21   -1    0    0  502  501  0.00000000000E+00  0.00000000000E+00  0.12778381309E+03  0.12778381309E+03  0.00000000000E+00 0. -1.
         21   -1    0    0  501  502 -0.00000000000E+00 -0.00000000000E+00 -0.51885584785E+03  0.51885584785E+03  0.00000000000E+00 0. -1.
         25    1    1    2    0    0 -0.12223201239E+03 -0.61015882217E+02 -0.22651420909E+03  0.29257014485E+03  0.12500000000E+03 0.  0.
         25    1    1    2    0    0  0.23854349978E+02  0.33734809278E+02 -0.13760996124E+03  0.19044308547E+03  0.12500000000E+03 0.  0.
         25    1    1    2    0    0  0.98377662411E+02  0.27281072939E+02 -0.26947864435E+02  0.16362643063E+03  0.12500000000E+03 0.  0.
</event>
<event>
 5    0  0.5691975E-005  0.2378361E+03  0.7546771E-02  0.1121243E+00
         21   -1    0    0  502  501  0.00000000000E+00  0.00000000000E+00  0.16673221765E+03  0.16673221765E+03  0.00000000000E+00 0. -1.
         21   -1    0    0  501  502 -0.00000000000E+00 -0.00000000000E+00 -0.33926271430E+03  0.33926271430E+03  0.00000000000E+00 0. -1.
         25    1    1    2    0    0 -0.61560599360E+02 -0.88647712468E+01 -0.10583288973E+03  0.17519672403E+03  0.12500000000E+03 0.  0.
         25    1    1    2    0    0  0.24179583297E+02 -0.91086024664E+02 -0.55388352933E+02  0.16605476741E+03  0.12500000000E+03 0.  0.
         25    1    1    2    0    0  0.37381016063E+02  0.99950795911E+02 -0.11309253981E+02  0.16474344051E+03  0.12500000000E+03 0.  0.
</event>
<event>
 5    0  0.5691975E-005  0.2833992E+03  0.7546771E-02  0.1093847E+00
         21   -1    0    0  502  501  0.00000000000E+00  0.00000000000E+00  0.68688696773E+03  0.68688696773E+03  0.00000000000E+00 0. -1.
         21   -1    0    0  501  502 -0.00000000000E+00 -0.00000000000E+00 -0.11692621685E+03  0.11692621685E+03  0.00000000000E+00 0. -1.
         25    1    1    2    0    0  0.15317304708E+03 -0.99279422804E+02  0.16327968522E+03  0.27496116408E+03  0.12500000000E+03 0.  0.
         25    1    1    2    0    0 -0.87371930804E+02  0.62425369089E+02  0.10980609821E+03  0.19802313047E+03  0.12500000000E+03 0.  0.
         25    1    1    2    0    0 -0.65801116279E+02  0.36854053715E+02  0.29687496744E+03  0.33082889002E+03  0.12500000000E+03 0.  0.
</event>
<event>
 5    0  0.5691975E-005  0.2781145E+03  0.7546771E-02  0.1096723E+00
         21   -1    0    0  502  501  0.00000000000E+00  0.00000000000E+00  0.34636475044E+03  0.34636475044E+03  0.00000000000E+00 0.  1.
         21   -1    0    0  501  502 -0.00000000000E+00 -0.00000000000E+00 -0.22331275990E+03  0.22331275990E+03  0.00000000000E+00 0.  1.
         25    1    1    2    0    0  0.11309688465E+03 -0.52734507837E+02 -0.73072170156E+02  0.19114490756E+03  0.12500000000E+03 0.  0.
         25    1    1    2    0    0  0.10109427342E+01 -0.39357872584E+02  0.77028090726E+02  0.15201444307E+03  0.12500000000E+03 0.  0.
         25    1    1    2    0    0 -0.11410782738E+03  0.92092380421E+02  0.11909606996E+03  0.22651815972E+03  0.12500000000E+03 0.  0.
</event>
<event>
 5    0  0.5691975E-005  0.3962351E+03  0.7546771E-02  0.1045091E+00
         21   -1    0    0  502  501  0.00000000000E+00  0.00000000000E+00  0.16064072600E+03  0.16064072600E+03  0.00000000000E+00 0. -1.
         21   -1    0    0  501  502 -0.00000000000E+00 -0.00000000000E+00 -0.97735044627E+03  0.97735044627E+03  0.00000000000E+00 0. -1.
         25    1    1    2    0    0  0.25638013417E+03  0.83349821785E+01 -0.15262460004E+03  0.32360394568E+03  0.12500000000E+03 0.  0.
         25    1    1    2    0    0 -0.21938350427E+03  0.11527777863E+03 -0.30196496958E+03  0.41015354569E+03  0.12500000000E+03 0.  0.
         25    1    1    2    0    0 -0.36996629903E+02 -0.12361276081E+03 -0.36212015066E+03  0.40423368090E+03  0.12500000000E+03 0.  0.
</event>
<event>
 5    0  0.5691975E-005  0.2373084E+03  0.7546771E-02  0.1121599E+00
         21   -1    0    0  502  501  0.00000000000E+00  0.00000000000E+00  0.24388958137E+03  0.24388958137E+03  0.00000000000E+00 0.  1.
         21   -1    0    0  501  502 -0.00000000000E+00 -0.00000000000E+00 -0.23090483867E+03  0.23090483867E+03  0.00000000000E+00 0.  1.
         25    1    1    2    0    0  0.26402328470E+02 -0.28925153932E+02  0.61771926981E+02  0.14482582105E+03  0.12500000000E+03 0.  0.
         25    1    1    2    0    0  0.35647808168E+02  0.47905455245E+01 -0.11500947918E+03  0.17362573500E+03  0.12500000000E+03 0.  0.
         25    1    1    2    0    0 -0.62050136638E+02  0.24134608407E+02  0.66222294901E+02  0.15634286399E+03  0.12500000000E+03 0.  0.
</event>
<event>
 5    0  0.5691975E-005  0.4060126E+03  0.7546771E-02  0.1041717E+00
         21   -1    0    0  502  501  0.00000000000E+00  0.00000000000E+00  0.13036807496E+03  0.13036807496E+03  0.00000000000E+00 0. -1.
         21   -1    0    0  501  502 -0.00000000000E+00 -0.00000000000E+00 -0.12644680354E+04  0.12644680354E+04  0.00000000000E+00 0. -1.
         25    1    1    2    0    0  0.36021182810E+01  0.19432831764E+02 -0.56587872906E+03  0.57985717742E+03  0.12500000000E+03 0.  0.
         25    1    1    2    0    0  0.54567571610E+02  0.24817415467E+03 -0.27673053512E+03  0.39594547602E+03  0.12500000000E+03 0.  0.
         25    1    1    2    0    0 -0.58169689891E+02 -0.26760698643E+03 -0.29149069629E+03  0.41903345694E+03  0.12500000000E+03 0.  0.
</event>
<event>
 5    0  0.5691975E-005  0.3535866E+03  0.7546771E-02  0.1061153E+00
         21   -1    0    0  502  501  0.00000000000E+00  0.00000000000E+00  0.11409389713E+04  0.11409389713E+04  0.00000000000E+00 0.  1.
         21   -1    0    0  501  502 -0.00000000000E+00 -0.00000000000E+00 -0.10957945794E+03  0.10957945794E+03  0.00000000000E+00 0.  1.
         25    1    1    2    0    0  0.22156120093E+03 -0.65693085389E+02  0.15003633586E+03  0.30255718353E+03  0.12500000000E+03 0.  0.
         25    1    1    2    0    0 -0.14353114486E+03  0.65354401036E+02  0.53474548545E+03  0.57135813768E+03  0.12500000000E+03 0.  0.
         25    1    1    2    0    0 -0.78030056072E+02  0.33868435340E+00  0.34657769203E+03  0.37660310802E+03  0.12500000000E+03 0.  0.
</event>
<event>
 5    0  0.5691975E-005  0.3573999E+03  0.7546771E-02  0.1059618E+00
         21   -1    0    0  502  501  0.00000000000E+00  0.00000000000E+00  0.67944760669E+02  0.67944760669E+02  0.00000000000E+00 0. -1.
         21   -1    0    0  501  502 -0.00000000000E+00 -0.00000000000E+00 -0.18799788462E+04  0.18799788462E+04  0.00000000000E+00 0. -1.
         25    1    1    2    0    0 -0.87609983440E+02 -0.17615532586E+03 -0.10810318821E+04  0.11058757336E+04  0.12500000000E+03 0.  0.
         25    1    1    2    0    0 -0.56841969914E+02 -0.21160474628E+02 -0.19061324278E+03  0.23587535597E+03  0.12500000000E+03 0.  0.
         25    1    1    2    0    0  0.14445195335E+03  0.19731580049E+03 -0.54038896064E+03  0.60617251730E+03  0.12500000000E+03 0.  0.
</event>
<event>
 5    0  0.5691975E-005  0.2778286E+03  0.7546771E-02  0.1096881E+00
         21   -1    0    0  502  501  0.00000000000E+00  0.00000000000E+00  0.29238191194E+02  0.29238191194E+02  0.00000000000E+00 0.  1.
         21   -1    0    0  501  502 -0.00000000000E+00 -0.00000000000E+00 -0.26399964331E+04  0.26399964331E+04  0.00000000000E+00 0.  1.
         25    1    1    2    0    0 -0.41294718434E+02 -0.97262090840E+01 -0.43844401914E+03  0.45788427669E+03  0.12500000000E+03 0.  0.
         25    1    1    2    0    0 -0.12675175129E+03  0.39453899718E+02 -0.67610005203E+03  0.70025630809E+03  0.12500000000E+03 0.  0.
         25    1    1    2    0    0  0.16804646973E+03 -0.29727690634E+02 -0.14962141708E+04  0.15110940396E+04  0.12500000000E+03 0.  0.
</event>
<event>
 5    0  0.5691975E-005  0.8752900E+03  0.7546771E-02  0.9457008E-01
         21   -1    0    0  502  501  0.00000000000E+00  0.00000000000E+00  0.12757486677E+04  0.12757486677E+04  0.00000000000E+00 0. -1.
         21   -1    0    0  501  502 -0.00000000000E+00 -0.00000000000E+00 -0.60053571498E+03  0.60053571498E+03  0.00000000000E+00 0. -1.
         25    1    1    2    0    0 -0.15373408959E+03  0.60886699764E+02  0.10321954970E+03  0.23156130063E+03  0.12500000000E+03 0.  0.
         25    1    1    2    0    0 -0.17086127953E+02  0.26285717438E+03  0.10153319358E+04  0.10563663047E+04  0.12500000000E+03 0.  0.
         25    1    1    2    0    0  0.17082021755E+03 -0.32374387414E+03 -0.44333853278E+03  0.58835677732E+03  0.12500000000E+03 0.  0.
</event>
<event>
 5    0  0.5691975E-005  0.3485125E+03  0.7546771E-02  0.1063227E+00
         21   -1    0    0  502  501  0.00000000000E+00  0.00000000000E+00  0.99855228441E+03  0.99855228441E+03  0.00000000000E+00 0.  1.
         21   -1    0    0  501  502 -0.00000000000E+00 -0.00000000000E+00 -0.12163706306E+03  0.12163706306E+03  0.00000000000E+00 0.  1.
         25    1    1    2    0    0 -0.19017842621E+03 -0.38604891283E+02  0.69485841851E+02  0.24106317356E+03  0.12500000000E+03 0.  0.
         25    1    1    2    0    0  0.13199185362E+03  0.62689171542E+02  0.58995906717E+03  0.62050663380E+03  0.12500000000E+03 0.  0.
         25    1    1    2    0    0  0.58186572586E+02 -0.24084280259E+02  0.21747031233E+03  0.25861954011E+03  0.12500000000E+03 0.  0.
</event>
<event>
 5    0  0.5691975E-005  0.2897502E+03  0.7546771E-02  0.1090480E+00
         21   -1    0    0  502  501  0.00000000000E+00  0.00000000000E+00  0.76546597503E+03  0.76546597503E+03  0.00000000000E+00 0. -1.
         21   -1    0    0  501  502 -0.00000000000E+00 -0.00000000000E+00 -0.10967854525E+03  0.10967854525E+03  0.00000000000E+00 0. -1.
         25    1    1    2    0    0 -0.23057248298E+02 -0.30758977118E+02  0.71495438961E+02  0.14904478912E+03  0.12500000000E+03 0.  0.
         25    1    1    2    0    0  0.73162837095E+02  0.16627498155E+03  0.20347200876E+03  0.30004337781E+03  0.12500000000E+03 0.  0.
         25    1    1    2    0    0 -0.50105588797E+02 -0.13551600443E+03  0.38081998207E+03  0.42605635335E+03  0.12500000000E+03 0.  0.
</event>
<event>
 5    0  0.5691975E-005  0.2615996E+03  0.7546771E-02  0.1106186E+00
         21   -1    0    0  502  501  0.00000000000E+00  0.00000000000E+00  0.25075215986E+03  0.25075215986E+03  0.00000000000E+00 0.  1.
         21   -1    0    0  501  502 -0.00000000000E+00 -0.00000000000E+00 -0.27291637678E+03  0.27291637678E+03  0.00000000000E+00 0.  1.
         25    1    1    2    0    0  0.77449714155E+02 -0.39315849119E+02 -0.12008247677E+03  0.19387881638E+03  0.12500000000E+03 0.  0.
         25    1    1    2    0    0  0.30184655065E+01  0.24941743443E+02 -0.32423866418E+02  0.13155800551E+03  0.12500000000E+03 0.  0.
         25    1    1    2    0    0 -0.80468179662E+02  0.14374105676E+02  0.13034212627E+03  0.19823171475E+03  0.12500000000E+03 0.  0.
</event>
<event>
 5    0  0.5691975E-005  0.3294071E+03  0.7546771E-02  0.1071400E+00
         21   -1    0    0  502  501  0.00000000000E+00  0.00000000000E+00  0.33242637995E+03  0.33242637995E+03  0.00000000000E+00 0. -1.
         21   -1    0    0  501  502 -0.00000000000E+00 -0.00000000000E+00 -0.32641524318E+03  0.32641524318E+03  0.00000000000E+00 0. -1.
         25    1    1    2    0    0  0.14170474072E+02  0.38405387514E+02 -0.12112191933E+03  0.17880518860E+03  0.12500000000E+03 0.  0.
         25    1    1    2    0    0  0.12537771279E+03 -0.63316867598E+02 -0.75796821680E+02  0.20272827815E+03  0.12500000000E+03 0.  0.
         25    1    1    2    0    0 -0.13954818686E+03  0.24911480084E+02  0.20292987779E+03  0.27730815638E+03  0.12500000000E+03 0.  0.
</event>
<event>
 5    0  0.5691975E-005  0.2732968E+03  0.7546771E-02  0.1099407E+00
         21   -1    0    0  502  501  0.00000000000E+00  0.00000000000E+00  0.97468257573E+02  0.97468257573E+02  0.00000000000E+00 0.  1.
         21   -1    0    0  501  502 -0.00000000000E+00 -0.00000000000E+00 -0.76631230279E+03  0.76631230279E+03  0.00000000000E+00 0.  1.
         25    1    1    2    0    0 -0.40319515728E+02  0.12503881738E+02 -0.20273027200E+03  0.24188132130E+03  0.12500000000E+03 0.  0.
         25    1    1    2    0    0  0.62118203393E+02 -0.18598483102E+02 -0.47414381771E+03  0.49461291394E+03  0.12500000000E+03 0.  0.
         25    1    1    2    0    0 -0.21798687665E+02  0.60946013643E+01  0.80300444892E+01  0.12728632513E+03  0.12500000000E+03 0.  0.
</event>
<event>
 5    0  0.5691975E-005  0.2536027E+03  0.7546771E-02  0.1111049E+00
         21   -1    0    0  502  501  0.00000000000E+00  0.00000000000E+00  0.14961704796E+03  0.14961704796E+03  0.00000000000E+00 0.  1.
         21   -1    0    0  501  502 -0.00000000000E+00 -0.00000000000E+00 -0.42985980022E+03  0.42985980022E+03  0.00000000000E+00 0.  1.
         25    1    1    2    0    0 -0.20395136408E+02  0.10515343302E+03  0.21023477594E+02  0.16595238074E+03  0.12500000000E+03 0.  0.
         25    1    1    2    0    0  0.42099451882E+02 -0.63054803185E+02 -0.12530488590E+03  0.19254762134E+03  0.12500000000E+03 0.  0.
         25    1    1    2    0    0 -0.21704315474E+02 -0.42098629830E+02 -0.17596134395E+03  0.22097684609E+03  0.12500000000E+03 0.  0.
</event>
<event>
 5    0  0.5691975E-005  0.3329587E+03  0.7546771E-02  0.1069835E+00
         21   -1    0    0  502  501  0.00000000000E+00  0.00000000000E+00  0.22540713297E+03  0.22540713297E+03  0.00000000000E+00 0. -1.
         21   -1    0    0  501  502 -0.00000000000E+00 -0.00000000000E+00 -0.49182766828E+03  0.49182766828E+03  0.00000000000E+00 0. -1.
         25    1    1    2    0    0 -0.47024440042E+02  0.41265697535E+02  0.75093820903E+01  0.13998409400E+03  0.12500000000E+03 0.  0.
         25    1    1    2    0    0 -0.14584539038E+03 -0.15514093797E+02  0.30320254067E+02  0.19507917061E+03  0.12500000000E+03 0.  0.
         25    1    1    2    0    0  0.19286983042E+03 -0.25751603738E+02 -0.30425017147E+03  0.38217153664E+03  0.12500000000E+03 0.  0.
</event>
<event>
 5    0  0.5691975E-005  0.2073981E+03  0.7546771E-02  0.1143643E+00
         21   -1    0    0  502  501  0.00000000000E+00  0.00000000000E+00  0.73893317557E+02  0.73893317557E+02  0.00000000000E+00 0. -1.
         21   -1    0    0  501  502 -0.00000000000E+00 -0.00000000000E+00 -0.58210886193E+03  0.58210886193E+03  0.00000000000E+00 0. -1.
         25    1    1    2    0    0  0.26595162037E+02  0.21345380032E+02 -0.19889810625E+03  0.23737814677E+03  0.12500000000E+03 0.  0.
         25    1    1    2    0    0 -0.58493405906E+02  0.20336196567E+02 -0.11039650845E+03  0.17789724142E+03  0.12500000000E+03 0.  0.
         25    1    1    2    0    0  0.31898243869E+02 -0.41681576599E+02 -0.19892092967E+03  0.24072679130E+03  0.12500000000E+03 0.  0.
</event>
<event>
 5    0  0.5691975E-005  0.2483637E+03  0.7546771E-02  0.1114343E+00
         21   -1    0    0  502  501  0.00000000000E+00  0.00000000000E+00  0.38997315603E+02  0.38997315603E+02  0.00000000000E+00 0.  1.
         21   -1    0    0  501  502 -0.00000000000E+00 -0.00000000000E+00 -0.15817632773E+04  0.15817632773E+04  0.00000000000E+00 0.  1.
         25    1    1    2    0    0  0.53558137568E+00 -0.87147258231E+02 -0.73894770805E+03  0.75449562404E+03  0.12500000000E+03 0.  0.
         25    1    1    2    0    0  0.73357763051E+01  0.13447929301E+03 -0.54015125203E+03  0.57054962004E+03  0.12500000000E+03 0.  0.
         25    1    1    2    0    0 -0.78713576808E+01 -0.47332034779E+02 -0.26366700166E+03  0.29571534887E+03  0.12500000000E+03 0.  0.
</event>
<event>
 5    0  0.5691975E-005  0.2720356E+03  0.7546771E-02  0.1100120E+00
         21   -1    0    0  502  501  0.00000000000E+00  0.00000000000E+00  0.69785685572E+03  0.69785685572E+03  0.00000000000E+00 0. -1.
         21   -1    0    0  501  502 -0.00000000000E+00 -0.00000000000E+00 -0.10604375146E+03  0.10604375146E+03  0.00000000000E+00 0. -1.
         25    1    1    2    0    0  0.78422916501E+02  0.12941521918E+03  0.35264797665E+03  0.40358895949E+03  0.12500000000E+03 0.  0.
         25    1    1    2    0    0 -0.94265398295E+02 -0.41300697014E+02  0.15893001961E+03  0.22688204870E+03  0.12500000000E+03 0.  0.
         25    1    1    2    0    0  0.15842481794E+02 -0.88114522170E+02  0.80235107997E+02  0.17342959898E+03  0.12500000000E+03 0.  0.
</event>
<event>
 5    0  0.5691975E-005  0.2588931E+03  0.7546771E-02  0.1107810E+00
         21   -1    0    0  502  501  0.00000000000E+00  0.00000000000E+00  0.39336849906E+03  0.39336849906E+03  0.00000000000E+00 0.  1.
         21   -1    0    0  501  502 -0.00000000000E+00 -0.00000000000E+00 -0.17038886657E+03  0.17038886657E+03  0.00000000000E+00 0.  1.
         25    1    1    2    0    0  0.82724669342E+02 -0.76683586611E+02  0.17690749652E+03  0.24422327018E+03  0.12500000000E+03 0.  0.
         25    1    1    2    0    0 -0.10526905702E+03  0.84542126225E+02  0.54782533711E+02  0.19197674722E+03  0.12500000000E+03 0.  0.
         25    1    1    2    0    0  0.22544387674E+02 -0.78585396134E+01 -0.87103977399E+01  0.12755734824E+03  0.12500000000E+03 0.  0.
</event>
<event>
 5    0  0.5691975E-005  0.2714931E+03  0.7546771E-02  0.1100428E+00
         21   -1    0    0  502  501  0.00000000000E+00  0.00000000000E+00  0.47483933965E+03  0.47483933965E+03  0.00000000000E+00 0. -1.
         21   -1    0    0  501  502 -0.00000000000E+00 -0.00000000000E+00 -0.15522833058E+03  0.15522833058E+03  0.00000000000E+00 0. -1.
         25    1    1    2    0    0  0.63745703811E+01  0.13565945994E+03  0.97458216141E+02  0.20872764099E+03  0.12500000000E+03 0.  0.
         25    1    1    2    0    0 -0.40551883678E+02 -0.86070341948E+02  0.23426557744E+03  0.28206013509E+03  0.12500000000E+03 0.  0.
         25    1    1    2    0    0  0.34177313297E+02 -0.49589117994E+02 -0.12112784513E+02  0.13927989416E+03  0.12500000000E+03 0.  0.
</event>
<event>
 5    0  0.5691975E-005  0.2515037E+03  0.7546771E-02  0.1112358E+00
         21   -1    0    0  502  501  0.00000000000E+00  0.00000000000E+00  0.89712470300E+03  0.89712470300E+03  0.00000000000E+00 0.  1.
         21   -1    0    0  501  502 -0.00000000000E+00 -0.00000000000E+00 -0.70507596885E+02  0.70507596885E+02  0.00000000000E+00 0.  1.
         25    1    1    2    0    0 -0.28670665318E+02  0.10612366631E+03  0.46502060980E+03  0.49391639691E+03  0.12500000000E+03 0.  0.
         25    1    1    2    0    0  0.89972123612E+01 -0.83531721967E+02  0.95874338975E+02  0.17853679531E+03  0.12500000000E+03 0.  0.
         25    1    1    2    0    0  0.19673452956E+02 -0.22591944343E+02  0.26572215734E+03  0.29517910767E+03  0.12500000000E+03 0.  0.
</event>
<event>
 5    0  0.5691975E-005  0.3066554E+03  0.7546771E-02  0.1081960E+00
         21   -1    0    0  502  501  0.00000000000E+00  0.00000000000E+00  0.10003154359E+03  0.10003154359E+03  0.00000000000E+00 0. -1.
         21   -1    0    0  501  502 -0.00000000000E+00 -0.00000000000E+00 -0.94007902423E+03  0.94007902423E+03  0.00000000000E+00 0. -1.
         25    1    1    2    0    0 -0.15697086018E+03  0.70904825148E+02 -0.11531344642E+03  0.24205275479E+03  0.12500000000E+03 0.  0.
         25    1    1    2    0    0  0.14691749459E+03 -0.30756273318E+02 -0.34937033709E+03  0.40026907325E+03  0.12500000000E+03 0.  0.
         25    1    1    2    0    0  0.10053365593E+02 -0.40148551830E+02 -0.37536369713E+03  0.39778873978E+03  0.12500000000E+03 0.  0.
</event>
<event>
 5    0  0.5691975E-005  0.6863364E+03  0.7546771E-02  0.9740888E-01
         21   -1    0    0  502  501  0.00000000000E+00  0.00000000000E+00  0.19630935532E+04  0.19630935532E+04  0.00000000000E+00 0.  1.
         21   -1    0    0  501  502 -0.00000000000E+00 -0.00000000000E+00 -0.23995682072E+03  0.23995682072E+03  0.00000000000E+00 0.  1.
         25    1    1    2    0    0 -0.27121766763E+02 -0.31542720319E+03  0.17103002676E+04  0.17438411384E+04  0.12500000000E+03 0.  0.
         25    1    1    2    0    0  0.40710710903E+02  0.26876268077E+03  0.79306939730E+02  0.30952436293E+03  0.12500000000E+03 0.  0.
         25    1    1    2    0    0 -0.13588944141E+02  0.46664522416E+02 -0.66470474829E+02  0.14968487258E+03  0.12500000000E+03 0.  0.
</event>
<event>
 5    0  0.5691975E-005  0.3381654E+03  0.7546771E-02  0.1067580E+00
         21   -1    0    0  502  501  0.00000000000E+00  0.00000000000E+00  0.74899550235E+03  0.74899550235E+03  0.00000000000E+00 0. -1.
         21   -1    0    0  501  502 -0.00000000000E+00 -0.00000000000E+00 -0.15267895878E+03  0.15267895878E+03  0.00000000000E+00 0. -1.
         25    1    1    2    0    0  0.85709783277E+02 -0.14095019641E+03  0.21451460008E+03  0.29808495176E+03  0.12500000000E+03 0.  0.
         25    1    1    2    0    0  0.12846682465E+03  0.97683671043E+02  0.23848451247E+03  0.31391987403E+03  0.12500000000E+03 0.  0.
         25    1    1    2    0    0 -0.21417660793E+03  0.43266525363E+02  0.14331743101E+03  0.28966963533E+03  0.12500000000E+03 0.  0.
</event>
<event>
 5    0  0.5691975E-005  0.4544600E+03  0.7546771E-02  0.1026400E+00
         21   -1    0    0  502  501  0.00000000000E+00  0.00000000000E+00  0.20194798312E+04  0.20194798312E+04  0.00000000000E+00 0.  1.
         21   -1    0    0  501  502 -0.00000000000E+00 -0.00000000000E+00 -0.10227084995E+03  0.10227084995E+03  0.00000000000E+00 0.  1.
         25    1    1    2    0    0 -0.88690379373E+02 -0.27186497454E+02  0.20009440668E+02  0.15694096582E+03  0.12500000000E+03 0.  0.
         25    1    1    2    0    0 -0.41156835923E+02 -0.15447997701E+03  0.12903323221E+04  0.13061931135E+04  0.12500000000E+03 0.  0.
         25    1    1    2    0    0  0.12984721530E+03  0.18166647446E+03  0.60686721854E+03  0.65861660183E+03  0.12500000000E+03 0.  0.
</event>
<event>
 5    0  0.5691975E-005  0.3366809E+03  0.7546771E-02  0.1068218E+00
         21   -1    0    0  502  501  0.00000000000E+00  0.00000000000E+00  0.32112805461E+03  0.32112805461E+03  0.00000000000E+00 0.  1.
         21   -1    0    0  501  502 -0.00000000000E+00 -0.00000000000E+00 -0.35298699514E+03  0.35298699514E+03  0.00000000000E+00 0.  1.
         25    1    1    2    0    0 -0.13333768959E+02 -0.22873394615E+03 -0.67231937720E+02  0.26952206026E+03  0.12500000000E+03 0.  0.
         25    1    1    2    0    0 -0.18099810681E+02 -0.10505734639E+02 -0.16895002601E+02  0.12786091944E+03  0.12500000000E+03 0.  0.
         25    1    1    2    0    0  0.31433579640E+02  0.23923968079E+03  0.52267999785E+02  0.27673207005E+03  0.12500000000E+03 0.  0.
</event>
<event>
 5    0  0.5691975E-005  0.2927197E+03  0.7546771E-02  0.1088938E+00
         21   -1    0    0  502  501  0.00000000000E+00  0.00000000000E+00  0.17870732174E+03  0.17870732174E+03  0.00000000000E+00 0.  1.
         21   -1    0    0  501  502 -0.00000000000E+00 -0.00000000000E+00 -0.47947000078E+03  0.47947000078E+03  0.00000000000E+00 0.  1.
         25    1    1    2    0    0  0.10349461944E+03 -0.32860370011E+02 -0.29250715722E+03  0.33611958764E+03  0.12500000000E+03 0.  0.
         25    1    1    2    0    0  0.24738762456E+02  0.51783345158E+02 -0.29688037608E+02  0.14071212023E+03  0.12500000000E+03 0.  0.
         25    1    1    2    0    0 -0.12823338189E+03 -0.18922975147E+02  0.21432515784E+02  0.18134561465E+03  0.12500000000E+03 0.  0.
</event>
<event>
 5    0  0.5691975E-005  0.3886028E+03  0.7546771E-02  0.1047799E+00
         21   -1    0    0  502  501  0.00000000000E+00  0.00000000000E+00  0.14348967663E+03  0.14348967663E+03  0.00000000000E+00 0. -1.
         21   -1    0    0  501  502 -0.00000000000E+00 -0.00000000000E+00 -0.10524251962E+04  0.10524251962E+04  0.00000000000E+00 0. -1.
         25    1    1    2    0    0 -0.65077399036E+02 -0.15657178777E+03 -0.46582195453E+03  0.51123858023E+03  0.12500000000E+03 0.  0.
         25    1    1    2    0    0  0.13239718015E+03 -0.11436071952E+03 -0.20448884628E+03  0.29672896005E+03  0.12500000000E+03 0.  0.
         25    1    1    2    0    0 -0.67319781112E+02  0.27093250729E+03 -0.23862471880E+03  0.38794733258E+03  0.12500000000E+03 0.  0.
</event>
<event>
 5    0  0.5691975E-005  0.4104943E+03  0.7546771E-02  0.1040205E+00
         21   -1    0    0  502  501  0.00000000000E+00  0.00000000000E+00  0.19913226784E+03  0.19913226784E+03  0.00000000000E+00 0.  1.
         21   -1    0    0  501  502 -0.00000000000E+00 -0.00000000000E+00 -0.84619937730E+03  0.84619937730E+03  0.00000000000E+00 0.  1.
         25    1    1    2    0    0 -0.11816900400E+03 -0.25235362783E+01  0.82433854523E+02  0.19076326196E+03  0.12500000000E+03 0.  0.
         25    1    1    2    0    0 -0.28995376840E+02  0.84285691036E+02 -0.57220729584E+03  0.59244493331E+03  0.12500000000E+03 0.  0.
         25    1    1    2    0    0  0.14716438084E+03 -0.81762154758E+02 -0.15729366814E+03  0.26212344987E+03  0.12500000000E+03 0.  0.
</event>
<event>
 5    0  0.5691975E-005  0.2870212E+03  0.7546771E-02  0.1091915E+00
         21   -1    0    0  502  501  0.00000000000E+00  0.00000000000E+00  0.22071365726E+03  0.22071365726E+03  0.00000000000E+00 0. -1.
         21   -1    0    0  501  502 -0.00000000000E+00 -0.00000000000E+00 -0.37324896969E+03  0.37324896969E+03  0.00000000000E+00 0. -1.
         25    1    1    2    0    0  0.74687576825E+02 -0.15243242236E+03 -0.15777080809E+02  0.21139487647E+03  0.12500000000E+03 0.  0.
         25    1    1    2    0    0 -0.85983341886E+02  0.15743532522E+03 -0.13497127782E+03  0.25694603042E+03  0.12500000000E+03 0.  0.
         25    1    1    2    0    0  0.11295765061E+02 -0.50029028645E+01 -0.17869537990E+01  0.12562172005E+03  0.12500000000E+03 0.  0.
</event>
<event>
 5    0  0.5691975E-005  0.2717887E+03  0.7546771E-02  0.1100260E+00
         21   -1    0    0  502  501  0.00000000000E+00  0.00000000000E+00  0.46038534773E+03  0.46038534773E+03  0.00000000000E+00 0. -1.
         21   -1    0    0  501  502 -0.00000000000E+00 -0.00000000000E+00 -0.16045055279E+03  0.16045055279E+03  0.00000000000E+00 0. -1.
         25    1    1    2    0    0 -0.37189668521E+02  0.13196253430E+03  0.19689031594E+03  0.27053276773E+03  0.12500000000E+03 0.  0.
         25    1    1    2    0    0  0.80192382968E+02 -0.76160957777E+00  0.48528514120E+02  0.15624152783E+03  0.12500000000E+03 0.  0.
         25    1    1    2    0    0 -0.43002714446E+02 -0.13120092472E+03  0.54515964882E+02  0.19406160497E+03  0.12500000000E+03 0.  0.
</event>
<event>
 5    0  0.5691975E-005  0.2419953E+03  0.7546771E-02  0.1118471E+00
         21   -1    0    0  502  501  0.00000000000E+00  0.00000000000E+00  0.54873294066E+03  0.54873294066E+03  0.00000000000E+00 0. -1.
         21   -1    0    0  501  502 -0.00000000000E+00 -0.00000000000E+00 -0.10672173378E+03  0.10672173378E+03  0.00000000000E+00 0. -1.
         25    1    1    2    0    0  0.54936838620E+02 -0.92048618995E+02  0.22934231583E+03  0.28233650548E+03  0.12500000000E+03 0.  0.
         25    1    1    2    0    0  0.41778149460E+02  0.53173753517E+02  0.79643121851E+02  0.16291374618E+03  0.12500000000E+03 0.  0.
         25    1    1    2    0    0 -0.96714988080E+02  0.38874865478E+02  0.13302576920E+03  0.21020442278E+03  0.12500000000E+03 0.  0.
</event>
<event>
 5    0  0.5773513E-005  0.3712099E+03  0.7546771E-02  0.1054231E+00
         21   -1    0    0  502  501  0.00000000000E+00  0.00000000000E+00  0.69389423465E+03  0.69389423465E+03  0.00000000000E+00 0.  1.
         21   -1    0    0  501  502 -0.00000000000E+00 -0.00000000000E+00 -0.19858470673E+03  0.19858470673E+03  0.00000000000E+00 0.  1.
         25    1    1    2    0    0  0.15498636782E+03  0.90018236850E+02  0.34976184714E+03  0.41241048349E+03  0.12500000000E+03 0.  0.
         25    1    1    2    0    0 -0.97722023744E+01  0.78858884241E+02 -0.52210594573E+02  0.15705147484E+03  0.12500000000E+03 0.  0.
         25    1    1    2    0    0 -0.14521416544E+03 -0.16887712109E+03  0.19775827535E+03  0.32301698306E+03  0.12500000000E+03 0.  0.
</event>
<event>
 5    0  0.5691975E-005  0.5092070E+03  0.7546771E-02  0.1011403E+00
         21   -1    0    0  502  501  0.00000000000E+00  0.00000000000E+00  0.52887630141E+03  0.52887630141E+03  0.00000000000E+00 0. -1.
         21   -1    0    0  501  502 -0.00000000000E+00 -0.00000000000E+00 -0.49026920187E+03  0.49026920187E+03  0.00000000000E+00 0. -1.
         25    1    1    2    0    0 -0.20969276488E+02 -0.11751110447E+02 -0.27977467246E+03  0.30737056870E+03  0.12500000000E+03 0.  0.
         25    1    1    2    0    0  0.96377573364E+02 -0.24477374986E+03  0.29679668363E+03  0.41583181297E+03  0.12500000000E+03 0.  0.
         25    1    1    2    0    0 -0.75408296876E+02  0.25652486030E+03  0.21585088370E+02  0.29594312162E+03  0.12500000000E+03 0.  0.
</event>
<event>
 5    0  0.5691975E-005  0.3429873E+03  0.7546771E-02  0.1065531E+00
         21   -1    0    0  502  501  0.00000000000E+00  0.00000000000E+00  0.43073649772E+03  0.43073649772E+03  0.00000000000E+00 0.  1.
         21   -1    0    0  501  502 -0.00000000000E+00 -0.00000000000E+00 -0.27311427441E+03  0.27311427441E+03  0.00000000000E+00 0.  1.
         25    1    1    2    0    0 -0.16642873637E+03 -0.13584765274E+03 -0.10890887274E+03  0.27136553136E+03  0.12500000000E+03 0.  0.
         25    1    1    2    0    0  0.12889919002E+03  0.80804977835E+02  0.13137655724E+03  0.23670497549E+03  0.12500000000E+03 0.  0.
         25    1    1    2    0    0  0.37529546349E+02  0.55042674909E+02  0.13515453881E+03  0.19578026528E+03  0.12500000000E+03 0.  0.
</event>
<event>
 5    0  0.5691975E-005  0.3082572E+03  0.7546771E-02  0.1081184E+00
         21   -1    0    0  502  501  0.00000000000E+00  0.00000000000E+00  0.24983193279E+03  0.24983193279E+03  0.00000000000E+00 0. -1.
         21   -1    0    0  501  502 -0.00000000000E+00 -0.00000000000E+00 -0.38034576058E+03  0.38034576058E+03  0.00000000000E+00 0. -1.
         25    1    1    2    0    0  0.20113306059E+03  0.12200560575E+03 -0.66669754100E+02  0.27460832473E+03  0.12500000000E+03 0.  0.
         25    1    1    2    0    0 -0.66317389121E+02 -0.72941273889E+02 -0.36560435500E+02  0.16334041441E+03  0.12500000000E+03 0.  0.
         25    1    1    2    0    0 -0.13481567147E+03 -0.49064331860E+02 -0.27283638190E+02  0.19222895424E+03  0.12500000000E+03 0.  0.
</event>
<event>
 5    0  0.5691975E-005  0.5020162E+03  0.7546771E-02  0.1013254E+00
         21   -1    0    0  502  501  0.00000000000E+00  0.00000000000E+00  0.39349197577E+03  0.39349197577E+03  0.00000000000E+00 0. -1.
         21   -1    0    0  501  502 -0.00000000000E+00 -0.00000000000E+00 -0.64047114619E+03  0.64047114619E+03  0.00000000000E+00 0. -1.
         25    1    1    2    0    0 -0.23134051309E+03  0.30694744094E+03 -0.28184966430E+02  0.40515991513E+03  0.12500000000E+03 0.  0.
         25    1    1    2    0    0  0.16266891452E+03 -0.33233464769E+03 -0.27039752530E+03  0.47502348941E+03  0.12500000000E+03 0.  0.
         25    1    1    2    0    0  0.68671598569E+02  0.25387206748E+02  0.51603321312E+02  0.15377971741E+03  0.12500000000E+03 0.  0.
</event>
<event>
 5    0  0.5691975E-005  0.4469784E+03  0.7546771E-02  0.1028627E+00
         21   -1    0    0  502  501  0.00000000000E+00  0.00000000000E+00  0.79359603874E+03  0.79359603874E+03  0.00000000000E+00 0. -1.
         21   -1    0    0  501  502 -0.00000000000E+00 -0.00000000000E+00 -0.25175235736E+03  0.25175235736E+03  0.00000000000E+00 0. -1.
         25    1    1    2    0    0  0.10968961948E+03  0.86396917140E+02  0.65400378203E+03  0.68032505968E+03  0.12500000000E+03 0.  0.
         25    1    1    2    0    0  0.29464728721E+02 -0.93428798841E+02 -0.35410850900E+02  0.16271459385E+03  0.12500000000E+03 0.  0.
         25    1    1    2    0    0 -0.13915434820E+03  0.70318817006E+01 -0.76749249745E+02  0.20230874257E+03  0.12500000000E+03 0.  0.
</event>
<event>
 5    0  0.5691975E-005  0.2465829E+03  0.7546771E-02  0.1115484E+00
         21   -1    0    0  502  501  0.00000000000E+00  0.00000000000E+00  0.24310827878E+03  0.24310827878E+03  0.00000000000E+00 0.  1.
         21   -1    0    0  501  502 -0.00000000000E+00 -0.00000000000E+00 -0.25010708740E+03  0.25010708740E+03  0.00000000000E+00 0.  1.
         25    1    1    2    0    0 -0.41114590671E+02  0.36959264976E+02  0.24450995300E+02  0.13884973174E+03  0.12500000000E+03 0.  0.
         25    1    1    2    0    0  0.11522388745E+03  0.55796031768E+02  0.10617865229E+01  0.17892978732E+03  0.12500000000E+03 0.  0.
         25    1    1    2    0    0 -0.74109296779E+02 -0.92755296744E+02 -0.32511590444E+02  0.17543584712E+03  0.12500000000E+03 0.  0.
</event>
<event>
 5    0  0.5691975E-005  0.3330187E+03  0.7546771E-02  0.1069809E+00
         21   -1    0    0  502  501  0.00000000000E+00  0.00000000000E+00  0.28135107880E+03  0.28135107880E+03  0.00000000000E+00 0. -1.
         21   -1    0    0  501  502 -0.00000000000E+00 -0.00000000000E+00 -0.39417462849E+03  0.39417462849E+03  0.00000000000E+00 0. -1.
         25    1    1    2    0    0  0.12265415627E+03 -0.18869900727E+03 -0.34434779489E+02  0.25973469432E+03  0.12500000000E+03 0.  0.
         25    1    1    2    0    0 -0.70405677630E+02 -0.34203248541E+02 -0.29250141441E+02  0.15035754862E+03  0.12500000000E+03 0.  0.
         25    1    1    2    0    0 -0.52248478639E+02  0.22290225581E+03 -0.49138628764E+02  0.26543346436E+03  0.12500000000E+03 0.  0.
</event>
<event>
 5    0  0.5691975E-005  0.4585389E+03  0.7546771E-02  0.1025206E+00
         21   -1    0    0  502  501  0.00000000000E+00  0.00000000000E+00  0.13213513320E+03  0.13213513320E+03  0.00000000000E+00 0.  1.
         21   -1    0    0  501  502 -0.00000000000E+00 -0.00000000000E+00 -0.15912341547E+04  0.15912341547E+04  0.00000000000E+00 0.  1.
         25    1    1    2    0    0  0.84847808534E+02 -0.35462835757E+03 -0.62164885287E+03  0.73145930774E+03  0.12500000000E+03 0.  0.
         25    1    1    2    0    0  0.29374782843E+01  0.15116698253E+03 -0.64136837349E+03  0.67069998949E+03  0.12500000000E+03 0.  0.
         25    1    1    2    0    0 -0.87785286819E+02  0.20346137504E+03 -0.19608179514E+03  0.32120999066E+03  0.12500000000E+03 0.  0.
</event>
<event>
 5    0  0.5691975E-005  0.2849968E+03  0.7546771E-02  0.1092991E+00
         21   -1    0    0  502  501  0.00000000000E+00  0.00000000000E+00  0.13574485058E+03  0.13574485058E+03  0.00000000000E+00 0. -1.
         21   -1    0    0  501  502 -0.00000000000E+00 -0.00000000000E+00 -0.59835161281E+03  0.59835161281E+03  0.00000000000E+00 0. -1.
         25    1    1    2    0    0 -0.76220380047E+00  0.16893674930E+03 -0.26077378356E+03  0.33491517197E+03  0.12500000000E+03 0.  0.
         25    1    1    2    0    0  0.75111609659E+02 -0.44108712920E+02 -0.80130588633E+02  0.17214309076E+03  0.12500000000E+03 0.  0.
         25    1    1    2    0    0 -0.74349405858E+02 -0.12482803638E+03 -0.12170239004E+03  0.22703820067E+03  0.12500000000E+03 0.  0.
</event>
<event>
 5    0  0.5691975E-005  0.3094971E+03  0.7546771E-02  0.1080587E+00
         21   -1    0    0  502  501  0.00000000000E+00  0.00000000000E+00  0.42419690195E+03  0.42419690195E+03  0.00000000000E+00 0. -1.
         21   -1    0    0  501  502 -0.00000000000E+00 -0.00000000000E+00 -0.22581130631E+03  0.22581130631E+03  0.00000000000E+00 0. -1.
         25    1    1    2    0    0 -0.13076241509E+03 -0.11664878758E+03 -0.23775557442E+02  0.21655490291E+03  0.12500000000E+03 0.  0.
         25    1    1    2    0    0 -0.34581141629E+02  0.47464199336E+02  0.14864230127E+03  0.20289957936E+03  0.12500000000E+03 0.  0.
         25    1    1    2    0    0  0.16534355672E+03  0.69184588244E+02  0.73518851816E+02  0.23055372600E+03  0.12500000000E+03 0.  0.
</event>
<event>
 5    0  0.6653133E-005  0.4637648E+03  0.7546771E-02  0.1023695E+00
         21   -1    0    0  502  501  0.00000000000E+00  0.00000000000E+00  0.70699071285E+03  0.70699071285E+03  0.00000000000E+00 0. -1.
         21   -1    0    0  501  502 -0.00000000000E+00 -0.00000000000E+00 -0.30421585972E+03  0.30421585972E+03  0.00000000000E+00 0. -1.
         25    1    1    2    0    0  0.49372685868E+02 -0.21300687858E+03 -0.52518256594E+02  0.25727953613E+03  0.12500000000E+03 0.  0.
         25    1    1    2    0    0  0.11007372516E+03  0.19519686914E+03  0.14586623409E+01  0.25660313792E+03  0.12500000000E+03 0.  0.
         25    1    1    2    0    0 -0.15944641103E+03  0.17810009443E+02  0.45383444738E+03  0.49732389854E+03  0.12500000000E+03 0.  0.
</event>
<event>
 5    0  0.5812759E-005  0.3567587E+03  0.7546771E-02  0.1059875E+00
         21   -1    0    0  502  501  0.00000000000E+00  0.00000000000E+00  0.18052031830E+03  0.18052031830E+03  0.00000000000E+00 0. -1.
         21   -1    0    0  501  502 -0.00000000000E+00 -0.00000000000E+00 -0.70505524885E+03  0.70505524885E+03  0.00000000000E+00 0. -1.
         25    1    1    2    0    0 -0.77297663519E+02  0.24558003561E+02  0.26931675168E+02  0.15142106674E+03  0.12500000000E+03 0.  0.
         25    1    1    2    0    0  0.22503767439E+03 -0.96565662165E+02 -0.27270685891E+03  0.38724787011E+03  0.12500000000E+03 0.  0.
         25    1    1    2    0    0 -0.14774001087E+03  0.72007658604E+02 -0.27875974681E+03  0.34690663031E+03  0.12500000000E+03 0.  0.
</event>
<event>
 5    0  0.5691975E-005  0.4017663E+03  0.7546771E-02  0.1043170E+00
         21   -1    0    0  502  501  0.00000000000E+00  0.00000000000E+00  0.11544716357E+03  0.11544716357E+03  0.00000000000E+00 0.  1.
         21   -1    0    0  501  502 -0.00000000000E+00 -0.00000000000E+00 -0.13981820636E+04  0.13981820636E+04  0.00000000000E+00 0.  1.
         25    1    1    2    0    0  0.66438083941E+02  0.98484115213E+02 -0.10910587030E+04  0.11046027491E+04  0.12500000000E+03 0.  0.
         25    1    1    2    0    0 -0.39869796683E+02  0.86414021628E+01  0.26791488910E+02  0.13419038116E+03  0.12500000000E+03 0.  0.
         25    1    1    2    0    0 -0.26568287258E+02 -0.10712551738E+03 -0.21846768601E+03  0.27483609696E+03  0.12500000000E+03 0.  0.
</event>
<event>
 5    0  0.5691975E-005  0.3598605E+03  0.7546771E-02  0.1058639E+00
         21   -1    0    0  502  501  0.00000000000E+00  0.00000000000E+00  0.45030752220E+02  0.45030752220E+02  0.00000000000E+00 0.  1.
         21   -1    0    0  501  502 -0.00000000000E+00 -0.00000000000E+00 -0.28758030634E+04  0.28758030634E+04  0.00000000000E+00 0.  1.
         25    1    1    2    0    0  0.34959748012E+02 -0.30737048326E+02 -0.22822567648E+03  0.26434619257E+03  0.12500000000E+03 0.  0.
         25    1    1    2    0    0 -0.58938653604E+02 -0.18219958483E+03 -0.66711246684E+03  0.70521946727E+03  0.12500000000E+03 0.  0.
         25    1    1    2    0    0  0.23978905592E+02  0.21293663316E+03 -0.19354341679E+04  0.19512681558E+04  0.12500000000E+03 0.  0.
</event>
<event>
 5    0  0.5691975E-005  0.3152709E+03  0.7546771E-02  0.1077847E+00
         21   -1    0    0  502  501  0.00000000000E+00  0.00000000000E+00  0.11148118470E+03  0.11148118470E+03  0.00000000000E+00 0.  1.
         21   -1    0    0  501  502 -0.00000000000E+00 -0.00000000000E+00 -0.89159194420E+03  0.89159194420E+03  0.00000000000E+00 0.  1.
         25    1    1    2    0    0 -0.51266262446E+02  0.10997795363E+03 -0.45604562287E+03  0.48818642965E+03  0.12500000000E+03 0.  0.
         25    1    1    2    0    0 -0.10757173010E+03 -0.10449571702E+03 -0.12948775766E+03  0.23427144806E+03  0.12500000000E+03 0.  0.
         25    1    1    2    0    0  0.15883799255E+03 -0.54822366058E+01 -0.19457737896E+03  0.28061525119E+03  0.12500000000E+03 0.  0.
</event>
<event>
 5    0  0.6784032E-005  0.2835496E+03  0.7546771E-02  0.1093766E+00
         21   -1    0    0  502  501  0.00000000000E+00  0.00000000000E+00  0.92897380962E+03  0.92897380962E+03  0.00000000000E+00 0. -1.
         21   -1    0    0  501  502 -0.00000000000E+00 -0.00000000000E+00 -0.86547514955E+02  0.86547514955E+02  0.00000000000E+00 0. -1.
         25    1    1    2    0    0 -0.35997761542E+02  0.99956008329E+02  0.27058394758E+03  0.31642963692E+03  0.12500000000E+03 0.  0.
         25    1    1    2    0    0  0.56895332665E+02  0.70352334313E+02  0.39053685409E+03  0.41991733022E+03  0.12500000000E+03 0.  0.
         25    1    1    2    0    0 -0.20897571123E+02 -0.17030834264E+03  0.18130549300E+03  0.27917435742E+03  0.12500000000E+03 0.  0.
</event>
<event>
 5    0  0.5691975E-005  0.4308341E+03  0.7546771E-02  0.1033597E+00
         21   -1    0    0  502  501  0.00000000000E+00  0.00000000000E+00  0.62107781532E+03  0.62107781532E+03  0.00000000000E+00 0.  1.
         21   -1    0    0  501  502 -0.00000000000E+00 -0.00000000000E+00 -0.29886431837E+03  0.29886431837E+03  0.00000000000E+00 0.  1.
         25    1    1    2    0    0 -0.12569178207E+03  0.21522819207E+03  0.24620161883E+03  0.37197020829E+03  0.12500000000E+03 0.  0.
         25    1    1    2    0    0  0.11097595643E+03 -0.12281668188E+03 -0.16208473872E+03  0.26324145338E+03  0.12500000000E+03 0.  0.
         25    1    1    2    0    0  0.14715825644E+02 -0.92411510194E+02  0.23809661684E+03  0.28473047201E+03  0.12500000000E+03 0.  0.
</event>
<event>
 5    0  0.5691975E-005  0.2742683E+03  0.7546771E-02  0.1098861E+00
         21   -1    0    0  502  501  0.00000000000E+00  0.00000000000E+00  0.84521245072E+03  0.84521245072E+03  0.00000000000E+00 0. -1.
         21   -1    0    0  501  502 -0.00000000000E+00 -0.00000000000E+00 -0.88999048284E+02  0.88999048284E+02  0.00000000000E+00 0. -1.
         25    1    1    2    0    0 -0.93664724233E+01  0.16730537171E+03  0.41328354496E+03  0.46314911934E+03  0.12500000000E+03 0.  0.
         25    1    1    2    0    0  0.31430555798E+02 -0.99420133616E+02  0.10736420007E+03  0.19499824169E+03  0.12500000000E+03 0.  0.
         25    1    1    2    0    0 -0.22064083375E+02 -0.67885238094E+02  0.23556565740E+03  0.27606413797E+03  0.12500000000E+03 0.  0.
</event>
<event>
 5    0  0.5691975E-005  0.3687386E+03  0.7546771E-02  0.1055176E+00
         21   -1    0    0  502  501  0.00000000000E+00  0.00000000000E+00  0.99053803977E+03  0.99053803977E+03  0.00000000000E+00 0.  1.
         21   -1    0    0  501  502 -0.00000000000E+00 -0.00000000000E+00 -0.13726700439E+03  0.13726700439E+03  0.00000000000E+00 0.  1.
         25    1    1    2    0    0  0.60060126435E+02  0.82105982975E+02  0.48461014727E+03  0.51070598789E+03  0.12500000000E+03 0.  0.
         25    1    1    2    0    0  0.14494893699E+03  0.10617286055E+02  0.29059369016E+03  0.34812729549E+03  0.12500000000E+03 0.  0.
         25    1    1    2    0    0 -0.20500906343E+03 -0.92723269030E+02  0.78067197951E+02  0.26897176079E+03  0.12500000000E+03 0.  0.
</event>
<event>
 5    0  0.5691975E-005  0.2839579E+03  0.7546771E-02  0.1093547E+00
         21   -1    0    0  502  501  0.00000000000E+00  0.00000000000E+00  0.41998464786E+03  0.41998464786E+03  0.00000000000E+00 0.  1.
         21   -1    0    0  501  502 -0.00000000000E+00 -0.00000000000E+00 -0.19198823635E+03  0.19198823635E+03  0.00000000000E+00 0.  1.
         25    1    1    2    0    0 -0.16359124685E+03 -0.24397633353E+02 -0.21689678850E+01  0.20733317385E+03  0.12500000000E+03 0.  0.
         25    1    1    2    0    0  0.11211498090E+02 -0.28581644567E+02  0.89161231292E+02  0.15658011771E+03  0.12500000000E+03 0.  0.
         25    1    1    2    0    0  0.15237974876E+03  0.52979277920E+02  0.14100414811E+03  0.24805959265E+03  0.12500000000E+03 0.  0.
</event>
<event>
 5    0  0.5691975E-005  0.2984205E+03  0.7546771E-02  0.1086033E+00
         21   -1    0    0  502  501  0.00000000000E+00  0.00000000000E+00  0.48211676847E+03  0.48211676847E+03  0.00000000000E+00 0. -1.
         21   -1    0    0  501  502 -0.00000000000E+00 -0.00000000000E+00 -0.18471624124E+03  0.18471624124E+03  0.00000000000E+00 0. -1.
         25    1    1    2    0    0  0.97034086803E+02 -0.98107938547E+02  0.21341177565E+03  0.28321434920E+03  0.12500000000E+03 0.  0.
         25    1    1    2    0    0 -0.47195344195E+02  0.85644544585E+02 -0.74509663914E+02  0.17532563574E+03  0.12500000000E+03 0.  0.
         25    1    1    2    0    0 -0.49838742608E+02  0.12463393962E+02  0.15849841550E+03  0.20829302477E+03  0.12500000000E+03 0.  0.
</event>
<event>
 5    0  0.5691975E-005  0.2637005E+03  0.7546771E-02  0.1104940E+00
         21   -1    0    0  502  501  0.00000000000E+00  0.00000000000E+00  0.25722351790E+04  0.25722351790E+04  0.00000000000E+00 0. -1.
         21   -1    0    0  501  502 -0.00000000000E+00 -0.00000000000E+00 -0.27034062360E+02  0.27034062360E+02  0.00000000000E+00 0. -1.
         25    1    1    2    0    0  0.14874039429E+03 -0.88905696614E+02  0.98499173430E+03  0.10078996202E+04  0.12500000000E+03 0.  0.
         25    1    1    2    0    0 -0.11153549475E+03  0.34626125565E+02  0.78946100696E+03  0.80778265435E+03  0.12500000000E+03 0.  0.
         25    1    1    2    0    0 -0.37204899535E+02  0.54279571049E+02  0.77074837538E+03  0.78358696679E+03  0.12500000000E+03 0.  0.
</event>
<event>
 5    0  0.5691975E-005  0.3442938E+03  0.7546771E-02  0.1064982E+00
         21   -1    0    0  502  501  0.00000000000E+00  0.00000000000E+00  0.29129954365E+03  0.29129954365E+03  0.00000000000E+00 0.  1.
         21   -1    0    0  501  502 -0.00000000000E+00 -0.00000000000E+00 -0.40692886833E+03  0.40692886833E+03  0.00000000000E+00 0.  1.
         25    1    1    2    0    0  0.14068480131E+03  0.60487742232E+02 -0.13478678132E+03  0.23925604841E+03  0.12500000000E+03 0.  0.
         25    1    1    2    0    0 -0.77449976166E+02 -0.20313344848E+03  0.52699161443E+02  0.25624967964E+03  0.12500000000E+03 0.  0.
         25    1    1    2    0    0 -0.63234825143E+02  0.14264570625E+03 -0.33541704798E+02  0.20272268394E+03  0.12500000000E+03 0.  0.
</event>
<event>
 5    0  0.5691975E-005  0.3195313E+03  0.7546771E-02  0.1075865E+00
         21   -1    0    0  502  501  0.00000000000E+00  0.00000000000E+00  0.55836929209E+03  0.55836929209E+03  0.00000000000E+00 0. -1.
         21   -1    0    0  501  502 -0.00000000000E+00 -0.00000000000E+00 -0.18285430197E+03  0.18285430197E+03  0.00000000000E+00 0. -1.
         25    1    1    2    0    0 -0.11053606392E+03 -0.12556238869E+03  0.34761091173E+03  0.40551508089E+03  0.12500000000E+03 0.  0.
         25    1    1    2    0    0  0.12631429303E+03  0.97100166909E+02  0.38404624386E+02  0.20611564281E+03  0.12500000000E+03 0.  0.
         25    1    1    2    0    0 -0.15778229106E+02  0.28462221777E+02 -0.10500545991E+02  0.12959287036E+03  0.12500000000E+03 0.  0.
</event>
<event>
 5    0  0.5691975E-005  0.3306587E+03  0.7546771E-02  0.1070846E+00
         21   -1    0    0  502  501  0.00000000000E+00  0.00000000000E+00  0.98224022077E+02  0.98224022077E+02  0.00000000000E+00 0.  1.
         21   -1    0    0  501  502 -0.00000000000E+00 -0.00000000000E+00 -0.11131208580E+04  0.11131208580E+04  0.00000000000E+00 0.  1.
         25    1    1    2    0    0 -0.72691225800E+02 -0.14228455658E+03 -0.21935285824E+03  0.29878016294E+03  0.12500000000E+03 0.  0.
         25    1    1    2    0    0  0.92168222376E+02 -0.65693993980E+02 -0.51096895665E+03  0.53807523333E+03  0.12500000000E+03 0.  0.
         25    1    1    2    0    0 -0.19476996575E+02  0.20797855056E+03 -0.28457502105E+03  0.37448948383E+03  0.12500000000E+03 0.  0.
</event>
<event>
 5    0  0.5691975E-005  0.2169160E+03  0.7546771E-02  0.1136203E+00
         21   -1    0    0  502  501  0.00000000000E+00  0.00000000000E+00  0.11450960335E+04  0.11450960335E+04  0.00000000000E+00 0. -1.
         21   -1    0    0  501  502 -0.00000000000E+00 -0.00000000000E+00 -0.41090479430E+02  0.41090479430E+02  0.00000000000E+00 0. -1.
         25    1    1    2    0    0 -0.12209635872E+02  0.47093738982E+02  0.57073234274E+03  0.58628261318E+03  0.12500000000E+03 0.  0.
         25    1    1    2    0    0  0.48620989542E+02 -0.33066988135E+02  0.33418894243E+03  0.36161398697E+03  0.12500000000E+03 0.  0.
         25    1    1    2    0    0 -0.36411353671E+02 -0.14026750846E+02  0.19908426892E+03  0.23828991281E+03  0.12500000000E+03 0.  0.
</event>
<event>
 5    0  0.5691975E-005  0.2255509E+03  0.7546771E-02  0.1129811E+00
         21   -1    0    0  502  501  0.00000000000E+00  0.00000000000E+00  0.54696877606E+02  0.54696877606E+02  0.00000000000E+00 0.  1.
         21   -1    0    0  501  502 -0.00000000000E+00 -0.00000000000E+00 -0.93009341379E+03  0.93009341379E+03  0.00000000000E+00 0.  1.
         25    1    1    2    0    0 -0.96547339211E+02 -0.16916437790E+02 -0.38194906596E+03  0.41366368412E+03  0.12500000000E+03 0.  0.
         25    1    1    2    0    0  0.11901334408E+01  0.32832794559E+02 -0.23501257057E+03  0.26820760083E+03  0.12500000000E+03 0.  0.
         25    1    1    2    0    0  0.95357205770E+02 -0.15916356770E+02 -0.25843489966E+03  0.30291900644E+03  0.12500000000E+03 0.  0.
</event>
<event>
 5    0  0.5691975E-005  0.3188586E+03  0.7546771E-02  0.1076176E+00
         21   -1    0    0  502  501  0.00000000000E+00  0.00000000000E+00  0.12713478141E+03  0.12713478141E+03  0.00000000000E+00 0.  1.
         21   -1    0    0  501  502 -0.00000000000E+00 -0.00000000000E+00 -0.79970879341E+03  0.79970879341E+03  0.00000000000E+00 0.  1.
         25    1    1    2    0    0 -0.47398165540E+02 -0.41461957657E+02 -0.46177196446E+03  0.48251842161E+03  0.12500000000E+03 0.  0.
         25    1    1    2    0    0 -0.36838227975E+02  0.14237017192E+03 -0.44131032819E+02  0.19798704238E+03  0.12500000000E+03 0.  0.
         25    1    1    2    0    0  0.84236393515E+02 -0.10090821426E+03 -0.16667101472E+03  0.24633811083E+03  0.12500000000E+03 0.  0.
</event>
<event>
 5    0  0.5691975E-005  0.3699402E+03  0.7546771E-02  0.1054716E+00
         21   -1    0    0  502  501  0.00000000000E+00  0.00000000000E+00  0.86679359045E+02  0.86679359045E+02  0.00000000000E+00 0. -1.
         21   -1    0    0  501  502 -0.00000000000E+00 -0.00000000000E+00 -0.15788732432E+04  0.15788732432E+04  0.00000000000E+00 0. -1.
         25    1    1    2    0    0  0.17968618043E+03 -0.35094114785E+02 -0.19416849957E+03  0.29469497206E+03  0.12500000000E+03 0.  0.
         25    1    1    2    0    0 -0.31082055212E+02  0.20995996376E+02 -0.12142748691E+03  0.17825981206E+03  0.12500000000E+03 0.  0.
         25    1    1    2    0    0 -0.14860412522E+03  0.14098118409E+02 -0.11765978977E+04  0.11925978182E+04  0.12500000000E+03 0.  0.
</event>
<event>
 5    0  0.5691975E-005  0.3140574E+03  0.7546771E-02  0.1078417E+00
         21   -1    0    0  502  501  0.00000000000E+00  0.00000000000E+00  0.12875365732E+03  0.12875365732E+03  0.00000000000E+00 0. -1.
         21   -1    0    0  501  502 -0.00000000000E+00 -0.00000000000E+00 -0.76605242412E+03  0.76605242412E+03  0.00000000000E+00 0. -1.
         25    1    1    2    0    0  0.13701199815E+03  0.24285039886E+01 -0.11576940435E+03  0.21864523835E+03  0.12500000000E+03 0.  0.
         25    1    1    2    0    0  0.65706773309E+02  0.97568354145E+02 -0.22264799387E+03  0.28113002857E+03  0.12500000000E+03 0.  0.
         25    1    1    2    0    0 -0.20271877146E+03 -0.99996858134E+02 -0.29888136857E+03  0.39503081452E+03  0.12500000000E+03 0.  0.
</event>
<event>
 5    0  0.5691975E-005  0.2998286E+03  0.7546771E-02  0.1085326E+00
         21   -1    0    0  502  501  0.00000000000E+00  0.00000000000E+00  0.85361368991E+02  0.85361368991E+02  0.00000000000E+00 0.  1.
         21   -1    0    0  501  502 -0.00000000000E+00 -0.00000000000E+00 -0.10531369799E+04  0.10531369799E+04  0.00000000000E+00 0.  1.
         25    1    1    2    0    0 -0.22292162573E+02 -0.17446668823E+03 -0.46559956706E+03  0.51317007187E+03  0.12500000000E+03 0.  0.
         25    1    1    2    0    0 -0.26816918094E+02 -0.78322701397E+01 -0.95144649506E+02  0.15955562002E+03  0.12500000000E+03 0.  0.
         25    1    1    2    0    0  0.49109080667E+02  0.18229895837E+03 -0.40703139436E+03  0.46577265701E+03  0.12500000000E+03 0.  0.
</event>
<event>
 5    0  0.5691975E-005  0.3436752E+03  0.7546771E-02  0.1065241E+00
         21   -1    0    0  502  501  0.00000000000E+00  0.00000000000E+00  0.16293667478E+03  0.16293667478E+03  0.00000000000E+00 0. -1.
         21   -1    0    0  501  502 -0.00000000000E+00 -0.00000000000E+00 -0.72489895018E+03  0.72489895018E+03  0.00000000000E+00 0. -1.
         25    1    1    2    0    0  0.95366563086E+02 -0.90398868627E+02 -0.88037951695E+02  0.20159964718E+03  0.12500000000E+03 0.  0.
         25    1    1    2    0    0  0.12964224163E+03 -0.61120682701E+02 -0.12817768583E+03  0.22934116031E+03  0.12500000000E+03 0.  0.
         25    1    1    2    0    0 -0.22500880471E+03  0.15151955133E+03 -0.34574663787E+03  0.45689481747E+03  0.12500000000E+03 0.  0.
</event>
<event>
 5    0  0.5691975E-005  0.3869584E+03  0.7546771E-02  0.1048391E+00
         21   -1    0    0  502  501  0.00000000000E+00  0.00000000000E+00  0.40103595526E+03  0.40103595526E+03  0.00000000000E+00 0. -1.
         21   -1    0    0  501  502 -0.00000000000E+00 -0.00000000000E+00 -0.37337498548E+03  0.37337498548E+03  0.00000000000E+00 0. -1.
         25    1    1    2    0    0 -0.73775767679E+02  0.28967781130E+03  0.67869534608E+02  0.33103983444E+03  0.12500000000E+03 0.  0.
         25    1    1    2    0    0 -0.67546199575E+02 -0.15113791706E+03 -0.16148336996E+02  0.20806472031E+03  0.12500000000E+03 0.  0.
         25    1    1    2    0    0  0.14132196725E+03 -0.13853989424E+03 -0.24060227831E+02  0.23530638599E+03  0.12500000000E+03 0.  0.
</event>
<event>
 5    0  0.5691975E-005  0.2169540E+03  0.7546771E-02  0.1136175E+00
         21   -1    0    0  502  501  0.00000000000E+00  0.00000000000E+00  0.11365420023E+03  0.11365420023E+03  0.00000000000E+00 0.  1.
         21   -1    0    0  501  502 -0.00000000000E+00 -0.00000000000E+00 -0.41414264047E+03  0.41414264047E+03  0.00000000000E+00 0.  1.
         25    1    1    2    0    0  0.18835317160E+02  0.70906147354E+02 -0.68228226024E+02  0.16019532369E+03  0.12500000000E+03 0.  0.
         25    1    1    2    0    0  0.30778319577E+02 -0.12990444272E+02 -0.63365135012E+02  0.14407011117E+03  0.12500000000E+03 0.  0.
         25    1    1    2    0    0 -0.49613636737E+02 -0.57915703082E+02 -0.16889507920E+03  0.22353140583E+03  0.12500000000E+03 0.  0.
</event>
<event>
 5    0  0.5691975E-005  0.3678112E+03  0.7546771E-02  0.1055533E+00
         21   -1    0    0  502  501  0.00000000000E+00  0.00000000000E+00  0.10974070191E+04  0.10974070191E+04  0.00000000000E+00 0.  1.
         21   -1    0    0  501  502 -0.00000000000E+00 -0.00000000000E+00 -0.12327702474E+03  0.12327702474E+03  0.00000000000E+00 0.  1.
         25    1    1    2    0    0 -0.74398076467E+01 -0.16554449491E+03  0.64997171044E+03  0.68231118627E+03  0.12500000000E+03 0.  0.
         25    1    1    2    0    0  0.45645347332E+02  0.12457723133E+03  0.35400550582E+03  0.39818071582E+03  0.12500000000E+03 0.  0.
         25    1    1    2    0    0 -0.38205539686E+02  0.40967263581E+02 -0.29847221920E+02  0.14019214174E+03  0.12500000000E+03 0.  0.
</event>
<event>
 5    0  0.5691975E-005  0.4282789E+03  0.7546771E-02  0.1034405E+00
         21   -1    0    0  502  501  0.00000000000E+00  0.00000000000E+00  0.85840865382E+02  0.85840865382E+02  0.00000000000E+00 0. -1.
         21   -1    0    0  501  502 -0.00000000000E+00 -0.00000000000E+00 -0.21367778228E+04  0.21367778228E+04  0.00000000000E+00 0. -1.
         25    1    1    2    0    0  0.24931162455E+03  0.38471229781E+02 -0.10483791008E+04  0.10855229434E+04  0.12500000000E+03 0.  0.
         25    1    1    2    0    0 -0.22702132815E+03 -0.20165041952E+03 -0.65459997155E+03  0.73234397511E+03  0.12500000000E+03 0.  0.
         25    1    1    2    0    0 -0.22290296406E+02  0.16317918974E+03 -0.34795788513E+03  0.40475176973E+03  0.12500000000E+03 0.  0.
</event>
<event>
 5    0  0.5691975E-005  0.3953546E+03  0.7546771E-02  0.1045400E+00
         21   -1    0    0  502  501  0.00000000000E+00  0.00000000000E+00  0.10984198177E+03  0.10984198177E+03  0.00000000000E+00 0.  1.
         21   -1    0    0  501  502 -0.00000000000E+00 -0.00000000000E+00 -0.14230007420E+04  0.14230007420E+04  0.00000000000E+00 0.  1.
         25    1    1    2    0    0  0.15006288338E+03  0.76490023160E+02 -0.21711190641E+03  0.30188105690E+03  0.12500000000E+03 0.  0.
         25    1    1    2    0    0 -0.28126999338E+03  0.82771347466E+02 -0.60301684471E+03  0.68206907286E+03  0.12500000000E+03 0.  0.
         25    1    1    2    0    0  0.13120711000E+03 -0.15926137063E+03 -0.49303000910E+03  0.54889259401E+03  0.12500000000E+03 0.  0.
</event>
<event>
 5    0  0.5691975E-005  0.2480948E+03  0.7546771E-02  0.1114515E+00
         21   -1    0    0  502  501  0.00000000000E+00  0.00000000000E+00  0.43895627769E+03  0.43895627769E+03  0.00000000000E+00 0.  1.
         21   -1    0    0  501  502 -0.00000000000E+00 -0.00000000000E+00 -0.14022131847E+03  0.14022131847E+03  0.00000000000E+00 0.  1.
         25    1    1    2    0    0  0.53175876595E+02 -0.69478715847E+02 -0.17534232217E+02  0.15358194916E+03  0.12500000000E+03 0.  0.
         25    1    1    2    0    0  0.22555459143E+01 -0.10022959094E+01  0.18545044859E+03  0.22365813414E+03  0.12500000000E+03 0.  0.
         25    1    1    2    0    0 -0.55431422510E+02  0.70481011756E+02  0.13081874285E+03  0.20193751286E+03  0.12500000000E+03 0.  0.
</event>
<event>
 5    0  0.5691975E-005  0.3398246E+03  0.7546771E-02  0.1066871E+00
         21   -1    0    0  502  501  0.00000000000E+00  0.00000000000E+00  0.28116333529E+03  0.28116333529E+03  0.00000000000E+00 0.  1.
         21   -1    0    0  501  502 -0.00000000000E+00 -0.00000000000E+00 -0.41072491906E+03  0.41072491906E+03  0.00000000000E+00 0.  1.
         25    1    1    2    0    0 -0.33781887986E+02  0.73802686213E+02 -0.13101716934E+03  0.19844029608E+03  0.12500000000E+03 0.  0.
         25    1    1    2    0    0  0.21262174975E+03 -0.11232799611E+03 -0.13677500114E+02  0.27136260093E+03  0.12500000000E+03 0.  0.
         25    1    1    2    0    0 -0.17883986176E+03  0.38525309898E+02  0.15133085678E+02  0.22208535733E+03  0.12500000000E+03 0.  0.
</event>
<event>
 5    0  0.5691975E-005  0.1947229E+03  0.7546771E-02  0.1154269E+00
         21   -1    0    0  502  501  0.00000000000E+00  0.00000000000E+00  0.39880870618E+02  0.39880870618E+02  0.00000000000E+00 0. -1.
         21   -1    0    0  501  502 -0.00000000000E+00 -0.00000000000E+00 -0.95075653949E+03  0.95075653949E+03  0.00000000000E+00 0. -1.
         25    1    1    2    0    0 -0.34914301705E+02 -0.64717693238E+00 -0.32280242178E+03  0.34791641354E+03  0.12500000000E+03 0.  0.
         25    1    1    2    0    0  0.32553485042E+02 -0.54948014337E+01 -0.36069169428E+03  0.38316239450E+03  0.12500000000E+03 0.  0.
         25    1    1    2    0    0  0.23608166626E+01  0.61419783661E+01 -0.22738155281E+03  0.25955860208E+03  0.12500000000E+03 0.  0.
</event>
<event>
 5    0  0.5691975E-005  0.2720987E+03  0.7546771E-02  0.1100084E+00
         21   -1    0    0  502  501  0.00000000000E+00  0.00000000000E+00  0.15634540137E+04  0.15634540137E+04  0.00000000000E+00 0.  1.
         21   -1    0    0  501  502 -0.00000000000E+00 -0.00000000000E+00 -0.47355224512E+02  0.47355224512E+02  0.00000000000E+00 0.  1.
         25    1    1    2    0    0 -0.43168061004E+02 -0.34064266386E+02  0.27043537096E+03  0.30295898336E+03  0.12500000000E+03 0.  0.
         25    1    1    2    0    0  0.12117725666E+03  0.11138257199E+03  0.91039185386E+03  0.93355681801E+03  0.12500000000E+03 0.  0.
         25    1    1    2    0    0 -0.78009195655E+02 -0.77318305602E+02  0.33527156438E+03  0.37429343685E+03  0.12500000000E+03 0.  0.
</event>
<event>
 5    0  0.6765345E-005  0.3287044E+03  0.7546771E-02  0.1071712E+00
         21   -1    0    0  502  501  0.00000000000E+00  0.00000000000E+00  0.27762429724E+03  0.27762429724E+03  0.00000000000E+00 0. -1.
         21   -1    0    0  501  502 -0.00000000000E+00 -0.00000000000E+00 -0.38918275830E+03  0.38918275830E+03  0.00000000000E+00 0. -1.
         25    1    1    2    0    0 -0.36997847694E+02  0.12763998554E+03  0.10455408865E+03  0.21027925265E+03  0.12500000000E+03 0.  0.
         25    1    1    2    0    0 -0.14103571640E+02  0.83224297800E+02 -0.66541217284E+02  0.16485729609E+03  0.12500000000E+03 0.  0.
         25    1    1    2    0    0  0.51101419334E+02 -0.21086428334E+03 -0.14957133243E+03  0.29167050679E+03  0.12500000000E+03 0.  0.
</event>
<event>
 5    0  0.5691975E-005  0.4034957E+03  0.7546771E-02  0.1042576E+00
         21   -1    0    0  502  501  0.00000000000E+00  0.00000000000E+00  0.13613590922E+04  0.13613590922E+04  0.00000000000E+00 0.  1.
         21   -1    0    0  501  502 -0.00000000000E+00 -0.00000000000E+00 -0.11959284235E+03  0.11959284235E+03  0.00000000000E+00 0.  1.
         25    1    1    2    0    0 -0.15954169624E+03 -0.73510919338E+02  0.31063045610E+03  0.37811861678E+03  0.12500000000E+03 0.  0.
         25    1    1    2    0    0 -0.49950567600E+02 -0.18825483266E+03  0.40719772499E+03  0.46836943587E+03  0.12500000000E+03 0.  0.
         25    1    1    2    0    0  0.20949226384E+03  0.26176575200E+03  0.52393806874E+03  0.63446388187E+03  0.12500000000E+03 0.  0.
</event>
<event>
 5    0  0.5691975E-005  0.2373858E+03  0.7546771E-02  0.1121547E+00
         21   -1    0    0  502  501  0.00000000000E+00  0.00000000000E+00  0.39910274330E+02  0.39910274330E+02  0.00000000000E+00 0. -1.
         21   -1    0    0  501  502 -0.00000000000E+00 -0.00000000000E+00 -0.14119672312E+04  0.14119672312E+04  0.00000000000E+00 0. -1.
         25    1    1    2    0    0  0.86524099656E+02  0.94168696528E+02 -0.44507597239E+03  0.47965798693E+03  0.12500000000E+03 0.  0.
         25    1    1    2    0    0 -0.32302254682E+02 -0.84419967159E+02 -0.55129832449E+03  0.57247271472E+03  0.12500000000E+03 0.  0.
         25    1    1    2    0    0 -0.54221844974E+02 -0.97487293685E+01 -0.37568266002E+03  0.39974680391E+03  0.12500000000E+03 0.  0.
</event>
<event>
 5    0  0.5691975E-005  0.2672743E+03  0.7546771E-02  0.1102850E+00
         21   -1    0    0  502  501  0.00000000000E+00  0.00000000000E+00  0.63855298189E+02  0.63855298189E+02  0.00000000000E+00 0. -1.
         21   -1    0    0  501  502 -0.00000000000E+00 -0.00000000000E+00 -0.11187099246E+04  0.11187099246E+04  0.00000000000E+00 0. -1.
         25    1    1    2    0    0 -0.79689391958E+02 -0.80798233706E+02 -0.53610173831E+03  0.56205767282E+03  0.12500000000E+03 0.  0.
         25    1    1    2    0    0  0.86356317972E+02 -0.47121273509E+02 -0.28127008278E+03  0.32313416337E+03  0.12500000000E+03 0.  0.
         25    1    1    2    0    0 -0.66669260134E+01  0.12791950721E+03 -0.23748280530E+03  0.29737338657E+03  0.12500000000E+03 0.  0.
</event>
<event>
 5    0  0.5691975E-005  0.4206095E+03  0.7546771E-02  0.1036868E+00
         21   -1    0    0  502  501  0.00000000000E+00  0.00000000000E+00  0.23717870282E+03  0.23717870282E+03  0.00000000000E+00 0.  1.
         21   -1    0    0  501  502 -0.00000000000E+00 -0.00000000000E+00 -0.74590334432E+03  0.74590334432E+03  0.00000000000E+00 0.  1.
         25    1    1    2    0    0  0.17576540702E+03 -0.17190666547E+03  0.69855011629E+02  0.28451731509E+03  0.12500000000E+03 0.  0.
         25    1    1    2    0    0 -0.67114138107E+02  0.14762291189E+03 -0.42340715921E+03  0.47031420786E+03  0.12500000000E+03 0.  0.
         25    1    1    2    0    0 -0.10865126891E+03  0.24283753574E+02 -0.15517249391E+03  0.22825052419E+03  0.12500000000E+03 0.  0.
</event>
<event>
 5    0  0.5691975E-005  0.3599312E+03  0.7546771E-02  0.1058611E+00
         21   -1    0    0  502  501  0.00000000000E+00  0.00000000000E+00  0.14402010591E+03  0.14402010591E+03  0.00000000000E+00 0. -1.
         21   -1    0    0  501  502 -0.00000000000E+00 -0.00000000000E+00 -0.89953060527E+03  0.89953060527E+03  0.00000000000E+00 0. -1.
         25    1    1    2    0    0 -0.10545424617E+03  0.94717387017E+02 -0.27545447095E+03  0.33405410790E+03  0.12500000000E+03 0.  0.
         25    1    1    2    0    0 -0.49581732566E+00  0.16521007208E+03 -0.13407605615E+03  0.24677115427E+03  0.12500000000E+03 0.  0.
         25    1    1    2    0    0  0.10595006350E+03 -0.25992745909E+03 -0.34597997227E+03  0.46272544901E+03  0.12500000000E+03 0.  0.
</event>
<event>
 5    0  0.5691975E-005  0.3953542E+03  0.7546771E-02  0.1045400E+00
         21   -1    0    0  502  501  0.00000000000E+00  0.00000000000E+00  0.15495605085E+03  0.15495605085E+03  0.00000000000E+00 0.  1.
         21   -1    0    0  501  502 -0.00000000000E+00 -0.00000000000E+00 -0.10087051682E+04  0.10087051682E+04  0.00000000000E+00 0.  1.
         25    1    1    2    0    0 -0.82366005320E+02  0.95371522378E+02 -0.12851465519E+03  0.21913672150E+03  0.12500000000E+03 0.  0.
         25    1    1    2    0    0  0.29044717330E+03 -0.15797931233E+03 -0.39794699358E+03  0.53226293624E+03  0.12500000000E+03 0.  0.
         25    1    1    2    0    0 -0.20808116798E+03  0.62607789947E+02 -0.32728746858E+03  0.41226156129E+03  0.12500000000E+03 0.  0.
</event>
<event>
 5    0  0.5691975E-005  0.3243308E+03  0.7546771E-02  0.1073673E+00
         21   -1    0    0  502  501  0.00000000000E+00  0.00000000000E+00  0.12064785993E+03  0.12064785993E+03  0.00000000000E+00 0. -1.
         21   -1    0    0  501  502 -0.00000000000E+00 -0.00000000000E+00 -0.87187990657E+03  0.87187990657E+03  0.00000000000E+00 0. -1.
         25    1    1    2    0    0  0.18306312208E+03 -0.14639252631E+03 -0.26284482661E+03  0.37370480502E+03  0.12500000000E+03 0.  0.
         25    1    1    2    0    0 -0.11553409016E+03  0.94803005249E+01 -0.14980866912E+03  0.22694853917E+03  0.12500000000E+03 0.  0.
         25    1    1    2    0    0 -0.67529031913E+02  0.13691222578E+03 -0.33857855091E+03  0.39187442231E+03  0.12500000000E+03 0.  0.
</event>
<event>
 5    0  0.5691975E-005  0.2897084E+03  0.7546771E-02  0.1090502E+00
         21   -1    0    0  502  501  0.00000000000E+00  0.00000000000E+00  0.77310868209E+02  0.77310868209E+02  0.00000000000E+00 0. -1.
         21   -1    0    0  501  502 -0.00000000000E+00 -0.00000000000E+00 -0.10856292240E+04  0.10856292240E+04  0.00000000000E+00 0. -1.
         25    1    1    2    0    0 -0.11996537985E+03  0.38975081204E+02 -0.30763172447E+03  0.35520842786E+03  0.12500000000E+03 0.  0.
         25    1    1    2    0    0 -0.16687658765E+02 -0.73926664344E+02 -0.54195931394E+03  0.56132746915E+03  0.12500000000E+03 0.  0.
         25    1    1    2    0    0  0.13665303862E+03  0.34951583140E+02 -0.15872731736E+03  0.24640419518E+03  0.12500000000E+03 0.  0.
</event>
<event>
 5    0  0.5691975E-005  0.2413864E+03  0.7546771E-02  0.1118873E+00
         21   -1    0    0  502  501  0.00000000000E+00  0.00000000000E+00  0.10358506493E+03  0.10358506493E+03  0.00000000000E+00 0.  1.
         21   -1    0    0  501  502 -0.00000000000E+00 -0.00000000000E+00 -0.56250758867E+03  0.56250758867E+03  0.00000000000E+00 0.  1.
         25    1    1    2    0    0  0.84919249082E+02  0.55208348562E+02 -0.82446108071E+02  0.18078053366E+03  0.12500000000E+03 0.  0.
         25    1    1    2    0    0 -0.11227645399E+01  0.35235414751E+02 -0.17760802756E+03  0.22002819480E+03  0.12500000000E+03 0.  0.
         25    1    1    2    0    0 -0.83796484543E+02 -0.90443763313E+02 -0.19886838811E+03  0.26528392513E+03  0.12500000000E+03 0.  0.
</event>
<event>
 5    0  0.5691975E-005  0.2492178E+03  0.7546771E-02  0.1113800E+00
         21   -1    0    0  502  501  0.00000000000E+00  0.00000000000E+00  0.52747491481E+03  0.52747491481E+03  0.00000000000E+00 0. -1.
         21   -1    0    0  501  502 -0.00000000000E+00 -0.00000000000E+00 -0.11774871991E+03  0.11774871991E+03  0.00000000000E+00 0. -1.
         25    1    1    2    0    0 -0.29826517396E+02 -0.13573827028E+03  0.75058619033E+02  0.20142813966E+03  0.12500000000E+03 0.  0.
         25    1    1    2    0    0  0.67479403676E+01  0.61959805806E+02  0.20337468539E+03  0.24672011449E+03  0.12500000000E+03 0.  0.
         25    1    1    2    0    0  0.23078577029E+02  0.73778464470E+02  0.13129289047E+03  0.19707538057E+03  0.12500000000E+03 0.  0.
</event>
<event>
 5    0  0.5691975E-005  0.3647743E+03  0.7546771E-02  0.1056709E+00
         21   -1    0    0  502  501  0.00000000000E+00  0.00000000000E+00  0.12431230564E+03  0.12431230564E+03  0.00000000000E+00 0.  1.
         21   -1    0    0  501  502 -0.00000000000E+00 -0.00000000000E+00 -0.10703709487E+04  0.10703709487E+04  0.00000000000E+00 0.  1.
         25    1    1    2    0    0 -0.14263862617E+03  0.51822845083E+01 -0.10191647194E+03  0.21537084529E+03  0.12500000000E+03 0.  0.
         25    1    1    2    0    0  0.62598041161E+02  0.15099352683E+03 -0.15598125654E+03  0.25821059679E+03  0.12500000000E+03 0.  0.
         25    1    1    2    0    0  0.80040585012E+02 -0.15617581134E+03 -0.68816091461E+03  0.72110181229E+03  0.12500000000E+03 0.  0.
</event>
<event>
 5    0  0.5691975E-005  0.5872180E+03  0.7546771E-02  0.9932285E-01
         21   -1    0    0  502  501  0.00000000000E+00  0.00000000000E+00  0.31622896711E+03  0.31622896711E+03  0.00000000000E+00 0.  1.
         21   -1    0    0  501  502 -0.00000000000E+00 -0.00000000000E+00 -0.10904282531E+04  0.10904282531E+04  0.00000000000E+00 0.  1.
         25    1    1    2    0    0  0.79048883029E+02 -0.34836723803E+03 -0.73078970675E+02  0.38545297300E+03  0.12500000000E+03 0.  0.
         25    1    1    2    0    0 -0.18328227237E+03 -0.80531738229E+02 -0.80335900625E+02  0.24931227237E+03  0.12500000000E+03 0.  0.
         25    1    1    2    0    0  0.10423338934E+03  0.42889897626E+03 -0.62078441473E+03  0.77189197486E+03  0.12500000000E+03 0.  0.
</event>
<event>
 5    0  0.5691975E-005  0.5868419E+03  0.7546771E-02  0.9933087E-01
         21   -1    0    0  502  501  0.00000000000E+00  0.00000000000E+00  0.23068333931E+03  0.23068333931E+03  0.00000000000E+00 0.  1.
         21   -1    0    0  501  502 -0.00000000000E+00 -0.00000000000E+00 -0.14928839711E+04  0.14928839711E+04  0.00000000000E+00 0.  1.
         25    1    1    2    0    0  0.17727337586E+03  0.10551442679E+02 -0.14046748979E+03  0.25863738790E+03  0.12500000000E+03 0.  0.
         25    1    1    2    0    0 -0.99301898078E+02  0.30941516140E+03 -0.69155093131E+02  0.35497328910E+03  0.12500000000E+03 0.  0.
         25    1    1    2    0    0 -0.77971477785E+02 -0.31996660408E+03 -0.10525780489E+04  0.11099566334E+04  0.12500000000E+03 0.  0.
</event>
<event>
 5    0  0.5691975E-005  0.2432248E+03  0.7546771E-02  0.1117663E+00
         21   -1    0    0  502  501  0.00000000000E+00  0.00000000000E+00  0.24069039718E+03  0.24069039718E+03  0.00000000000E+00 0. -1.
         21   -1    0    0  501  502 -0.00000000000E+00 -0.00000000000E+00 -0.24578580471E+03  0.24578580471E+03  0.00000000000E+00 0. -1.
         25    1    1    2    0    0 -0.29157309724E+02 -0.12230707639E+03  0.51285057526E+02  0.18456523717E+03  0.12500000000E+03 0.  0.
         25    1    1    2    0    0 -0.34420479395E+02  0.60010343550E+02 -0.33728148021E+02  0.14679440965E+03  0.12500000000E+03 0.  0.
         25    1    1    2    0    0  0.63577789119E+02  0.62296732840E+02 -0.22652317040E+02  0.15511655508E+03  0.12500000000E+03 0.  0.
</event>
<event>
 5    0  0.5691975E-005  0.2275819E+03  0.7546771E-02  0.1128353E+00
         21   -1    0    0  502  501  0.00000000000E+00  0.00000000000E+00  0.11917643430E+03  0.11917643430E+03  0.00000000000E+00 0.  1.
         21   -1    0    0  501  502 -0.00000000000E+00 -0.00000000000E+00 -0.43459522831E+03  0.43459522831E+03  0.00000000000E+00 0.  1.
         25    1    1    2    0    0 -0.52242997634E+02  0.92471913502E+02 -0.80069130107E+02  0.18252794631E+03  0.12500000000E+03 0.  0.
         25    1    1    2    0    0  0.46940095008E+02 -0.83377468266E+02 -0.98961020053E+02  0.18593939395E+03  0.12500000000E+03 0.  0.
         25    1    1    2    0    0  0.53029026265E+01 -0.90944452363E+01 -0.13638864384E+03  0.18530432234E+03  0.12500000000E+03 0.  0.
</event>
<event>
 5    0  0.5691975E-005  0.5863815E+03  0.7546771E-02  0.9934070E-01
         21   -1    0    0  502  501  0.00000000000E+00  0.00000000000E+00  0.34623823018E+03  0.34623823018E+03  0.00000000000E+00 0.  1.
         21   -1    0    0  501  502 -0.00000000000E+00 -0.00000000000E+00 -0.99308301315E+03  0.99308301315E+03  0.00000000000E+00 0.  1.
         25    1    1    2    0    0  0.92056417486E+02  0.40102619650E+03 -0.58192219415E+03  0.72357089102E+03  0.12500000000E+03 0.  0.
         25    1    1    2    0    0 -0.22289413440E+03 -0.27859427599E+03  0.26362292193E+02  0.37896772450E+03  0.12500000000E+03 0.  0.
         25    1    1    2    0    0  0.13083771692E+03 -0.12243192051E+03 -0.91284881010E+02  0.23678262780E+03  0.12500000000E+03 0.  0.
</event>
<event>
 5    0  0.5691975E-005  0.2842224E+03  0.7546771E-02  0.1093405E+00
         21   -1    0    0  502  501  0.00000000000E+00  0.00000000000E+00  0.18807134928E+04  0.18807134928E+04  0.00000000000E+00 0. -1.
         21   -1    0    0  501  502 -0.00000000000E+00 -0.00000000000E+00 -0.42953049361E+02  0.42953049361E+02  0.00000000000E+00 0. -1.
         25    1    1    2    0    0  0.43868974094E+02 -0.22891600383E+01  0.89946779653E+03  0.90917382504E+03  0.12500000000E+03 0.  0.
         25    1    1    2    0    0  0.37549955956E+02 -0.11075437528E+03  0.63868045456E+03  0.66122178872E+03  0.12500000000E+03 0.  0.
         25    1    1    2    0    0 -0.81418930050E+02  0.11304353532E+03  0.29961219232E+03  0.35327092837E+03  0.12500000000E+03 0.  0.
</event>
<event>
 5    0  0.5691975E-005  0.2981366E+03  0.7546771E-02  0.1086176E+00
         21   -1    0    0  502  501  0.00000000000E+00  0.00000000000E+00  0.33459795572E+03  0.33459795572E+03  0.00000000000E+00 0. -1.
         21   -1    0    0  501  502 -0.00000000000E+00 -0.00000000000E+00 -0.26564838739E+03  0.26564838739E+03  0.00000000000E+00 0. -1.
         25    1    1    2    0    0 -0.12613980436E+03 -0.11360900749E+03  0.90197406655E+02  0.22930073919E+03  0.12500000000E+03 0.  0.
         25    1    1    2    0    0  0.87163238377E+01  0.13637684225E+03 -0.58012258998E+02  0.19407482989E+03  0.12500000000E+03 0.  0.
         25    1    1    2    0    0  0.11742348052E+03 -0.22767834762E+02  0.36764420668E+02  0.17687077403E+03  0.12500000000E+03 0.  0.
</event>
<event>
 5    0  0.5691975E-005  0.2370299E+03  0.7546771E-02  0.1121787E+00
         21   -1    0    0  502  501  0.00000000000E+00  0.00000000000E+00  0.31074753035E+02  0.31074753035E+02  0.00000000000E+00 0.  1.
         21   -1    0    0  501  502 -0.00000000000E+00 -0.00000000000E+00 -0.18080006770E+04  0.18080006770E+04  0.00000000000E+00 0.  1.
         25    1    1    2    0    0 -0.75949956747E+02  0.22715737571E+02 -0.37016178128E+03  0.39865918399E+03  0.12500000000E+03 0.  0.
         25    1    1    2    0    0  0.70183201167E+02  0.64306535700E+02 -0.71129701723E+03  0.72844317484E+03  0.12500000000E+03 0.  0.
         25    1    1    2    0    0  0.57667555795E+01 -0.87022273270E+02 -0.69546712544E+03  0.71197307118E+03  0.12500000000E+03 0.  0.
</event>
<event>
 5    0  0.5691975E-005  0.3207525E+03  0.7546771E-02  0.1075303E+00
         21   -1    0    0  502  501  0.00000000000E+00  0.00000000000E+00  0.30160331760E+03  0.30160331760E+03  0.00000000000E+00 0. -1.
         21   -1    0    0  501  502 -0.00000000000E+00 -0.00000000000E+00 -0.34111750708E+03  0.34111750708E+03  0.00000000000E+00 0. -1.
         25    1    1    2    0    0  0.10063681217E+03 -0.68208213076E+02  0.92226710503E+02  0.19725844577E+03  0.12500000000E+03 0.  0.
         25    1    1    2    0    0 -0.22833076537E+02  0.12282721665E+03  0.69756030210E+02  0.18999678494E+03  0.12500000000E+03 0.  0.
         25    1    1    2    0    0 -0.77803735638E+02 -0.54619003578E+02 -0.20149693019E+03  0.25546559398E+03  0.12500000000E+03 0.  0.
</event>
<event>
 5    0  0.5691975E-005  0.3310105E+03  0.7546771E-02  0.1070691E+00
         21   -1    0    0  502  501  0.00000000000E+00  0.00000000000E+00  0.31023934503E+03  0.31023934503E+03  0.00000000000E+00 0. -1.
         21   -1    0    0  501  502 -0.00000000000E+00 -0.00000000000E+00 -0.35317231753E+03  0.35317231753E+03  0.00000000000E+00 0. -1.
         25    1    1    2    0    0  0.12699854611E+03  0.75516467659E+02 -0.18911389355E+03  0.27059274257E+03  0.12500000000E+03 0.  0.
         25    1    1    2    0    0 -0.88414621292E+02 -0.41819222568E+02 -0.39154922771E+02  0.16347507642E+03  0.12500000000E+03 0.  0.
         25    1    1    2    0    0 -0.38583924816E+02 -0.33697245090E+02  0.18533584381E+03  0.22934384357E+03  0.12500000000E+03 0.  0.
</event>
<event>
 5    0  0.5691975E-005  0.3034293E+03  0.7546771E-02  0.1083539E+00
         21   -1    0    0  502  501  0.00000000000E+00  0.00000000000E+00  0.41367774587E+03  0.41367774587E+03  0.00000000000E+00 0.  1.
         21   -1    0    0  501  502 -0.00000000000E+00 -0.00000000000E+00 -0.22256301814E+03  0.22256301814E+03  0.00000000000E+00 0.  1.
         25    1    1    2    0    0 -0.95705484558E+01  0.41495023522E+02 -0.44588193716E+02  0.13937912108E+03  0.12500000000E+03 0.  0.
         25    1    1    2    0    0  0.88932424567E+02  0.75970077152E+02  0.25472667613E+03  0.30690569935E+03  0.12500000000E+03 0.  0.
         25    1    1    2    0    0 -0.79361876111E+02 -0.11746510067E+03 -0.19023754682E+02  0.18995594357E+03  0.12500000000E+03 0.  0.
</event>
<event>
 5    0  0.5691975E-005  0.2589924E+03  0.7546771E-02  0.1107750E+00
         21   -1    0    0  502  501  0.00000000000E+00  0.00000000000E+00  0.13301864537E+03  0.13301864537E+03  0.00000000000E+00 0.  1.
         21   -1    0    0  501  502 -0.00000000000E+00 -0.00000000000E+00 -0.50426819391E+03  0.50426819391E+03  0.00000000000E+00 0.  1.
         25    1    1    2    0    0 -0.54777670539E+02  0.25724351382E+02 -0.23723488690E+03  0.27489584756E+03  0.12500000000E+03 0.  0.
         25    1    1    2    0    0 -0.32754738387E+02  0.85130080448E+01  0.32942984931E+02  0.13362478980E+03  0.12500000000E+03 0.  0.
         25    1    1    2    0    0  0.87532408927E+02 -0.34237359427E+02 -0.16695764657E+03  0.22876620192E+03  0.12500000000E+03 0.  0.
</event>
<event>
 5    0  0.5691975E-005  0.4110526E+03  0.7546771E-02  0.1040018E+00
         21   -1    0    0  502  501  0.00000000000E+00  0.00000000000E+00  0.97457348027E+03  0.97457348027E+03  0.00000000000E+00 0.  1.
         21   -1    0    0  501  502 -0.00000000000E+00 -0.00000000000E+00 -0.17337253870E+03  0.17337253870E+03  0.00000000000E+00 0.  1.
         25    1    1    2    0    0 -0.11637921589E+02 -0.29276100406E+03  0.39623708569E+03  0.50840266993E+03  0.12500000000E+03 0.  0.
         25    1    1    2    0    0 -0.49232451997E+02  0.53646279641E+02 -0.52885165434E+01  0.14475747323E+03  0.12500000000E+03 0.  0.
         25    1    1    2    0    0  0.60870373586E+02  0.23911472442E+03  0.41025237243E+03  0.49478587581E+03  0.12500000000E+03 0.  0.
</event>
<event>
 5    0  0.5910308E-005  0.2999625E+03  0.7546771E-02  0.1085259E+00
         21   -1    0    0  502  501  0.00000000000E+00  0.00000000000E+00  0.31335070776E+03  0.31335070776E+03  0.00000000000E+00 0.  1.
         21   -1    0    0  501  502 -0.00000000000E+00 -0.00000000000E+00 -0.28714633906E+03  0.28714633906E+03  0.00000000000E+00 0.  1.
         25    1    1    2    0    0  0.50019455689E+01 -0.65655473095E+02  0.15646581867E+03  0.21081321832E+03  0.12500000000E+03 0.  0.
         25    1    1    2    0    0 -0.89620295567E+02 -0.21364451078E+02 -0.14804068702E+03  0.21454435942E+03  0.12500000000E+03 0.  0.
         25    1    1    2    0    0  0.84618349998E+02  0.87019924173E+02  0.17779237049E+02  0.17513946908E+03  0.12500000000E+03 0.  0.
</event>
<event>
 5    0  0.5691975E-005  0.4498919E+03  0.7546771E-02  0.1027754E+00
         21   -1    0    0  502  501  0.00000000000E+00  0.00000000000E+00  0.14934822396E+03  0.14934822396E+03  0.00000000000E+00 0. -1.
         21   -1    0    0  501  502 -0.00000000000E+00 -0.00000000000E+00 -0.13552402834E+04  0.13552402834E+04  0.00000000000E+00 0. -1.
         25    1    1    2    0    0  0.12189136514E+02 -0.20958374472E+03 -0.27778745872E+03  0.36995242034E+03  0.12500000000E+03 0.  0.
         25    1    1    2    0    0  0.18072830216E+02 -0.16232086700E+03 -0.55691391359E+03  0.59367735194E+03  0.12500000000E+03 0.  0.
         25    1    1    2    0    0 -0.30261966730E+02  0.37190461171E+03 -0.37119068716E+03  0.54095873510E+03  0.12500000000E+03 0.  0.
</event>
<event>
 5    0  0.5691975E-005  0.2613249E+03  0.7546771E-02  0.1106350E+00
         21   -1    0    0  502  501  0.00000000000E+00  0.00000000000E+00  0.30708516381E+03  0.30708516381E+03  0.00000000000E+00 0. -1.
         21   -1    0    0  501  502 -0.00000000000E+00 -0.00000000000E+00 -0.22238352341E+03  0.22238352341E+03  0.00000000000E+00 0. -1.
         25    1    1    2    0    0 -0.14296647218E+02 -0.43180131835E+02 -0.13587144773E+03  0.19014459817E+03  0.12500000000E+03 0.  0.
         25    1    1    2    0    0 -0.91101257907E+01  0.15499286613E+02  0.12640178350E+03  0.17867745563E+03  0.12500000000E+03 0.  0.
         25    1    1    2    0    0  0.23406773009E+02  0.27680845222E+02  0.94171304624E+02  0.16064663342E+03  0.12500000000E+03 0.  0.
</event>
<event>
 5    0  0.5691975E-005  0.5316076E+03  0.7546771E-02  0.1005843E+00
         21   -1    0    0  502  501  0.00000000000E+00  0.00000000000E+00  0.77594346454E+03  0.77594346454E+03  0.00000000000E+00 0. -1.
         21   -1    0    0  501  502 -0.00000000000E+00 -0.00000000000E+00 -0.36421036259E+03  0.36421036259E+03  0.00000000000E+00 0. -1.
         25    1    1    2    0    0 -0.33720249350E+02 -0.10367564048E+02  0.60990247353E+02  0.14348990164E+03  0.12500000000E+03 0.  0.
         25    1    1    2    0    0 -0.20281165133E+03  0.19504310216E+03  0.53919360249E+03  0.62090991181E+03  0.12500000000E+03 0.  0.
         25    1    1    2    0    0  0.23653190068E+03 -0.18467553811E+03 -0.18845074790E+03  0.37575401368E+03  0.12500000000E+03 0.  0.
</event>
<event>
 5    0  0.5691975E-005  0.4954068E+03  0.7546771E-02  0.1014985E+00
         21   -1    0    0  502  501  0.00000000000E+00  0.00000000000E+00  0.19170785132E+03  0.19170785132E+03  0.00000000000E+00 0.  1.
         21   -1    0    0  501  502 -0.00000000000E+00 -0.00000000000E+00 -0.12802185223E+04  0.12802185223E+04  0.00000000000E+00 0.  1.
         25    1    1    2    0    0 -0.45622062957E+02 -0.65992699863E+02 -0.22486690936E+02  0.15022336813E+03  0.12500000000E+03 0.  0.
         25    1    1    2    0    0 -0.28020177943E+03  0.23759364032E+03 -0.46245420146E+03  0.60369914988E+03  0.12500000000E+03 0.  0.
         25    1    1    2    0    0  0.32582384239E+03 -0.17160094046E+03 -0.60356977857E+03  0.71800385559E+03  0.12500000000E+03 0.  0.
</event>
<event>
 5    0  0.5691975E-005  0.4116814E+03  0.7546771E-02  0.1039808E+00
         21   -1    0    0  502  501  0.00000000000E+00  0.00000000000E+00  0.20389383213E+03  0.20389383213E+03  0.00000000000E+00 0.  1.
         21   -1    0    0  501  502 -0.00000000000E+00 -0.00000000000E+00 -0.83122471204E+03  0.83122471204E+03  0.00000000000E+00 0.  1.
         25    1    1    2    0    0  0.75540624251E+02  0.22482427249E+03 -0.36394184980E+03  0.45202987672E+03  0.12500000000E+03 0.  0.
         25    1    1    2    0    0 -0.55876685165E+01 -0.32310002971E+03 -0.17340653233E+03  0.38745280576E+03  0.12500000000E+03 0.  0.
         25    1    1    2    0    0 -0.69952955734E+02  0.98275757213E+02 -0.89982497783E+02  0.19563586169E+03  0.12500000000E+03 0.  0.
</event>
<event>
 5    0  0.5691975E-005  0.3405448E+03  0.7546771E-02  0.1066564E+00
         21   -1    0    0  502  501  0.00000000000E+00  0.00000000000E+00  0.16733839495E+03  0.16733839495E+03  0.00000000000E+00 0.  1.
         21   -1    0    0  501  502 -0.00000000000E+00 -0.00000000000E+00 -0.69303155282E+03  0.69303155282E+03  0.00000000000E+00 0.  1.
         25    1    1    2    0    0 -0.21654830473E+03  0.35090322767E+02 -0.42685482504E+03  0.49593804119E+03  0.12500000000E+03 0.  0.
         25    1    1    2    0    0  0.15367757835E+03 -0.63249576044E+02 -0.62862072067E+02  0.21724167893E+03  0.12500000000E+03 0.  0.
         25    1    1    2    0    0  0.62870726378E+02  0.28159253277E+02 -0.35976260760E+02  0.14719022766E+03  0.12500000000E+03 0.  0.
</event>
<event>
 5    0  0.5691975E-005  0.3732382E+03  0.7546771E-02  0.1053462E+00
         21   -1    0    0  502  501  0.00000000000E+00  0.00000000000E+00  0.11226463226E+03  0.11226463226E+03  0.00000000000E+00 0. -1.
         21   -1    0    0  501  502 -0.00000000000E+00 -0.00000000000E+00 -0.12408780544E+04  0.12408780544E+04  0.00000000000E+00 0. -1.
         25    1    1    2    0    0  0.21064774376E+03 -0.34202162761E+02 -0.11393202146E+03  0.27230087294E+03  0.12500000000E+03 0.  0.
         25    1    1    2    0    0 -0.45100503289E+02  0.17750954295E+02 -0.20575617030E+03  0.24558044180E+03  0.12500000000E+03 0.  0.
         25    1    1    2    0    0 -0.16554724047E+03  0.16451208466E+02 -0.80892523034E+03  0.83526137189E+03  0.12500000000E+03 0.  0.
</event>
<event>
 5    0  0.5691975E-005  0.4827733E+03  0.7546771E-02  0.1018376E+00
         21   -1    0    0  502  501  0.00000000000E+00  0.00000000000E+00  0.34256156856E+03  0.34256156856E+03  0.00000000000E+00 0. -1.
         21   -1    0    0  501  502 -0.00000000000E+00 -0.00000000000E+00 -0.68037411223E+03  0.68037411223E+03  0.00000000000E+00 0. -1.
         25    1    1    2    0    0 -0.18753357617E+03 -0.27462414781E+03  0.99111357300E+02  0.36882967058E+03  0.12500000000E+03 0.  0.
         25    1    1    2    0    0  0.20930831109E+03  0.26285960800E+03 -0.30509163592E+03  0.47075582728E+03  0.12500000000E+03 0.  0.
         25    1    1    2    0    0 -0.21774734911E+02  0.11764539815E+02 -0.13183226504E+03  0.18335018294E+03  0.12500000000E+03 0.  0.
</event>
<event>
 5    0  0.5691975E-005  0.4019361E+03  0.7546771E-02  0.1043111E+00
         21   -1    0    0  502  501  0.00000000000E+00  0.00000000000E+00  0.18822376420E+04  0.18822376420E+04  0.00000000000E+00 0.  1.
         21   -1    0    0  501  502 -0.00000000000E+00 -0.00000000000E+00 -0.85830087670E+02  0.85830087670E+02  0.00000000000E+00 0.  1.
         25    1    1    2    0    0  0.96765992441E+02 -0.14840288063E+03  0.28791039787E+03  0.36042262619E+03  0.12500000000E+03 0.  0.
         25    1    1    2    0    0  0.14000445979E+03  0.19825823870E+03  0.91056815429E+03  0.95061398138E+03  0.12500000000E+03 0.  0.
         25    1    1    2    0    0 -0.23677045223E+03 -0.49855358072E+02  0.59792900221E+03  0.65703112214E+03  0.12500000000E+03 0.  0.
</event>
<event>
 5    0  0.5691975E-005  0.5021552E+03  0.7546771E-02  0.1013218E+00
         21   -1    0    0  502  501  0.00000000000E+00  0.00000000000E+00  0.30959500042E+03  0.30959500042E+03  0.00000000000E+00 0.  1.
         21   -1    0    0  501  502 -0.00000000000E+00 -0.00000000000E+00 -0.81448303728E+03  0.81448303728E+03  0.00000000000E+00 0.  1.
         25    1    1    2    0    0  0.12178272205E+01  0.22830717654E+02 -0.17553073887E+03  0.21669971172E+03  0.12500000000E+03 0.  0.
         25    1    1    2    0    0 -0.27443534333E+03  0.26197346789E+03 -0.38256916678E+02  0.40128972977E+03  0.12500000000E+03 0.  0.
         25    1    1    2    0    0  0.27321751611E+03 -0.28480418554E+03 -0.29110038131E+03  0.50608859621E+03  0.12500000000E+03 0.  0.
</event>
<event>
 5    0  0.5691975E-005  0.3619140E+03  0.7546771E-02  0.1057829E+00
         21   -1    0    0  502  501  0.00000000000E+00  0.00000000000E+00  0.38851375468E+03  0.38851375468E+03  0.00000000000E+00 0. -1.
         21   -1    0    0  501  502 -0.00000000000E+00 -0.00000000000E+00 -0.33713544285E+03  0.33713544285E+03  0.00000000000E+00 0. -1.
         25    1    1    2    0    0  0.40116691018E+02 -0.18551623780E+03  0.16831489886E+03  0.28280828941E+03  0.12500000000E+03 0.  0.
         25    1    1    2    0    0 -0.15864057902E+03  0.10035873277E+03 -0.16794860934E+02  0.22615431879E+03  0.12500000000E+03 0.  0.
         25    1    1    2    0    0  0.11852388800E+03  0.85157505028E+02 -0.10014172609E+03  0.21668658932E+03  0.12500000000E+03 0.  0.
</event>
<event>
 5    0  0.5691975E-005  0.7373618E+03  0.7546771E-02  0.9655389E-01
         21   -1    0    0  502  501  0.00000000000E+00  0.00000000000E+00  0.63660625224E+03  0.63660625224E+03  0.00000000000E+00 0.  1.
         21   -1    0    0  501  502 -0.00000000000E+00 -0.00000000000E+00 -0.85406379562E+03  0.85406379562E+03  0.00000000000E+00 0.  1.
         25    1    1    2    0    0  0.24463721872E+03 -0.74011201271E+02 -0.55856543872E+03  0.62685355230E+03  0.12500000000E+03 0.  0.
         25    1    1    2    0    0  0.29300622934E+02 -0.97044001907E+02 -0.17789101945E+03  0.23988805642E+03  0.12500000000E+03 0.  0.
         25    1    1    2    0    0 -0.27393784166E+03  0.17105520318E+03  0.51899891479E+03  0.62392843915E+03  0.12500000000E+03 0.  0.
</event>
<event>
 5    0  0.5691975E-005  0.3012473E+03  0.7546771E-02  0.1084619E+00
         21   -1    0    0  502  501  0.00000000000E+00  0.00000000000E+00  0.14026713401E+03  0.14026713401E+03  0.00000000000E+00 0.  1.
         21   -1    0    0  501  502 -0.00000000000E+00 -0.00000000000E+00 -0.64697926024E+03  0.64697926024E+03  0.00000000000E+00 0.  1.
         25    1    1    2    0    0  0.79618172973E+02  0.37680521401E+02  0.69351011177E+01  0.15307504953E+03  0.12500000000E+03 0.  0.
         25    1    1    2    0    0 -0.15444555404E+03 -0.73154016815E+02 -0.22534755033E+03  0.30921102467E+03  0.12500000000E+03 0.  0.
         25    1    1    2    0    0  0.74827381063E+02  0.35473495414E+02 -0.28829967702E+03  0.32496032005E+03  0.12500000000E+03 0.  0.
</event>
<event>
 5    0  0.5691975E-005  0.2376030E+03  0.7546771E-02  0.1121400E+00
         21   -1    0    0  502  501  0.00000000000E+00  0.00000000000E+00  0.75071632453E+02  0.75071632453E+02  0.00000000000E+00 0. -1.
         21   -1    0    0  501  502 -0.00000000000E+00 -0.00000000000E+00 -0.75201741334E+03  0.75201741334E+03  0.00000000000E+00 0. -1.
         25    1    1    2    0    0  0.53203367824E+01 -0.67345517991E+02 -0.14634809641E+03  0.20397669009E+03  0.12500000000E+03 0.  0.
         25    1    1    2    0    0 -0.68839118260E+02 -0.30055125724E+02 -0.32253625704E+03  0.35397284061E+03  0.12500000000E+03 0.  0.
         25    1    1    2    0    0  0.63518781478E+02  0.97400643716E+02 -0.20806142743E+03  0.26913951509E+03  0.12500000000E+03 0.  0.
</event>
<event>
 5    0  0.5691975E-005  0.3858228E+03  0.7546771E-02  0.1048802E+00
         21   -1    0    0  502  501  0.00000000000E+00  0.00000000000E+00  0.28051434427E+03  0.28051434427E+03  0.00000000000E+00 0. -1.
         21   -1    0    0  501  502 -0.00000000000E+00 -0.00000000000E+00 -0.53066519259E+03  0.53066519259E+03  0.00000000000E+00 0. -1.
         25    1    1    2    0    0 -0.13141616447E+03  0.14474132346E+03  0.69278197520E+02  0.24216673523E+03  0.12500000000E+03 0.  0.
         25    1    1    2    0    0 -0.64034406841E+01 -0.23154893567E+03 -0.15099389220E+03  0.30344697913E+03  0.12500000000E+03 0.  0.
         25    1    1    2    0    0  0.13781960515E+03  0.86807612209E+02 -0.16843515364E+03  0.26556582251E+03  0.12500000000E+03 0.  0.
</event>
<event>
 5    0  0.5691975E-005  0.2088204E+03  0.7546771E-02  0.1142504E+00
         21   -1    0    0  502  501  0.00000000000E+00  0.00000000000E+00  0.28094652083E+02  0.28094652083E+02  0.00000000000E+00 0.  1.
         21   -1    0    0  501  502 -0.00000000000E+00 -0.00000000000E+00 -0.15521088761E+04  0.15521088761E+04  0.00000000000E+00 0.  1.
         25    1    1    2    0    0  0.73416741561E+02  0.77519941480E+01 -0.67307391618E+03  0.68855181940E+03  0.12500000000E+03 0.  0.
         25    1    1    2    0    0 -0.83738271971E+01 -0.56425851082E+01 -0.39534500982E+03  0.41475852799E+03  0.12500000000E+03 0.  0.
         25    1    1    2    0    0 -0.65042914364E+02 -0.21094090398E+01 -0.45559529801E+03  0.47689318079E+03  0.12500000000E+03 0.  0.
</event>
<event>
 5    0  0.5691975E-005  0.2879562E+03  0.7546771E-02  0.1091421E+00
         21   -1    0    0  502  501  0.00000000000E+00  0.00000000000E+00  0.28874876272E+03  0.28874876272E+03  0.00000000000E+00 0. -1.
         21   -1    0    0  501  502 -0.00000000000E+00 -0.00000000000E+00 -0.28716587798E+03  0.28716587798E+03  0.00000000000E+00 0. -1.
         25    1    1    2    0    0 -0.61783167442E+02 -0.85774860027E+02 -0.77554156460E+02  0.18114671837E+03  0.12500000000E+03 0.  0.
         25    1    1    2    0    0 -0.71423585894E+02  0.12049924545E+03 -0.11135495268E+02  0.18807018911E+03  0.12500000000E+03 0.  0.
         25    1    1    2    0    0  0.13320675334E+03 -0.34724385426E+02  0.90272536472E+02  0.20669773322E+03  0.12500000000E+03 0.  0.
</event>
<event>
 5    0  0.5691975E-005  0.2363938E+03  0.7546771E-02  0.1122219E+00
         21   -1    0    0  502  501  0.00000000000E+00  0.00000000000E+00  0.92605633986E+03  0.92605633986E+03  0.00000000000E+00 0. -1.
         21   -1    0    0  501  502 -0.00000000000E+00 -0.00000000000E+00 -0.60344092797E+02  0.60344092797E+02  0.00000000000E+00 0. -1.
         25    1    1    2    0    0  0.28159048520E+01  0.31978361246E+02  0.18556633294E+03  0.22603187569E+03  0.12500000000E+03 0.  0.
         25    1    1    2    0    0  0.56408685006E+02  0.78122119356E+02  0.38832591557E+03  0.41917421436E+03  0.12500000000E+03 0.  0.
         25    1    1    2    0    0 -0.59224589858E+02 -0.11010048060E+03  0.29181999855E+03  0.34119434261E+03  0.12500000000E+03 0.  0.
</event>
<event>
 5    0  0.5691975E-005  0.3863985E+03  0.7546771E-02  0.1048594E+00
         21   -1    0    0  502  501  0.00000000000E+00  0.00000000000E+00  0.12923369814E+04  0.12923369814E+04  0.00000000000E+00 0. -1.
         21   -1    0    0  501  502 -0.00000000000E+00 -0.00000000000E+00 -0.11553006111E+03  0.11553006111E+03  0.00000000000E+00 0. -1.
         25    1    1    2    0    0  0.78106759939E+02  0.22795051520E+03  0.33184845565E+03  0.42873126880E+03  0.12500000000E+03 0.  0.
         25    1    1    2    0    0  0.86087621958E+02 -0.24367929306E+03  0.51619279734E+03  0.59065275801E+03  0.12500000000E+03 0.  0.
         25    1    1    2    0    0 -0.16419438190E+03  0.15728777860E+02  0.32876566731E+03  0.38848301572E+03  0.12500000000E+03 0.  0.
</event>
<event>
 5    0  0.5691975E-005  0.3710297E+03  0.7546771E-02  0.1054300E+00
         21   -1    0    0  502  501  0.00000000000E+00  0.00000000000E+00  0.12392804904E+04  0.12392804904E+04  0.00000000000E+00 0. -1.
         21   -1    0    0  501  502 -0.00000000000E+00 -0.00000000000E+00 -0.11108304576E+03  0.11108304576E+03  0.00000000000E+00 0. -1.
         25    1    1    2    0    0 -0.10829255850E+03 -0.14147467354E+03  0.89078345472E+02  0.23516443845E+03  0.12500000000E+03 0.  0.
         25    1    1    2    0    0  0.39247953463E+02 -0.53530823748E+02  0.22369969759E+03  0.26471211843E+03  0.12500000000E+03 0.  0.
         25    1    1    2    0    0  0.69044605039E+02  0.19500549729E+03  0.81541940158E+03  0.85048697929E+03  0.12500000000E+03 0.  0.
</event>
<event>
 5    0  0.5691975E-005  0.4073194E+03  0.7546771E-02  0.1041274E+00
         21   -1    0    0  502  501  0.00000000000E+00  0.00000000000E+00  0.12233959728E+04  0.12233959728E+04  0.00000000000E+00 0. -1.
         21   -1    0    0  501  502 -0.00000000000E+00 -0.00000000000E+00 -0.13561354029E+03  0.13561354029E+03  0.00000000000E+00 0. -1.
         25    1    1    2    0    0 -0.58771510088E+02  0.21255317351E+03  0.42810324648E+03  0.49752420203E+03  0.12500000000E+03 0.  0.
         25    1    1    2    0    0 -0.83746449909E+02  0.84461218114E+02  0.35885778556E+03  0.39818472534E+03  0.12500000000E+03 0.  0.
         25    1    1    2    0    0  0.14251796000E+03 -0.29701439162E+03  0.30082140049E+03  0.46330058573E+03  0.12500000000E+03 0.  0.
</event>
<event>
 5    0  0.5691975E-005  0.3804443E+03  0.7546771E-02  0.1050770E+00
         21   -1    0    0  502  501  0.00000000000E+00  0.00000000000E+00  0.22406274289E+03  0.22406274289E+03  0.00000000000E+00 0. -1.
         21   -1    0    0  501  502 -0.00000000000E+00 -0.00000000000E+00 -0.64597041569E+03  0.64597041569E+03  0.00000000000E+00 0. -1.
         25    1    1    2    0    0 -0.16243592541E+03 -0.21374939666E+03 -0.36532280030E+03  0.47027649618E+03  0.12500000000E+03 0.  0.
         25    1    1    2    0    0  0.74237706257E+02  0.14308685672E+03 -0.97884255016E+02  0.22625519436E+03  0.12500000000E+03 0.  0.
         25    1    1    2    0    0  0.88198219157E+02  0.70662539939E+02  0.41299382516E+02  0.17350146803E+03  0.12500000000E+03 0.  0.
</event>
<event>
 5    0  0.5691975E-005  0.2726890E+03  0.7546771E-02  0.1099750E+00
         21   -1    0    0  502  501  0.00000000000E+00  0.00000000000E+00  0.46192588030E+02  0.46192588030E+02  0.00000000000E+00 0. -1.
         21   -1    0    0  501  502 -0.00000000000E+00 -0.00000000000E+00 -0.16097665785E+04  0.16097665785E+04  0.00000000000E+00 0. -1.
         25    1    1    2    0    0 -0.10444690761E+03  0.11258416275E+03 -0.64608175749E+03  0.67574476511E+03  0.12500000000E+03 0.  0.
         25    1    1    2    0    0  0.10534510738E+03 -0.11711567044E+03 -0.71005900178E+03  0.73798540495E+03  0.12500000000E+03 0.  0.
         25    1    1    2    0    0 -0.89819976663E+00  0.45315076944E+01 -0.20743323120E+03  0.24222899647E+03  0.12500000000E+03 0.  0.
</event>
<event>
 5    0  0.5691975E-005  0.2439847E+03  0.7546771E-02  0.1117166E+00
         21   -1    0    0  502  501  0.00000000000E+00  0.00000000000E+00  0.44953206762E+03  0.44953206762E+03  0.00000000000E+00 0.  1.
         21   -1    0    0  501  502 -0.00000000000E+00 -0.00000000000E+00 -0.13242333358E+03  0.13242333358E+03  0.00000000000E+00 0.  1.
         25    1    1    2    0    0 -0.27696540719E+02 -0.24162272289E+02  0.15868198250E+03  0.20531898437E+03  0.12500000000E+03 0.  0.
         25    1    1    2    0    0  0.65714970638E+02  0.11535591348E+03  0.86404929193E+02  0.20178269482E+03  0.12500000000E+03 0.  0.
         25    1    1    2    0    0 -0.38018429919E+02 -0.91193641192E+02  0.72021822344E+02  0.17485372201E+03  0.12500000000E+03 0.  0.
</event>
<event>
 5    0  0.6072848E-005  0.2742428E+03  0.7546771E-02  0.1098876E+00
         21   -1    0    0  502  501  0.00000000000E+00  0.00000000000E+00  0.11964896239E+03  0.11964896239E+03  0.00000000000E+00 0. -1.
         21   -1    0    0  501  502 -0.00000000000E+00 -0.00000000000E+00 -0.62858135199E+03  0.62858135199E+03  0.00000000000E+00 0. -1.
         25    1    1    2    0    0 -0.91807750663E+02 -0.88328899462E+02 -0.16273243160E+03  0.24153157527E+03  0.12500000000E+03 0.  0.
         25    1    1    2    0    0  0.10659614085E+03  0.29172692221E+02 -0.32592354690E+03  0.36614879713E+03  0.12500000000E+03 0.  0.
         25    1    1    2    0    0 -0.14788390192E+02  0.59156207241E+02 -0.20276411101E+02  0.14054994197E+03  0.12500000000E+03 0.  0.
</event>
<event>
 5    0  0.5691975E-005  0.2542998E+03  0.7546771E-02  0.1110617E+00
         21   -1    0    0  502  501  0.00000000000E+00  0.00000000000E+00  0.17469937414E+02  0.17469937414E+02  0.00000000000E+00 0.  1.
         21   -1    0    0  501  502 -0.00000000000E+00 -0.00000000000E+00 -0.37016968446E+04  0.37016968446E+04  0.00000000000E+00 0.  1.
         25    1    1    2    0    0 -0.94760433688E+02 -0.34810863256E+02 -0.20604349747E+04  0.20666902577E+04  0.12500000000E+03 0.  0.
         25    1    1    2    0    0  0.46583127980E+02  0.42843768329E+02 -0.45709135634E+03  0.47808271704E+03  0.12500000000E+03 0.  0.
         25    1    1    2    0    0  0.48177305708E+02 -0.80329050732E+01 -0.11667005762E+04  0.11743938074E+04  0.12500000000E+03 0.  0.
</event>
<event>
 5    0  0.6387939E-005  0.2676147E+03  0.7546771E-02  0.1102653E+00
         21   -1    0    0  502  501  0.00000000000E+00  0.00000000000E+00  0.44543025635E+03  0.44543025635E+03  0.00000000000E+00 0.  1.
         21   -1    0    0  501  502 -0.00000000000E+00 -0.00000000000E+00 -0.16078300366E+03  0.16078300366E+03  0.00000000000E+00 0.  1.
         25    1    1    2    0    0  0.67331680051E+02 -0.62425349243E+01 -0.14830127872E+02  0.14288966748E+03  0.12500000000E+03 0.  0.
         25    1    1    2    0    0  0.74633410158E+02  0.46262166313E+02  0.85984097058E+02  0.17529574693E+03  0.12500000000E+03 0.  0.
         25    1    1    2    0    0 -0.14196509021E+03 -0.40019631388E+02  0.21349328350E+03  0.28802784559E+03  0.12500000000E+03 0.  0.
</event>
<event>
 5    0  0.5691975E-005  0.5411346E+03  0.7546771E-02  0.1003567E+00
         21   -1    0    0  502  501  0.00000000000E+00  0.00000000000E+00  0.23254327641E+04  0.23254327641E+04  0.00000000000E+00 0.  1.
         21   -1    0    0  501  502 -0.00000000000E+00 -0.00000000000E+00 -0.12592352469E+03  0.12592352469E+03  0.00000000000E+00 0.  1.
         25    1    1    2    0    0 -0.67142849383E+02 -0.26463820793E+03  0.15124883988E+04  0.15420076847E+04  0.12500000000E+03 0.  0.
         25    1    1    2    0    0  0.64614000851E+02 -0.98125346296E+02  0.38346836474E+03  0.42009110851E+03  0.12500000000E+03 0.  0.
         25    1    1    2    0    0  0.25288485314E+01  0.36276355423E+03  0.30355247591E+03  0.48925749558E+03  0.12500000000E+03 0.  0.
</event>
<event>
 5    0  0.5691975E-005  0.2866306E+03  0.7546771E-02  0.1092122E+00
         21   -1    0    0  502  501  0.00000000000E+00  0.00000000000E+00  0.10495445273E+03  0.10495445273E+03  0.00000000000E+00 0. -1.
         21   -1    0    0  501  502 -0.00000000000E+00 -0.00000000000E+00 -0.78278810823E+03  0.78278810823E+03  0.00000000000E+00 0. -1.
         25    1    1    2    0    0 -0.10300614661E+03 -0.11288751511E+03 -0.22795347401E+03  0.30156532231E+03  0.12500000000E+03 0.  0.
         25    1    1    2    0    0  0.14458395518E+03 -0.13821226426E+02 -0.20517795894E+03  0.28074640021E+03  0.12500000000E+03 0.  0.
         25    1    1    2    0    0 -0.41577808567E+02  0.12670874154E+03 -0.24470222255E+03  0.30543083844E+03  0.12500000000E+03 0.  0.
</event>
<event>
 5    0  0.5691975E-005  0.2378803E+03  0.7546771E-02  0.1121213E+00
         21   -1    0    0  502  501  0.00000000000E+00  0.00000000000E+00  0.31370488833E+03  0.31370488833E+03  0.00000000000E+00 0. -1.
         21   -1    0    0  501  502 -0.00000000000E+00 -0.00000000000E+00 -0.18038300437E+03  0.18038300437E+03  0.00000000000E+00 0. -1.
         25    1    1    2    0    0  0.82184621706E+01 -0.24211059660E+02  0.59135922252E+02  0.14062636961E+03  0.12500000000E+03 0.  0.
         25    1    1    2    0    0 -0.25950376696E+02  0.38683912315E+02  0.15373227823E+03  0.20353987445E+03  0.12500000000E+03 0.  0.
         25    1    1    2    0    0  0.17731914526E+02 -0.14472852655E+02 -0.79546316527E+02  0.14992164864E+03  0.12500000000E+03 0.  0.
</event>
<event>
 5    0  0.5691975E-005  0.4279889E+03  0.7546771E-02  0.1034497E+00
         21   -1    0    0  502  501  0.00000000000E+00  0.00000000000E+00  0.51085270057E+03  0.51085270057E+03  0.00000000000E+00 0.  1.
         21   -1    0    0  501  502 -0.00000000000E+00 -0.00000000000E+00 -0.35856609759E+03  0.35856609759E+03  0.00000000000E+00 0.  1.
         25    1    1    2    0    0  0.15951268933E+03 -0.16094956937E+03  0.66838603111E+02  0.26728535464E+03  0.12500000000E+03 0.  0.
         25    1    1    2    0    0 -0.25163236505E+02 -0.14775841635E+03 -0.74617263555E+02  0.20894610333E+03  0.12500000000E+03 0.  0.
         25    1    1    2    0    0 -0.13434945283E+03  0.30870798573E+03  0.16006526342E+03  0.39318734019E+03  0.12500000000E+03 0.  0.
</event>
<event>
 5    0  0.5691975E-005  0.2985259E+03  0.7546771E-02  0.1085980E+00
         21   -1    0    0  502  501  0.00000000000E+00  0.00000000000E+00  0.70152758331E+02  0.70152758331E+02  0.00000000000E+00 0.  1.
         21   -1    0    0  501  502 -0.00000000000E+00 -0.00000000000E+00 -0.12703378537E+04  0.12703378537E+04  0.00000000000E+00 0.  1.
         25    1    1    2    0    0 -0.43682414370E+02 -0.72521115082E+02 -0.47553192519E+03  0.49892191507E+03  0.12500000000E+03 0.  0.
         25    1    1    2    0    0  0.12966693417E+03  0.16293923357E+03 -0.33521947489E+03  0.41395628272E+03  0.12500000000E+03 0.  0.
         25    1    1    2    0    0 -0.85984519795E+02 -0.90418118489E+02 -0.38943369529E+03  0.42761241425E+03  0.12500000000E+03 0.  0.
</event>
<event>
 5    0  0.5691975E-005  0.3875027E+03  0.7546771E-02  0.1048195E+00
         21   -1    0    0  502  501  0.00000000000E+00  0.00000000000E+00  0.25704531744E+03  0.25704531744E+03  0.00000000000E+00 0. -1.
         21   -1    0    0  501  502 -0.00000000000E+00 -0.00000000000E+00 -0.58417059460E+03  0.58417059460E+03  0.00000000000E+00 0. -1.
         25    1    1    2    0    0 -0.12199419602E+02  0.11547792356E+03 -0.13776259974E+02  0.17116881143E+03  0.12500000000E+03 0.  0.
         25    1    1    2    0    0  0.34387580602E+02 -0.32048378443E+03 -0.22858882942E+03  0.41445170372E+03  0.12500000000E+03 0.  0.
         25    1    1    2    0    0 -0.22188161000E+02  0.20500586087E+03 -0.84760187764E+02  0.25559539688E+03  0.12500000000E+03 0.  0.
</event>
<event>
 5    0  0.5691975E-005  0.3066340E+03  0.7546771E-02  0.1081971E+00
         21   -1    0    0  502  501  0.00000000000E+00  0.00000000000E+00  0.83070440349E+02  0.83070440349E+02  0.00000000000E+00 0. -1.
         21   -1    0    0  501  502 -0.00000000000E+00 -0.00000000000E+00 -0.11318634058E+04  0.11318634058E+04  0.00000000000E+00 0. -1.
         25    1    1    2    0    0 -0.82813816314E+02  0.10585959259E+03 -0.77931095175E+03  0.80063408686E+03  0.12500000000E+03 0.  0.
         25    1    1    2    0    0 -0.12984120559E+00 -0.99707420181E+01 -0.58906860011E+02  0.13854403889E+03  0.12500000000E+03 0.  0.
         25    1    1    2    0    0  0.82943657519E+02 -0.95888850571E+02 -0.21057515370E+03  0.27575572041E+03  0.12500000000E+03 0.  0.
</event>
<event>
 5    0  0.5691975E-005  0.2410593E+03  0.7546771E-02  0.1119089E+00
         21   -1    0    0  502  501  0.00000000000E+00  0.00000000000E+00  0.84525156382E+02  0.84525156382E+02  0.00000000000E+00 0.  1.
         21   -1    0    0  501  502 -0.00000000000E+00 -0.00000000000E+00 -0.68748297704E+03  0.68748297704E+03  0.00000000000E+00 0.  1.
         25    1    1    2    0    0 -0.68256584227E+02 -0.52060585598E+02 -0.39821822306E+03  0.42611268350E+03  0.12500000000E+03 0.  0.
         25    1    1    2    0    0  0.25402658416E+02  0.69875436292E+02 -0.10861447754E+03  0.18152128355E+03  0.12500000000E+03 0.  0.
         25    1    1    2    0    0  0.42853925811E+02 -0.17814850694E+02 -0.96125120060E+02  0.16437416637E+03  0.12500000000E+03 0.  0.
</event>
<event>
 5    0  0.5691975E-005  0.3691203E+03  0.7546771E-02  0.1055030E+00
         21   -1    0    0  502  501  0.00000000000E+00  0.00000000000E+00  0.24774646986E+03  0.24774646986E+03  0.00000000000E+00 0. -1.
         21   -1    0    0  501  502 -0.00000000000E+00 -0.00000000000E+00 -0.54995646876E+03  0.54995646876E+03  0.00000000000E+00 0. -1.
         25    1    1    2    0    0  0.15865474622E+03  0.14123267377E+03 -0.19582826207E+03  0.31478834932E+03  0.12500000000E+03 0.  0.
         25    1    1    2    0    0  0.58276655301E+02 -0.36271332327E+01 -0.13841822054E+03  0.19543266981E+03  0.12500000000E+03 0.  0.
         25    1    1    2    0    0 -0.21693140152E+03 -0.13760554054E+03  0.32036483718E+02  0.28748191951E+03  0.12500000000E+03 0.  0.
</event>
<event>
 5    0  0.5691975E-005  0.3092583E+03  0.7546771E-02  0.1080702E+00
         21   -1    0    0  502  501  0.00000000000E+00  0.00000000000E+00  0.54155500824E+02  0.54155500824E+02  0.00000000000E+00 0. -1.
         21   -1    0    0  501  502 -0.00000000000E+00 -0.00000000000E+00 -0.17660382856E+04  0.17660382856E+04  0.00000000000E+00 0. -1.
         25    1    1    2    0    0 -0.57578783744E+02 -0.28236610998E+01 -0.11213122218E+03  0.17754351688E+03  0.12500000000E+03 0.  0.
         25    1    1    2    0    0 -0.10336540672E+03 -0.24130848299E+02 -0.82162110372E+03  0.83782632045E+03  0.12500000000E+03 0.  0.
         25    1    1    2    0    0  0.16094419046E+03  0.26954509398E+02 -0.77813045891E+03  0.80482394914E+03  0.12500000000E+03 0.  0.
</event>
<event>
 5    0  0.6176060E-005  0.6648642E+03  0.7546771E-02  0.9779281E-01
         21   -1    0    0  502  501  0.00000000000E+00  0.00000000000E+00  0.32863010425E+03  0.32863010425E+03  0.00000000000E+00 0.  1.
         21   -1    0    0  501  502 -0.00000000000E+00 -0.00000000000E+00 -0.13451122407E+04  0.13451122407E+04  0.00000000000E+00 0.  1.
         25    1    1    2    0    0  0.35065611776E+03  0.20418490352E+00 -0.34948192623E+03  0.51060980345E+03  0.12500000000E+03 0.  0.
         25    1    1    2    0    0 -0.17181464086E+03 -0.42033244842E+03 -0.41012451392E+03  0.62452122056E+03  0.12500000000E+03 0.  0.
         25    1    1    2    0    0 -0.17884147690E+03  0.42012826352E+03 -0.25687569625E+03  0.53861132089E+03  0.12500000000E+03 0.  0.
</event>
<event>
 5    0  0.5691975E-005  0.3120776E+03  0.7546771E-02  0.1079354E+00
         21   -1    0    0  502  501  0.00000000000E+00  0.00000000000E+00  0.73020722669E+02  0.73020722669E+02  0.00000000000E+00 0.  1.
         21   -1    0    0  501  502 -0.00000000000E+00 -0.00000000000E+00 -0.13337645161E+04  0.13337645161E+04  0.00000000000E+00 0.  1.
         25    1    1    2    0    0  0.44703340424E+02  0.18215091650E+03 -0.21879732255E+03  0.31412515560E+03  0.12500000000E+03 0.  0.
         25    1    1    2    0    0  0.11718495548E+02 -0.11444297886E+03 -0.65262851904E+03  0.67437638038E+03  0.12500000000E+03 0.  0.
         25    1    1    2    0    0 -0.56421835972E+02 -0.67707937641E+02 -0.38931795183E+03  0.41828370278E+03  0.12500000000E+03 0.  0.
</event>
<event>
 5    0  0.5691975E-005  0.3326346E+03  0.7546771E-02  0.1069977E+00
         21   -1    0    0  502  501  0.00000000000E+00  0.00000000000E+00  0.16145122088E+04  0.16145122088E+04  0.00000000000E+00 0. -1.
         21   -1    0    0  501  502 -0.00000000000E+00 -0.00000000000E+00 -0.68532031486E+02  0.68532031486E+02  0.00000000000E+00 0. -1.
         25    1    1    2    0    0 -0.11200334863E+03  0.52482614280E+02  0.40394243602E+03  0.44056062752E+03  0.12500000000E+03 0.  0.
         25    1    1    2    0    0 -0.60357699499E+02  0.23487543834E+02  0.91515447541E+02  0.16791305412E+03  0.12500000000E+03 0.  0.
         25    1    1    2    0    0  0.17236104813E+03 -0.75970158113E+02  0.10505222937E+04  0.10745705586E+04  0.12500000000E+03 0.  0.
</event>
<event>
 5    0  0.5691975E-005  0.2873149E+03  0.7546771E-02  0.1091759E+00
         21   -1    0    0  502  501  0.00000000000E+00  0.00000000000E+00  0.36254554762E+02  0.36254554762E+02  0.00000000000E+00 0.  1.
         21   -1    0    0  501  502 -0.00000000000E+00 -0.00000000000E+00 -0.22769515767E+04  0.22769515767E+04  0.00000000000E+00 0.  1.
         25    1    1    2    0    0 -0.15442024114E+03 -0.11283198160E+03 -0.68117769672E+03  0.71847388363E+03  0.12500000000E+03 0.  0.
         25    1    1    2    0    0  0.12292962924E+03  0.91980166651E+02 -0.10660321291E+04  0.10842608289E+04  0.12500000000E+03 0.  0.
         25    1    1    2    0    0  0.31490611907E+02  0.20851814945E+02 -0.49348719616E+03  0.51047141898E+03  0.12500000000E+03 0.  0.
</event>
<event>
 5    0  0.5691975E-005  0.2823663E+03  0.7546771E-02  0.1094404E+00
         21   -1    0    0  502  501  0.00000000000E+00  0.00000000000E+00  0.26944427644E+03  0.26944427644E+03  0.00000000000E+00 0. -1.
         21   -1    0    0  501  502 -0.00000000000E+00 -0.00000000000E+00 -0.29590798590E+03  0.29590798590E+03  0.00000000000E+00 0. -1.
         25    1    1    2    0    0  0.45207147883E+02  0.69373880650E+02  0.32361548080E+02  0.15339064942E+03  0.12500000000E+03 0.  0.
         25    1    1    2    0    0 -0.25605560065E+02 -0.10368015082E+03  0.11029720658E+03  0.19797901949E+03  0.12500000000E+03 0.  0.
         25    1    1    2    0    0 -0.19601587818E+02  0.34306270167E+02 -0.16912246413E+03  0.21398259343E+03  0.12500000000E+03 0.  0.
</event>
<event>
 5    0  0.5691975E-005  0.3609129E+03  0.7546771E-02  0.1058223E+00
         21   -1    0    0  502  501  0.00000000000E+00  0.00000000000E+00  0.23198017701E+03  0.23198017701E+03  0.00000000000E+00 0. -1.
         21   -1    0    0  501  502 -0.00000000000E+00 -0.00000000000E+00 -0.56150532460E+03  0.56150532460E+03  0.00000000000E+00 0. -1.
         25    1    1    2    0    0  0.10485380125E+03  0.13943317938E+03 -0.12423119368E+03  0.24798048438E+03  0.12500000000E+03 0.  0.
         25    1    1    2    0    0  0.59533546509E+02  0.63049909568E+02  0.49579003119E+02  0.16000816169E+03  0.12500000000E+03 0.  0.
         25    1    1    2    0    0 -0.16438734776E+03 -0.20248308895E+03 -0.25487295703E+03  0.38549685555E+03  0.12500000000E+03 0.  0.
</event>
<event>
 5    0  0.5691975E-005  0.3283539E+03  0.7546771E-02  0.1071868E+00
         21   -1    0    0  502  501  0.00000000000E+00  0.00000000000E+00  0.56278808200E+03  0.56278808200E+03  0.00000000000E+00 0.  1.
         21   -1    0    0  501  502 -0.00000000000E+00 -0.00000000000E+00 -0.19157527010E+03  0.19157527010E+03  0.00000000000E+00 0.  1.
         25    1    1    2    0    0 -0.37909812546E+01  0.11892834561E+03  0.97388962012E+02  0.19816138083E+03  0.12500000000E+03 0.  0.
         25    1    1    2    0    0 -0.10206885785E+03 -0.94697611544E+02  0.33166524852E+03  0.38080510298E+03  0.12500000000E+03 0.  0.
         25    1    1    2    0    0  0.10585983911E+03 -0.24230734070E+02 -0.57841398639E+02  0.17539686829E+03  0.12500000000E+03 0.  0.
</event>
<event>
 5    0  0.5691975E-005  0.2468150E+03  0.7546771E-02  0.1115334E+00
         21   -1    0    0  502  501  0.00000000000E+00  0.00000000000E+00  0.30279590219E+03  0.30279590219E+03  0.00000000000E+00 0.  1.
         21   -1    0    0  501  502 -0.00000000000E+00 -0.00000000000E+00 -0.20118391290E+03  0.20118391290E+03  0.00000000000E+00 0.  1.
         25    1    1    2    0    0 -0.44517723051E+02 -0.57221849988E+02  0.94163409820E+02  0.17247584043E+03  0.12500000000E+03 0.  0.
         25    1    1    2    0    0 -0.53627118137E+02  0.53372501749E+02  0.68291579261E+02  0.16128617901E+03  0.12500000000E+03 0.  0.
         25    1    1    2    0    0  0.98144841188E+02  0.38493482398E+01 -0.60842999793E+02  0.17021779565E+03  0.12500000000E+03 0.  0.
</event>
<event>
 5    0  0.5691975E-005  0.3255185E+03  0.7546771E-02  0.1073137E+00
         21   -1    0    0  502  501  0.00000000000E+00  0.00000000000E+00  0.17598077639E+03  0.17598077639E+03  0.00000000000E+00 0. -1.
         21   -1    0    0  501  502 -0.00000000000E+00 -0.00000000000E+00 -0.60212420611E+03  0.60212420611E+03  0.00000000000E+00 0. -1.
         25    1    1    2    0    0  0.18009228500E+03  0.42315758387E+00 -0.18700490120E+03  0.28814795375E+03  0.12500000000E+03 0.  0.
         25    1    1    2    0    0 -0.11662852123E+03  0.13621547521E+03 -0.65260883461E+02  0.22812463821E+03  0.12500000000E+03 0.  0.
         25    1    1    2    0    0 -0.63463763766E+02 -0.13663863279E+03 -0.17387764506E+03  0.26183239054E+03  0.12500000000E+03 0.  0.
</event>
<event>
 5    0  0.5691975E-005  0.3086438E+03  0.7546771E-02  0.1080998E+00
         21   -1    0    0  502  501  0.00000000000E+00  0.00000000000E+00  0.22438413989E+03  0.22438413989E+03  0.00000000000E+00 0.  1.
         21   -1    0    0  501  502 -0.00000000000E+00 -0.00000000000E+00 -0.42454418349E+03  0.42454418349E+03  0.00000000000E+00 0.  1.
         25    1    1    2    0    0 -0.45968635504E+02 -0.79966678728E+02 -0.19365624916E+03  0.24826503579E+03  0.12500000000E+03 0.  0.
         25    1    1    2    0    0  0.10117975166E+03  0.77423902880E+02  0.11947862187E+03  0.21478348160E+03  0.12500000000E+03 0.  0.
         25    1    1    2    0    0 -0.55211116161E+02  0.25427758475E+01 -0.12598241631E+03  0.18587980599E+03  0.12500000000E+03 0.  0.
</event>
<event>
 5    0  0.5691975E-005  0.4514895E+03  0.7546771E-02  0.1027279E+00
         21   -1    0    0  502  501  0.00000000000E+00  0.00000000000E+00  0.65638959799E+03  0.65638959799E+03  0.00000000000E+00 0. -1.
         21   -1    0    0  501  502 -0.00000000000E+00 -0.00000000000E+00 -0.31055149000E+03  0.31055149000E+03  0.00000000000E+00 0. -1.
         25    1    1    2    0    0 -0.14989820431E+03  0.12399601035E+03  0.45274996963E+03  0.50838176328E+03  0.12500000000E+03 0.  0.
         25    1    1    2    0    0 -0.70673158768E+02 -0.12781184499E+03 -0.51516827669E+02  0.19902147277E+03  0.12500000000E+03 0.  0.
         25    1    1    2    0    0  0.22057136308E+03  0.38158346360E+01 -0.55395033964E+02  0.25953785195E+03  0.12500000000E+03 0.  0.
</event>
<event>
 5    0  0.5691975E-005  0.2767391E+03  0.7546771E-02  0.1097483E+00
         21   -1    0    0  502  501  0.00000000000E+00  0.00000000000E+00  0.21403604754E+03  0.21403604754E+03  0.00000000000E+00 0.  1.
         21   -1    0    0  501  502 -0.00000000000E+00 -0.00000000000E+00 -0.35781125196E+03  0.35781125196E+03  0.00000000000E+00 0.  1.
         25    1    1    2    0    0  0.96464933359E+02  0.38410547235E+02 -0.38289571158E+02  0.16694892862E+03  0.12500000000E+03 0.  0.
         25    1    1    2    0    0 -0.14995584428E+03 -0.32701778541E+02 -0.16372145415E+03  0.25687716150E+03  0.12500000000E+03 0.  0.
         25    1    1    2    0    0  0.53490910925E+02 -0.57087686938E+01  0.58235820881E+02  0.14802120938E+03  0.12500000000E+03 0.  0.
</event>
<event>
 5    0  0.5691975E-005  0.3142541E+03  0.7546771E-02  0.1078325E+00
         21   -1    0    0  502  501  0.00000000000E+00  0.00000000000E+00  0.17614672761E+03  0.17614672761E+03  0.00000000000E+00 0. -1.
         21   -1    0    0  501  502 -0.00000000000E+00 -0.00000000000E+00 -0.56064432091E+03  0.56064432091E+03  0.00000000000E+00 0. -1.
         25    1    1    2    0    0 -0.11511756828E+03  0.57687638019E+02 -0.12818301533E+03  0.22053526594E+03  0.12500000000E+03 0.  0.
         25    1    1    2    0    0 -0.32179266810E+02 -0.10143237281E+03  0.31214232035E+02  0.16710284183E+03  0.12500000000E+03 0.  0.
         25    1    1    2    0    0  0.14729683509E+03  0.43744734788E+02 -0.28752881001E+03  0.34915294075E+03  0.12500000000E+03 0.  0.
</event>
<event>
 5    0  0.5691975E-005  0.2735066E+03  0.7546771E-02  0.1099289E+00
         21   -1    0    0  502  501  0.00000000000E+00  0.00000000000E+00  0.44656144268E+03  0.44656144268E+03  0.00000000000E+00 0.  1.
         21   -1    0    0  501  502 -0.00000000000E+00 -0.00000000000E+00 -0.16751526532E+03  0.16751526532E+03  0.00000000000E+00 0.  1.
         25    1    1    2    0    0  0.95565953260E+02  0.16604996304E+03  0.12707299012E+03  0.26168298850E+03  0.12500000000E+03 0.  0.
         25    1    1    2    0    0 -0.56285112220E+02 -0.63056674359E+02  0.63568061024E+02  0.16373776724E+03  0.12500000000E+03 0.  0.
         25    1    1    2    0    0 -0.39280841039E+02 -0.10299328868E+03  0.88405126211E+02  0.18865595227E+03  0.12500000000E+03 0.  0.
</event>
<event>
 5    0  0.5691975E-005  0.2874060E+03  0.7546771E-02  0.1091711E+00
         21   -1    0    0  502  501  0.00000000000E+00  0.00000000000E+00  0.78436374273E+03  0.78436374273E+03  0.00000000000E+00 0.  1.
         21   -1    0    0  501  502 -0.00000000000E+00 -0.00000000000E+00 -0.10531111828E+03  0.10531111828E+03  0.00000000000E+00 0.  1.
         25    1    1    2    0    0 -0.14825973044E+03  0.12656207294E+03  0.21794141857E+03  0.31799743380E+03  0.12500000000E+03 0.  0.
         25    1    1    2    0    0  0.98742980662E+02 -0.79563305794E+02  0.34373220651E+03  0.38711409901E+03  0.12500000000E+03 0.  0.
         25    1    1    2    0    0  0.49516749778E+02 -0.46998767150E+02  0.11737899936E+03  0.18456332819E+03  0.12500000000E+03 0.  0.
</event>
<event>
 5    0  0.5691975E-005  0.2601357E+03  0.7546771E-02  0.1107062E+00
         21   -1    0    0  502  501  0.00000000000E+00  0.00000000000E+00  0.44610612839E+03  0.44610612839E+03  0.00000000000E+00 0. -1.
         21   -1    0    0  501  502 -0.00000000000E+00 -0.00000000000E+00 -0.15169169829E+03  0.15169169829E+03  0.00000000000E+00 0. -1.
         25    1    1    2    0    0 -0.75833188019E+02  0.42555175345E+02  0.22666055964E+03  0.27305974557E+03  0.12500000000E+03 0.  0.
         25    1    1    2    0    0  0.10621831727E+03 -0.20643155539E+02 -0.21385474735E+02  0.16670575672E+03  0.12500000000E+03 0.  0.
         25    1    1    2    0    0 -0.30385129256E+02 -0.21912019806E+02  0.89139345193E+02  0.15803232439E+03  0.12500000000E+03 0.  0.
</event>
<event>
 5    0  0.5691975E-005  0.2384184E+03  0.7546771E-02  0.1120851E+00
         21   -1    0    0  502  501  0.00000000000E+00  0.00000000000E+00  0.20495605290E+03  0.20495605290E+03  0.00000000000E+00 0. -1.
         21   -1    0    0  501  502 -0.00000000000E+00 -0.00000000000E+00 -0.27734396096E+03  0.27734396096E+03  0.00000000000E+00 0. -1.
         25    1    1    2    0    0  0.55292794939E+02  0.17848906899E+02 -0.18188571692E+02  0.13903848672E+03  0.12500000000E+03 0.  0.
         25    1    1    2    0    0 -0.49480278139E+02 -0.58960936853E+02 -0.12581395684E+03  0.19333608492E+03  0.12500000000E+03 0.  0.
         25    1    1    2    0    0 -0.58125168002E+01  0.41112029955E+02  0.71614620466E+02  0.14992544221E+03  0.12500000000E+03 0.  0.
</event>
<event>
 5    0  0.5691975E-005  0.3069504E+03  0.7546771E-02  0.1081817E+00
         21   -1    0    0  502  501  0.00000000000E+00  0.00000000000E+00  0.27522340996E+03  0.27522340996E+03  0.00000000000E+00 0.  1.
         21   -1    0    0  501  502 -0.00000000000E+00 -0.00000000000E+00 -0.34233474289E+03  0.34233474289E+03  0.00000000000E+00 0.  1.
         25    1    1    2    0    0 -0.19200589734E+03  0.19261890542E+02  0.89573351611E+02  0.24675021856E+03  0.12500000000E+03 0.  0.
         25    1    1    2    0    0  0.10520389401E+03  0.36815935890E+02 -0.11560176891E+03  0.20349948753E+03  0.12500000000E+03 0.  0.
         25    1    1    2    0    0  0.86802003334E+02 -0.56077826432E+02 -0.41082915644E+02  0.16730844676E+03  0.12500000000E+03 0.  0.
</event>
<event>
 5    0  0.5691975E-005  0.2910606E+03  0.7546771E-02  0.1089797E+00
         21   -1    0    0  502  501  0.00000000000E+00  0.00000000000E+00  0.12604621673E+04  0.12604621673E+04  0.00000000000E+00 0. -1.
         21   -1    0    0  501  502 -0.00000000000E+00 -0.00000000000E+00 -0.67210463144E+02  0.67210463144E+02  0.00000000000E+00 0. -1.
         25    1    1    2    0    0  0.10823358841E+02 -0.17618649109E+03  0.36455649406E+03  0.42389298426E+03  0.12500000000E+03 0.  0.
         25    1    1    2    0    0  0.60036038473E+02  0.11274001429E+03  0.27286589505E+03  0.32618312865E+03  0.12500000000E+03 0.  0.
         25    1    1    2    0    0 -0.70859397314E+02  0.63446476802E+02  0.55582931501E+03  0.57759651750E+03  0.12500000000E+03 0.  0.
</event>
<event>
 5    0  0.5691975E-005  0.6096232E+03  0.7546771E-02  0.9885640E-01
         21   -1    0    0  502  501  0.00000000000E+00  0.00000000000E+00  0.35266165369E+03  0.35266165369E+03  0.00000000000E+00 0. -1.
         21   -1    0    0  501  502 -0.00000000000E+00 -0.00000000000E+00 -0.10538159236E+04  0.10538159236E+04  0.00000000000E+00 0. -1.
         25    1    1    2    0    0 -0.27915656962E+02 -0.31270211944E+03 -0.43570983382E+03  0.55138911732E+03  0.12500000000E+03 0.  0.
         25    1    1    2    0    0  0.25856508396E+03  0.41525139880E+03 -0.64302206599E+02  0.50896895841E+03  0.12500000000E+03 0.  0.
         25    1    1    2    0    0 -0.23064942699E+03 -0.10254927936E+03 -0.20114222946E+03  0.34611950154E+03  0.12500000000E+03 0.  0.
</event>
<event>
 5    0  0.5691975E-005  0.2658612E+03  0.7546771E-02  0.1103672E+00
         21   -1    0    0  502  501  0.00000000000E+00  0.00000000000E+00  0.50023546768E+03  0.50023546768E+03  0.00000000000E+00 0. -1.
         21   -1    0    0  501  502 -0.00000000000E+00 -0.00000000000E+00 -0.14129776636E+03  0.14129776636E+03  0.00000000000E+00 0. -1.
         25    1    1    2    0    0  0.12881645558E+03 -0.26907739369E+02  0.22154825307E+03  0.28640239891E+03  0.12500000000E+03 0.  0.
         25    1    1    2    0    0 -0.62463822257E+02 -0.14250564709E+02  0.15207481123E+03  0.20701825016E+03  0.12500000000E+03 0.  0.
         25    1    1    2    0    0 -0.66352633318E+02  0.41158304078E+02 -0.14685362983E+02  0.14811258498E+03  0.12500000000E+03 0.  0.
</event>
<event>
 5    0  0.5691975E-005  0.2808095E+03  0.7546771E-02  0.1095248E+00
         21   -1    0    0  502  501  0.00000000000E+00  0.00000000000E+00  0.48533835869E+03  0.48533835869E+03  0.00000000000E+00 0. -1.
         21   -1    0    0  501  502 -0.00000000000E+00 -0.00000000000E+00 -0.16247216078E+03  0.16247216078E+03  0.00000000000E+00 0. -1.
         25    1    1    2    0    0 -0.44547893301E+02  0.11451525915E+03  0.44271709351E+02  0.18078507578E+03  0.12500000000E+03 0.  0.
         25    1    1    2    0    0 -0.23207252873E+02 -0.13258960536E+03  0.26584055365E+03  0.32313275910E+03  0.12500000000E+03 0.  0.
         25    1    1    2    0    0  0.67755146174E+02  0.18074346205E+02  0.12753934908E+02  0.14389268459E+03  0.12500000000E+03 0.  0.
</event>
<event>
 5    0  0.5691975E-005  0.2517937E+03  0.7546771E-02  0.1112176E+00
         21   -1    0    0  502  501  0.00000000000E+00  0.00000000000E+00  0.84006800228E+02  0.84006800228E+02  0.00000000000E+00 0.  1.
         21   -1    0    0  501  502 -0.00000000000E+00 -0.00000000000E+00 -0.75470138315E+03  0.75470138315E+03  0.00000000000E+00 0.  1.
         25    1    1    2    0    0  0.28487745199E+02  0.66647894532E+02 -0.14495512814E+03  0.20467164593E+03  0.12500000000E+03 0.  0.
         25    1    1    2    0    0  0.49689408290E+02 -0.13339990096E+03 -0.32497704390E+03  0.37616439216E+03  0.12500000000E+03 0.  0.
         25    1    1    2    0    0 -0.78177153489E+02  0.66752006433E+02 -0.20076241089E+03  0.25787214529E+03  0.12500000000E+03 0.  0.
</event>
<event>
 5    0  0.5691975E-005  0.2472451E+03  0.7546771E-02  0.1115058E+00
         21   -1    0    0  502  501  0.00000000000E+00  0.00000000000E+00  0.45953007553E+02  0.45953007553E+02  0.00000000000E+00 0. -1.
         21   -1    0    0  501  502 -0.00000000000E+00 -0.00000000000E+00 -0.13302746174E+04  0.13302746174E+04  0.00000000000E+00 0. -1.
         25    1    1    2    0    0 -0.12792150315E+02  0.77701896635E+02 -0.16529445620E+03  0.22169456714E+03  0.12500000000E+03 0.  0.
         25    1    1    2    0    0  0.45687005945E+02 -0.62842651971E+02 -0.71795828598E+03  0.73288853302E+03  0.12500000000E+03 0.  0.
         25    1    1    2    0    0 -0.32894855630E+02 -0.14859244664E+02 -0.40106886769E+03  0.42164452482E+03  0.12500000000E+03 0.  0.
</event>
<event>
 5    0  0.5833142E-005  0.2939081E+03  0.7546771E-02  0.1088326E+00
         21   -1    0    0  502  501  0.00000000000E+00  0.00000000000E+00  0.37018683852E+03  0.37018683852E+03  0.00000000000E+00 0. -1.
         21   -1    0    0  501  502 -0.00000000000E+00 -0.00000000000E+00 -0.23334690636E+03  0.23334690636E+03  0.00000000000E+00 0. -1.
         25    1    1    2    0    0  0.44943724003E+02  0.12545822603E+03 -0.23814608734E+02  0.18426025181E+03  0.12500000000E+03 0.  0.
         25    1    1    2    0    0 -0.86172737866E+02 -0.97094481122E+02 -0.33196801203E+02  0.18324875614E+03  0.12500000000E+03 0.  0.
         25    1    1    2    0    0  0.41229013862E+02 -0.28363744912E+02  0.19385134210E+03  0.23602473693E+03  0.12500000000E+03 0.  0.
</event>
<event>
 5    0  0.5691975E-005  0.2448208E+03  0.7546771E-02  0.1116622E+00
         21   -1    0    0  502  501  0.00000000000E+00  0.00000000000E+00  0.24627892465E+03  0.24627892465E+03  0.00000000000E+00 0.  1.
         21   -1    0    0  501  502 -0.00000000000E+00 -0.00000000000E+00 -0.24337130991E+03  0.24337130991E+03  0.00000000000E+00 0.  1.
         25    1    1    2    0    0 -0.65346927660E+02  0.26469141677E+02 -0.17930502459E+02  0.14462827986E+03  0.12500000000E+03 0.  0.
         25    1    1    2    0    0  0.47718260510E+02 -0.12401283232E+03 -0.92982311278E+01  0.18266820212E+03  0.12500000000E+03 0.  0.
         25    1    1    2    0    0  0.17628667150E+02  0.97543690639E+02  0.30136348329E+02  0.16235375259E+03  0.12500000000E+03 0.  0.
</event>
<event>
 5    0  0.5691975E-005  0.4278462E+03  0.7546771E-02  0.1034543E+00
         21   -1    0    0  502  501  0.00000000000E+00  0.00000000000E+00  0.47879262743E+03  0.47879262743E+03  0.00000000000E+00 0. -1.
         21   -1    0    0  501  502 -0.00000000000E+00 -0.00000000000E+00 -0.38232072345E+03  0.38232072345E+03  0.00000000000E+00 0. -1.
         25    1    1    2    0    0  0.85350765802E+02 -0.22264481538E+01 -0.14929008280E+03  0.21260818215E+03  0.12500000000E+03 0.  0.
         25    1    1    2    0    0 -0.11291306670E+03 -0.23367710126E+03  0.52412934722E+01  0.28810904089E+03  0.12500000000E+03 0.  0.
         25    1    1    2    0    0  0.27562300897E+02  0.23590354941E+03  0.24052069330E+03  0.36039612784E+03  0.12500000000E+03 0.  0.
</event>
<event>
 5    0  0.5691975E-005  0.2667668E+03  0.7546771E-02  0.1103144E+00
         21   -1    0    0  502  501  0.00000000000E+00  0.00000000000E+00  0.32561076425E+03  0.32561076425E+03  0.00000000000E+00 0. -1.
         21   -1    0    0  501  502 -0.00000000000E+00 -0.00000000000E+00 -0.21855697245E+03  0.21855697245E+03  0.00000000000E+00 0. -1.
         25    1    1    2    0    0  0.27557274855E+00 -0.20955151737E+02  0.11398857105E+02  0.12725615218E+03  0.12500000000E+03 0.  0.
         25    1    1    2    0    0 -0.89265149278E+02 -0.46357111225E+02  0.16986359486E+03  0.23365763308E+03  0.12500000000E+03 0.  0.
         25    1    1    2    0    0  0.88989576529E+02  0.67312262962E+02 -0.74208660166E+02  0.18325395144E+03  0.12500000000E+03 0.  0.
</event>
<event>
 5    0  0.5691975E-005  0.2263921E+03  0.7546771E-02  0.1129205E+00
         21   -1    0    0  502  501  0.00000000000E+00  0.00000000000E+00  0.92173282290E+03  0.92173282290E+03  0.00000000000E+00 0.  1.
         21   -1    0    0  501  502 -0.00000000000E+00 -0.00000000000E+00 -0.55605472910E+02  0.55605472910E+02  0.00000000000E+00 0.  1.
         25    1    1    2    0    0  0.86480941656E+02  0.41874395644E+02  0.25019471347E+03  0.29572759920E+03  0.12500000000E+03 0.  0.
         25    1    1    2    0    0 -0.25028287801E+02  0.34541999326E+02  0.30747935519E+03  0.33464625917E+03  0.12500000000E+03 0.  0.
         25    1    1    2    0    0 -0.61452653855E+02 -0.76416394970E+02  0.30845328133E+03  0.34696443744E+03  0.12500000000E+03 0.  0.
</event>
<event>
 5    0  0.5691975E-005  0.3609568E+03  0.7546771E-02  0.1058206E+00
         21   -1    0    0  502  501  0.00000000000E+00  0.00000000000E+00  0.12569886418E+03  0.12569886418E+03  0.00000000000E+00 0. -1.
         21   -1    0    0  501  502 -0.00000000000E+00 -0.00000000000E+00 -0.10365233537E+04  0.10365233537E+04  0.00000000000E+00 0. -1.
         25    1    1    2    0    0  0.55857382107E+02  0.35226425369E+02 -0.65733038877E+03  0.67236090620E+03  0.12500000000E+03 0.  0.
         25    1    1    2    0    0 -0.15726439892E+03  0.77259569287E+02 -0.86069586406E+02  0.23180618180E+03  0.12500000000E+03 0.  0.
         25    1    1    2    0    0  0.10140701681E+03 -0.11248599466E+03 -0.16742451431E+03  0.25805512986E+03  0.12500000000E+03 0.  0.
</event>
<event>
 5    0  0.5691975E-005  0.2595722E+03  0.7546771E-02  0.1107401E+00
         21   -1    0    0  502  501  0.00000000000E+00  0.00000000000E+00  0.10704511094E+03  0.10704511094E+03  0.00000000000E+00 0.  1.
         21   -1    0    0  501  502 -0.00000000000E+00 -0.00000000000E+00 -0.62943315588E+03  0.62943315588E+03  0.00000000000E+00 0.  1.
         25    1    1    2    0    0 -0.70556049780E+02  0.56638421348E+02 -0.23178069374E+03  0.27844812250E+03  0.12500000000E+03 0.  0.
         25    1    1    2    0    0  0.28225126834E+02 -0.10534081438E+03 -0.40000939645E+02  0.17064120291E+03  0.12500000000E+03 0.  0.
         25    1    1    2    0    0  0.42330922947E+02  0.48702393034E+02 -0.25060641155E+03  0.28738894140E+03  0.12500000000E+03 0.  0.
</event>
<event>
 5    0  0.5691975E-005  0.5207044E+03  0.7546771E-02  0.1008512E+00
         21   -1    0    0  502  501  0.00000000000E+00  0.00000000000E+00  0.50862900274E+03  0.50862900274E+03  0.00000000000E+00 0. -1.
         21   -1    0    0  501  502 -0.00000000000E+00 -0.00000000000E+00 -0.53306645852E+03  0.53306645852E+03  0.00000000000E+00 0. -1.
         25    1    1    2    0    0  0.34279441590E+03  0.39491863681E+02  0.14553356762E+03  0.39480708982E+03  0.12500000000E+03 0.  0.
         25    1    1    2    0    0 -0.90004069308E+02  0.13335427270E+03  0.93354061786E+02  0.22410728545E+03  0.12500000000E+03 0.  0.
         25    1    1    2    0    0 -0.25279034659E+03 -0.17284613638E+03 -0.26332508518E+03  0.42278108600E+03  0.12500000000E+03 0.  0.
</event>
<event>
 5    0  0.5691975E-005  0.2855840E+03  0.7546771E-02  0.1092678E+00
         21   -1    0    0  502  501  0.00000000000E+00  0.00000000000E+00  0.19884811289E+03  0.19884811289E+03  0.00000000000E+00 0. -1.
         21   -1    0    0  501  502 -0.00000000000E+00 -0.00000000000E+00 -0.41015344282E+03  0.41015344282E+03  0.00000000000E+00 0. -1.
         25    1    1    2    0    0  0.44430337554E+01 -0.12332237068E+03  0.21232722575E+01  0.17566347356E+03  0.12500000000E+03 0.  0.
         25    1    1    2    0    0 -0.73404361619E+02  0.62195102372E+02  0.13547565020E+02  0.15831919524E+03  0.12500000000E+03 0.  0.
         25    1    1    2    0    0  0.68961327864E+02  0.61127268309E+02 -0.22697616721E+03  0.27501888690E+03  0.12500000000E+03 0.  0.
</event>
<event>
 5    0  0.5691975E-005  0.2571401E+03  0.7546771E-02  0.1108874E+00
         21   -1    0    0  502  501  0.00000000000E+00  0.00000000000E+00  0.54695911673E+03  0.54695911673E+03  0.00000000000E+00 0. -1.
         21   -1    0    0  501  502 -0.00000000000E+00 -0.00000000000E+00 -0.12088847164E+03  0.12088847164E+03  0.00000000000E+00 0. -1.
         25    1    1    2    0    0 -0.89863805817E+01  0.11907445236E+03  0.12373058114E+03  0.21258818629E+03  0.12500000000E+03 0.  0.
         25    1    1    2    0    0 -0.83024556070E+02 -0.10775747316E+03  0.16321594601E+03  0.24651408675E+03  0.12500000000E+03 0.  0.
         25    1    1    2    0    0  0.92010936651E+02 -0.11316979196E+02  0.13912411794E+03  0.20874531533E+03  0.12500000000E+03 0.  0.
</event>
<event>
 5    0  0.5691975E-005  0.2265983E+03  0.7546771E-02  0.1129057E+00
         21   -1    0    0  502  501  0.00000000000E+00  0.00000000000E+00  0.16767782422E+02  0.16767782422E+02  0.00000000000E+00 0.  1.
         21   -1    0    0  501  502 -0.00000000000E+00 -0.00000000000E+00 -0.30622279238E+04  0.30622279238E+04  0.00000000000E+00 0.  1.
         25    1    1    2    0    0  0.25133850719E+02  0.82837905457E+02 -0.10808688366E+04  0.10915110036E+04  0.12500000000E+03 0.  0.
         25    1    1    2    0    0  0.14795883362E+02  0.25613614069E+02 -0.73063865828E+03  0.74184420491E+03  0.12500000000E+03 0.  0.
         25    1    1    2    0    0 -0.39929734081E+02 -0.10845151953E+03 -0.12339526465E+04  0.12456404977E+04  0.12500000000E+03 0.  0.
</event>
<event>
 5    0  0.5691975E-005  0.3013177E+03  0.7546771E-02  0.1084584E+00
         21   -1    0    0  502  501  0.00000000000E+00  0.00000000000E+00  0.11268166523E+04  0.11268166523E+04  0.00000000000E+00 0.  1.
         21   -1    0    0  501  502 -0.00000000000E+00 -0.00000000000E+00 -0.80574207486E+02  0.80574207486E+02  0.00000000000E+00 0.  1.
         25    1    1    2    0    0 -0.18743015954E+03  0.18521208248E+02  0.22445205003E+03  0.31855426951E+03  0.12500000000E+03 0.  0.
         25    1    1    2    0    0  0.15520547010E+03 -0.46504207153E+02  0.45204014963E+03  0.49620225323E+03  0.12500000000E+03 0.  0.
         25    1    1    2    0    0  0.32224689438E+02  0.27982998904E+02  0.36975024520E+03  0.39263433709E+03  0.12500000000E+03 0.  0.
</event>
<event>
 5    0  0.5691975E-005  0.3431323E+03  0.7546771E-02  0.1065470E+00
         21   -1    0    0  502  501  0.00000000000E+00  0.00000000000E+00  0.32957055863E+03  0.32957055863E+03  0.00000000000E+00 0. -1.
         21   -1    0    0  501  502 -0.00000000000E+00 -0.00000000000E+00 -0.35725215993E+03  0.35725215993E+03  0.00000000000E+00 0. -1.
         25    1    1    2    0    0 -0.81730647903E+02 -0.96706183507E+02 -0.50795042659E+02  0.18503275681E+03  0.12500000000E+03 0.  0.
         25    1    1    2    0    0 -0.67372763124E+02  0.12061357416E+03 -0.15083091113E+03  0.23971167522E+03  0.12500000000E+03 0.  0.
         25    1    1    2    0    0  0.14910341103E+03 -0.23907390657E+02  0.17394435249E+03  0.26207828653E+03  0.12500000000E+03 0.  0.
</event>
<event>
 5    0  0.5691975E-005  0.3950112E+03  0.7546771E-02  0.1045521E+00
         21   -1    0    0  502  501  0.00000000000E+00  0.00000000000E+00  0.15855064931E+03  0.15855064931E+03  0.00000000000E+00 0. -1.
         21   -1    0    0  501  502 -0.00000000000E+00 -0.00000000000E+00 -0.98412637163E+03  0.98412637163E+03  0.00000000000E+00 0. -1.
         25    1    1    2    0    0  0.44691396634E+02 -0.12347790551E+02 -0.43860342892E+03  0.45841875695E+03  0.12500000000E+03 0.  0.
         25    1    1    2    0    0 -0.11691866661E+03 -0.14242960880E+03 -0.41479505390E+03  0.47078243893E+03  0.12500000000E+03 0.  0.
         25    1    1    2    0    0  0.72227269975E+02  0.15477739936E+03  0.27822760507E+02  0.21347582505E+03  0.12500000000E+03 0.  0.
</event>
<event>
 5    0  0.5691975E-005  0.6643450E+03  0.7546771E-02  0.9780228E-01
         21   -1    0    0  502  501  0.00000000000E+00  0.00000000000E+00  0.22027127176E+03  0.22027127176E+03  0.00000000000E+00 0. -1.
         21   -1    0    0  501  502 -0.00000000000E+00 -0.00000000000E+00 -0.20036850182E+04  0.20036850182E+04  0.00000000000E+00 0. -1.
         25    1    1    2    0    0 -0.23015828443E+03  0.24084543123E+03 -0.51934190581E+03  0.62953981031E+03  0.12500000000E+03 0.  0.
         25    1    1    2    0    0  0.34640872012E+03 -0.45778935624E+03 -0.11583121588E+04  0.12988002746E+04  0.12500000000E+03 0.  0.
         25    1    1    2    0    0 -0.11625043569E+03  0.21694392502E+03 -0.10575968187E+03  0.29561620509E+03  0.12500000000E+03 0.  0.
</event>
<event>
 5    0  0.5691975E-005  0.2787725E+03  0.7546771E-02  0.1096361E+00
         21   -1    0    0  502  501  0.00000000000E+00  0.00000000000E+00  0.79383546073E+03  0.79383546073E+03  0.00000000000E+00 0. -1.
         21   -1    0    0  501  502 -0.00000000000E+00 -0.00000000000E+00 -0.97896972327E+02  0.97896972327E+02  0.00000000000E+00 0. -1.
         25    1    1    2    0    0 -0.37459592990E+02  0.94182053276E+02  0.41477680653E+03  0.44490255057E+03  0.12500000000E+03 0.  0.
         25    1    1    2    0    0 -0.87544020554E+02 -0.52412958481E+02  0.97566473935E+02  0.18856110571E+03  0.12500000000E+03 0.  0.
         25    1    1    2    0    0  0.12500361354E+03 -0.41769094796E+02  0.18359520793E+03  0.25826877677E+03  0.12500000000E+03 0.  0.
</event>
<event>
 5    0  0.5691975E-005  0.2444572E+03  0.7546771E-02  0.1116859E+00
         21   -1    0    0  502  501  0.00000000000E+00  0.00000000000E+00  0.16160740464E+03  0.16160740464E+03  0.00000000000E+00 0. -1.
         21   -1    0    0  501  502 -0.00000000000E+00 -0.00000000000E+00 -0.36978085379E+03  0.36978085379E+03  0.00000000000E+00 0. -1.
         25    1    1    2    0    0 -0.12971024140E+02 -0.82168307336E+02 -0.21764969895E+03  0.26441684827E+03  0.12500000000E+03 0.  0.
         25    1    1    2    0    0  0.14004644930E+02  0.54235720016E+02 -0.10313731331E+02  0.13736453858E+03  0.12500000000E+03 0.  0.
         25    1    1    2    0    0 -0.10336207899E+01  0.27932587320E+02  0.19789981133E+02  0.12960687158E+03  0.12500000000E+03 0.  0.
</event>
<event>
 5    0  0.5691975E-005  0.4323559E+03  0.7546771E-02  0.1033118E+00
         21   -1    0    0  502  501  0.00000000000E+00  0.00000000000E+00  0.48906810493E+03  0.48906810493E+03  0.00000000000E+00 0. -1.
         21   -1    0    0  501  502 -0.00000000000E+00 -0.00000000000E+00 -0.38221996146E+03  0.38221996146E+03  0.00000000000E+00 0. -1.
         25    1    1    2    0    0  0.58178581319E+02  0.20086549494E+02 -0.54862267068E+02  0.14974339766E+03  0.12500000000E+03 0.  0.
         25    1    1    2    0    0  0.24543047876E+03  0.13085283558E+03 -0.40240269241E+02  0.30757578538E+03  0.12500000000E+03 0.  0.
         25    1    1    2    0    0 -0.30360906008E+03 -0.15093938507E+03  0.20195067977E+03  0.41396888336E+03  0.12500000000E+03 0.  0.
</event>
<event>
 5    0  0.5691975E-005  0.3176112E+03  0.7546771E-02  0.1076754E+00
         21   -1    0    0  502  501  0.00000000000E+00  0.00000000000E+00  0.43419614723E+03  0.43419614723E+03  0.00000000000E+00 0.  1.
         21   -1    0    0  501  502 -0.00000000000E+00 -0.00000000000E+00 -0.23233014540E+03  0.23233014540E+03  0.00000000000E+00 0.  1.
         25    1    1    2    0    0  0.21128113963E+02 -0.12411877347E+03 -0.73982698465E+02  0.19222462589E+03  0.12500000000E+03 0.  0.
         25    1    1    2    0    0  0.59702160111E+02 -0.41029030127E+02  0.39421823070E+02  0.14975583251E+03  0.12500000000E+03 0.  0.
         25    1    1    2    0    0 -0.80830274074E+02  0.16514780360E+03  0.23642687722E+03  0.32454583423E+03  0.12500000000E+03 0.  0.
</event>
<event>
 5    0  0.5691975E-005  0.4334039E+03  0.7546771E-02  0.1032790E+00
         21   -1    0    0  502  501  0.00000000000E+00  0.00000000000E+00  0.23332185343E+03  0.23332185343E+03  0.00000000000E+00 0.  1.
         21   -1    0    0  501  502 -0.00000000000E+00 -0.00000000000E+00 -0.80506368142E+03  0.80506368142E+03  0.00000000000E+00 0.  1.
         25    1    1    2    0    0  0.44152594380E+02  0.15718279758E+03  0.22103440506E+01  0.20563503852E+03  0.12500000000E+03 0.  0.
         25    1    1    2    0    0  0.14582907357E+03 -0.18530762930E+03 -0.65146978562E+02  0.27472561764E+03  0.12500000000E+03 0.  0.
         25    1    1    2    0    0 -0.18998166795E+03  0.28124831719E+02 -0.50880519349E+03  0.55802487869E+03  0.12500000000E+03 0.  0.
</event>
<event>
 5    0  0.5691975E-005  0.2920619E+03  0.7546771E-02  0.1089277E+00
         21   -1    0    0  502  501  0.00000000000E+00  0.00000000000E+00  0.98425558736E+03  0.98425558736E+03  0.00000000000E+00 0. -1.
         21   -1    0    0  501  502 -0.00000000000E+00 -0.00000000000E+00 -0.86664637057E+02  0.86664637057E+02  0.00000000000E+00 0. -1.
         25    1    1    2    0    0 -0.11012410150E+02  0.90649046021E+01  0.48982214592E+03  0.50572144537E+03  0.12500000000E+03 0.  0.
         25    1    1    2    0    0 -0.79455954807E+02 -0.77913121466E+02  0.34768558517E+03  0.38586781336E+03  0.12500000000E+03 0.  0.
         25    1    1    2    0    0  0.90468364957E+02  0.68848216864E+02  0.60083219211E+02  0.17933096569E+03  0.12500000000E+03 0.  0.
</event>
<event>
 5    0  0.5691975E-005  0.4446897E+03  0.7546771E-02  0.1029318E+00
         21   -1    0    0  502  501  0.00000000000E+00  0.00000000000E+00  0.23963036320E+03  0.23963036320E+03  0.00000000000E+00 0.  1.
         21   -1    0    0  501  502 -0.00000000000E+00 -0.00000000000E+00 -0.82522490542E+03  0.82522490542E+03  0.00000000000E+00 0.  1.
         25    1    1    2    0    0  0.73264627789E+02 -0.28261663445E+03  0.28132960429E+02  0.31883590014E+03  0.12500000000E+03 0.  0.
         25    1    1    2    0    0  0.44500568891E+02  0.81713093946E+02 -0.27850464052E+03  0.31913502651E+03  0.12500000000E+03 0.  0.
         25    1    1    2    0    0 -0.11776519668E+03  0.20090354050E+03 -0.33522286213E+03  0.42688434198E+03  0.12500000000E+03 0.  0.
</event>
<event>
 5    0  0.5691975E-005  0.3977963E+03  0.7546771E-02  0.1044545E+00
         21   -1    0    0  502  501  0.00000000000E+00  0.00000000000E+00  0.33440227979E+03  0.33440227979E+03  0.00000000000E+00 0.  1.
         21   -1    0    0  501  502 -0.00000000000E+00 -0.00000000000E+00 -0.47320825156E+03  0.47320825156E+03  0.00000000000E+00 0.  1.
         25    1    1    2    0    0 -0.17425867152E+03  0.16537696413E+03 -0.24033688703E+03  0.36208071494E+03  0.12500000000E+03 0.  0.
         25    1    1    2    0    0  0.16432439085E+03  0.11383266911E+02  0.97890392782E+02  0.22877852433E+03  0.12500000000E+03 0.  0.
         25    1    1    2    0    0  0.99342806698E+01 -0.17676023104E+03  0.36405224743E+01  0.21675129207E+03  0.12500000000E+03 0.  0.
</event>
<event>
 5    0  0.5691975E-005  0.3793662E+03  0.7546771E-02  0.1051168E+00
         21   -1    0    0  502  501  0.00000000000E+00  0.00000000000E+00  0.10347942363E+04  0.10347942363E+04  0.00000000000E+00 0.  1.
         21   -1    0    0  501  502 -0.00000000000E+00 -0.00000000000E+00 -0.13907958290E+03  0.13907958290E+03  0.00000000000E+00 0.  1.
         25    1    1    2    0    0 -0.17637605519E+03  0.11950624795E+03  0.27352285799E+03  0.36855123116E+03  0.12500000000E+03 0.  0.
         25    1    1    2    0    0  0.16697812461E+03 -0.67659403947E+02  0.63234953801E+03  0.66929098848E+03  0.12500000000E+03 0.  0.
         25    1    1    2    0    0  0.93979305765E+01 -0.51846844006E+02 -0.10157742634E+02  0.13603159952E+03  0.12500000000E+03 0.  0.
</event>
<event>
 5    0  0.5691975E-005  0.2820824E+03  0.7546771E-02  0.1094557E+00
         21   -1    0    0  502  501  0.00000000000E+00  0.00000000000E+00  0.29290966205E+03  0.29290966205E+03  0.00000000000E+00 0.  1.
         21   -1    0    0  501  502 -0.00000000000E+00 -0.00000000000E+00 -0.27165529879E+03  0.27165529879E+03  0.00000000000E+00 0.  1.
         25    1    1    2    0    0  0.16727893826E+03 -0.13635811569E+02 -0.40103867649E+02  0.21307627447E+03  0.12500000000E+03 0.  0.
         25    1    1    2    0    0 -0.15796426934E+03 -0.24261363436E+02  0.82156194430E+02  0.21889715491E+03  0.12500000000E+03 0.  0.
         25    1    1    2    0    0 -0.93146689221E+01  0.37897175005E+02 -0.20797963524E+02  0.13259153147E+03  0.12500000000E+03 0.  0.
</event>
<event>
 5    0  0.5691975E-005  0.3328181E+03  0.7546771E-02  0.1069897E+00
         21   -1    0    0  502  501  0.00000000000E+00  0.00000000000E+00  0.16330218270E+03  0.16330218270E+03  0.00000000000E+00 0. -1.
         21   -1    0    0  501  502 -0.00000000000E+00 -0.00000000000E+00 -0.67830007486E+03  0.67830007486E+03  0.00000000000E+00 0. -1.
         25    1    1    2    0    0 -0.59238960945E+02  0.69783851272E+02 -0.27605968331E+03  0.31656435229E+03  0.12500000000E+03 0.  0.
         25    1    1    2    0    0  0.12901818237E+03 -0.14493715014E+03  0.67535018805E+01  0.23091790459E+03  0.12500000000E+03 0.  0.
         25    1    1    2    0    0 -0.69779221423E+02  0.75153298873E+02 -0.24569171073E+03  0.29412000067E+03  0.12500000000E+03 0.  0.
</event>
<event>
 5    0  0.5691975E-005  0.2953357E+03  0.7546771E-02  0.1087596E+00
         21   -1    0    0  502  501  0.00000000000E+00  0.00000000000E+00  0.52844556227E+02  0.52844556227E+02  0.00000000000E+00 0. -1.
         21   -1    0    0  501  502 -0.00000000000E+00 -0.00000000000E+00 -0.16505610151E+04  0.16505610151E+04  0.00000000000E+00 0. -1.
         25    1    1    2    0    0 -0.56159183228E+02  0.67900045050E+02 -0.18689976523E+03  0.24149698181E+03  0.12500000000E+03 0.  0.
         25    1    1    2    0    0 -0.17028580385E+01 -0.92265632817E+02 -0.11927932043E+04  0.12028700990E+04  0.12500000000E+03 0.  0.
         25    1    1    2    0    0  0.57862041266E+02  0.24365587766E+02 -0.21802348929E+03  0.25903849051E+03  0.12500000000E+03 0.  0.
</event>
<event>
 5    0  0.5962856E-005  0.3339608E+03  0.7546771E-02  0.1069398E+00
         21   -1    0    0  502  501  0.00000000000E+00  0.00000000000E+00  0.40213082787E+03  0.40213082787E+03  0.00000000000E+00 0. -1.
         21   -1    0    0  501  502 -0.00000000000E+00 -0.00000000000E+00 -0.27734714433E+03  0.27734714433E+03  0.00000000000E+00 0. -1.
         25    1    1    2    0    0  0.90157107169E+02  0.82723570015E+02  0.85965413753E+02  0.19490137345E+03  0.12500000000E+03 0.  0.
         25    1    1    2    0    0  0.10505341351E+02 -0.16331437091E+03 -0.12549879652E+03  0.24115740476E+03  0.12500000000E+03 0.  0.
         25    1    1    2    0    0 -0.10066244852E+03  0.80590800893E+02  0.16431706630E+03  0.24341919400E+03  0.12500000000E+03 0.  0.
</event>
<event>
 5    0  0.5691975E-005  0.3082697E+03  0.7546771E-02  0.1081178E+00
         21   -1    0    0  502  501  0.00000000000E+00  0.00000000000E+00  0.14626484291E+03  0.14626484291E+03  0.00000000000E+00 0.  1.
         21   -1    0    0  501  502 -0.00000000000E+00 -0.00000000000E+00 -0.64971310944E+03  0.64971310944E+03  0.00000000000E+00 0.  1.
         25    1    1    2    0    0  0.62721284406E+02  0.12131436611E+03 -0.40518141939E+03  0.44547515931E+03  0.12500000000E+03 0.  0.
         25    1    1    2    0    0  0.83459527507E+01 -0.94665419860E+02 -0.12640738657E+03  0.20158130872E+03  0.12500000000E+03 0.  0.
         25    1    1    2    0    0 -0.71067237156E+02 -0.26648946254E+02  0.28140539427E+02  0.14892148432E+03  0.12500000000E+03 0.  0.
</event>
<event>
 5    0  0.5691975E-005  0.3478940E+03  0.7546771E-02  0.1063483E+00
         21   -1    0    0  502  501  0.00000000000E+00  0.00000000000E+00  0.15653347545E+03  0.15653347545E+03  0.00000000000E+00 0.  1.
         21   -1    0    0  501  502 -0.00000000000E+00 -0.00000000000E+00 -0.77319065595E+03  0.77319065595E+03  0.00000000000E+00 0.  1.
         25    1    1    2    0    0 -0.20484546210E+02  0.18888414262E+03 -0.23952295252E+02  0.22868219961E+03  0.12500000000E+03 0.  0.
         25    1    1    2    0    0  0.76526639901E+02 -0.32227333107E+02 -0.15160634665E+03  0.21331763162E+03  0.12500000000E+03 0.  0.
         25    1    1    2    0    0 -0.56042093691E+02 -0.15665680952E+03 -0.44109853859E+03  0.48772430018E+03  0.12500000000E+03 0.  0.
</event>
<event>
 5    0  0.5691975E-005  0.2729891E+03  0.7546771E-02  0.1099581E+00
         21   -1    0    0  502  501  0.00000000000E+00  0.00000000000E+00  0.95777065700E+03  0.95777065700E+03  0.00000000000E+00 0.  1.
         21   -1    0    0  501  502 -0.00000000000E+00 -0.00000000000E+00 -0.77808866041E+02  0.77808866041E+02  0.00000000000E+00 0.  1.
         25    1    1    2    0    0 -0.27980907978E+02 -0.65280068280E+01  0.21260017386E+03  0.24829293186E+03  0.12500000000E+03 0.  0.
         25    1    1    2    0    0  0.11848515204E+03 -0.89256827022E+01  0.58858349555E+03  0.61333019680E+03  0.12500000000E+03 0.  0.
         25    1    1    2    0    0 -0.90504244061E+02  0.15453689530E+02  0.78778121540E+02  0.17395639438E+03  0.12500000000E+03 0.  0.
</event>
<event>
 5    0  0.5691975E-005  0.2835528E+03  0.7546771E-02  0.1093764E+00
         21   -1    0    0  502  501  0.00000000000E+00  0.00000000000E+00  0.94681731061E+02  0.94681731061E+02  0.00000000000E+00 0. -1.
         21   -1    0    0  501  502 -0.00000000000E+00 -0.00000000000E+00 -0.84918376549E+03  0.84918376549E+03  0.00000000000E+00 0. -1.
         25    1    1    2    0    0 -0.79161019344E+02 -0.58604121294E+02 -0.93267413911E+02  0.18445790987E+03  0.12500000000E+03 0.  0.
         25    1    1    2    0    0  0.96839211461E+02 -0.78539924097E+02 -0.41150926355E+03  0.44778479936E+03  0.12500000000E+03 0.  0.
         25    1    1    2    0    0 -0.17678192117E+02  0.13714404539E+03 -0.24972535697E+03  0.31162278732E+03  0.12500000000E+03 0.  0.
</event>
<event>
 5    0  0.5691975E-005  0.3693630E+03  0.7546771E-02  0.1054937E+00
         21   -1    0    0  502  501  0.00000000000E+00  0.00000000000E+00  0.16083623643E+04  0.16083623643E+04  0.00000000000E+00 0. -1.
         21   -1    0    0  501  502 -0.00000000000E+00 -0.00000000000E+00 -0.84824799110E+02  0.84824799110E+02  0.00000000000E+00 0. -1.
         25    1    1    2    0    0 -0.25455522103E+02  0.24377843791E+02  0.86772431763E+02  0.15619448706E+03  0.12500000000E+03 0.  0.
         25    1    1    2    0    0 -0.22794922250E+02  0.22752385802E+03  0.69288652663E+03  0.74027255334E+03  0.12500000000E+03 0.  0.
         25    1    1    2    0    0  0.48250444353E+02 -0.25190170181E+03  0.74387860678E+03  0.79672012299E+03  0.12500000000E+03 0.  0.
</event>
<event>
 5    0  0.5691975E-005  0.2913402E+03  0.7546771E-02  0.1089652E+00
         21   -1    0    0  502  501  0.00000000000E+00  0.00000000000E+00  0.39231111213E+03  0.39231111213E+03  0.00000000000E+00 0.  1.
         21   -1    0    0  501  502 -0.00000000000E+00 -0.00000000000E+00 -0.21635656270E+03  0.21635656270E+03  0.00000000000E+00 0.  1.
         25    1    1    2    0    0 -0.18832351289E+03 -0.42682435996E+02  0.83374326339E+02  0.24467082814E+03  0.12500000000E+03 0.  0.
         25    1    1    2    0    0  0.19846454031E+02  0.30252433756E+02 -0.92766928783E+01  0.13046129126E+03  0.12500000000E+03 0.  0.
         25    1    1    2    0    0  0.16847705886E+03  0.12430002240E+02  0.10185691597E+03  0.23353555543E+03  0.12500000000E+03 0.  0.
</event>
<event>
 5    0  0.5691975E-005  0.3213854E+03  0.7546771E-02  0.1075013E+00
         21   -1    0    0  502  501  0.00000000000E+00  0.00000000000E+00  0.46150686602E+03  0.46150686602E+03  0.00000000000E+00 0.  1.
         21   -1    0    0  501  502 -0.00000000000E+00 -0.00000000000E+00 -0.22380716808E+03  0.22380716808E+03  0.00000000000E+00 0.  1.
         25    1    1    2    0    0 -0.94111996647E+02 -0.92544735851E+02  0.31813638441E+02  0.18455000308E+03  0.12500000000E+03 0.  0.
         25    1    1    2    0    0  0.15088553787E+03  0.22186834327E+02  0.26946479019E+03  0.33390863168E+03  0.12500000000E+03 0.  0.
         25    1    1    2    0    0 -0.56773541226E+02  0.70357901523E+02 -0.63578730694E+02  0.16685539933E+03  0.12500000000E+03 0.  0.
</event>
<event>
 5    0  0.5691975E-005  0.3329311E+03  0.7546771E-02  0.1069847E+00
         21   -1    0    0  502  501  0.00000000000E+00  0.00000000000E+00  0.99063624422E+03  0.99063624422E+03  0.00000000000E+00 0.  1.
         21   -1    0    0  501  502 -0.00000000000E+00 -0.00000000000E+00 -0.11189086410E+03  0.11189086410E+03  0.00000000000E+00 0.  1.
         25    1    1    2    0    0 -0.23783375496E+02  0.45156042229E+02  0.37242870398E+03  0.39614751880E+03  0.12500000000E+03 0.  0.
         25    1    1    2    0    0 -0.37781303592E+02  0.18323860204E+03  0.22921791048E+03  0.32120034662E+03  0.12500000000E+03 0.  0.
         25    1    1    2    0    0  0.61564679088E+02 -0.22839464427E+03  0.27709876565E+03  0.38517924291E+03  0.12500000000E+03 0.  0.
</event>
<event>
 5    0  0.5691975E-005  0.3434090E+03  0.7546771E-02  0.1065353E+00
         21   -1    0    0  502  501  0.00000000000E+00  0.00000000000E+00  0.14342053109E+03  0.14342053109E+03  0.00000000000E+00 0.  1.
         21   -1    0    0  501  502 -0.00000000000E+00 -0.00000000000E+00 -0.82226562590E+03  0.82226562590E+03  0.00000000000E+00 0.  1.
         25    1    1    2    0    0  0.17834092112E+03 -0.18958928378E+03 -0.26594474310E+03  0.39255724048E+03  0.12500000000E+03 0.  0.
         25    1    1    2    0    0 -0.12410252482E+03  0.16717219350E+03 -0.17966980088E+03  0.30208312812E+03  0.12500000000E+03 0.  0.
         25    1    1    2    0    0 -0.54238396301E+02  0.22417090283E+02 -0.23323055082E+03  0.27104578839E+03  0.12500000000E+03 0.  0.
</event>
<event>
 5    0  0.5691975E-005  0.4301436E+03  0.7546771E-02  0.1033815E+00
         21   -1    0    0  502  501  0.00000000000E+00  0.00000000000E+00  0.86238463337E+02  0.86238463337E+02  0.00000000000E+00 0. -1.
         21   -1    0    0  501  502 -0.00000000000E+00 -0.00000000000E+00 -0.21454875404E+04  0.21454875404E+04  0.00000000000E+00 0. -1.
         25    1    1    2    0    0 -0.12101727401E+03  0.18095414898E+03 -0.16614328425E+03  0.30102852945E+03  0.12500000000E+03 0.  0.
         25    1    1    2    0    0  0.98589606609E+02 -0.10853756099E+03 -0.62063277092E+03  0.64985409826E+03  0.12500000000E+03 0.  0.
         25    1    1    2    0    0  0.22427667402E+02 -0.72416587994E+02 -0.12724730219E+04  0.12808433760E+04  0.12500000000E+03 0.  0.
</event>
<event>
 5    0  0.5691975E-005  0.3644254E+03  0.7546771E-02  0.1056845E+00
         21   -1    0    0  502  501  0.00000000000E+00  0.00000000000E+00  0.81585127536E+02  0.81585127536E+02  0.00000000000E+00 0.  1.
         21   -1    0    0  501  502 -0.00000000000E+00 -0.00000000000E+00 -0.16278197089E+04  0.16278197089E+04  0.00000000000E+00 0.  1.
         25    1    1    2    0    0 -0.37094696381E+02 -0.18365690677E+02 -0.66497237393E+00  0.13167671503E+03  0.12500000000E+03 0.  0.
         25    1    1    2    0    0  0.10051316422E+03  0.11362142427E+02 -0.57487709350E+03  0.59694276701E+03  0.12500000000E+03 0.  0.
         25    1    1    2    0    0 -0.63418467839E+02  0.70035482499E+01 -0.97069251554E+03  0.98078535443E+03  0.12500000000E+03 0.  0.
</event>
<event>
 5    0  0.5691975E-005  0.4862883E+03  0.7546771E-02  0.1017421E+00
         21   -1    0    0  502  501  0.00000000000E+00  0.00000000000E+00  0.34784511533E+03  0.34784511533E+03  0.00000000000E+00 0. -1.
         21   -1    0    0  501  502 -0.00000000000E+00 -0.00000000000E+00 -0.67983219826E+03  0.67983219826E+03  0.00000000000E+00 0. -1.
         25    1    1    2    0    0  0.15769918244E+02 -0.10433255370E+03  0.35245927545E+02  0.16733573286E+03  0.12500000000E+03 0.  0.
         25    1    1    2    0    0 -0.40204945216E+02  0.41626942577E+03 -0.16063277276E+03  0.46510704159E+03  0.12500000000E+03 0.  0.
         25    1    1    2    0    0  0.24435026973E+02 -0.31193687208E+03 -0.20660023772E+03  0.39523453914E+03  0.12500000000E+03 0.  0.
</event>
<event>
 5    0  0.5691975E-005  0.3056221E+03  0.7546771E-02  0.1082463E+00
         21   -1    0    0  502  501  0.00000000000E+00  0.00000000000E+00  0.20488553057E+03  0.20488553057E+03  0.00000000000E+00 0. -1.
         21   -1    0    0  501  502 -0.00000000000E+00 -0.00000000000E+00 -0.45588811594E+03  0.45588811594E+03  0.00000000000E+00 0. -1.
         25    1    1    2    0    0 -0.50583077304E+02 -0.72136050328E+02  0.42520297569E+02  0.15873006386E+03  0.12500000000E+03 0.  0.
         25    1    1    2    0    0 -0.32768101426E+02  0.18946253604E+02  0.36450065155E+02  0.13559615130E+03  0.12500000000E+03 0.  0.
         25    1    1    2    0    0  0.83351178730E+02  0.53189796724E+02 -0.32997294810E+03  0.36644743136E+03  0.12500000000E+03 0.  0.
</event>
<event>
 5    0  0.5691975E-005  0.3248551E+03  0.7546771E-02  0.1073436E+00
         21   -1    0    0  502  501  0.00000000000E+00  0.00000000000E+00  0.75968486492E+03  0.75968486492E+03  0.00000000000E+00 0.  1.
         21   -1    0    0  501  502 -0.00000000000E+00 -0.00000000000E+00 -0.13891394940E+03  0.13891394940E+03  0.00000000000E+00 0.  1.
         25    1    1    2    0    0  0.10591926056E+03  0.12849456144E+03  0.23676179879E+03  0.31529492771E+03  0.12500000000E+03 0.  0.
         25    1    1    2    0    0  0.83080032387E+01 -0.75805912107E+02 -0.14475752146E+02  0.14713975203E+03  0.12500000000E+03 0.  0.
         25    1    1    2    0    0 -0.11422726379E+03 -0.52688649337E+02  0.39848486887E+03  0.43616413457E+03  0.12500000000E+03 0.  0.
</event>
<event>
 5    0  0.5691975E-005  0.3218744E+03  0.7546771E-02  0.1074790E+00
         21   -1    0    0  502  501  0.00000000000E+00  0.00000000000E+00  0.17620329295E+04  0.17620329295E+04  0.00000000000E+00 0. -1.
         21   -1    0    0  501  502 -0.00000000000E+00 -0.00000000000E+00 -0.58797496459E+02  0.58797496459E+02  0.00000000000E+00 0. -1.
         25    1    1    2    0    0 -0.53824071044E+02 -0.16118133283E+03  0.86506298959E+03  0.89041306630E+03  0.12500000000E+03 0.  0.
         25    1    1    2    0    0 -0.14757317360E+01  0.21087696745E+03  0.63396433639E+03  0.67971100697E+03  0.12500000000E+03 0.  0.
         25    1    1    2    0    0  0.55299802780E+02 -0.49695634619E+02  0.20420810704E+03  0.25070635267E+03  0.12500000000E+03 0.  0.
</event>
<event>
 5    0  0.5691975E-005  0.2358765E+03  0.7546771E-02  0.1122571E+00
         21   -1    0    0  502  501  0.00000000000E+00  0.00000000000E+00  0.26159188622E+03  0.26159188622E+03  0.00000000000E+00 0.  1.
         21   -1    0    0  501  502 -0.00000000000E+00 -0.00000000000E+00 -0.21268908868E+03  0.21268908868E+03  0.00000000000E+00 0.  1.
         25    1    1    2    0    0 -0.23263282260E+02  0.85007574113E+02  0.22846215067E+02  0.15464287084E+03  0.12500000000E+03 0.  0.
         25    1    1    2    0    0 -0.73045796598E+02 -0.66827423118E+02  0.64197782564E+01  0.15958636043E+03  0.12500000000E+03 0.  0.
         25    1    1    2    0    0  0.96309078858E+02 -0.18180150995E+02  0.19636804211E+02  0.16005174363E+03  0.12500000000E+03 0.  0.
</event>
<event>
 5    0  0.5691975E-005  0.3028016E+03  0.7546771E-02  0.1083848E+00
         21   -1    0    0  502  501  0.00000000000E+00  0.00000000000E+00  0.10915520758E+04  0.10915520758E+04  0.00000000000E+00 0. -1.
         21   -1    0    0  501  502 -0.00000000000E+00 -0.00000000000E+00 -0.83998548686E+02  0.83998548686E+02  0.00000000000E+00 0. -1.
         25    1    1    2    0    0  0.60045900345E+02 -0.14239603464E+03  0.42817710934E+03  0.47206226050E+03  0.12500000000E+03 0.  0.
         25    1    1    2    0    0  0.20122034228E+02  0.14393675915E+03  0.13368893902E+03  0.23371011812E+03  0.12500000000E+03 0.  0.
         25    1    1    2    0    0 -0.80167934573E+02 -0.15407245138E+01  0.44568747880E+03  0.46977824590E+03  0.12500000000E+03 0.  0.
</event>
<event>
 5    0  0.5691975E-005  0.2362465E+03  0.7546771E-02  0.1122319E+00
         21   -1    0    0  502  501  0.00000000000E+00  0.00000000000E+00  0.11488441475E+03  0.11488441475E+03  0.00000000000E+00 0. -1.
         21   -1    0    0  501  502 -0.00000000000E+00 -0.00000000000E+00 -0.48581360411E+03  0.48581360411E+03  0.00000000000E+00 0. -1.
         25    1    1    2    0    0 -0.11731427219E+03  0.29718555955E+02 -0.96920045332E+02  0.19915904753E+03  0.12500000000E+03 0.  0.
         25    1    1    2    0    0  0.90787120723E+02  0.16958276256E+02 -0.12230903872E+03  0.19777357097E+03  0.12500000000E+03 0.  0.
         25    1    1    2    0    0  0.26527151464E+02 -0.46676832211E+02 -0.15170010531E+03  0.20376540035E+03  0.12500000000E+03 0.  0.
</event>
<event>
 5    0  0.5691975E-005  0.3414488E+03  0.7546771E-02  0.1066181E+00
         21   -1    0    0  502  501  0.00000000000E+00  0.00000000000E+00  0.11270369553E+03  0.11270369553E+03  0.00000000000E+00 0.  1.
         21   -1    0    0  501  502 -0.00000000000E+00 -0.00000000000E+00 -0.10344582518E+04  0.10344582518E+04  0.00000000000E+00 0.  1.
         25    1    1    2    0    0  0.96328639811E+02 -0.19113345599E+03 -0.18627786498E+03  0.31005749117E+03  0.12500000000E+03 0.  0.
         25    1    1    2    0    0  0.43928252837E+02  0.16255667410E+03 -0.39040690027E+03  0.44316691152E+03  0.12500000000E+03 0.  0.
         25    1    1    2    0    0 -0.14025689265E+03  0.28576781888E+02 -0.34506979098E+03  0.39393754460E+03  0.12500000000E+03 0.  0.
</event>
<event>
 5    0  0.5691975E-005  0.2218724E+03  0.7546771E-02  0.1132495E+00
         21   -1    0    0  502  501  0.00000000000E+00  0.00000000000E+00  0.40283785799E+03  0.40283785799E+03  0.00000000000E+00 0. -1.
         21   -1    0    0  501  502 -0.00000000000E+00 -0.00000000000E+00 -0.12220144544E+03  0.12220144544E+03  0.00000000000E+00 0. -1.
         25    1    1    2    0    0 -0.28807620844E+02 -0.84752101899E+02  0.75784820880E+02  0.17140926717E+03  0.12500000000E+03 0.  0.
         25    1    1    2    0    0 -0.35403678928E+01  0.29304329164E+02  0.34871931970E+02  0.13308767618E+03  0.12500000000E+03 0.  0.
         25    1    1    2    0    0  0.32347988737E+02  0.55447772734E+02  0.16997965970E+03  0.22054236008E+03  0.12500000000E+03 0.  0.
</event>
<event>
 5    0  0.5691975E-005  0.2772825E+03  0.7546771E-02  0.1097183E+00
         21   -1    0    0  502  501  0.00000000000E+00  0.00000000000E+00  0.23048232639E+03  0.23048232639E+03  0.00000000000E+00 0.  1.
         21   -1    0    0  501  502 -0.00000000000E+00 -0.00000000000E+00 -0.33358554482E+03  0.33358554482E+03  0.00000000000E+00 0.  1.
         25    1    1    2    0    0 -0.97317912638E+02  0.62060753400E+02 -0.87647802783E+02  0.19138821951E+03  0.12500000000E+03 0.  0.
         25    1    1    2    0    0 -0.64515898107E+02 -0.88257874803E+02 -0.18583711511E+01  0.16607289700E+03  0.12500000000E+03 0.  0.
         25    1    1    2    0    0  0.16183381075E+03  0.26197121404E+02 -0.13597044500E+02  0.20660675470E+03  0.12500000000E+03 0.  0.
</event>
<event>
 5    0  0.5691975E-005  0.5011976E+03  0.7546771E-02  0.1013467E+00
         21   -1    0    0  502  501  0.00000000000E+00  0.00000000000E+00  0.72922341153E+03  0.72922341153E+03  0.00000000000E+00 0.  1.
         21   -1    0    0  501  502 -0.00000000000E+00 -0.00000000000E+00 -0.34447477859E+03  0.34447477859E+03  0.00000000000E+00 0.  1.
         25    1    1    2    0    0  0.34799908565E+02  0.44220145206E+03  0.31060924800E+03  0.55574838082E+03  0.12500000000E+03 0.  0.
         25    1    1    2    0    0  0.29669856101E+01 -0.17715629036E+03  0.40332744318E+02  0.22055585343E+03  0.12500000000E+03 0.  0.
         25    1    1    2    0    0 -0.37766894175E+02 -0.26504516170E+03  0.33806640629E+02  0.29739395587E+03  0.12500000000E+03 0.  0.
</event>
<event>
 5    0  0.5691975E-005  0.3771936E+03  0.7546771E-02  0.1051976E+00
         21   -1    0    0  502  501  0.00000000000E+00  0.00000000000E+00  0.92724474730E+03  0.92724474730E+03  0.00000000000E+00 0. -1.
         21   -1    0    0  501  502 -0.00000000000E+00 -0.00000000000E+00 -0.15343849328E+03  0.15343849328E+03  0.00000000000E+00 0. -1.
         25    1    1    2    0    0 -0.30076033935E+02  0.56960551392E+02  0.33164374397E+03  0.36022443718E+03  0.12500000000E+03 0.  0.
         25    1    1    2    0    0  0.15046822337E+03 -0.20211129643E+02 -0.45225201187E+02  0.20179072037E+03  0.12500000000E+03 0.  0.
         25    1    1    2    0    0 -0.12039218943E+03 -0.36749421749E+02  0.48738771124E+03  0.51866808302E+03  0.12500000000E+03 0.  0.
</event>
<event>
 5    0  0.5691975E-005  0.2681565E+03  0.7546771E-02  0.1102339E+00
         21   -1    0    0  502  501  0.00000000000E+00  0.00000000000E+00  0.27058024332E+03  0.27058024332E+03  0.00000000000E+00 0. -1.
         21   -1    0    0  501  502 -0.00000000000E+00 -0.00000000000E+00 -0.26575453369E+03  0.26575453369E+03  0.00000000000E+00 0. -1.
         25    1    1    2    0    0  0.49186024719E+02  0.10196792040E+03  0.28322084911E+02  0.17100836913E+03  0.12500000000E+03 0.  0.
         25    1    1    2    0    0 -0.36676433663E+02 -0.16236504476E+03  0.40302979232E+02  0.21203041923E+03  0.12500000000E+03 0.  0.
         25    1    1    2    0    0 -0.12509591056E+02  0.60397124361E+02 -0.63799354512E+02  0.15329598865E+03  0.12500000000E+03 0.  0.
</event>
<event>
 5    0  0.5691975E-005  0.2466036E+03  0.7546771E-02  0.1115470E+00
         21   -1    0    0  502  501  0.00000000000E+00  0.00000000000E+00  0.15086433115E+03  0.15086433115E+03  0.00000000000E+00 0.  1.
         21   -1    0    0  501  502 -0.00000000000E+00 -0.00000000000E+00 -0.40309964998E+03  0.40309964998E+03  0.00000000000E+00 0.  1.
         25    1    1    2    0    0 -0.86955526011E+00  0.64867593314E+02  0.17930218850E+02  0.14196849487E+03  0.12500000000E+03 0.  0.
         25    1    1    2    0    0 -0.84249737782E+02 -0.49921944041E+02 -0.12916911798E+03  0.20469460143E+03  0.12500000000E+03 0.  0.
         25    1    1    2    0    0  0.85119293042E+02 -0.14945649273E+02 -0.14099641970E+03  0.20730088482E+03  0.12500000000E+03 0.  0.
</event>
<event>
 5    0  0.5691975E-005  0.3287127E+03  0.7546771E-02  0.1071708E+00
         21   -1    0    0  502  501  0.00000000000E+00  0.00000000000E+00  0.18751685623E+04  0.18751685623E+04  0.00000000000E+00 0. -1.
         21   -1    0    0  501  502 -0.00000000000E+00 -0.00000000000E+00 -0.57622576755E+02  0.57622576755E+02  0.00000000000E+00 0. -1.
         25    1    1    2    0    0 -0.30805986942E+02  0.29437779854E+02  0.45043221809E+03  0.46939298547E+03  0.12500000000E+03 0.  0.
         25    1    1    2    0    0 -0.16854213282E+03  0.29491280428E+02  0.28915573444E+03  0.35848601774E+03  0.12500000000E+03 0.  0.
         25    1    1    2    0    0  0.19934811976E+03 -0.58929060282E+02  0.10779580330E+04  0.11049121358E+04  0.12500000000E+03 0.  0.
</event>
<event>
 5    0  0.5691975E-005  0.3153449E+03  0.7546771E-02  0.1077812E+00
         21   -1    0    0  502  501  0.00000000000E+00  0.00000000000E+00  0.61569425107E+03  0.61569425107E+03  0.00000000000E+00 0.  1.
         21   -1    0    0  501  502 -0.00000000000E+00 -0.00000000000E+00 -0.16151260787E+03  0.16151260787E+03  0.00000000000E+00 0.  1.
         25    1    1    2    0    0  0.67205323544E+02 -0.16257711126E+03  0.37268491673E+03  0.43065870452E+03  0.12500000000E+03 0.  0.
         25    1    1    2    0    0 -0.27940160781E+02  0.10535073580E+03 -0.25735465299E+02  0.16782950960E+03  0.12500000000E+03 0.  0.
         25    1    1    2    0    0 -0.39265162763E+02  0.57226375455E+02  0.10723219177E+03  0.17871864482E+03  0.12500000000E+03 0.  0.
</event>
<event>
 5    0  0.5691975E-005  0.3848281E+03  0.7546771E-02  0.1049164E+00
         21   -1    0    0  502  501  0.00000000000E+00  0.00000000000E+00  0.35957853625E+03  0.35957853625E+03  0.00000000000E+00 0. -1.
         21   -1    0    0  501  502 -0.00000000000E+00 -0.00000000000E+00 -0.41185076267E+03  0.41185076267E+03  0.00000000000E+00 0. -1.
         25    1    1    2    0    0 -0.16853967282E+03  0.19644239456E+03 -0.13617104528E+03  0.31806098356E+03  0.12500000000E+03 0.  0.
         25    1    1    2    0    0  0.13848639817E+03 -0.22079496792E+03 -0.14852491467E+02  0.28943824357E+03  0.12500000000E+03 0.  0.
         25    1    1    2    0    0  0.30053274648E+02  0.24352573363E+02  0.98751310326E+02  0.16393007179E+03  0.12500000000E+03 0.  0.
</event>
<event>
 5    0  0.5691975E-005  0.4955575E+03  0.7546771E-02  0.1014945E+00
         21   -1    0    0  502  501  0.00000000000E+00  0.00000000000E+00  0.11761060717E+04  0.11761060717E+04  0.00000000000E+00 0. -1.
         21   -1    0    0  501  502 -0.00000000000E+00 -0.00000000000E+00 -0.20880530767E+03  0.20880530767E+03  0.00000000000E+00 0. -1.
         25    1    1    2    0    0 -0.34492777565E+03  0.17621609351E+03  0.44359265922E+03  0.60201887790E+03  0.12500000000E+03 0.  0.
         25    1    1    2    0    0  0.24753087579E+02 -0.35625927793E+02 -0.10012977208E+02  0.13269205624E+03  0.12500000000E+03 0.  0.
         25    1    1    2    0    0  0.32017468807E+03 -0.14059016572E+03  0.53372108199E+03  0.65020044520E+03  0.12500000000E+03 0.  0.
</event>
<event>
 5    0  0.5691975E-005  0.3258327E+03  0.7546771E-02  0.1072996E+00
         21   -1    0    0  502  501  0.00000000000E+00  0.00000000000E+00  0.22941677032E+04  0.22941677032E+04  0.00000000000E+00 0.  1.
         21   -1    0    0  501  502 -0.00000000000E+00 -0.00000000000E+00 -0.46276894186E+02  0.46276894186E+02  0.00000000000E+00 0.  1.
         25    1    1    2    0    0 -0.72407314056E+02 -0.21931352074E+02  0.99204363832E+03  0.10027459218E+04  0.12500000000E+03 0.  0.
         25    1    1    2    0    0 -0.13346825141E+03  0.47678513941E+02  0.32593449848E+03  0.37675630337E+03  0.12500000000E+03 0.  0.
         25    1    1    2    0    0  0.20587556547E+03 -0.25747161867E+02  0.92991267219E+03  0.96094237221E+03  0.12500000000E+03 0.  0.
</event>
<event>
 5    0  0.6390557E-005  0.4834892E+03  0.7546771E-02  0.1018181E+00
         21   -1    0    0  502  501  0.00000000000E+00  0.00000000000E+00  0.26755573132E+03  0.26755573132E+03  0.00000000000E+00 0. -1.
         21   -1    0    0  501  502 -0.00000000000E+00 -0.00000000000E+00 -0.87369377217E+03  0.87369377217E+03  0.00000000000E+00 0. -1.
         25    1    1    2    0    0 -0.14174528987E+03 -0.33668905572E+02 -0.42933028931E+03  0.47029227053E+03  0.12500000000E+03 0.  0.
         25    1    1    2    0    0 -0.13369013989E+03 -0.11400275308E+03  0.97594450884E+02  0.23668408915E+03  0.12500000000E+03 0.  0.
         25    1    1    2    0    0  0.27543542976E+03  0.14767165865E+03 -0.27440220242E+03  0.43427314380E+03  0.12500000000E+03 0.  0.
</event>
<event>
 5    0  0.5691975E-005  0.3473167E+03  0.7546771E-02  0.1063722E+00
         21   -1    0    0  502  501  0.00000000000E+00  0.00000000000E+00  0.38370855830E+03  0.38370855830E+03  0.00000000000E+00 0.  1.
         21   -1    0    0  501  502 -0.00000000000E+00 -0.00000000000E+00 -0.31437641381E+03  0.31437641381E+03  0.00000000000E+00 0.  1.
         25    1    1    2    0    0  0.79195927321E+02 -0.11860034935E+03  0.27104864521E+03  0.33080266903E+03  0.12500000000E+03 0.  0.
         25    1    1    2    0    0 -0.88315664066E+02  0.90512823280E+02 -0.12908544694E+03  0.21972774133E+03  0.12500000000E+03 0.  0.
         25    1    1    2    0    0  0.91197367452E+01  0.28087526071E+02 -0.72631053780E+02  0.14755456175E+03  0.12500000000E+03 0.  0.
</event>
<event>
 5    0  0.5691975E-005  0.2761871E+03  0.7546771E-02  0.1097790E+00
         21   -1    0    0  502  501  0.00000000000E+00  0.00000000000E+00  0.78438355013E+02  0.78438355013E+02  0.00000000000E+00 0.  1.
         21   -1    0    0  501  502 -0.00000000000E+00 -0.00000000000E+00 -0.97247495285E+03  0.97247495285E+03  0.00000000000E+00 0.  1.
         25    1    1    2    0    0 -0.85532859872E+02 -0.12092669698E+03 -0.14169129386E+03  0.24008448287E+03  0.12500000000E+03 0.  0.
         25    1    1    2    0    0  0.41071987583E+02  0.61583753608E+02 -0.48799159972E+03  0.50915642809E+03  0.12500000000E+03 0.  0.
         25    1    1    2    0    0  0.44460872289E+02  0.59342943376E+02 -0.26435370426E+03  0.30167239690E+03  0.12500000000E+03 0.  0.
</event>
<event>
 5    0  0.5691975E-005  0.2258944E+03  0.7546771E-02  0.1129563E+00
         21   -1    0    0  502  501  0.00000000000E+00  0.00000000000E+00  0.17193223176E+03  0.17193223176E+03  0.00000000000E+00 0.  1.
         21   -1    0    0  501  502 -0.00000000000E+00 -0.00000000000E+00 -0.29679292300E+03  0.29679292300E+03  0.00000000000E+00 0.  1.
         25    1    1    2    0    0 -0.40453694792E+02 -0.84824524019E+02 -0.90720847450E+02  0.18079539115E+03  0.12500000000E+03 0.  0.
         25    1    1    2    0    0 -0.52924640991E+01  0.75814129298E+02  0.11957185999E+02  0.14677795023E+03  0.12500000000E+03 0.  0.
         25    1    1    2    0    0  0.45746158891E+02  0.90103947211E+01 -0.46097029787E+02  0.14115181338E+03  0.12500000000E+03 0.  0.
</event>
<event>
 5    0  0.5691975E-005  0.4457664E+03  0.7546771E-02  0.1028992E+00
         21   -1    0    0  502  501  0.00000000000E+00  0.00000000000E+00  0.19949196706E+04  0.19949196706E+04  0.00000000000E+00 0. -1.
         21   -1    0    0  501  502 -0.00000000000E+00 -0.00000000000E+00 -0.99606881841E+02  0.99606881841E+02  0.00000000000E+00 0. -1.
         25    1    1    2    0    0  0.13613676444E+03  0.17244528226E+02  0.13593852416E+04  0.13719999371E+04  0.12500000000E+03 0.  0.
         25    1    1    2    0    0 -0.25692163021E+02  0.16996047786E+03  0.14213024217E+03  0.25568077170E+03  0.12500000000E+03 0.  0.
         25    1    1    2    0    0 -0.11044460142E+03 -0.18720500609E+03  0.39379730497E+03  0.46684584361E+03  0.12500000000E+03 0.  0.
</event>
<event>
 5    0  0.5691975E-005  0.2665606E+03  0.7546771E-02  0.1103264E+00
         21   -1    0    0  502  501  0.00000000000E+00  0.00000000000E+00  0.10368004679E+03  0.10368004679E+03  0.00000000000E+00 0.  1.
         21   -1    0    0  501  502 -0.00000000000E+00 -0.00000000000E+00 -0.68532539607E+03  0.68532539607E+03  0.00000000000E+00 0.  1.
         25    1    1    2    0    0  0.27542090967E+02 -0.55299992211E+02 -0.12993752184E+02  0.14003747180E+03  0.12500000000E+03 0.  0.
         25    1    1    2    0    0  0.71554710704E+02  0.10589122036E+02 -0.30713823506E+03  0.33939814608E+03  0.12500000000E+03 0.  0.
         25    1    1    2    0    0 -0.99096801671E+02  0.44710870175E+02 -0.26151336203E+03  0.30956982497E+03  0.12500000000E+03 0.  0.
</event>
<event>
 5    0  0.6054468E-005  0.2512166E+03  0.7546771E-02  0.1112538E+00
         21   -1    0    0  502  501  0.00000000000E+00  0.00000000000E+00  0.31030694396E+03  0.31030694396E+03  0.00000000000E+00 0.  1.
         21   -1    0    0  501  502 -0.00000000000E+00 -0.00000000000E+00 -0.20337860179E+03  0.20337860179E+03  0.00000000000E+00 0.  1.
         25    1    1    2    0    0 -0.82948054419E+02 -0.10514068822E+03 -0.21215239870E+02  0.18441808603E+03  0.12500000000E+03 0.  0.
         25    1    1    2    0    0 -0.12722772142E+02  0.48606938577E+02  0.72567583480E+02  0.15302142850E+03  0.12500000000E+03 0.  0.
         25    1    1    2    0    0  0.95670826561E+02  0.56533749645E+02  0.55575998557E+02  0.17624603122E+03  0.12500000000E+03 0.  0.
</event>
<event>
 5    0  0.5691975E-005  0.2924488E+03  0.7546771E-02  0.1089078E+00
         21   -1    0    0  502  501  0.00000000000E+00  0.00000000000E+00  0.48229830648E+02  0.48229830648E+02  0.00000000000E+00 0. -1.
         21   -1    0    0  501  502 -0.00000000000E+00 -0.00000000000E+00 -0.17733065744E+04  0.17733065744E+04  0.00000000000E+00 0. -1.
         25    1    1    2    0    0  0.96883268828E+02  0.83863290361E+02 -0.28219720629E+03  0.33418510213E+03  0.12500000000E+03 0.  0.
         25    1    1    2    0    0 -0.15424357649E+03 -0.84240551492E+02 -0.10242193563E+04  0.10466794358E+04  0.12500000000E+03 0.  0.
         25    1    1    2    0    0  0.57360307662E+02  0.37726113055E+00 -0.41866018116E+03  0.44067186717E+03  0.12500000000E+03 0.  0.
</event>
<event>
 5    0  0.5691975E-005  0.2693712E+03  0.7546771E-02  0.1101640E+00
         21   -1    0    0  502  501  0.00000000000E+00  0.00000000000E+00  0.17062928468E+03  0.17062928468E+03  0.00000000000E+00 0. -1.
         21   -1    0    0  501  502 -0.00000000000E+00 -0.00000000000E+00 -0.42525421964E+03  0.42525421964E+03  0.00000000000E+00 0. -1.
         25    1    1    2    0    0 -0.56724983294E+02 -0.45004973504E+01 -0.90405721950E+01  0.13763978404E+03  0.12500000000E+03 0.  0.
         25    1    1    2    0    0  0.21484838630E+02  0.12390666562E+03 -0.21583988973E+03  0.27933191381E+03  0.12500000000E+03 0.  0.
         25    1    1    2    0    0  0.35240144664E+02 -0.11940616827E+03 -0.29744473041E+02  0.17891180647E+03  0.12500000000E+03 0.  0.
</event>
<event>
 5    0  0.5691975E-005  0.4424054E+03  0.7546771E-02  0.1030011E+00
         21   -1    0    0  502  501  0.00000000000E+00  0.00000000000E+00  0.10670023712E+04  0.10670023712E+04  0.00000000000E+00 0. -1.
         21   -1    0    0  501  502 -0.00000000000E+00 -0.00000000000E+00 -0.18343216588E+03  0.18343216588E+03  0.00000000000E+00 0. -1.
         25    1    1    2    0    0 -0.22969769085E+02  0.11119280146E+03  0.69936314949E+02  0.18277728945E+03  0.12500000000E+03 0.  0.
         25    1    1    2    0    0  0.75552180951E+01  0.26324182398E+03  0.28461710750E+03  0.40741285828E+03  0.12500000000E+03 0.  0.
         25    1    1    2    0    0  0.15414550989E+02 -0.37443462544E+03  0.52901678284E+03  0.66024438933E+03  0.12500000000E+03 0.  0.
</event>
<event>
 5    0  0.5691975E-005  0.9232590E+03  0.7546771E-02  0.9396965E-01
         21   -1    0    0  502  501  0.00000000000E+00  0.00000000000E+00  0.41037409429E+03  0.41037409429E+03  0.00000000000E+00 0. -1.
         21   -1    0    0  501  502 -0.00000000000E+00 -0.00000000000E+00 -0.20771465946E+04  0.20771465946E+04  0.00000000000E+00 0. -1.
         25    1    1    2    0    0  0.20822951250E+03 -0.62054769412E+01 -0.61162929073E+02  0.25052732728E+03  0.12500000000E+03 0.  0.
         25    1    1    2    0    0  0.23652720324E+03 -0.63177183444E+03 -0.11145100540E+04  0.13087545335E+04  0.12500000000E+03 0.  0.
         25    1    1    2    0    0 -0.44475671574E+03  0.63797731138E+03 -0.49109951723E+03  0.92823882803E+03  0.12500000000E+03 0.  0.
</event>
<event>
 5    0  0.5981389E-005  0.3403419E+03  0.7546771E-02  0.1066650E+00
         21   -1    0    0  502  501  0.00000000000E+00  0.00000000000E+00  0.28263741265E+03  0.28263741265E+03  0.00000000000E+00 0. -1.
         21   -1    0    0  501  502 -0.00000000000E+00 -0.00000000000E+00 -0.40982764483E+03  0.40982764483E+03  0.00000000000E+00 0. -1.
         25    1    1    2    0    0  0.10040142345E+03  0.64116368334E+02  0.86808187492E+02  0.19326669640E+03  0.12500000000E+03 0.  0.
         25    1    1    2    0    0 -0.14607851767E+03 -0.18074947517E+03 -0.17885123305E+03  0.31878216648E+03  0.12500000000E+03 0.  0.
         25    1    1    2    0    0  0.45677094217E+02  0.11663310684E+03 -0.35147186615E+02  0.18041619460E+03  0.12500000000E+03 0.  0.
</event>
<event>
 5    0  0.5691975E-005  0.2881869E+03  0.7546771E-02  0.1091300E+00
         21   -1    0    0  502  501  0.00000000000E+00  0.00000000000E+00  0.13568077798E+04  0.13568077798E+04  0.00000000000E+00 0. -1.
         21   -1    0    0  501  502 -0.00000000000E+00 -0.00000000000E+00 -0.61211089895E+02  0.61211089895E+02  0.00000000000E+00 0. -1.
         25    1    1    2    0    0  0.59181280318E+00 -0.98783780932E+02  0.18707089267E+03  0.24572159958E+03  0.12500000000E+03 0.  0.
         25    1    1    2    0    0 -0.60728358453E+02  0.92011080596E+01  0.87659249952E+03  0.88758774446E+03  0.12500000000E+03 0.  0.
         25    1    1    2    0    0  0.60136545649E+02  0.89582672872E+02  0.23193329769E+03  0.28470952562E+03  0.12500000000E+03 0.  0.
</event>
<event>
 5    0  0.5756255E-005  0.3392313E+03  0.7546771E-02  0.1067124E+00
         21   -1    0    0  502  501  0.00000000000E+00  0.00000000000E+00  0.38171538005E+03  0.38171538005E+03  0.00000000000E+00 0.  1.
         21   -1    0    0  501  502 -0.00000000000E+00 -0.00000000000E+00 -0.30147555452E+03  0.30147555452E+03  0.00000000000E+00 0.  1.
         25    1    1    2    0    0 -0.11452866927E+03  0.15390130370E+03 -0.15024431135E+03  0.27386270366E+03  0.12500000000E+03 0.  0.
         25    1    1    2    0    0  0.90490604042E+02 -0.31826473755E+02  0.14154579045E+03  0.21180577104E+03  0.12500000000E+03 0.  0.
         25    1    1    2    0    0  0.24038065224E+02 -0.12207482994E+03  0.88938346435E+02  0.19752245987E+03  0.12500000000E+03 0.  0.
</event>
<event>
 5    0  0.5691975E-005  0.2997877E+03  0.7546771E-02  0.1085347E+00
         21   -1    0    0  502  501  0.00000000000E+00  0.00000000000E+00  0.64594875312E+03  0.64594875312E+03  0.00000000000E+00 0.  1.
         21   -1    0    0  501  502 -0.00000000000E+00 -0.00000000000E+00 -0.13913279497E+03  0.13913279497E+03  0.00000000000E+00 0.  1.
         25    1    1    2    0    0 -0.77742134373E+02 -0.16208917475E+03  0.98481585133E+02  0.24008407410E+03  0.12500000000E+03 0.  0.
         25    1    1    2    0    0  0.82155841368E+02  0.63347696355E+02  0.82296849698E+02  0.18209965506E+03  0.12500000000E+03 0.  0.
         25    1    1    2    0    0 -0.44137069955E+01  0.98741478393E+02  0.32603752332E+03  0.36289781892E+03  0.12500000000E+03 0.  0.
</event>
<event>
 5    0  0.5691975E-005  0.3595551E+03  0.7546771E-02  0.1058760E+00
         21   -1    0    0  502  501  0.00000000000E+00  0.00000000000E+00  0.23863632806E+03  0.23863632806E+03  0.00000000000E+00 0. -1.
         21   -1    0    0  501  502 -0.00000000000E+00 -0.00000000000E+00 -0.54174438042E+03  0.54174438042E+03  0.00000000000E+00 0. -1.
         25    1    1    2    0    0  0.10666788302E+01  0.28322635986E+03 -0.48676868035E+02  0.31338912905E+03  0.12500000000E+03 0.  0.
         25    1    1    2    0    0 -0.39845132751E+02 -0.93565401992E+02 -0.10681073396E+03  0.19332783540E+03  0.12500000000E+03 0.  0.
         25    1    1    2    0    0  0.38778453921E+02 -0.18966095787E+03 -0.14762045037E+03  0.27366374403E+03  0.12500000000E+03 0.  0.
</event>
