<event>
 5    0  0.5489207E-005  0.8170589E+03  0.7546771E-02  0.9535648E-01
         21   -1    0    0  502  501  0.00000000000E+00  0.00000000000E+00  0.42121940559E+03  0.42121940559E+03  0.00000000000E+00 0. -1.
         21   -1    0    0  501  502 -0.00000000000E+00 -0.00000000000E+00 -0.15848871836E+04  0.15848871836E+04  0.00000000000E+00 0. -1.
         25    1    1    2    0    0 -0.20030555035E+03 -0.67185564301E+03 -0.66578157182E+03  0.97488584969E+03  0.12500000000E+03 0.  0.
         25    1    1    2    0    0 -0.35933783234E+01  0.64954895225E+03 -0.39014297963E+03  0.76796047964E+03  0.12500000000E+03 0.  0.
         25    1    1    2    0    0  0.20389892867E+03  0.22306690760E+02 -0.10774322660E+03  0.26326025990E+03  0.12500000000E+03 0.  0.
</event>
<event>
 5    0  0.6640190E-005  0.3451665E+03  0.7546771E-02  0.1064617E+00
         21   -1    0    0  502  501  0.00000000000E+00  0.00000000000E+00  0.20519280406E+03  0.20519280406E+03  0.00000000000E+00 0. -1.
         21   -1    0    0  501  502 -0.00000000000E+00 -0.00000000000E+00 -0.58062428110E+03  0.58062428110E+03  0.00000000000E+00 0. -1.
         25    1    1    2    0    0  0.32326492227E+02 -0.10790600196E+03  0.25898993981E+02  0.17024824595E+03  0.12500000000E+03 0.  0.
         25    1    1    2    0    0  0.25266615831E+01 -0.36213549412E+02 -0.40104040169E+03  0.42163516097E+03  0.12500000000E+03 0.  0.
         25    1    1    2    0    0 -0.34853153810E+02  0.14411955137E+03 -0.29006933222E+00  0.19393367825E+03  0.12500000000E+03 0.  0.
</event>
<event>
 5    0  0.5489207E-005  0.2209076E+03  0.7546771E-02  0.1133208E+00
         21   -1    0    0  502  501  0.00000000000E+00  0.00000000000E+00  0.36116105140E+02  0.36116105140E+02  0.00000000000E+00 0. -1.
         21   -1    0    0  501  502 -0.00000000000E+00 -0.00000000000E+00 -0.13512028802E+04  0.13512028802E+04  0.00000000000E+00 0. -1.
         25    1    1    2    0    0  0.28299548335E+02 -0.66080152240E+02 -0.25202653745E+03  0.29036154452E+03  0.12500000000E+03 0.  0.
         25    1    1    2    0    0 -0.25033330272E+01  0.64574975289E+02 -0.48681645680E+03  0.50674594890E+03  0.12500000000E+03 0.  0.
         25    1    1    2    0    0 -0.25796215308E+02  0.15051769512E+01 -0.57624378083E+03  0.59021149195E+03  0.12500000000E+03 0.  0.
</event>
<event>
 5    0  0.5489207E-005  0.2803559E+03  0.7546771E-02  0.1095495E+00
         21   -1    0    0  502  501  0.00000000000E+00  0.00000000000E+00  0.35761265097E+04  0.35761265097E+04  0.00000000000E+00 0.  1.
         21   -1    0    0  501  502 -0.00000000000E+00 -0.00000000000E+00 -0.21978927020E+02  0.21978927020E+02  0.00000000000E+00 0.  1.
         25    1    1    2    0    0 -0.14056358818E+03 -0.68146273184E+02  0.99152110813E+03  0.10115043968E+04  0.12500000000E+03 0.  0.
         25    1    1    2    0    0  0.80692504056E+02 -0.61866495066E+02  0.11337393164E+04  0.11451325604E+04  0.12500000000E+03 0.  0.
         25    1    1    2    0    0  0.59871084127E+02  0.13001276825E+03  0.14288871581E+04  0.14414684795E+04  0.12500000000E+03 0.  0.
</event>
<event>
 5    0  0.5489207E-005  0.2917068E+03  0.7546771E-02  0.1089461E+00
         21   -1    0    0  502  501  0.00000000000E+00  0.00000000000E+00  0.41747048312E+03  0.41747048312E+03  0.00000000000E+00 0. -1.
         21   -1    0    0  501  502 -0.00000000000E+00 -0.00000000000E+00 -0.20382966032E+03  0.20382966032E+03  0.00000000000E+00 0. -1.
         25    1    1    2    0    0  0.11998756231E+03  0.76588092106E+02  0.19406977779E+03  0.27120256196E+03  0.12500000000E+03 0.  0.
         25    1    1    2    0    0 -0.80072449776E+02  0.56410037527E+02 -0.17024513699E+02  0.15971388047E+03  0.12500000000E+03 0.  0.
         25    1    1    2    0    0 -0.39915112536E+02 -0.13299812963E+03  0.36595558702E+02  0.19038370101E+03  0.12500000000E+03 0.  0.
</event>
<event>
 5    0  0.6244753E-005  0.4468821E+03  0.7546771E-02  0.1028656E+00
         21   -1    0    0  502  501  0.00000000000E+00  0.00000000000E+00  0.40126227951E+03  0.40126227951E+03  0.00000000000E+00 0.  1.
         21   -1    0    0  501  502 -0.00000000000E+00 -0.00000000000E+00 -0.49768857461E+03  0.49768857461E+03  0.00000000000E+00 0.  1.
         25    1    1    2    0    0  0.60765880780E+02 -0.28346394877E+03  0.35373269536E+02  0.31767998161E+03  0.12500000000E+03 0.  0.
         25    1    1    2    0    0  0.39709717019E+02  0.70660502142E+02 -0.24900135312E+03  0.29016623174E+03  0.12500000000E+03 0.  0.
         25    1    1    2    0    0 -0.10047559780E+03  0.21280344663E+03  0.11720178848E+03  0.29110464076E+03  0.12500000000E+03 0.  0.
</event>
<event>
 5    0  0.5489207E-005  0.3965227E+03  0.7546771E-02  0.1044990E+00
         21   -1    0    0  502  501  0.00000000000E+00  0.00000000000E+00  0.20547285347E+03  0.20547285347E+03  0.00000000000E+00 0. -1.
         21   -1    0    0  501  502 -0.00000000000E+00 -0.00000000000E+00 -0.76521188245E+03  0.76521188245E+03  0.00000000000E+00 0. -1.
         25    1    1    2    0    0 -0.96554756872E+02 -0.10940325652E+03 -0.47194199046E+03  0.50955484099E+03  0.12500000000E+03 0.  0.
         25    1    1    2    0    0  0.20881290483E+03  0.12033958092E+03 -0.10669697333E+03  0.29170822422E+03  0.12500000000E+03 0.  0.
         25    1    1    2    0    0 -0.11225814796E+03 -0.10936324391E+02  0.18899934807E+02  0.16942167072E+03  0.12500000000E+03 0.  0.
</event>
<event>
 5    0  0.5489207E-005  0.3304415E+03  0.7546771E-02  0.1070942E+00
         21   -1    0    0  502  501  0.00000000000E+00  0.00000000000E+00  0.32482797376E+03  0.32482797376E+03  0.00000000000E+00 0.  1.
         21   -1    0    0  501  502 -0.00000000000E+00 -0.00000000000E+00 -0.33615213559E+03  0.33615213559E+03  0.00000000000E+00 0.  1.
         25    1    1    2    0    0 -0.10827895238E+03 -0.11460872791E+01  0.36336333576E+02  0.16932505480E+03  0.12500000000E+03 0.  0.
         25    1    1    2    0    0  0.16093345658E+03 -0.50847496408E+02 -0.19367433394E+03  0.28569177966E+03  0.12500000000E+03 0.  0.
         25    1    1    2    0    0 -0.52654504197E+02  0.51993583687E+02  0.14601383854E+03  0.20596327488E+03  0.12500000000E+03 0.  0.
</event>
<event>
 5    0  0.5489207E-005  0.2335239E+03  0.7546771E-02  0.1124184E+00
         21   -1    0    0  502  501  0.00000000000E+00  0.00000000000E+00  0.85996167195E+03  0.85996167195E+03  0.00000000000E+00 0. -1.
         21   -1    0    0  501  502 -0.00000000000E+00 -0.00000000000E+00 -0.63413767024E+02  0.63413767024E+02  0.00000000000E+00 0. -1.
         25    1    1    2    0    0  0.33676431246E+01  0.10116209969E+02  0.33910777132E+03  0.36156985396E+03  0.12500000000E+03 0.  0.
         25    1    1    2    0    0  0.10278042086E+03 -0.10002184228E+01  0.23307103976E+03  0.28374623332E+03  0.12500000000E+03 0.  0.
         25    1    1    2    0    0 -0.10614806398E+03 -0.91159915465E+01  0.22436909384E+03  0.27805935169E+03  0.12500000000E+03 0.  0.
</event>
<event>
 5    0  0.5489207E-005  0.2914973E+03  0.7546771E-02  0.1089570E+00
         21   -1    0    0  502  501  0.00000000000E+00  0.00000000000E+00  0.50120466089E+02  0.50120466089E+02  0.00000000000E+00 0. -1.
         21   -1    0    0  501  502 -0.00000000000E+00 -0.00000000000E+00 -0.16953293607E+04  0.16953293607E+04  0.00000000000E+00 0. -1.
         25    1    1    2    0    0  0.59959028933E+02  0.33085888944E+02 -0.47747708655E+03  0.49829622653E+03  0.12500000000E+03 0.  0.
         25    1    1    2    0    0  0.13162108654E+03  0.48127008348E+02 -0.39851319535E+03  0.44054294481E+03  0.12500000000E+03 0.  0.
         25    1    1    2    0    0 -0.19158011547E+03 -0.81212897292E+02 -0.76921861268E+03  0.80661065541E+03  0.12500000000E+03 0.  0.
</event>
<event>
 5    0  0.5489207E-005  0.2860852E+03  0.7546771E-02  0.1092411E+00
         21   -1    0    0  502  501  0.00000000000E+00  0.00000000000E+00  0.78484621639E+03  0.78484621639E+03  0.00000000000E+00 0. -1.
         21   -1    0    0  501  502 -0.00000000000E+00 -0.00000000000E+00 -0.10428126921E+03  0.10428126921E+03  0.00000000000E+00 0. -1.
         25    1    1    2    0    0  0.16093912270E+03  0.21289814913E+02  0.33844998727E+03  0.39563626138E+03  0.12500000000E+03 0.  0.
         25    1    1    2    0    0 -0.16834365785E+03 -0.19117855578E+02  0.28874264270E+03  0.35735471629E+03  0.12500000000E+03 0.  0.
         25    1    1    2    0    0  0.74045351464E+01 -0.21719593350E+01  0.53372317203E+02  0.13613650793E+03  0.12500000000E+03 0.  0.
</event>
<event>
 5    0  0.5489207E-005  0.4071735E+03  0.7546771E-02  0.1041324E+00
         21   -1    0    0  502  501  0.00000000000E+00  0.00000000000E+00  0.27035265918E+03  0.27035265918E+03  0.00000000000E+00 0.  1.
         21   -1    0    0  501  502 -0.00000000000E+00 -0.00000000000E+00 -0.61323701028E+03  0.61323701028E+03  0.00000000000E+00 0.  1.
         25    1    1    2    0    0  0.64402594630E+02  0.51180874238E+02  0.15433960676E+03  0.21497183605E+03  0.12500000000E+03 0.  0.
         25    1    1    2    0    0  0.92409634207E+02 -0.59015026174E+02 -0.42323165449E+03  0.45472227477E+03  0.12500000000E+03 0.  0.
         25    1    1    2    0    0 -0.15681222884E+03  0.78341519358E+01 -0.73992303361E+02  0.21389555864E+03  0.12500000000E+03 0.  0.
</event>
<event>
 5    0  0.5489207E-005  0.3358505E+03  0.7546771E-02  0.1068577E+00
         21   -1    0    0  502  501  0.00000000000E+00  0.00000000000E+00  0.17486454016E+03  0.17486454016E+03  0.00000000000E+00 0. -1.
         21   -1    0    0  501  502 -0.00000000000E+00 -0.00000000000E+00 -0.64504548079E+03  0.64504548079E+03  0.00000000000E+00 0. -1.
         25    1    1    2    0    0  0.46060668723E+02 -0.64371835944E+02 -0.19572289551E+02  0.14924273176E+03  0.12500000000E+03 0.  0.
         25    1    1    2    0    0  0.98974321607E+02 -0.95591710096E+02 -0.39927823562E+02  0.19013921866E+03  0.12500000000E+03 0.  0.
         25    1    1    2    0    0 -0.14503499033E+03  0.15996354604E+03 -0.41068082752E+03  0.48052807053E+03  0.12500000000E+03 0.  0.
</event>
<event>
 5    0  0.5489207E-005  0.2878920E+03  0.7546771E-02  0.1091455E+00
         21   -1    0    0  502  501  0.00000000000E+00  0.00000000000E+00  0.23140528339E+04  0.23140528339E+04  0.00000000000E+00 0. -1.
         21   -1    0    0  501  502 -0.00000000000E+00 -0.00000000000E+00 -0.35816730658E+02  0.35816730658E+02  0.00000000000E+00 0. -1.
         25    1    1    2    0    0  0.70838428326E+02  0.36585848712E+02  0.23630966456E+03  0.27896929010E+03  0.12500000000E+03 0.  0.
         25    1    1    2    0    0  0.49557160973E+02  0.51695485322E+02  0.10706665574E+04  0.10803148673E+04  0.12500000000E+03 0.  0.
         25    1    1    2    0    0 -0.12039558930E+03 -0.88281334034E+02  0.97125988131E+03  0.99058540717E+03  0.12500000000E+03 0.  0.
</event>
<event>
 5    0  0.5489207E-005  0.3962378E+03  0.7546771E-02  0.1045090E+00
         21   -1    0    0  502  501  0.00000000000E+00  0.00000000000E+00  0.22092333921E+03  0.22092333921E+03  0.00000000000E+00 0. -1.
         21   -1    0    0  501  502 -0.00000000000E+00 -0.00000000000E+00 -0.71067352155E+03  0.71067352155E+03  0.00000000000E+00 0. -1.
         25    1    1    2    0    0  0.11449462182E+02 -0.12475817140E+03 -0.40761969028E+03  0.44438103405E+03  0.12500000000E+03 0.  0.
         25    1    1    2    0    0  0.94448932898E+02  0.12482607782E+02 -0.20146132832E+03  0.25551532876E+03  0.12500000000E+03 0.  0.
         25    1    1    2    0    0 -0.10589839508E+03  0.11227556362E+03  0.11933083626E+03  0.23170049795E+03  0.12500000000E+03 0.  0.
</event>
<event>
 5    0  0.5489207E-005  0.3270207E+03  0.7546771E-02  0.1072463E+00
         21   -1    0    0  502  501  0.00000000000E+00  0.00000000000E+00  0.10992426017E+04  0.10992426017E+04  0.00000000000E+00 0. -1.
         21   -1    0    0  501  502 -0.00000000000E+00 -0.00000000000E+00 -0.97287451949E+02  0.97287451949E+02  0.00000000000E+00 0. -1.
         25    1    1    2    0    0  0.87201869805E+02  0.63604425175E+02  0.67260568273E+03  0.69258435835E+03  0.12500000000E+03 0.  0.
         25    1    1    2    0    0 -0.11660800120E+03 -0.14794782090E+03  0.17234252022E+03  0.28427614730E+03  0.12500000000E+03 0.  0.
         25    1    1    2    0    0  0.29406131392E+02  0.84343395720E+02  0.15700694677E+03  0.21966954796E+03  0.12500000000E+03 0.  0.
</event>
<event>
 5    0  0.5489207E-005  0.3078898E+03  0.7546771E-02  0.1081362E+00
         21   -1    0    0  502  501  0.00000000000E+00  0.00000000000E+00  0.91690098465E+02  0.91690098465E+02  0.00000000000E+00 0. -1.
         21   -1    0    0  501  502 -0.00000000000E+00 -0.00000000000E+00 -0.10338753800E+04  0.10338753800E+04  0.00000000000E+00 0. -1.
         25    1    1    2    0    0 -0.73536289258E+02 -0.13218939764E+03 -0.36420415224E+03  0.41370434757E+03  0.12500000000E+03 0.  0.
         25    1    1    2    0    0 -0.35522551828E+02 -0.75054777928E+02 -0.20492825710E+03  0.25399933452E+03  0.12500000000E+03 0.  0.
         25    1    1    2    0    0  0.10905884109E+03  0.20724417557E+03 -0.37305287216E+03  0.45786179635E+03  0.12500000000E+03 0.  0.
</event>
<event>
 5    0  0.5489207E-005  0.3092831E+03  0.7546771E-02  0.1080690E+00
         21   -1    0    0  502  501  0.00000000000E+00  0.00000000000E+00  0.32491945272E+03  0.32491945272E+03  0.00000000000E+00 0. -1.
         21   -1    0    0  501  502 -0.00000000000E+00 -0.00000000000E+00 -0.29439931510E+03  0.29439931510E+03  0.00000000000E+00 0. -1.
         25    1    1    2    0    0 -0.67416917606E+02 -0.98369415048E+02 -0.54877114552E+02  0.18126797924E+03  0.12500000000E+03 0.  0.
         25    1    1    2    0    0  0.41424579230E+02 -0.10738859536E+03 -0.25304995691E+02  0.17179536951E+03  0.12500000000E+03 0.  0.
         25    1    1    2    0    0  0.25992338376E+02  0.20575801040E+03  0.11070224786E+03  0.26625541907E+03  0.12500000000E+03 0.  0.
</event>
<event>
 5    0  0.5489207E-005  0.2534276E+03  0.7546771E-02  0.1111158E+00
         21   -1    0    0  502  501  0.00000000000E+00  0.00000000000E+00  0.79804186785E+02  0.79804186785E+02  0.00000000000E+00 0. -1.
         21   -1    0    0  501  502 -0.00000000000E+00 -0.00000000000E+00 -0.80478890453E+03  0.80478890453E+03  0.00000000000E+00 0. -1.
         25    1    1    2    0    0  0.98174736017E+02 -0.14443517903E+02 -0.25234642965E+03  0.29858100167E+03  0.12500000000E+03 0.  0.
         25    1    1    2    0    0 -0.86372520125E+02  0.30383326251E+02 -0.42225914189E+03  0.44979010844E+03  0.12500000000E+03 0.  0.
         25    1    1    2    0    0 -0.11802215892E+02 -0.15939808348E+02 -0.50379146212E+02  0.13622198120E+03  0.12500000000E+03 0.  0.
</event>
<event>
 5    0  0.5489207E-005  0.2628971E+03  0.7546771E-02  0.1105415E+00
         21   -1    0    0  502  501  0.00000000000E+00  0.00000000000E+00  0.30401039670E+04  0.30401039670E+04  0.00000000000E+00 0.  1.
         21   -1    0    0  501  502 -0.00000000000E+00 -0.00000000000E+00 -0.22734378546E+02  0.22734378546E+02  0.00000000000E+00 0.  1.
         25    1    1    2    0    0 -0.54639874529E+02  0.83075967178E+02  0.46560365377E+03  0.49223865616E+03  0.12500000000E+03 0.  0.
         25    1    1    2    0    0  0.41141059647E+02 -0.91393930541E+02  0.90928836881E+03  0.92329614696E+03  0.12500000000E+03 0.  0.
         25    1    1    2    0    0  0.13498814882E+02  0.83179633627E+01  0.16424775658E+04  0.16473035424E+04  0.12500000000E+03 0.  0.
</event>
<event>
 5    0  0.5489207E-005  0.2934096E+03  0.7546771E-02  0.1088582E+00
         21   -1    0    0  502  501  0.00000000000E+00  0.00000000000E+00  0.10470457566E+04  0.10470457566E+04  0.00000000000E+00 0. -1.
         21   -1    0    0  501  502 -0.00000000000E+00 -0.00000000000E+00 -0.82221051041E+02  0.82221051041E+02  0.00000000000E+00 0. -1.
         25    1    1    2    0    0  0.30994784583E+02 -0.56827301036E+02  0.77579996887E+02  0.16072857472E+03  0.12500000000E+03 0.  0.
         25    1    1    2    0    0  0.18295107277E+02 -0.10208783291E+03  0.24961760092E+03  0.29780964267E+03  0.12500000000E+03 0.  0.
         25    1    1    2    0    0 -0.49289891860E+02  0.15891513395E+03  0.63762710774E+03  0.67072859024E+03  0.12500000000E+03 0.  0.
</event>
<event>
 5    0  0.5758771E-005  0.2830893E+03  0.7546771E-02  0.1094013E+00
         21   -1    0    0  502  501  0.00000000000E+00  0.00000000000E+00  0.51555096981E+03  0.51555096981E+03  0.00000000000E+00 0. -1.
         21   -1    0    0  501  502 -0.00000000000E+00 -0.00000000000E+00 -0.15544450402E+03  0.15544450402E+03  0.00000000000E+00 0. -1.
         25    1    1    2    0    0 -0.71441523528E+02 -0.15775441831E+01  0.96680123755E+02  0.17343133010E+03  0.12500000000E+03 0.  0.
         25    1    1    2    0    0 -0.80861450786E+02  0.59517558639E+02 -0.39958317008E+01  0.16038042487E+03  0.12500000000E+03 0.  0.
         25    1    1    2    0    0  0.15230297431E+03 -0.57940014456E+02  0.26742217373E+03  0.33718371886E+03  0.12500000000E+03 0.  0.
</event>
<event>
 5    0  0.5489207E-005  0.6501255E+03  0.7546771E-02  0.9806544E-01
         21   -1    0    0  502  501  0.00000000000E+00  0.00000000000E+00  0.83865814777E+03  0.83865814777E+03  0.00000000000E+00 0. -1.
         21   -1    0    0  501  502 -0.00000000000E+00 -0.00000000000E+00 -0.50397556344E+03  0.50397556344E+03  0.00000000000E+00 0. -1.
         25    1    1    2    0    0  0.27253912400E+03  0.27507883411E+03  0.46010494282E+03  0.61422104937E+03  0.12500000000E+03 0.  0.
         25    1    1    2    0    0 -0.26314927257E+03 -0.22080164422E+03 -0.32327359785E+03  0.48798742280E+03  0.12500000000E+03 0.  0.
         25    1    1    2    0    0 -0.93898514248E+01 -0.54277189890E+02  0.19785123936E+03  0.24042523904E+03  0.12500000000E+03 0.  0.
</event>
<event>
 5    0  0.5489207E-005  0.3494977E+03  0.7546771E-02  0.1062821E+00
         21   -1    0    0  502  501  0.00000000000E+00  0.00000000000E+00  0.74309149951E+03  0.74309149951E+03  0.00000000000E+00 0. -1.
         21   -1    0    0  501  502 -0.00000000000E+00 -0.00000000000E+00 -0.16437897644E+03  0.16437897644E+03  0.00000000000E+00 0. -1.
         25    1    1    2    0    0 -0.21560938989E+02 -0.18002765594E+03  0.20110199033E+03  0.29823118802E+03  0.12500000000E+03 0.  0.
         25    1    1    2    0    0 -0.62556106446E+02  0.19733677852E+03  0.38803695229E+03  0.45722286355E+03  0.12500000000E+03 0.  0.
         25    1    1    2    0    0  0.84117045435E+02 -0.17309122578E+02 -0.10426419544E+02  0.15201642438E+03  0.12500000000E+03 0.  0.
</event>
<event>
 5    0  0.5489207E-005  0.2752816E+03  0.7546771E-02  0.1098294E+00
         21   -1    0    0  502  501  0.00000000000E+00  0.00000000000E+00  0.96104929559E+02  0.96104929559E+02  0.00000000000E+00 0. -1.
         21   -1    0    0  501  502 -0.00000000000E+00 -0.00000000000E+00 -0.78851281694E+03  0.78851281694E+03  0.00000000000E+00 0. -1.
         25    1    1    2    0    0  0.20800729346E+02  0.49349566957E+02 -0.45668576639E+02  0.14345267161E+03  0.12500000000E+03 0.  0.
         25    1    1    2    0    0  0.45090701741E+02  0.60891976431E+02 -0.45857672661E+03  0.48130927517E+03  0.12500000000E+03 0.  0.
         25    1    1    2    0    0 -0.65891431087E+02 -0.11024154339E+03 -0.18816258413E+03  0.25985579972E+03  0.12500000000E+03 0.  0.
</event>
<event>
 5    0  0.5489207E-005  0.2840545E+03  0.7546771E-02  0.1093495E+00
         21   -1    0    0  502  501  0.00000000000E+00  0.00000000000E+00  0.17863044737E+03  0.17863044737E+03  0.00000000000E+00 0.  1.
         21   -1    0    0  501  502 -0.00000000000E+00 -0.00000000000E+00 -0.45169769187E+03  0.45169769187E+03  0.00000000000E+00 0.  1.
         25    1    1    2    0    0  0.32649292382E+02 -0.11435090156E+03  0.12080001367E+02  0.17295384186E+03  0.12500000000E+03 0.  0.
         25    1    1    2    0    0 -0.83534652069E+02 -0.12362108598E+02 -0.51764137926E+02  0.15948475100E+03  0.12500000000E+03 0.  0.
         25    1    1    2    0    0  0.50885359687E+02  0.12671301016E+03 -0.23338310794E+03  0.29788954639E+03  0.12500000000E+03 0.  0.
</event>
<event>
 5    0  0.5489207E-005  0.3197965E+03  0.7546771E-02  0.1075743E+00
         21   -1    0    0  502  501  0.00000000000E+00  0.00000000000E+00  0.12711661277E+03  0.12711661277E+03  0.00000000000E+00 0.  1.
         21   -1    0    0  501  502 -0.00000000000E+00 -0.00000000000E+00 -0.80453546848E+03  0.80453546848E+03  0.00000000000E+00 0.  1.
         25    1    1    2    0    0 -0.47277851395E+02 -0.19615445367E+03 -0.44998026922E+03  0.50874257500E+03  0.12500000000E+03 0.  0.
         25    1    1    2    0    0  0.22012061268E+02  0.17295202913E+03 -0.19354079188E+03  0.28892901090E+03  0.12500000000E+03 0.  0.
         25    1    1    2    0    0  0.25265790127E+02  0.23202424544E+02 -0.33897794609E+02  0.13398049535E+03  0.12500000000E+03 0.  0.
</event>
<event>
 5    0  0.5489207E-005  0.2348265E+03  0.7546771E-02  0.1123288E+00
         21   -1    0    0  502  501  0.00000000000E+00  0.00000000000E+00  0.99836143683E+03  0.99836143683E+03  0.00000000000E+00 0. -1.
         21   -1    0    0  501  502 -0.00000000000E+00 -0.00000000000E+00 -0.55234011575E+02  0.55234011575E+02  0.00000000000E+00 0. -1.
         25    1    1    2    0    0  0.83722923164E+02  0.56084631127E+02  0.51001453755E+03  0.53469135230E+03  0.12500000000E+03 0.  0.
         25    1    1    2    0    0 -0.25594912291E+02 -0.72439998278E+02  0.21183608539E+03  0.25768620444E+03  0.12500000000E+03 0.  0.
         25    1    1    2    0    0 -0.58128010873E+02  0.16355367151E+02  0.22127680231E+03  0.26121789166E+03  0.12500000000E+03 0.  0.
</event>
<event>
 5    0  0.5489207E-005  0.2484179E+03  0.7546771E-02  0.1114309E+00
         21   -1    0    0  502  501  0.00000000000E+00  0.00000000000E+00  0.36384660212E+03  0.36384660212E+03  0.00000000000E+00 0. -1.
         21   -1    0    0  501  502 -0.00000000000E+00 -0.00000000000E+00 -0.16960844682E+03  0.16960844682E+03  0.00000000000E+00 0. -1.
         25    1    1    2    0    0 -0.49791448180E+02  0.37800328627E+02 -0.15049881724E+02  0.14056867395E+03  0.12500000000E+03 0.  0.
         25    1    1    2    0    0 -0.51182581995E+02 -0.90995922661E+02  0.93324278366E+02  0.18770811270E+03  0.12500000000E+03 0.  0.
         25    1    1    2    0    0  0.10097403017E+03  0.53195594034E+02  0.11596375866E+03  0.20517826229E+03  0.12500000000E+03 0.  0.
</event>
<event>
 5    0  0.5575575E-005  0.2539369E+03  0.7546771E-02  0.1110842E+00
         21   -1    0    0  502  501  0.00000000000E+00  0.00000000000E+00  0.92987687097E+03  0.92987687097E+03  0.00000000000E+00 0. -1.
         21   -1    0    0  501  502 -0.00000000000E+00 -0.00000000000E+00 -0.69346739238E+02  0.69346739238E+02  0.00000000000E+00 0. -1.
         25    1    1    2    0    0 -0.70755166189E+02  0.59676140345E+02  0.40000783152E+03  0.42918387731E+03  0.12500000000E+03 0.  0.
         25    1    1    2    0    0 -0.11224644236E+02  0.61812322440E+02  0.23459437506E+03  0.27314149566E+03  0.12500000000E+03 0.  0.
         25    1    1    2    0    0  0.81979810425E+02 -0.12148846278E+03  0.22592792516E+03  0.29689823723E+03  0.12500000000E+03 0.  0.
</event>
<event>
 5    0  0.5489207E-005  0.2184002E+03  0.7546771E-02  0.1135081E+00
         21   -1    0    0  502  501  0.00000000000E+00  0.00000000000E+00  0.45586255207E+03  0.45586255207E+03  0.00000000000E+00 0.  1.
         21   -1    0    0  501  502 -0.00000000000E+00 -0.00000000000E+00 -0.10463379108E+03  0.10463379108E+03  0.00000000000E+00 0.  1.
         25    1    1    2    0    0  0.15802984657E+02 -0.74573279875E+01  0.23016958191E+03  0.26250406187E+03  0.12500000000E+03 0.  0.
         25    1    1    2    0    0  0.33681474057E+02  0.33909761313E+02  0.75190609672E+02  0.15350225207E+03  0.12500000000E+03 0.  0.
         25    1    1    2    0    0 -0.49484458713E+02 -0.26452433326E+02  0.45868569414E+02  0.14449002922E+03  0.12500000000E+03 0.  0.
</event>
<event>
 5    0  0.5489207E-005  0.2568209E+03  0.7546771E-02  0.1109068E+00
         21   -1    0    0  502  501  0.00000000000E+00  0.00000000000E+00  0.12027616263E+03  0.12027616263E+03  0.00000000000E+00 0. -1.
         21   -1    0    0  501  502 -0.00000000000E+00 -0.00000000000E+00 -0.54837942013E+03  0.54837942013E+03  0.00000000000E+00 0. -1.
         25    1    1    2    0    0 -0.76356983775E+02  0.11826647502E+02 -0.11763349876E+03  0.18823628394E+03  0.12500000000E+03 0.  0.
         25    1    1    2    0    0 -0.86681918963E+02  0.18892459463E+02 -0.17393853741E+03  0.23184109837E+03  0.12500000000E+03 0.  0.
         25    1    1    2    0    0  0.16303890274E+03 -0.30719106965E+02 -0.13653122133E+03  0.24857820044E+03  0.12500000000E+03 0.  0.
</event>
<event>
 5    0  0.5489207E-005  0.3525414E+03  0.7546771E-02  0.1061577E+00
         21   -1    0    0  502  501  0.00000000000E+00  0.00000000000E+00  0.43170945084E+03  0.43170945084E+03  0.00000000000E+00 0.  1.
         21   -1    0    0  501  502 -0.00000000000E+00 -0.00000000000E+00 -0.28789137593E+03  0.28789137593E+03  0.00000000000E+00 0.  1.
         25    1    1    2    0    0 -0.20731066789E+03 -0.19506077325E+01 -0.35216306782E+02  0.24463586441E+03  0.12500000000E+03 0.  0.
         25    1    1    2    0    0  0.23178905331E+03 -0.65174645163E+02  0.18900897852E+03  0.33064073186E+03  0.12500000000E+03 0.  0.
         25    1    1    2    0    0 -0.24478385422E+02  0.67125252896E+02 -0.99745968302E+01  0.14432423051E+03  0.12500000000E+03 0.  0.
</event>
<event>
 5    0  0.5489207E-005  0.2594104E+03  0.7546771E-02  0.1107498E+00
         21   -1    0    0  502  501  0.00000000000E+00  0.00000000000E+00  0.60637680556E+03  0.60637680556E+03  0.00000000000E+00 0. -1.
         21   -1    0    0  501  502 -0.00000000000E+00 -0.00000000000E+00 -0.11097682850E+03  0.11097682850E+03  0.00000000000E+00 0. -1.
         25    1    1    2    0    0  0.42455576045E+02  0.26863000883E+02  0.15759944877E+02  0.13563728328E+03  0.12500000000E+03 0.  0.
         25    1    1    2    0    0 -0.79692993322E+02  0.10812335898E+01  0.39946660013E+03  0.42608767510E+03  0.12500000000E+03 0.  0.
         25    1    1    2    0    0  0.37237417277E+02 -0.27944234473E+02  0.80173432050E+02  0.15562867568E+03  0.12500000000E+03 0.  0.
</event>
<event>
 5    0  0.5489207E-005  0.3322045E+03  0.7546771E-02  0.1070166E+00
         21   -1    0    0  502  501  0.00000000000E+00  0.00000000000E+00  0.24457858320E+04  0.24457858320E+04  0.00000000000E+00 0. -1.
         21   -1    0    0  501  502 -0.00000000000E+00 -0.00000000000E+00 -0.45122433784E+02  0.45122433784E+02  0.00000000000E+00 0. -1.
         25    1    1    2    0    0  0.58013341385E+02  0.20694478012E+03  0.53914066698E+03  0.59370813418E+03  0.12500000000E+03 0.  0.
         25    1    1    2    0    0 -0.54164826538E+02 -0.18243010621E+03  0.14005396774E+04  0.14189259882E+04  0.12500000000E+03 0.  0.
         25    1    1    2    0    0 -0.38485148479E+01 -0.24514673911E+02  0.46098305380E+03  0.47827414334E+03  0.12500000000E+03 0.  0.
</event>
<event>
 5    0  0.5489207E-005  0.3833564E+03  0.7546771E-02  0.1049700E+00
         21   -1    0    0  502  501  0.00000000000E+00  0.00000000000E+00  0.41489406162E+03  0.41489406162E+03  0.00000000000E+00 0. -1.
         21   -1    0    0  501  502 -0.00000000000E+00 -0.00000000000E+00 -0.35421599218E+03  0.35421599218E+03  0.00000000000E+00 0. -1.
         25    1    1    2    0    0 -0.25832916842E+03 -0.19077371504E+03  0.76948142624E+02  0.35309288617E+03  0.12500000000E+03 0.  0.
         25    1    1    2    0    0  0.18581565553E+03  0.12690889146E+03 -0.24260234840E+01  0.25741835630E+03  0.12500000000E+03 0.  0.
         25    1    1    2    0    0  0.72513512895E+02  0.63864823575E+02 -0.13844049708E+02  0.15859881133E+03  0.12500000000E+03 0.  0.
</event>
<event>
 5    0  0.5489207E-005  0.2746741E+03  0.7546771E-02  0.1098634E+00
         21   -1    0    0  502  501  0.00000000000E+00  0.00000000000E+00  0.11023584376E+03  0.11023584376E+03  0.00000000000E+00 0. -1.
         21   -1    0    0  501  502 -0.00000000000E+00 -0.00000000000E+00 -0.68440423383E+03  0.68440423383E+03  0.00000000000E+00 0. -1.
         25    1    1    2    0    0  0.13229778667E+02  0.15852496464E+03 -0.21421317383E+03  0.29464805328E+03  0.12500000000E+03 0.  0.
         25    1    1    2    0    0 -0.25336659882E+01 -0.10220602447E+03 -0.31726848329E+03  0.35600109746E+03  0.12500000000E+03 0.  0.
         25    1    1    2    0    0 -0.10696112679E+02 -0.56318940176E+02 -0.42686732949E+02  0.14399092686E+03  0.12500000000E+03 0.  0.
</event>
<event>
 5    0  0.5489207E-005  0.3117907E+03  0.7546771E-02  0.1079491E+00
         21   -1    0    0  502  501  0.00000000000E+00  0.00000000000E+00  0.15381347527E+03  0.15381347527E+03  0.00000000000E+00 0.  1.
         21   -1    0    0  501  502 -0.00000000000E+00 -0.00000000000E+00 -0.63202149191E+03  0.63202149191E+03  0.00000000000E+00 0.  1.
         25    1    1    2    0    0  0.15840058928E+03  0.14117478005E+03 -0.11599782822E+03  0.27221601966E+03  0.12500000000E+03 0.  0.
         25    1    1    2    0    0 -0.80415246549E+02 -0.51928169372E+02 -0.28338818918E+03  0.32418669377E+03  0.12500000000E+03 0.  0.
         25    1    1    2    0    0 -0.77985342733E+02 -0.89246610678E+02 -0.78821999248E+02  0.18943225376E+03  0.12500000000E+03 0.  0.
</event>
<event>
 5    0  0.5489207E-005  0.3333468E+03  0.7546771E-02  0.1069666E+00
         21   -1    0    0  502  501  0.00000000000E+00  0.00000000000E+00  0.11901743610E+03  0.11901743610E+03  0.00000000000E+00 0. -1.
         21   -1    0    0  501  502 -0.00000000000E+00 -0.00000000000E+00 -0.93364544761E+03  0.93364544761E+03  0.00000000000E+00 0. -1.
         25    1    1    2    0    0  0.86007699040E+02  0.19633995450E+02 -0.77649473829E+01  0.15319305624E+03  0.12500000000E+03 0.  0.
         25    1    1    2    0    0  0.15204070301E+02 -0.81868583504E+02 -0.64737221643E+03  0.66456708865E+03  0.12500000000E+03 0.  0.
         25    1    1    2    0    0 -0.10121176934E+03  0.62234588054E+02 -0.15949084770E+03  0.23490273882E+03  0.12500000000E+03 0.  0.
</event>
<event>
 5    0  0.5489207E-005  0.2611967E+03  0.7546771E-02  0.1106426E+00
         21   -1    0    0  502  501  0.00000000000E+00  0.00000000000E+00  0.12764474926E+04  0.12764474926E+04  0.00000000000E+00 0. -1.
         21   -1    0    0  501  502 -0.00000000000E+00 -0.00000000000E+00 -0.53448103895E+02  0.53448103895E+02  0.00000000000E+00 0. -1.
         25    1    1    2    0    0  0.98802827676E+02 -0.48071303432E+02  0.46820429980E+03  0.49690352718E+03  0.12500000000E+03 0.  0.
         25    1    1    2    0    0 -0.12056062482E+03  0.65357682638E+02  0.24486670695E+03  0.30723150084E+03  0.12500000000E+03 0.  0.
         25    1    1    2    0    0  0.21757797141E+02 -0.17286379206E+02  0.50992838194E+03  0.52576056846E+03  0.12500000000E+03 0.  0.
</event>
<event>
 5    0  0.5489207E-005  0.2725564E+03  0.7546771E-02  0.1099825E+00
         21   -1    0    0  502  501  0.00000000000E+00  0.00000000000E+00  0.19663761133E+03  0.19663761133E+03  0.00000000000E+00 0.  1.
         21   -1    0    0  501  502 -0.00000000000E+00 -0.00000000000E+00 -0.37778640372E+03  0.37778640372E+03  0.00000000000E+00 0.  1.
         25    1    1    2    0    0 -0.39518843526E+01 -0.13137403023E+03 -0.18533599134E+02  0.18232730872E+03  0.12500000000E+03 0.  0.
         25    1    1    2    0    0 -0.83055718080E+02  0.10739869958E+02 -0.12176694756E+03  0.19356080861E+03  0.12500000000E+03 0.  0.
         25    1    1    2    0    0  0.87007602432E+02  0.12063416027E+03 -0.40848245688E+02  0.19853589772E+03  0.12500000000E+03 0.  0.
</event>
<event>
 5    0  0.5489207E-005  0.2065484E+03  0.7546771E-02  0.1144329E+00
         21   -1    0    0  502  501  0.00000000000E+00  0.00000000000E+00  0.21904986694E+03  0.21904986694E+03  0.00000000000E+00 0. -1.
         21   -1    0    0  501  502 -0.00000000000E+00 -0.00000000000E+00 -0.19476035537E+03  0.19476035537E+03  0.00000000000E+00 0. -1.
         25    1    1    2    0    0 -0.38688419433E+02 -0.20403464855E+02 -0.36274485026E+02  0.13730962617E+03  0.12500000000E+03 0.  0.
         25    1    1    2    0    0  0.13268656665E+01  0.16693445531E+02 -0.12822220069E+02  0.12676687668E+03  0.12500000000E+03 0.  0.
         25    1    1    2    0    0  0.37361553767E+02  0.37100193246E+01  0.73386216668E+02  0.14973371945E+03  0.12500000000E+03 0.  0.
</event>
<event>
 5    0  0.6473916E-005  0.5134650E+03  0.7546771E-02  0.1010323E+00
         21   -1    0    0  502  501  0.00000000000E+00  0.00000000000E+00  0.95113559121E+03  0.95113559121E+03  0.00000000000E+00 0.  1.
         21   -1    0    0  501  502 -0.00000000000E+00 -0.00000000000E+00 -0.27719108137E+03  0.27719108137E+03  0.00000000000E+00 0.  1.
         25    1    1    2    0    0 -0.10050951299E+02 -0.18278943131E+03 -0.95558011135E+02  0.24139041263E+03  0.12500000000E+03 0.  0.
         25    1    1    2    0    0  0.22034865339E+03  0.21257981994E+03  0.25900243226E+03  0.42006067278E+03  0.12500000000E+03 0.  0.
         25    1    1    2    0    0 -0.21029770209E+03 -0.29790388635E+02  0.51050008871E+03  0.56687558717E+03  0.12500000000E+03 0.  0.
</event>
<event>
 5    0  0.5520737E-005  0.2946588E+03  0.7546771E-02  0.1087942E+00
         21   -1    0    0  502  501  0.00000000000E+00  0.00000000000E+00  0.11487678741E+03  0.11487678741E+03  0.00000000000E+00 0. -1.
         21   -1    0    0  501  502 -0.00000000000E+00 -0.00000000000E+00 -0.75579950344E+03  0.75579950344E+03  0.00000000000E+00 0. -1.
         25    1    1    2    0    0 -0.91027161192E+02 -0.11299289606E+03 -0.17109780904E+03  0.25681277012E+03  0.12500000000E+03 0.  0.
         25    1    1    2    0    0  0.14359690163E+03  0.71510494007E+02 -0.41439420994E+03  0.46160738961E+03  0.12500000000E+03 0.  0.
         25    1    1    2    0    0 -0.52569740439E+02  0.41482402053E+02 -0.55430697040E+02  0.15225613112E+03  0.12500000000E+03 0.  0.
</event>
<event>
 5    0  0.5489207E-005  0.3242500E+03  0.7546771E-02  0.1073710E+00
         21   -1    0    0  502  501  0.00000000000E+00  0.00000000000E+00  0.13879746751E+03  0.13879746751E+03  0.00000000000E+00 0. -1.
         21   -1    0    0  501  502 -0.00000000000E+00 -0.00000000000E+00 -0.75749258569E+03  0.75749258569E+03  0.00000000000E+00 0. -1.
         25    1    1    2    0    0 -0.12170625932E+03  0.16651566199E+03 -0.92854583196E+02  0.25843152452E+03  0.12500000000E+03 0.  0.
         25    1    1    2    0    0  0.49097095725E+02 -0.99722889444E+02 -0.13213061940E+03  0.21316350549E+03  0.12500000000E+03 0.  0.
         25    1    1    2    0    0  0.72609163596E+02 -0.66792772549E+02 -0.39370991557E+03  0.42469502319E+03  0.12500000000E+03 0.  0.
</event>
<event>
 5    0  0.5489207E-005  0.2150290E+03  0.7546771E-02  0.1137644E+00
         21   -1    0    0  502  501  0.00000000000E+00  0.00000000000E+00  0.10296657522E+04  0.10296657522E+04  0.00000000000E+00 0.  1.
         21   -1    0    0  501  502 -0.00000000000E+00 -0.00000000000E+00 -0.44905326257E+02  0.44905326257E+02  0.00000000000E+00 0.  1.
         25    1    1    2    0    0  0.37030575931E+02 -0.15248622288E+02  0.41514049028E+03  0.43539684278E+03  0.12500000000E+03 0.  0.
         25    1    1    2    0    0 -0.35622763887E+02 -0.39390233702E+02  0.17424101891E+03  0.22091967882E+03  0.12500000000E+03 0.  0.
         25    1    1    2    0    0 -0.14078120444E+01  0.54638855990E+02  0.39537891678E+03  0.41825455688E+03  0.12500000000E+03 0.  0.
</event>
<event>
 5    0  0.5489207E-005  0.3132621E+03  0.7546771E-02  0.1078793E+00
         21   -1    0    0  502  501  0.00000000000E+00  0.00000000000E+00  0.27034050140E+04  0.27034050140E+04  0.00000000000E+00 0.  1.
         21   -1    0    0  501  502 -0.00000000000E+00 -0.00000000000E+00 -0.36299827650E+02  0.36299827650E+02  0.00000000000E+00 0.  1.
         25    1    1    2    0    0 -0.16107323487E+03  0.69485685000E+02  0.14265295010E+04  0.14427003378E+04  0.12500000000E+03 0.  0.
         25    1    1    2    0    0  0.94999375787E+02  0.76955444620E+02  0.57518146670E+03  0.60117030989E+03  0.12500000000E+03 0.  0.
         25    1    1    2    0    0  0.66073859084E+02 -0.14644112962E+03  0.66539421863E+03  0.69583419396E+03  0.12500000000E+03 0.  0.
</event>
<event>
 5    0  0.5489207E-005  0.2232573E+03  0.7546771E-02  0.1131478E+00
         21   -1    0    0  502  501  0.00000000000E+00  0.00000000000E+00  0.43269450548E+04  0.43269450548E+04  0.00000000000E+00 0. -1.
         21   -1    0    0  501  502 -0.00000000000E+00 -0.00000000000E+00 -0.11519407257E+02  0.11519407257E+02  0.00000000000E+00 0. -1.
         25    1    1    2    0    0  0.48670523597E+01  0.11063170509E+02  0.13531549871E+04  0.13589700147E+04  0.12500000000E+03 0.  0.
         25    1    1    2    0    0 -0.61948966957E+02  0.11688623529E+02  0.75748738315E+03  0.77031580151E+03  0.12500000000E+03 0.  0.
         25    1    1    2    0    0  0.57081914597E+02 -0.22751794038E+02  0.22047832773E+04  0.22091786458E+04  0.12500000000E+03 0.  0.
</event>
<event>
 5    0  0.5489207E-005  0.2779282E+03  0.7546771E-02  0.1096826E+00
         21   -1    0    0  502  501  0.00000000000E+00  0.00000000000E+00  0.72900549730E+02  0.72900549730E+02  0.00000000000E+00 0. -1.
         21   -1    0    0  501  502 -0.00000000000E+00 -0.00000000000E+00 -0.10595817497E+04  0.10595817497E+04  0.00000000000E+00 0. -1.
         25    1    1    2    0    0 -0.65169242203E+02  0.81008200450E+02 -0.36075785001E+03  0.39570264722E+03  0.12500000000E+03 0.  0.
         25    1    1    2    0    0  0.11531030159E+03  0.69870372593E+02 -0.34047363088E+03  0.38694395969E+03  0.12500000000E+03 0.  0.
         25    1    1    2    0    0 -0.50141059387E+02 -0.15087857304E+03 -0.28544971909E+03  0.34983569253E+03  0.12500000000E+03 0.  0.
</event>
<event>
 5    0  0.5489207E-005  0.3331830E+03  0.7546771E-02  0.1069737E+00
         21   -1    0    0  502  501  0.00000000000E+00  0.00000000000E+00  0.48160792569E+02  0.48160792569E+02  0.00000000000E+00 0. -1.
         21   -1    0    0  501  502 -0.00000000000E+00 -0.00000000000E+00 -0.23050064091E+04  0.23050064091E+04  0.00000000000E+00 0. -1.
         25    1    1    2    0    0 -0.12458646373E+03 -0.12331356790E+03 -0.52225841346E+03  0.56489545352E+03  0.12500000000E+03 0.  0.
         25    1    1    2    0    0  0.93362940021E+02  0.22172853615E+03 -0.11588642912E+04  0.11901561358E+04  0.12500000000E+03 0.  0.
         25    1    1    2    0    0  0.31223523714E+02 -0.98414968257E+02 -0.57572291186E+03  0.59811561228E+03  0.12500000000E+03 0.  0.
</event>
<event>
 5    0  0.5489207E-005  0.3189357E+03  0.7546771E-02  0.1076140E+00
         21   -1    0    0  502  501  0.00000000000E+00  0.00000000000E+00  0.62744392091E+02  0.62744392091E+02  0.00000000000E+00 0.  1.
         21   -1    0    0  501  502 -0.00000000000E+00 -0.00000000000E+00 -0.16211803855E+04  0.16211803855E+04  0.00000000000E+00 0.  1.
         25    1    1    2    0    0  0.52843392944E+02  0.65818266836E+02 -0.12724823279E+03  0.19733621354E+03  0.12500000000E+03 0.  0.
         25    1    1    2    0    0 -0.43322138450E+02 -0.14344084134E+03 -0.40160839954E+03  0.44650463516E+03  0.12500000000E+03 0.  0.
         25    1    1    2    0    0 -0.95212544935E+01  0.77622574501E+02 -0.10295793611E+04  0.10400839289E+04  0.12500000000E+03 0.  0.
</event>
<event>
 5    0  0.5489207E-005  0.3045088E+03  0.7546771E-02  0.1083008E+00
         21   -1    0    0  502  501  0.00000000000E+00  0.00000000000E+00  0.12724546828E+03  0.12724546828E+03  0.00000000000E+00 0.  1.
         21   -1    0    0  501  502 -0.00000000000E+00 -0.00000000000E+00 -0.72871438182E+03  0.72871438182E+03  0.00000000000E+00 0.  1.
         25    1    1    2    0    0 -0.65682691181E+02 -0.58147978196E+00 -0.96199350585E+02  0.17086213475E+03  0.12500000000E+03 0.  0.
         25    1    1    2    0    0 -0.44632548282E+01 -0.13796751138E+03 -0.43591261730E+03  0.47402506765E+03  0.12500000000E+03 0.  0.
         25    1    1    2    0    0  0.70145946010E+02  0.13854899116E+03 -0.69356945660E+02  0.21107264769E+03  0.12500000000E+03 0.  0.
</event>
<event>
 5    0  0.5489207E-005  0.3170145E+03  0.7546771E-02  0.1077032E+00
         21   -1    0    0  502  501  0.00000000000E+00  0.00000000000E+00  0.36407071559E+03  0.36407071559E+03  0.00000000000E+00 0. -1.
         21   -1    0    0  501  502 -0.00000000000E+00 -0.00000000000E+00 -0.27604032598E+03  0.27604032598E+03  0.00000000000E+00 0. -1.
         25    1    1    2    0    0  0.95780027344E+02 -0.44332486214E+02  0.65510837670E+02  0.17622670860E+03  0.12500000000E+03 0.  0.
         25    1    1    2    0    0 -0.23667422958E+03  0.50266320214E+02 -0.10647649996E+02  0.27254314584E+03  0.12500000000E+03 0.  0.
         25    1    1    2    0    0  0.14089420224E+03 -0.59338340000E+01  0.33167201934E+02  0.19134118713E+03  0.12500000000E+03 0.  0.
</event>
<event>
 5    0  0.5489207E-005  0.3920158E+03  0.7546771E-02  0.1046580E+00
         21   -1    0    0  502  501  0.00000000000E+00  0.00000000000E+00  0.22566399692E+04  0.22566399692E+04  0.00000000000E+00 0. -1.
         21   -1    0    0  501  502 -0.00000000000E+00 -0.00000000000E+00 -0.68099657818E+02  0.68099657818E+02  0.00000000000E+00 0. -1.
         25    1    1    2    0    0  0.76070501641E+02  0.20063613702E+02  0.69932830272E+02  0.16341624939E+03  0.12500000000E+03 0.  0.
         25    1    1    2    0    0 -0.14171284499E+03 -0.47069377584E+02  0.50374982061E+03  0.54008049262E+03  0.12500000000E+03 0.  0.
         25    1    1    2    0    0  0.65642343346E+02  0.27005763882E+02  0.16148576605E+04  0.16212428850E+04  0.12500000000E+03 0.  0.
</event>
<event>
 5    0  0.5489207E-005  0.2494197E+03  0.7546771E-02  0.1113672E+00
         21   -1    0    0  502  501  0.00000000000E+00  0.00000000000E+00  0.56058245103E+03  0.56058245103E+03  0.00000000000E+00 0. -1.
         21   -1    0    0  501  502 -0.00000000000E+00 -0.00000000000E+00 -0.11097421217E+03  0.11097421217E+03  0.00000000000E+00 0. -1.
         25    1    1    2    0    0 -0.51735670913E+02 -0.50933832087E+02 -0.15444937206E+00  0.14455399943E+03  0.12500000000E+03 0.  0.
         25    1    1    2    0    0  0.12193118194E+02 -0.17457235250E+02  0.20692276869E+03  0.24268386719E+03  0.12500000000E+03 0.  0.
         25    1    1    2    0    0  0.39542552719E+02  0.68391067337E+02  0.24283991954E+03  0.28431879658E+03  0.12500000000E+03 0.  0.
</event>
<event>
 5    0  0.5625472E-005  0.3079833E+03  0.7546771E-02  0.1081317E+00
         21   -1    0    0  502  501  0.00000000000E+00  0.00000000000E+00  0.15638392109E+03  0.15638392109E+03  0.00000000000E+00 0.  1.
         21   -1    0    0  501  502 -0.00000000000E+00 -0.00000000000E+00 -0.60654378818E+03  0.60654378818E+03  0.00000000000E+00 0.  1.
         25    1    1    2    0    0 -0.93621014707E+02 -0.62021894487E+02 -0.13949081499E+03  0.21839024076E+03  0.12500000000E+03 0.  0.
         25    1    1    2    0    0 -0.24964632382E+02 -0.97549723198E+02 -0.25801025421E+03  0.30386423390E+03  0.12500000000E+03 0.  0.
         25    1    1    2    0    0  0.11858564709E+03  0.15957161769E+03 -0.52658797883E+02  0.24067323462E+03  0.12500000000E+03 0.  0.
</event>
<event>
 5    0  0.5489207E-005  0.3449396E+03  0.7546771E-02  0.1064711E+00
         21   -1    0    0  502  501  0.00000000000E+00  0.00000000000E+00  0.13801625341E+04  0.13801625341E+04  0.00000000000E+00 0.  1.
         21   -1    0    0  501  502 -0.00000000000E+00 -0.00000000000E+00 -0.86209666443E+02  0.86209666443E+02  0.00000000000E+00 0.  1.
         25    1    1    2    0    0 -0.60155168207E+02 -0.31886871177E+01  0.11285323110E+04  0.11370307774E+04  0.12500000000E+03 0.  0.
         25    1    1    2    0    0  0.25678441908E+02  0.42944139941E+00  0.11595791126E+02  0.12813675964E+03  0.12500000000E+03 0.  0.
         25    1    1    2    0    0  0.34476726300E+02  0.27592457183E+01  0.15382476558E+03  0.20120466346E+03  0.12500000000E+03 0.  0.
</event>
<event>
 5    0  0.6383377E-005  0.2746265E+03  0.7546771E-02  0.1098661E+00
         21   -1    0    0  502  501  0.00000000000E+00  0.00000000000E+00  0.38692061419E+03  0.38692061419E+03  0.00000000000E+00 0. -1.
         21   -1    0    0  501  502 -0.00000000000E+00 -0.00000000000E+00 -0.19492299615E+03  0.19492299615E+03  0.00000000000E+00 0. -1.
         25    1    1    2    0    0  0.86593737922E+02 -0.60149720965E+02  0.10661370320E+03  0.19521256642E+03  0.12500000000E+03 0.  0.
         25    1    1    2    0    0 -0.11031684970E+03  0.11994211508E+03 -0.26339463046E+02  0.20706203325E+03  0.12500000000E+03 0.  0.
         25    1    1    2    0    0  0.23723111781E+02 -0.59792394117E+02  0.11172337788E+03  0.17956901067E+03  0.12500000000E+03 0.  0.
</event>
<event>
 5    0  0.5489207E-005  0.2524286E+03  0.7546771E-02  0.1111780E+00
         21   -1    0    0  502  501  0.00000000000E+00  0.00000000000E+00  0.11593566695E+03  0.11593566695E+03  0.00000000000E+00 0. -1.
         21   -1    0    0  501  502 -0.00000000000E+00 -0.00000000000E+00 -0.54961681327E+03  0.54961681327E+03  0.00000000000E+00 0. -1.
         25    1    1    2    0    0  0.90562751672E+02 -0.23139974467E+02 -0.17648966788E+03  0.23560703147E+03  0.12500000000E+03 0.  0.
         25    1    1    2    0    0 -0.61218531691E+02  0.95422796430E+00  0.27040080355E+01  0.13921541162E+03  0.12500000000E+03 0.  0.
         25    1    1    2    0    0 -0.29344219981E+02  0.22185746502E+02 -0.25989548648E+03  0.29073003712E+03  0.12500000000E+03 0.  0.
</event>
<event>
 5    0  0.5489207E-005  0.4212950E+03  0.7546771E-02  0.1036646E+00
         21   -1    0    0  502  501  0.00000000000E+00  0.00000000000E+00  0.19493491514E+03  0.19493491514E+03  0.00000000000E+00 0. -1.
         21   -1    0    0  501  502 -0.00000000000E+00 -0.00000000000E+00 -0.91050633884E+03  0.91050633884E+03  0.00000000000E+00 0. -1.
         25    1    1    2    0    0 -0.24817930452E+02 -0.12718682900E+03  0.84231089601E+02  0.19877699967E+03  0.12500000000E+03 0.  0.
         25    1    1    2    0    0 -0.45817727499E+02  0.58632631345E+02 -0.70838381834E+03  0.72316642877E+03  0.12500000000E+03 0.  0.
         25    1    1    2    0    0  0.70635657951E+02  0.68554197656E+02 -0.91418694959E+02  0.18349782554E+03  0.12500000000E+03 0.  0.
</event>
<event>
 5    0  0.5489207E-005  0.7103488E+03  0.7546771E-02  0.9699696E-01
         21   -1    0    0  502  501  0.00000000000E+00  0.00000000000E+00  0.19488328114E+04  0.19488328114E+04  0.00000000000E+00 0.  1.
         21   -1    0    0  501  502 -0.00000000000E+00 -0.00000000000E+00 -0.25892184996E+03  0.25892184996E+03  0.00000000000E+00 0.  1.
         25    1    1    2    0    0 -0.16779450389E+03  0.18895576820E+02 -0.82787497622E+02  0.22581144373E+03  0.12500000000E+03 0.  0.
         25    1    1    2    0    0 -0.10720368479E+03 -0.16183075923E+02 -0.17541656419E+02  0.16639480668E+03  0.12500000000E+03 0.  0.
         25    1    1    2    0    0  0.27499818868E+03 -0.27125008970E+01  0.17902401155E+04  0.18155484110E+04  0.12500000000E+03 0.  0.
</event>
<event>
 5    0  0.5489207E-005  0.3989734E+03  0.7546771E-02  0.1044136E+00
         21   -1    0    0  502  501  0.00000000000E+00  0.00000000000E+00  0.91369176101E+02  0.91369176101E+02  0.00000000000E+00 0.  1.
         21   -1    0    0  501  502 -0.00000000000E+00 -0.00000000000E+00 -0.17421606845E+04  0.17421606845E+04  0.00000000000E+00 0.  1.
         25    1    1    2    0    0 -0.11458285161E+03 -0.14476842154E+03 -0.91694267963E+03  0.94366095791E+03  0.12500000000E+03 0.  0.
         25    1    1    2    0    0  0.20122831334E+02  0.31678271496E+02  0.51073353968E+00  0.13051322567E+03  0.12500000000E+03 0.  0.
         25    1    1    2    0    0  0.94460020276E+02  0.11309015005E+03 -0.73435956233E+03  0.75935567704E+03  0.12500000000E+03 0.  0.
</event>
<event>
 5    0  0.5489207E-005  0.2479976E+03  0.7546771E-02  0.1114577E+00
         21   -1    0    0  502  501  0.00000000000E+00  0.00000000000E+00  0.33155367692E+03  0.33155367692E+03  0.00000000000E+00 0. -1.
         21   -1    0    0  501  502 -0.00000000000E+00 -0.00000000000E+00 -0.18549881816E+03  0.18549881816E+03  0.00000000000E+00 0. -1.
         25    1    1    2    0    0  0.74092189026E+02 -0.59328335100E+02  0.10673143384E+03  0.18980543404E+03  0.12500000000E+03 0.  0.
         25    1    1    2    0    0 -0.88727686924E+02  0.95819178206E+02  0.67945137979E+02  0.19312032289E+03  0.12500000000E+03 0.  0.
         25    1    1    2    0    0  0.14635497898E+02 -0.36490843107E+02 -0.28621713053E+02  0.13412673815E+03  0.12500000000E+03 0.  0.
</event>
<event>
 5    0  0.5489207E-005  0.2518196E+03  0.7546771E-02  0.1112160E+00
         21   -1    0    0  502  501  0.00000000000E+00  0.00000000000E+00  0.26914403389E+03  0.26914403389E+03  0.00000000000E+00 0.  1.
         21   -1    0    0  501  502 -0.00000000000E+00 -0.00000000000E+00 -0.23561036474E+03  0.23561036474E+03  0.00000000000E+00 0.  1.
         25    1    1    2    0    0  0.13793279047E+03  0.26401032259E+02  0.70490782012E+02  0.20078949061E+03  0.12500000000E+03 0.  0.
         25    1    1    2    0    0 -0.11870739317E+03  0.36945071629E+00 -0.18305090867E+02  0.17335414053E+03  0.12500000000E+03 0.  0.
         25    1    1    2    0    0 -0.19225397298E+02 -0.26770482976E+02 -0.18652021999E+02  0.13061076749E+03  0.12500000000E+03 0.  0.
</event>
<event>
 5    0  0.5489207E-005  0.3275126E+03  0.7546771E-02  0.1072243E+00
         21   -1    0    0  502  501  0.00000000000E+00  0.00000000000E+00  0.81008387976E+03  0.81008387976E+03  0.00000000000E+00 0.  1.
         21   -1    0    0  501  502 -0.00000000000E+00 -0.00000000000E+00 -0.13241163015E+03  0.13241163015E+03  0.00000000000E+00 0.  1.
         25    1    1    2    0    0 -0.99318265966E+02 -0.18790391627E+03  0.94484424731E+02  0.26405360483E+03  0.12500000000E+03 0.  0.
         25    1    1    2    0    0  0.32029476690E+01  0.12507538762E+03  0.29089610236E+03  0.34044038220E+03  0.12500000000E+03 0.  0.
         25    1    1    2    0    0  0.96115318297E+02  0.62828528656E+02  0.29229172251E+03  0.33800152289E+03  0.12500000000E+03 0.  0.
</event>
<event>
 5    0  0.5489207E-005  0.3251264E+03  0.7546771E-02  0.1073314E+00
         21   -1    0    0  502  501  0.00000000000E+00  0.00000000000E+00  0.23394099077E+03  0.23394099077E+03  0.00000000000E+00 0.  1.
         21   -1    0    0  501  502 -0.00000000000E+00 -0.00000000000E+00 -0.45185393880E+03  0.45185393880E+03  0.00000000000E+00 0.  1.
         25    1    1    2    0    0 -0.79565484097E+02 -0.22521734778E+03 -0.51109608211E+02  0.27439153058E+03  0.12500000000E+03 0.  0.
         25    1    1    2    0    0  0.11080409639E+03  0.10958013784E+03 -0.11584133264E+03  0.23093195694E+03  0.12500000000E+03 0.  0.
         25    1    1    2    0    0 -0.31238612294E+02  0.11563720994E+03 -0.50962007174E+02  0.18047144205E+03  0.12500000000E+03 0.  0.
</event>
<event>
 5    0  0.5489207E-005  0.2799276E+03  0.7546771E-02  0.1095729E+00
         21   -1    0    0  502  501  0.00000000000E+00  0.00000000000E+00  0.35057224723E+03  0.35057224723E+03  0.00000000000E+00 0. -1.
         21   -1    0    0  501  502 -0.00000000000E+00 -0.00000000000E+00 -0.22351867455E+03  0.22351867455E+03  0.00000000000E+00 0. -1.
         25    1    1    2    0    0 -0.25580480623E+02  0.14000938913E+02 -0.32620241731E+02  0.13243665448E+03  0.12500000000E+03 0.  0.
         25    1    1    2    0    0  0.10620437939E+03  0.41506178622E+02  0.21494119362E+03  0.27354496848E+03  0.12500000000E+03 0.  0.
         25    1    1    2    0    0 -0.80623898765E+02 -0.55507117536E+02 -0.55267379202E+02  0.16810929883E+03  0.12500000000E+03 0.  0.
</event>
<event>
 5    0  0.5489207E-005  0.4453511E+03  0.7546771E-02  0.1029118E+00
         21   -1    0    0  502  501  0.00000000000E+00  0.00000000000E+00  0.20027795924E+04  0.20027795924E+04  0.00000000000E+00 0.  1.
         21   -1    0    0  501  502 -0.00000000000E+00 -0.00000000000E+00 -0.99031158666E+02  0.99031158666E+02  0.00000000000E+00 0.  1.
         25    1    1    2    0    0 -0.80514948640E+02 -0.19516946234E+03  0.31124717584E+03  0.39632509440E+03  0.12500000000E+03 0.  0.
         25    1    1    2    0    0  0.21528468641E+03 -0.23022627159E+02  0.34672673022E+03  0.42745989638E+03  0.12500000000E+03 0.  0.
         25    1    1    2    0    0 -0.13476973777E+03  0.21819208950E+03  0.12457745277E+04  0.12780257603E+04  0.12500000000E+03 0.  0.
</event>
<event>
 5    0  0.5489207E-005  0.2688230E+03  0.7546771E-02  0.1101955E+00
         21   -1    0    0  502  501  0.00000000000E+00  0.00000000000E+00  0.10123228107E+03  0.10123228107E+03  0.00000000000E+00 0.  1.
         21   -1    0    0  501  502 -0.00000000000E+00 -0.00000000000E+00 -0.71386116818E+03  0.71386116818E+03  0.00000000000E+00 0.  1.
         25    1    1    2    0    0 -0.60568309343E+02  0.68268830764E+02 -0.18279683323E+03  0.23951792332E+03  0.12500000000E+03 0.  0.
         25    1    1    2    0    0 -0.97988444155E+02  0.24151831844E+02 -0.17436297068E+03  0.23709173691E+03  0.12500000000E+03 0.  0.
         25    1    1    2    0    0  0.15855675350E+03 -0.92420662608E+02 -0.25546908320E+03  0.33848378902E+03  0.12500000000E+03 0.  0.
</event>
<event>
 5    0  0.5489207E-005  0.2217012E+03  0.7546771E-02  0.1132621E+00
         21   -1    0    0  502  501  0.00000000000E+00  0.00000000000E+00  0.89637930490E+02  0.89637930490E+02  0.00000000000E+00 0.  1.
         21   -1    0    0  501  502 -0.00000000000E+00 -0.00000000000E+00 -0.54833264035E+03  0.54833264035E+03  0.00000000000E+00 0.  1.
         25    1    1    2    0    0 -0.41854523505E+01 -0.63186770386E+01 -0.75347131208E+02  0.14614935468E+03  0.12500000000E+03 0.  0.
         25    1    1    2    0    0 -0.42398436679E+02 -0.70317897014E+02 -0.14621786041E+03  0.20915758838E+03  0.12500000000E+03 0.  0.
         25    1    1    2    0    0  0.46583889029E+02  0.76636574052E+02 -0.23712971825E+03  0.28266362779E+03  0.12500000000E+03 0.  0.
</event>
<event>
 5    0  0.5489207E-005  0.2261990E+03  0.7546771E-02  0.1129344E+00
         21   -1    0    0  502  501  0.00000000000E+00  0.00000000000E+00  0.13852678468E+03  0.13852678468E+03  0.00000000000E+00 0.  1.
         21   -1    0    0  501  502 -0.00000000000E+00 -0.00000000000E+00 -0.36935815961E+03  0.36935815961E+03  0.00000000000E+00 0.  1.
         25    1    1    2    0    0 -0.15033904354E+02  0.24930712511E+02 -0.11977388481E+03  0.17555153713E+03  0.12500000000E+03 0.  0.
         25    1    1    2    0    0  0.51354650848E+02  0.45521169137E+02 -0.11662418037E+03  0.18421638486E+03  0.12500000000E+03 0.  0.
         25    1    1    2    0    0 -0.36320746494E+02 -0.70451881648E+02  0.55666902510E+01  0.14811702230E+03  0.12500000000E+03 0.  0.
</event>
<event>
 5    0  0.5489207E-005  0.3445504E+03  0.7546771E-02  0.1064874E+00
         21   -1    0    0  502  501  0.00000000000E+00  0.00000000000E+00  0.14449477533E+03  0.14449477533E+03  0.00000000000E+00 0. -1.
         21   -1    0    0  501  502 -0.00000000000E+00 -0.00000000000E+00 -0.82158666925E+03  0.82158666925E+03  0.00000000000E+00 0. -1.
         25    1    1    2    0    0 -0.51084709782E+02  0.22326503439E+03 -0.18268680255E+03  0.31852219857E+03  0.12500000000E+03 0.  0.
         25    1    1    2    0    0 -0.94830661319E+02 -0.11516228655E+03 -0.19265758064E+03  0.27385607524E+03  0.12500000000E+03 0.  0.
         25    1    1    2    0    0  0.14591537110E+03 -0.10810274783E+03 -0.30174751073E+03  0.37370317077E+03  0.12500000000E+03 0.  0.
</event>
<event>
 5    0  0.5489207E-005  0.2214330E+03  0.7546771E-02  0.1132819E+00
         21   -1    0    0  502  501  0.00000000000E+00  0.00000000000E+00  0.20218518440E+03  0.20218518440E+03  0.00000000000E+00 0. -1.
         21   -1    0    0  501  502 -0.00000000000E+00 -0.00000000000E+00 -0.24251323874E+03  0.24251323874E+03  0.00000000000E+00 0. -1.
         25    1    1    2    0    0  0.88924526332E+02 -0.60546965307E+02  0.12810928165E+02  0.16541652358E+03  0.12500000000E+03 0.  0.
         25    1    1    2    0    0 -0.55829170645E+02  0.34087515660E+02 -0.40007032740E+02  0.14664384640E+03  0.12500000000E+03 0.  0.
         25    1    1    2    0    0 -0.33095355687E+02  0.26459449647E+02 -0.13131949768E+02  0.13263805317E+03  0.12500000000E+03 0.  0.
</event>
<event>
 5    0  0.5489207E-005  0.3739837E+03  0.7546771E-02  0.1053180E+00
         21   -1    0    0  502  501  0.00000000000E+00  0.00000000000E+00  0.65205982646E+03  0.65205982646E+03  0.00000000000E+00 0. -1.
         21   -1    0    0  501  502 -0.00000000000E+00 -0.00000000000E+00 -0.21449531508E+03  0.21449531508E+03  0.00000000000E+00 0. -1.
         25    1    1    2    0    0 -0.34324747247E+02 -0.25217617069E+03  0.81735340601E+02  0.29508757215E+03  0.12500000000E+03 0.  0.
         25    1    1    2    0    0  0.82710304268E+02  0.74766017960E+02  0.19984582312E+02  0.16868709317E+03  0.12500000000E+03 0.  0.
         25    1    1    2    0    0 -0.48385557021E+02  0.17741015273E+03  0.33584458847E+03  0.40278047622E+03  0.12500000000E+03 0.  0.
</event>
<event>
 5    0  0.5489207E-005  0.2800571E+03  0.7546771E-02  0.1095658E+00
         21   -1    0    0  502  501  0.00000000000E+00  0.00000000000E+00  0.25183462745E+03  0.25183462745E+03  0.00000000000E+00 0. -1.
         21   -1    0    0  501  502 -0.00000000000E+00 -0.00000000000E+00 -0.31144240174E+03  0.31144240174E+03  0.00000000000E+00 0. -1.
         25    1    1    2    0    0  0.61769391235E+02  0.60798270419E+02  0.95012043991E+02  0.17934373667E+03  0.12500000000E+03 0.  0.
         25    1    1    2    0    0  0.81383597955E+02 -0.19177041369E+02 -0.10419016241E+03  0.18295255908E+03  0.12500000000E+03 0.  0.
         25    1    1    2    0    0 -0.14315298919E+03 -0.41621229050E+02 -0.50429655876E+02  0.20098073344E+03  0.12500000000E+03 0.  0.
</event>
<event>
 5    0  0.5489207E-005  0.3144155E+03  0.7546771E-02  0.1078249E+00
         21   -1    0    0  502  501  0.00000000000E+00  0.00000000000E+00  0.26015940052E+04  0.26015940052E+04  0.00000000000E+00 0. -1.
         21   -1    0    0  501  502 -0.00000000000E+00 -0.00000000000E+00 -0.37998677790E+02  0.37998677790E+02  0.00000000000E+00 0. -1.
         25    1    1    2    0    0 -0.10053245748E+03 -0.62748070864E+02  0.24690030550E+03  0.30104626930E+03  0.12500000000E+03 0.  0.
         25    1    1    2    0    0  0.11857087515E+03  0.69656369003E+02  0.11366093952E+04  0.11517017754E+04  0.12500000000E+03 0.  0.
         25    1    1    2    0    0 -0.18038417671E+02 -0.69082981391E+01  0.11800856267E+04  0.11868446383E+04  0.12500000000E+03 0.  0.
</event>
<event>
 5    0  0.5489207E-005  0.3489117E+03  0.7546771E-02  0.1063063E+00
         21   -1    0    0  502  501  0.00000000000E+00  0.00000000000E+00  0.17435318378E+03  0.17435318378E+03  0.00000000000E+00 0.  1.
         21   -1    0    0  501  502 -0.00000000000E+00 -0.00000000000E+00 -0.69823429361E+03  0.69823429361E+03  0.00000000000E+00 0.  1.
         25    1    1    2    0    0 -0.90045817456E+02 -0.98304270096E+02 -0.11097801172E+03  0.21380621564E+03  0.12500000000E+03 0.  0.
         25    1    1    2    0    0 -0.15422965524E+03  0.77457138502E+02 -0.28356389050E+03  0.35471097369E+03  0.12500000000E+03 0.  0.
         25    1    1    2    0    0  0.24427547270E+03  0.20847131594E+02 -0.12933920761E+03  0.30407028806E+03  0.12500000000E+03 0.  0.
</event>
<event>
 5    0  0.5489207E-005  0.3619983E+03  0.7546771E-02  0.1057795E+00
         21   -1    0    0  502  501  0.00000000000E+00  0.00000000000E+00  0.34389396797E+03  0.34389396797E+03  0.00000000000E+00 0.  1.
         21   -1    0    0  501  502 -0.00000000000E+00 -0.00000000000E+00 -0.38105570183E+03  0.38105570183E+03  0.00000000000E+00 0.  1.
         25    1    1    2    0    0  0.25146925858E+03  0.89923351812E+02 -0.44295682814E+02  0.29817797492E+03  0.12500000000E+03 0.  0.
         25    1    1    2    0    0 -0.56038045251E+01 -0.19007510826E+02  0.54990181667E+02  0.13799133369E+03  0.12500000000E+03 0.  0.
         25    1    1    2    0    0 -0.24586545406E+03 -0.70915840985E+02 -0.47856232706E+02  0.28878036119E+03  0.12500000000E+03 0.  0.
</event>
<event>
 5    0  0.5489207E-005  0.3846241E+03  0.7546771E-02  0.1049238E+00
         21   -1    0    0  502  501  0.00000000000E+00  0.00000000000E+00  0.21778578432E+03  0.21778578432E+03  0.00000000000E+00 0. -1.
         21   -1    0    0  501  502 -0.00000000000E+00 -0.00000000000E+00 -0.67927150901E+03  0.67927150901E+03  0.00000000000E+00 0. -1.
         25    1    1    2    0    0  0.17347358264E+03  0.18783856821E+02 -0.24775463555E+03  0.32780066593E+03  0.12500000000E+03 0.  0.
         25    1    1    2    0    0 -0.27437151386E+03  0.99869124372E+01 -0.16762672600E+01  0.30167412204E+03  0.12500000000E+03 0.  0.
         25    1    1    2    0    0  0.10089793121E+03 -0.28770769258E+02 -0.21205482189E+03  0.26758250536E+03  0.12500000000E+03 0.  0.
</event>
<event>
 5    0  0.5489207E-005  0.2897664E+03  0.7546771E-02  0.1090471E+00
         21   -1    0    0  502  501  0.00000000000E+00  0.00000000000E+00  0.98279840703E+03  0.98279840703E+03  0.00000000000E+00 0.  1.
         21   -1    0    0  501  502 -0.00000000000E+00 -0.00000000000E+00 -0.85434176885E+02  0.85434176885E+02  0.00000000000E+00 0.  1.
         25    1    1    2    0    0 -0.49067428322E+02 -0.11388622215E+03  0.55980107448E+03  0.58683892773E+03  0.12500000000E+03 0.  0.
         25    1    1    2    0    0  0.44107848664E+02 -0.19083156263E+02  0.23889299283E+03  0.27386955141E+03  0.12500000000E+03 0.  0.
         25    1    1    2    0    0  0.49595796581E+01  0.13296937842E+03  0.98670162843E+02  0.20752410477E+03  0.12500000000E+03 0.  0.
</event>
<event>
 5    0  0.5489207E-005  0.2273348E+03  0.7546771E-02  0.1128530E+00
         21   -1    0    0  502  501  0.00000000000E+00  0.00000000000E+00  0.46007519462E+02  0.46007519462E+02  0.00000000000E+00 0. -1.
         21   -1    0    0  501  502 -0.00000000000E+00 -0.00000000000E+00 -0.11233186717E+04  0.11233186717E+04  0.00000000000E+00 0. -1.
         25    1    1    2    0    0  0.79459783593E+02 -0.47440975769E+02 -0.30788131440E+03  0.34493536662E+03  0.12500000000E+03 0.  0.
         25    1    1    2    0    0 -0.10183443192E+03  0.38082433998E+02 -0.49181727401E+03  0.51896989731E+03  0.12500000000E+03 0.  0.
         25    1    1    2    0    0  0.22374648326E+02  0.93585417711E+01 -0.27761256383E+03  0.30542092723E+03  0.12500000000E+03 0.  0.
</event>
<event>
 5    0  0.6279110E-005  0.3333304E+03  0.7546771E-02  0.1069673E+00
         21   -1    0    0  502  501  0.00000000000E+00  0.00000000000E+00  0.39117637496E+03  0.39117637496E+03  0.00000000000E+00 0.  1.
         21   -1    0    0  501  502 -0.00000000000E+00 -0.00000000000E+00 -0.28403846359E+03  0.28403846359E+03  0.00000000000E+00 0.  1.
         25    1    1    2    0    0 -0.19023437712E+02 -0.13404707526E+03  0.89340392968E+02  0.20478577925E+03  0.12500000000E+03 0.  0.
         25    1    1    2    0    0 -0.15390583627E+03  0.13028255412E+03 -0.57519204856E+02  0.24411884252E+03  0.12500000000E+03 0.  0.
         25    1    1    2    0    0  0.17292927398E+03  0.37645211407E+01  0.75316723255E+02  0.22631021678E+03  0.12500000000E+03 0.  0.
</event>
<event>
 5    0  0.5489207E-005  0.4109666E+03  0.7546771E-02  0.1040047E+00
         21   -1    0    0  502  501  0.00000000000E+00  0.00000000000E+00  0.88075993447E+03  0.88075993447E+03  0.00000000000E+00 0.  1.
         21   -1    0    0  501  502 -0.00000000000E+00 -0.00000000000E+00 -0.19175885373E+03  0.19175885373E+03  0.00000000000E+00 0.  1.
         25    1    1    2    0    0  0.10989860845E+03 -0.17087514208E+03  0.64258404403E+03  0.68543072003E+03  0.12500000000E+03 0.  0.
         25    1    1    2    0    0 -0.14127343754E+03  0.13168964011E+03  0.87694669442E+02  0.24620255993E+03  0.12500000000E+03 0.  0.
         25    1    1    2    0    0  0.31374829096E+02  0.39185501965E+02 -0.41277632735E+02  0.14088550823E+03  0.12500000000E+03 0.  0.
</event>
<event>
 5    0  0.5489207E-005  0.3245014E+03  0.7546771E-02  0.1073596E+00
         21   -1    0    0  502  501  0.00000000000E+00  0.00000000000E+00  0.69393732073E+03  0.69393732073E+03  0.00000000000E+00 0. -1.
         21   -1    0    0  501  502 -0.00000000000E+00 -0.00000000000E+00 -0.15174450563E+03  0.15174450563E+03  0.00000000000E+00 0. -1.
         25    1    1    2    0    0 -0.42063865535E+01  0.77264612272E+02  0.32736060178E+03  0.35885578941E+03  0.12500000000E+03 0.  0.
         25    1    1    2    0    0  0.14780308309E+03 -0.13263486452E+03  0.14876909032E+03  0.27783988355E+03  0.12500000000E+03 0.  0.
         25    1    1    2    0    0 -0.14359669654E+03  0.55370252248E+02  0.66063122993E+02  0.20898615339E+03  0.12500000000E+03 0.  0.
</event>
<event>
 5    0  0.6361799E-005  0.2908718E+03  0.7546771E-02  0.1089895E+00
         21   -1    0    0  502  501  0.00000000000E+00  0.00000000000E+00  0.10136671842E+03  0.10136671842E+03  0.00000000000E+00 0. -1.
         21   -1    0    0  501  502 -0.00000000000E+00 -0.00000000000E+00 -0.83465677572E+03  0.83465677572E+03  0.00000000000E+00 0. -1.
         25    1    1    2    0    0 -0.14221025712E+02 -0.17250729166E+03 -0.38892080330E+03  0.44367262084E+03  0.12500000000E+03 0.  0.
         25    1    1    2    0    0  0.48319958863E+02  0.10820826108E+03 -0.29103474315E+03  0.33818643957E+03  0.12500000000E+03 0.  0.
         25    1    1    2    0    0 -0.34098933151E+02  0.64299030575E+02 -0.53334510856E+02  0.15416443372E+03  0.12500000000E+03 0.  0.
</event>
<event>
 5    0  0.5997942E-005  0.3634205E+03  0.7546771E-02  0.1057238E+00
         21   -1    0    0  502  501  0.00000000000E+00  0.00000000000E+00  0.60806453090E+03  0.60806453090E+03  0.00000000000E+00 0.  1.
         21   -1    0    0  501  502 -0.00000000000E+00 -0.00000000000E+00 -0.21720462814E+03  0.21720462814E+03  0.00000000000E+00 0.  1.
         25    1    1    2    0    0  0.90969246606E+02 -0.11519308988E+03  0.10784689536E+03  0.22090904152E+03  0.12500000000E+03 0.  0.
         25    1    1    2    0    0 -0.22511149545E+03 -0.82779840062E+01  0.16564195034E+02  0.25815321605E+03  0.12500000000E+03 0.  0.
         25    1    1    2    0    0  0.13414224884E+03  0.12347107389E+03  0.26644881237E+03  0.34620690147E+03  0.12500000000E+03 0.  0.
</event>
<event>
 5    0  0.5755708E-005  0.5470121E+03  0.7546771E-02  0.1002188E+00
         21   -1    0    0  502  501  0.00000000000E+00  0.00000000000E+00  0.60420597372E+03  0.60420597372E+03  0.00000000000E+00 0. -1.
         21   -1    0    0  501  502 -0.00000000000E+00 -0.00000000000E+00 -0.49523208445E+03  0.49523208445E+03  0.00000000000E+00 0. -1.
         25    1    1    2    0    0 -0.30496437371E+03 -0.26359931570E+03 -0.10104265700E+02  0.42215514287E+03  0.12500000000E+03 0.  0.
         25    1    1    2    0    0 -0.34373522471E+02  0.20692000885E+03  0.18372208307E+03  0.30557524919E+03  0.12500000000E+03 0.  0.
         25    1    1    2    0    0  0.33933789618E+03  0.56679306855E+02 -0.64643928107E+02  0.37170766611E+03  0.12500000000E+03 0.  0.
</event>
<event>
 5    0  0.5489207E-005  0.5258949E+03  0.7546771E-02  0.1007233E+00
         21   -1    0    0  502  501  0.00000000000E+00  0.00000000000E+00  0.36264525082E+03  0.36264525082E+03  0.00000000000E+00 0.  1.
         21   -1    0    0  501  502 -0.00000000000E+00 -0.00000000000E+00 -0.76263364990E+03  0.76263364990E+03  0.00000000000E+00 0.  1.
         25    1    1    2    0    0 -0.15672829329E+02 -0.49318027899E+02 -0.10035909503E+03  0.16844837016E+03  0.12500000000E+03 0.  0.
         25    1    1    2    0    0 -0.11864639527E+03  0.35603830460E+03  0.11256260368E+03  0.41126096484E+03  0.12500000000E+03 0.  0.
         25    1    1    2    0    0  0.13431922460E+03 -0.30672027670E+03 -0.41219190774E+03  0.54556956572E+03  0.12500000000E+03 0.  0.
</event>
<event>
 5    0  0.5489207E-005  0.2858361E+03  0.7546771E-02  0.1092543E+00
         21   -1    0    0  502  501  0.00000000000E+00  0.00000000000E+00  0.75370022362E+02  0.75370022362E+02  0.00000000000E+00 0. -1.
         21   -1    0    0  501  502 -0.00000000000E+00 -0.00000000000E+00 -0.10840153858E+04  0.10840153858E+04  0.00000000000E+00 0. -1.
         25    1    1    2    0    0  0.45200412416E+02  0.12103886730E+03 -0.26773674291E+03  0.32249255524E+03  0.12500000000E+03 0.  0.
         25    1    1    2    0    0  0.10186424792E+03 -0.48341059754E+02 -0.44861234675E+03  0.47915678094E+03  0.12500000000E+03 0.  0.
         25    1    1    2    0    0 -0.14706466034E+03 -0.72697807544E+02 -0.29229627382E+03  0.35773607203E+03  0.12500000000E+03 0.  0.
</event>
<event>
 5    0  0.5489207E-005  0.5098921E+03  0.7546771E-02  0.1011229E+00
         21   -1    0    0  502  501  0.00000000000E+00  0.00000000000E+00  0.59365339824E+03  0.59365339824E+03  0.00000000000E+00 0.  1.
         21   -1    0    0  501  502 -0.00000000000E+00 -0.00000000000E+00 -0.43794912970E+03  0.43794912970E+03  0.00000000000E+00 0.  1.
         25    1    1    2    0    0  0.50450183495E+02 -0.45572393494E+03  0.13569998437E+03  0.49423578549E+03  0.12500000000E+03 0.  0.
         25    1    1    2    0    0  0.68777568829E+01  0.31853102725E+03  0.23838006906E+02  0.34307808066E+03  0.12500000000E+03 0.  0.
         25    1    1    2    0    0 -0.57327940378E+02  0.13719290770E+03 -0.38337227453E+01  0.19428866179E+03  0.12500000000E+03 0.  0.
</event>
<event>
 5    0  0.5489207E-005  0.2490810E+03  0.7546771E-02  0.1113887E+00
         21   -1    0    0  502  501  0.00000000000E+00  0.00000000000E+00  0.11115430965E+03  0.11115430965E+03  0.00000000000E+00 0. -1.
         21   -1    0    0  501  502 -0.00000000000E+00 -0.00000000000E+00 -0.55815521223E+03  0.55815521223E+03  0.00000000000E+00 0. -1.
         25    1    1    2    0    0 -0.44760800536E+02 -0.73447607362E+02 -0.12334827167E+03  0.19554507515E+03  0.12500000000E+03 0.  0.
         25    1    1    2    0    0  0.47089187260E+01 -0.27137562861E+02 -0.27184389504E+03  0.30047083803E+03  0.12500000000E+03 0.  0.
         25    1    1    2    0    0  0.40051881810E+02  0.10058517022E+03 -0.51808735870E+02  0.17329360870E+03  0.12500000000E+03 0.  0.
</event>
<event>
 5    0  0.5489207E-005  0.3395882E+03  0.7546771E-02  0.1066971E+00
         21   -1    0    0  502  501  0.00000000000E+00  0.00000000000E+00  0.16685891236E+03  0.16685891236E+03  0.00000000000E+00 0.  1.
         21   -1    0    0  501  502 -0.00000000000E+00 -0.00000000000E+00 -0.69112366969E+03  0.69112366969E+03  0.00000000000E+00 0.  1.
         25    1    1    2    0    0  0.21400225444E+03  0.76747273008E+02 -0.26661815466E+03  0.37201794206E+03  0.12500000000E+03 0.  0.
         25    1    1    2    0    0 -0.40018789262E+02 -0.45024819264E+02  0.12966710470E+02  0.13936238167E+03  0.12500000000E+03 0.  0.
         25    1    1    2    0    0 -0.17398346518E+03 -0.31722453745E+02 -0.27061331314E+03  0.34660225832E+03  0.12500000000E+03 0.  0.
</event>
<event>
 5    0  0.5489207E-005  0.2751219E+03  0.7546771E-02  0.1098383E+00
         21   -1    0    0  502  501  0.00000000000E+00  0.00000000000E+00  0.17485155650E+03  0.17485155650E+03  0.00000000000E+00 0.  1.
         21   -1    0    0  501  502 -0.00000000000E+00 -0.00000000000E+00 -0.43289327705E+03  0.43289327705E+03  0.00000000000E+00 0.  1.
         25    1    1    2    0    0 -0.12817689246E+01 -0.11030695837E+03 -0.18424693810E+03  0.24847777002E+03  0.12500000000E+03 0.  0.
         25    1    1    2    0    0 -0.93740048476E+02 -0.11879356290E+01 -0.10681149245E+02  0.15661320132E+03  0.12500000000E+03 0.  0.
         25    1    1    2    0    0  0.95021817401E+02  0.11149489400E+03 -0.63113633210E+02  0.20265386221E+03  0.12500000000E+03 0.  0.
</event>
<event>
 5    0  0.5489207E-005  0.2310731E+03  0.7546771E-02  0.1125887E+00
         21   -1    0    0  502  501  0.00000000000E+00  0.00000000000E+00  0.28991965297E+02  0.28991965297E+02  0.00000000000E+00 0. -1.
         21   -1    0    0  501  502 -0.00000000000E+00 -0.00000000000E+00 -0.18417096747E+04  0.18417096747E+04  0.00000000000E+00 0. -1.
         25    1    1    2    0    0 -0.31116212824E+02  0.11341225919E+03 -0.90676302886E+03  0.92286225935E+03  0.12500000000E+03 0.  0.
         25    1    1    2    0    0  0.32698033988E+02 -0.52687752814E+02 -0.46867664676E+03  0.48900711645E+03  0.12500000000E+03 0.  0.
         25    1    1    2    0    0 -0.15818211642E+01 -0.60724506372E+02 -0.43727803378E+03  0.45883226418E+03  0.12500000000E+03 0.  0.
</event>
<event>
 5    0  0.5489207E-005  0.3758944E+03  0.7546771E-02  0.1052462E+00
         21   -1    0    0  502  501  0.00000000000E+00  0.00000000000E+00  0.35237919200E+03  0.35237919200E+03  0.00000000000E+00 0. -1.
         21   -1    0    0  501  502 -0.00000000000E+00 -0.00000000000E+00 -0.40097875908E+03  0.40097875908E+03  0.00000000000E+00 0. -1.
         25    1    1    2    0    0  0.48444432506E+02  0.13656683322E+03 -0.87180166082E+02  0.21029204534E+03  0.12500000000E+03 0.  0.
         25    1    1    2    0    0  0.20293537900E+03 -0.68206209549E+02 -0.18257517360E+02  0.24858236464E+03  0.12500000000E+03 0.  0.
         25    1    1    2    0    0 -0.25137981151E+03 -0.68360623671E+02  0.56838116371E+02  0.29448354109E+03  0.12500000000E+03 0.  0.
</event>
<event>
 5    0  0.6523440E-005  0.2846560E+03  0.7546771E-02  0.1093173E+00
         21   -1    0    0  502  501  0.00000000000E+00  0.00000000000E+00  0.54862520136E+02  0.54862520136E+02  0.00000000000E+00 0. -1.
         21   -1    0    0  501  502 -0.00000000000E+00 -0.00000000000E+00 -0.14769467188E+04  0.14769467188E+04  0.00000000000E+00 0. -1.
         25    1    1    2    0    0  0.15915554937E+03  0.10955475704E+01 -0.79790317837E+03  0.82316837353E+03  0.12500000000E+03 0.  0.
         25    1    1    2    0    0 -0.10697718481E+03  0.31341096197E+02 -0.47906390887E+03  0.50749740015E+03  0.12500000000E+03 0.  0.
         25    1    1    2    0    0 -0.52178364564E+02 -0.32436643767E+02 -0.14511711142E+03  0.20114346525E+03  0.12500000000E+03 0.  0.
</event>
<event>
 5    0  0.5489207E-005  0.2620138E+03  0.7546771E-02  0.1105939E+00
         21   -1    0    0  502  501  0.00000000000E+00  0.00000000000E+00  0.20658546173E+03  0.20658546173E+03  0.00000000000E+00 0. -1.
         21   -1    0    0  501  502 -0.00000000000E+00 -0.00000000000E+00 -0.33231395096E+03  0.33231395096E+03  0.00000000000E+00 0. -1.
         25    1    1    2    0    0  0.12224311870E+03  0.82704462968E+02 -0.54159421668E+02  0.20085231196E+03  0.12500000000E+03 0.  0.
         25    1    1    2    0    0 -0.51502371780E+02 -0.58169006627E+02  0.42284753024E+02  0.15313108100E+03  0.12500000000E+03 0.  0.
         25    1    1    2    0    0 -0.70740746918E+02 -0.24535456341E+02 -0.11385382059E+03  0.18491601973E+03  0.12500000000E+03 0.  0.
</event>
<event>
 5    0  0.5489207E-005  0.2447265E+03  0.7546771E-02  0.1116684E+00
         21   -1    0    0  502  501  0.00000000000E+00  0.00000000000E+00  0.37769373293E+02  0.37769373293E+02  0.00000000000E+00 0.  1.
         21   -1    0    0  501  502 -0.00000000000E+00 -0.00000000000E+00 -0.15857039234E+04  0.15857039234E+04  0.00000000000E+00 0.  1.
         25    1    1    2    0    0 -0.12376686317E+03  0.51682647471E+02 -0.62145114127E+03  0.64793198212E+03  0.12500000000E+03 0.  0.
         25    1    1    2    0    0  0.42391654983E+02 -0.53835195483E+02 -0.30900671698E+03  0.34030197152E+03  0.12500000000E+03 0.  0.
         25    1    1    2    0    0  0.81375208184E+02  0.21525480121E+01 -0.61747669188E+03  0.63523934307E+03  0.12500000000E+03 0.  0.
</event>
<event>
 5    0  0.5489207E-005  0.2119036E+03  0.7546771E-02  0.1140067E+00
         21   -1    0    0  502  501  0.00000000000E+00  0.00000000000E+00  0.41245027104E+03  0.41245027104E+03  0.00000000000E+00 0. -1.
         21   -1    0    0  501  502 -0.00000000000E+00 -0.00000000000E+00 -0.10886925553E+03  0.10886925553E+03  0.00000000000E+00 0. -1.
         25    1    1    2    0    0 -0.51185733988E+01 -0.30201915158E+02  0.14749745013E+03  0.19575201983E+03  0.12500000000E+03 0.  0.
         25    1    1    2    0    0 -0.57535106615E+02  0.26179646828E+02  0.11061136766E+03  0.17848119525E+03  0.12500000000E+03 0.  0.
         25    1    1    2    0    0  0.62653680014E+02  0.40222683305E+01  0.45472197722E+02  0.14708631149E+03  0.12500000000E+03 0.  0.
</event>
<event>
 5    0  0.5489207E-005  0.2951234E+03  0.7546771E-02  0.1087704E+00
         21   -1    0    0  502  501  0.00000000000E+00  0.00000000000E+00  0.20791433417E+03  0.20791433417E+03  0.00000000000E+00 0.  1.
         21   -1    0    0  501  502 -0.00000000000E+00 -0.00000000000E+00 -0.41891215484E+03  0.41891215484E+03  0.00000000000E+00 0.  1.
         25    1    1    2    0    0 -0.14121861727E+03  0.11285045144E+03 -0.59700766939E+02  0.22774350447E+03  0.12500000000E+03 0.  0.
         25    1    1    2    0    0  0.43305517973E+02  0.35172735300E+02 -0.11543918548E+03  0.17906338191E+03  0.12500000000E+03 0.  0.
         25    1    1    2    0    0  0.97913099299E+02 -0.14802318674E+03 -0.35857868256E+02  0.22001960263E+03  0.12500000000E+03 0.  0.
</event>
<event>
 5    0  0.5489207E-005  0.2795172E+03  0.7546771E-02  0.1095953E+00
         21   -1    0    0  502  501  0.00000000000E+00  0.00000000000E+00  0.47571674241E+02  0.47571674241E+02  0.00000000000E+00 0.  1.
         21   -1    0    0  501  502 -0.00000000000E+00 -0.00000000000E+00 -0.16423606591E+04  0.16423606591E+04  0.00000000000E+00 0.  1.
         25    1    1    2    0    0 -0.35511450926E+02 -0.16149830866E+03 -0.10177982788E+04  0.10386920155E+04  0.12500000000E+03 0.  0.
         25    1    1    2    0    0  0.34848951487E+01  0.81591947028E+02 -0.26105956713E+03  0.30074322586E+03  0.12500000000E+03 0.  0.
         25    1    1    2    0    0  0.32026555777E+02  0.79906361629E+02 -0.31593113899E+03  0.35049709198E+03  0.12500000000E+03 0.  0.
</event>
<event>
 5    0  0.5489207E-005  0.4037454E+03  0.7546771E-02  0.1042490E+00
         21   -1    0    0  502  501  0.00000000000E+00  0.00000000000E+00  0.23948541654E+03  0.23948541654E+03  0.00000000000E+00 0.  1.
         21   -1    0    0  501  502 -0.00000000000E+00 -0.00000000000E+00 -0.68066928192E+03  0.68066928192E+03  0.00000000000E+00 0.  1.
         25    1    1    2    0    0  0.49059255369E+02 -0.44814306318E+02  0.15194225637E+03  0.20766940521E+03  0.12500000000E+03 0.  0.
         25    1    1    2    0    0 -0.12119256541E+03  0.19996052250E+02 -0.10826884641E+03  0.20599665803E+03  0.12500000000E+03 0.  0.
         25    1    1    2    0    0  0.72133310037E+02  0.24818254068E+02 -0.48485727535E+03  0.50648863522E+03  0.12500000000E+03 0.  0.
</event>
<event>
 5    0  0.5489207E-005  0.2551247E+03  0.7546771E-02  0.1110108E+00
         21   -1    0    0  502  501  0.00000000000E+00  0.00000000000E+00  0.64512360268E+03  0.64512360268E+03  0.00000000000E+00 0.  1.
         21   -1    0    0  501  502 -0.00000000000E+00 -0.00000000000E+00 -0.10089321215E+03  0.10089321215E+03  0.00000000000E+00 0.  1.
         25    1    1    2    0    0 -0.39060231206E+02 -0.76347691459E+02  0.29400004769E+03  0.33078044032E+03  0.12500000000E+03 0.  0.
         25    1    1    2    0    0 -0.96584829009E+01  0.11799301927E+03  0.67904186028E+02  0.18507192485E+03  0.12500000000E+03 0.  0.
         25    1    1    2    0    0  0.48718714107E+02 -0.41645327807E+02  0.18232615681E+03  0.23016444967E+03  0.12500000000E+03 0.  0.
</event>
<event>
 5    0  0.5605145E-005  0.2465996E+03  0.7546771E-02  0.1115473E+00
         21   -1    0    0  502  501  0.00000000000E+00  0.00000000000E+00  0.29797551345E+03  0.29797551345E+03  0.00000000000E+00 0. -1.
         21   -1    0    0  501  502 -0.00000000000E+00 -0.00000000000E+00 -0.20408174264E+03  0.20408174264E+03  0.00000000000E+00 0. -1.
         25    1    1    2    0    0 -0.57585069289E+00 -0.23202712993E+02 -0.44555216718E+02  0.13471772278E+03  0.12500000000E+03 0.  0.
         25    1    1    2    0    0 -0.25707925098E+02  0.80173901358E+02 -0.24400711322E+02  0.15267333292E+03  0.12500000000E+03 0.  0.
         25    1    1    2    0    0  0.26283775791E+02 -0.56971188365E+02  0.16284969885E+03  0.21466620039E+03  0.12500000000E+03 0.  0.
</event>
<event>
 5    0  0.5489207E-005  0.2602921E+03  0.7546771E-02  0.1106968E+00
         21   -1    0    0  502  501  0.00000000000E+00  0.00000000000E+00  0.10609185442E+04  0.10609185442E+04  0.00000000000E+00 0.  1.
         21   -1    0    0  501  502 -0.00000000000E+00 -0.00000000000E+00 -0.63861604605E+02  0.63861604605E+02  0.00000000000E+00 0.  1.
         25    1    1    2    0    0 -0.44318570080E+02 -0.24942514534E+02  0.31201985168E+03  0.33995242686E+03  0.12500000000E+03 0.  0.
         25    1    1    2    0    0  0.34754303058E+02 -0.28737779303E+02  0.61937276393E+03  0.63346771208E+03  0.12500000000E+03 0.  0.
         25    1    1    2    0    0  0.95642670219E+01  0.53680293838E+02  0.65664324018E+02  0.15136000991E+03  0.12500000000E+03 0.  0.
</event>
<event>
 5    0  0.5489207E-005  0.3647089E+03  0.7546771E-02  0.1056735E+00
         21   -1    0    0  502  501  0.00000000000E+00  0.00000000000E+00  0.26639613186E+03  0.26639613186E+03  0.00000000000E+00 0. -1.
         21   -1    0    0  501  502 -0.00000000000E+00 -0.00000000000E+00 -0.49930375187E+03  0.49930375187E+03  0.00000000000E+00 0. -1.
         25    1    1    2    0    0 -0.16144175762E+03  0.43117634992E+02 -0.57828009171E+02  0.21654479951E+03  0.12500000000E+03 0.  0.
         25    1    1    2    0    0  0.18042885818E+03  0.47657610189E+02 -0.28185357662E+03  0.36040568714E+03  0.12500000000E+03 0.  0.
         25    1    1    2    0    0 -0.18987100559E+02 -0.90775245181E+02  0.10677396579E+03  0.18874939707E+03  0.12500000000E+03 0.  0.
</event>
<event>
 5    0  0.7146712E-005  0.2782078E+03  0.7546771E-02  0.1096672E+00
         21   -1    0    0  502  501  0.00000000000E+00  0.00000000000E+00  0.20213759940E+03  0.20213759940E+03  0.00000000000E+00 0.  1.
         21   -1    0    0  501  502 -0.00000000000E+00 -0.00000000000E+00 -0.38290552131E+03  0.38290552131E+03  0.00000000000E+00 0.  1.
         25    1    1    2    0    0  0.42192669448E+02 -0.10038828636E+03  0.11698079573E+02  0.16619228159E+03  0.12500000000E+03 0.  0.
         25    1    1    2    0    0 -0.45412745908E+02  0.15476914837E+03 -0.29208534450E+02  0.20614059586E+03  0.12500000000E+03 0.  0.
         25    1    1    2    0    0  0.32200764608E+01 -0.54380862005E+02 -0.16325746704E+03  0.21271024326E+03  0.12500000000E+03 0.  0.
</event>
<event>
 5    0  0.5489207E-005  0.4832384E+03  0.7546771E-02  0.1018249E+00
         21   -1    0    0  502  501  0.00000000000E+00  0.00000000000E+00  0.85251405005E+03  0.85251405005E+03  0.00000000000E+00 0. -1.
         21   -1    0    0  501  502 -0.00000000000E+00 -0.00000000000E+00 -0.27391844305E+03  0.27391844305E+03  0.00000000000E+00 0. -1.
         25    1    1    2    0    0  0.66999997295E+02  0.19206325624E+03  0.60244171796E+01  0.23882752697E+03  0.12500000000E+03 0.  0.
         25    1    1    2    0    0 -0.20498098053E+03 -0.89758436901E+02 -0.20986976506E+02  0.25717548981E+03  0.12500000000E+03 0.  0.
         25    1    1    2    0    0  0.13798098324E+03 -0.10230481934E+03  0.59355816633E+03  0.63042947632E+03  0.12500000000E+03 0.  0.
</event>
<event>
 5    0  0.5489207E-005  0.2625435E+03  0.7546771E-02  0.1105625E+00
         21   -1    0    0  502  501  0.00000000000E+00  0.00000000000E+00  0.16839134550E+03  0.16839134550E+03  0.00000000000E+00 0.  1.
         21   -1    0    0  501  502 -0.00000000000E+00 -0.00000000000E+00 -0.40933874012E+03  0.40933874012E+03  0.00000000000E+00 0.  1.
         25    1    1    2    0    0 -0.43722043511E+02 -0.98443090821E+02 -0.23632467012E+03  0.28823082577E+03  0.12500000000E+03 0.  0.
         25    1    1    2    0    0  0.38367310519E+02  0.69768653981E+02 -0.45090943430E+02  0.15491258430E+03  0.12500000000E+03 0.  0.
         25    1    1    2    0    0  0.53547329916E+01  0.28674436840E+02  0.40468218924E+02  0.13458667555E+03  0.12500000000E+03 0.  0.
</event>
<event>
 5    0  0.5813905E-005  0.5069998E+03  0.7546771E-02  0.1011968E+00
         21   -1    0    0  502  501  0.00000000000E+00  0.00000000000E+00  0.65714757931E+03  0.65714757931E+03  0.00000000000E+00 0. -1.
         21   -1    0    0  501  502 -0.00000000000E+00 -0.00000000000E+00 -0.39115846002E+03  0.39115846002E+03  0.00000000000E+00 0. -1.
         25    1    1    2    0    0 -0.16780507068E+03  0.18018449742E+03 -0.23278899177E-01  0.27613401710E+03  0.12500000000E+03 0.  0.
         25    1    1    2    0    0 -0.77958957280E+02 -0.18549427961E+03  0.40053239921E+03  0.46533528730E+03  0.12500000000E+03 0.  0.
         25    1    1    2    0    0  0.24576402796E+03  0.53097821957E+01 -0.13452000103E+03  0.30683673493E+03  0.12500000000E+03 0.  0.
</event>
<event>
 5    0  0.5489207E-005  0.3746864E+03  0.7546771E-02  0.1052915E+00
         21   -1    0    0  502  501  0.00000000000E+00  0.00000000000E+00  0.47134691511E+03  0.47134691511E+03  0.00000000000E+00 0. -1.
         21   -1    0    0  501  502 -0.00000000000E+00 -0.00000000000E+00 -0.29784831425E+03  0.29784831425E+03  0.00000000000E+00 0. -1.
         25    1    1    2    0    0 -0.65309808364E+02  0.65521368513E+02 -0.19197139238E+03  0.24705553281E+03  0.12500000000E+03 0.  0.
         25    1    1    2    0    0  0.99846185623E+00 -0.12753166320E+03  0.75303799557E+02  0.19380656406E+03  0.12500000000E+03 0.  0.
         25    1    1    2    0    0  0.64311346508E+02  0.62010294688E+02  0.29016619368E+03  0.32833313249E+03  0.12500000000E+03 0.  0.
</event>
<event>
 5    0  0.5489207E-005  0.3401666E+03  0.7546771E-02  0.1066725E+00
         21   -1    0    0  502  501  0.00000000000E+00  0.00000000000E+00  0.78529847270E+02  0.78529847270E+02  0.00000000000E+00 0. -1.
         21   -1    0    0  501  502 -0.00000000000E+00 -0.00000000000E+00 -0.14734948245E+04  0.14734948245E+04  0.00000000000E+00 0. -1.
         25    1    1    2    0    0 -0.75414435918E+02  0.17743552267E+03 -0.52376539285E+03  0.57194920107E+03  0.12500000000E+03 0.  0.
         25    1    1    2    0    0 -0.61992062868E+02 -0.21594890186E+03 -0.45339482434E+03  0.52121858256E+03  0.12500000000E+03 0.  0.
         25    1    1    2    0    0  0.13740649879E+03  0.38513379189E+02 -0.41780476007E+03  0.45885688817E+03  0.12500000000E+03 0.  0.
</event>
<event>
 5    0  0.5489207E-005  0.3714993E+03  0.7546771E-02  0.1054121E+00
         21   -1    0    0  502  501  0.00000000000E+00  0.00000000000E+00  0.16356617817E+04  0.16356617817E+04  0.00000000000E+00 0.  1.
         21   -1    0    0  501  502 -0.00000000000E+00 -0.00000000000E+00 -0.84376695464E+02  0.84376695464E+02  0.00000000000E+00 0.  1.
         25    1    1    2    0    0 -0.13330138621E+03  0.68438702386E+02  0.20028972135E+03  0.27963205830E+03  0.12500000000E+03 0.  0.
         25    1    1    2    0    0  0.53602136076E+02 -0.17608744589E+02  0.77944339686E+02  0.15774529143E+03  0.12500000000E+03 0.  0.
         25    1    1    2    0    0  0.79699250135E+02 -0.50829957797E+02  0.12730510251E+04  0.12826611274E+04  0.12500000000E+03 0.  0.
</event>
<event>
 5    0  0.5489207E-005  0.2929227E+03  0.7546771E-02  0.1088833E+00
         21   -1    0    0  502  501  0.00000000000E+00  0.00000000000E+00  0.30345548932E+03  0.30345548932E+03  0.00000000000E+00 0. -1.
         21   -1    0    0  501  502 -0.00000000000E+00 -0.00000000000E+00 -0.28275556045E+03  0.28275556045E+03  0.00000000000E+00 0. -1.
         25    1    1    2    0    0  0.85155684363E+02  0.43730518357E+02 -0.16753114676E+03  0.22990331435E+03  0.12500000000E+03 0.  0.
         25    1    1    2    0    0 -0.45686864614E+01 -0.62940325289E+02  0.40414680746E+02  0.14574190840E+03  0.12500000000E+03 0.  0.
         25    1    1    2    0    0 -0.80586997902E+02  0.19209806931E+02  0.14781639488E+03  0.21056582702E+03  0.12500000000E+03 0.  0.
</event>
<event>
 5    0  0.5489207E-005  0.3175611E+03  0.7546771E-02  0.1076777E+00
         21   -1    0    0  502  501  0.00000000000E+00  0.00000000000E+00  0.47379303744E+03  0.47379303744E+03  0.00000000000E+00 0.  1.
         21   -1    0    0  501  502 -0.00000000000E+00 -0.00000000000E+00 -0.21284619266E+03  0.21284619266E+03  0.00000000000E+00 0.  1.
         25    1    1    2    0    0  0.13043125258E+03 -0.40540766561E+02  0.20402064364E+03  0.27550914401E+03  0.12500000000E+03 0.  0.
         25    1    1    2    0    0  0.78198734634E+02  0.35031885270E+02  0.71193554166E+02  0.16743893585E+03  0.12500000000E+03 0.  0.
         25    1    1    2    0    0 -0.20862998722E+03  0.55088812906E+01 -0.14267353026E+02  0.24369115023E+03  0.12500000000E+03 0.  0.
</event>
<event>
 5    0  0.5489207E-005  0.3875104E+03  0.7546771E-02  0.1048192E+00
         21   -1    0    0  502  501  0.00000000000E+00  0.00000000000E+00  0.44572203795E+03  0.44572203795E+03  0.00000000000E+00 0.  1.
         21   -1    0    0  501  502 -0.00000000000E+00 -0.00000000000E+00 -0.33690123174E+03  0.33690123174E+03  0.00000000000E+00 0.  1.
         25    1    1    2    0    0 -0.29701710230E+02 -0.84768608181E+02 -0.33010601106E+02  0.15742492912E+03  0.12500000000E+03 0.  0.
         25    1    1    2    0    0  0.96885319511E+02 -0.13120233145E+03  0.26792582076E+03  0.33765376104E+03  0.12500000000E+03 0.  0.
         25    1    1    2    0    0 -0.67183609281E+02  0.21597093963E+03 -0.12609441344E+03  0.28754457953E+03  0.12500000000E+03 0.  0.
</event>
<event>
 5    0  0.5489207E-005  0.2777816E+03  0.7546771E-02  0.1096907E+00
         21   -1    0    0  502  501  0.00000000000E+00  0.00000000000E+00  0.92513458200E+02  0.92513458200E+02  0.00000000000E+00 0.  1.
         21   -1    0    0  501  502 -0.00000000000E+00 -0.00000000000E+00 -0.83406880715E+03  0.83406880715E+03  0.00000000000E+00 0.  1.
         25    1    1    2    0    0  0.35444585579E+02 -0.55445255043E+01 -0.48881828525E+03  0.50582148670E+03  0.12500000000E+03 0.  0.
         25    1    1    2    0    0  0.70329504131E+02 -0.25114124663E+02 -0.19724616874E+03  0.24516934860E+03  0.12500000000E+03 0.  0.
         25    1    1    2    0    0 -0.10577408971E+03  0.30658650167E+02 -0.55490894953E+02  0.17559143005E+03  0.12500000000E+03 0.  0.
</event>
<event>
 5    0  0.5489207E-005  0.3555358E+03  0.7546771E-02  0.1060366E+00
         21   -1    0    0  502  501  0.00000000000E+00  0.00000000000E+00  0.11839679519E+03  0.11839679519E+03  0.00000000000E+00 0. -1.
         21   -1    0    0  501  502 -0.00000000000E+00 -0.00000000000E+00 -0.10676446392E+04  0.10676446392E+04  0.00000000000E+00 0. -1.
         25    1    1    2    0    0  0.35179514884E+02 -0.21639134418E+03 -0.24220060047E+03  0.34978413768E+03  0.12500000000E+03 0.  0.
         25    1    1    2    0    0 -0.90291404004E+02 -0.43757045534E+01 -0.42879300037E+03  0.45569740134E+03  0.12500000000E+03 0.  0.
         25    1    1    2    0    0  0.55111889120E+02  0.22076704873E+03 -0.27825424320E+03  0.38055989540E+03  0.12500000000E+03 0.  0.
</event>
<event>
 5    0  0.5489207E-005  0.3579662E+03  0.7546771E-02  0.1059392E+00
         21   -1    0    0  502  501  0.00000000000E+00  0.00000000000E+00  0.57605322979E+03  0.57605322979E+03  0.00000000000E+00 0.  1.
         21   -1    0    0  501  502 -0.00000000000E+00 -0.00000000000E+00 -0.22244443276E+03  0.22244443276E+03  0.00000000000E+00 0.  1.
         25    1    1    2    0    0  0.27279109978E+02  0.11287293667E+03  0.29276634632E+03  0.33885333585E+03  0.12500000000E+03 0.  0.
         25    1    1    2    0    0 -0.15768049683E+03  0.24832723333E+02  0.10489667033E+03  0.22827201904E+03  0.12500000000E+03 0.  0.
         25    1    1    2    0    0  0.13040138685E+03 -0.13770566000E+03 -0.44054219631E+02  0.23137230767E+03  0.12500000000E+03 0.  0.
</event>
<event>
 5    0  0.5489207E-005  0.3044108E+03  0.7546771E-02  0.1083056E+00
         21   -1    0    0  502  501  0.00000000000E+00  0.00000000000E+00  0.59988627834E+02  0.59988627834E+02  0.00000000000E+00 0. -1.
         21   -1    0    0  501  502 -0.00000000000E+00 -0.00000000000E+00 -0.15447246853E+04  0.15447246853E+04  0.00000000000E+00 0. -1.
         25    1    1    2    0    0 -0.68520811756E+01 -0.16846813028E+03 -0.77293719344E+03  0.80092781631E+03  0.12500000000E+03 0.  0.
         25    1    1    2    0    0 -0.40414924755E+02  0.14487213377E+03 -0.58953507213E+03  0.62112631771E+03  0.12500000000E+03 0.  0.
         25    1    1    2    0    0  0.47267005931E+02  0.23595996518E+02 -0.12226379187E+03  0.18265917909E+03  0.12500000000E+03 0.  0.
</event>
<event>
 5    0  0.5489207E-005  0.3680280E+03  0.7546771E-02  0.1055450E+00
         21   -1    0    0  502  501  0.00000000000E+00  0.00000000000E+00  0.11984835105E+03  0.11984835105E+03  0.00000000000E+00 0.  1.
         21   -1    0    0  501  502 -0.00000000000E+00 -0.00000000000E+00 -0.11301335381E+04  0.11301335381E+04  0.00000000000E+00 0.  1.
         25    1    1    2    0    0 -0.14203798015E+03  0.45642300956E+02 -0.34580212463E+03  0.39681496550E+03  0.12500000000E+03 0.  0.
         25    1    1    2    0    0  0.14313153712E+03  0.13529182905E+03 -0.11248832643E+03  0.25897710229E+03  0.12500000000E+03 0.  0.
         25    1    1    2    0    0 -0.10935569695E+01 -0.18093413000E+03 -0.55199473604E+03  0.59418982142E+03  0.12500000000E+03 0.  0.
</event>
<event>
 5    0  0.5657649E-005  0.3303496E+03  0.7546771E-02  0.1070982E+00
         21   -1    0    0  502  501  0.00000000000E+00  0.00000000000E+00  0.66586134848E+03  0.66586134848E+03  0.00000000000E+00 0. -1.
         21   -1    0    0  501  502 -0.00000000000E+00 -0.00000000000E+00 -0.16389423728E+03  0.16389423728E+03  0.00000000000E+00 0. -1.
         25    1    1    2    0    0 -0.24297850765E+03  0.32189723965E+02  0.14984759351E+03  0.31329544329E+03  0.12500000000E+03 0.  0.
         25    1    1    2    0    0  0.13259920764E+03 -0.76777927644E+02  0.13661254739E+03  0.24034431165E+03  0.12500000000E+03 0.  0.
         25    1    1    2    0    0  0.11037930001E+03  0.44588203679E+02  0.21550697030E+03  0.27611583082E+03  0.12500000000E+03 0.  0.
</event>
<event>
 5    0  0.5489207E-005  0.3001011E+03  0.7546771E-02  0.1085190E+00
         21   -1    0    0  502  501  0.00000000000E+00  0.00000000000E+00  0.74406893798E+03  0.74406893798E+03  0.00000000000E+00 0. -1.
         21   -1    0    0  501  502 -0.00000000000E+00 -0.00000000000E+00 -0.12103805816E+03  0.12103805816E+03  0.00000000000E+00 0. -1.
         25    1    1    2    0    0 -0.17349486522E+02 -0.12512383213E+03  0.10024017440E+03  0.20403448389E+03  0.12500000000E+03 0.  0.
         25    1    1    2    0    0 -0.42755876434E+02  0.14440488945E+03  0.10855595985E+03  0.22380847501E+03  0.12500000000E+03 0.  0.
         25    1    1    2    0    0  0.60105362956E+02 -0.19281057318E+02  0.41423474557E+03  0.43726403724E+03  0.12500000000E+03 0.  0.
</event>
<event>
 5    0  0.5489207E-005  0.2657579E+03  0.7546771E-02  0.1103732E+00
         21   -1    0    0  502  501  0.00000000000E+00  0.00000000000E+00  0.32352206049E+03  0.32352206049E+03  0.00000000000E+00 0. -1.
         21   -1    0    0  501  502 -0.00000000000E+00 -0.00000000000E+00 -0.21830736738E+03  0.21830736738E+03  0.00000000000E+00 0. -1.
         25    1    1    2    0    0 -0.32014939073E+02 -0.15934855491E+03  0.85226527511E+02  0.22204837146E+03  0.12500000000E+03 0.  0.
         25    1    1    2    0    0  0.14667421640E+02  0.15162208978E+02  0.18871291455E+02  0.12816454845E+03  0.12500000000E+03 0.  0.
         25    1    1    2    0    0  0.17347517433E+02  0.14418634594E+03  0.11168741497E+01  0.19161650796E+03  0.12500000000E+03 0.  0.
</event>
<event>
 5    0  0.1025892E-004  0.7258221E+03  0.7546771E-02  0.9674064E-01
         21   -1    0    0  502  501  0.00000000000E+00  0.00000000000E+00  0.43682201391E+03  0.43682201391E+03  0.00000000000E+00 0. -1.
         21   -1    0    0  501  502 -0.00000000000E+00 -0.00000000000E+00 -0.12060238414E+04  0.12060238414E+04  0.00000000000E+00 0. -1.
         25    1    1    2    0    0 -0.11005705197E+03 -0.35307848186E+03  0.28899046156E+02  0.39145513652E+03  0.12500000000E+03 0.  0.
         25    1    1    2    0    0  0.78791103844E+01 -0.45742159003E+02 -0.81006419318E+03  0.82096493383E+03  0.12500000000E+03 0.  0.
         25    1    1    2    0    0  0.10217794158E+03  0.39882064087E+03  0.11963319548E+02  0.43042578494E+03  0.12500000000E+03 0.  0.
</event>
<event>
 5    0  0.5489207E-005  0.3349952E+03  0.7546771E-02  0.1068948E+00
         21   -1    0    0  502  501  0.00000000000E+00  0.00000000000E+00  0.23542309762E+03  0.23542309762E+03  0.00000000000E+00 0.  1.
         21   -1    0    0  501  502 -0.00000000000E+00 -0.00000000000E+00 -0.47668116597E+03  0.47668116597E+03  0.00000000000E+00 0.  1.
         25    1    1    2    0    0 -0.58915029662E+02  0.62296292475E+02 -0.65344322909E+02  0.16506571210E+03  0.12500000000E+03 0.  0.
         25    1    1    2    0    0  0.23756933167E+03 -0.11480867296E+03 -0.77217756195E+02  0.30200629233E+03  0.12500000000E+03 0.  0.
         25    1    1    2    0    0 -0.17865430201E+03  0.52512380482E+02 -0.98695989246E+02  0.24503225915E+03  0.12500000000E+03 0.  0.
</event>
<event>
 5    0  0.5489207E-005  0.3575931E+03  0.7546771E-02  0.1059541E+00
         21   -1    0    0  502  501  0.00000000000E+00  0.00000000000E+00  0.95331807948E+02  0.95331807948E+02  0.00000000000E+00 0. -1.
         21   -1    0    0  501  502 -0.00000000000E+00 -0.00000000000E+00 -0.13413444644E+04  0.13413444644E+04  0.00000000000E+00 0. -1.
         25    1    1    2    0    0 -0.31270181966E+02  0.21621459271E+03 -0.45781247448E+03  0.52244027043E+03  0.12500000000E+03 0.  0.
         25    1    1    2    0    0 -0.89145845055E+02 -0.21549967113E+03 -0.32196551119E+03  0.41674198294E+03  0.12500000000E+03 0.  0.
         25    1    1    2    0    0  0.12041602702E+03 -0.71492158264E+00 -0.46623467076E+03  0.49749401895E+03  0.12500000000E+03 0.  0.
</event>
<event>
 5    0  0.5489207E-005  0.2036742E+03  0.7546771E-02  0.1146676E+00
         21   -1    0    0  502  501  0.00000000000E+00  0.00000000000E+00  0.97598048709E+03  0.97598048709E+03  0.00000000000E+00 0. -1.
         21   -1    0    0  501  502 -0.00000000000E+00 -0.00000000000E+00 -0.42504124453E+02  0.42504124453E+02  0.00000000000E+00 0. -1.
         25    1    1    2    0    0  0.73163616032E+01 -0.24129795800E+01  0.45288710527E+03  0.46988411522E+03  0.12500000000E+03 0.  0.
         25    1    1    2    0    0  0.10587166601E+01  0.29685378621E+02  0.30694842511E+03  0.33275317919E+03  0.12500000000E+03 0.  0.
         25    1    1    2    0    0 -0.83750782633E+01 -0.27272399041E+02  0.17364083226E+03  0.21584731713E+03  0.12500000000E+03 0.  0.
</event>
<event>
 5    0  0.5489207E-005  0.3312860E+03  0.7546771E-02  0.1070569E+00
         21   -1    0    0  502  501  0.00000000000E+00  0.00000000000E+00  0.62733747697E+02  0.62733747697E+02  0.00000000000E+00 0. -1.
         21   -1    0    0  501  502 -0.00000000000E+00 -0.00000000000E+00 -0.17494635169E+04  0.17494635169E+04  0.00000000000E+00 0. -1.
         25    1    1    2    0    0 -0.13530878812E+03 -0.32249071097E+02 -0.48069682260E+03  0.51579347222E+03  0.12500000000E+03 0.  0.
         25    1    1    2    0    0 -0.73027085079E+02  0.14665834702E+03 -0.48385596625E+03  0.52591180057E+03  0.12500000000E+03 0.  0.
         25    1    1    2    0    0  0.20833587320E+03 -0.11440927592E+03 -0.72217698033E+03  0.77049199178E+03  0.12500000000E+03 0.  0.
</event>
<event>
 5    0  0.5489207E-005  0.2198625E+03  0.7546771E-02  0.1133986E+00
         21   -1    0    0  502  501  0.00000000000E+00  0.00000000000E+00  0.28478287839E+03  0.28478287839E+03  0.00000000000E+00 0. -1.
         21   -1    0    0  501  502 -0.00000000000E+00 -0.00000000000E+00 -0.16974164831E+03  0.16974164831E+03  0.00000000000E+00 0. -1.
         25    1    1    2    0    0 -0.13969957522E+02  0.73047988790E+01  0.48751058436E+02  0.13509324742E+03  0.12500000000E+03 0.  0.
         25    1    1    2    0    0 -0.32444529955E+02  0.53918717739E+02 -0.31058061219E+02  0.14335089401E+03  0.12500000000E+03 0.  0.
         25    1    1    2    0    0  0.46414487476E+02 -0.61223516618E+02  0.97348232862E+02  0.17608038527E+03  0.12500000000E+03 0.  0.
</event>
<event>
 5    0  0.5489207E-005  0.2982484E+03  0.7546771E-02  0.1086120E+00
         21   -1    0    0  502  501  0.00000000000E+00  0.00000000000E+00  0.92391037096E+02  0.92391037096E+02  0.00000000000E+00 0. -1.
         21   -1    0    0  501  502 -0.00000000000E+00 -0.00000000000E+00 -0.96277828004E+03  0.96277828004E+03  0.00000000000E+00 0. -1.
         25    1    1    2    0    0  0.27005852313E+02  0.84284368831E+02 -0.54712909768E+03  0.56816231872E+03  0.12500000000E+03 0.  0.
         25    1    1    2    0    0  0.71936062171E+02 -0.55335342779E+02 -0.27922211255E+03  0.31910309516E+03  0.12500000000E+03 0.  0.
         25    1    1    2    0    0 -0.98941914485E+02 -0.28949026052E+02 -0.44036032712E+02  0.16790390325E+03  0.12500000000E+03 0.  0.
</event>
<event>
 5    0  0.5489207E-005  0.4135978E+03  0.7546771E-02  0.1039170E+00
         21   -1    0    0  502  501  0.00000000000E+00  0.00000000000E+00  0.45358909833E+03  0.45358909833E+03  0.00000000000E+00 0.  1.
         21   -1    0    0  501  502 -0.00000000000E+00 -0.00000000000E+00 -0.37713233842E+03  0.37713233842E+03  0.00000000000E+00 0.  1.
         25    1    1    2    0    0  0.71203561823E+02  0.19773473022E+03  0.22802304815E+03  0.33434784467E+03  0.12500000000E+03 0.  0.
         25    1    1    2    0    0 -0.39449072483E+02 -0.27149625499E+03 -0.17089260375E+03  0.34654830516E+03  0.12500000000E+03 0.  0.
         25    1    1    2    0    0 -0.31754489340E+02  0.73761524765E+02  0.19326315509E+02  0.14982528692E+03  0.12500000000E+03 0.  0.
</event>
<event>
 5    0  0.5489207E-005  0.2833418E+03  0.7546771E-02  0.1093878E+00
         21   -1    0    0  502  501  0.00000000000E+00  0.00000000000E+00  0.91624663316E+03  0.91624663316E+03  0.00000000000E+00 0.  1.
         21   -1    0    0  501  502 -0.00000000000E+00 -0.00000000000E+00 -0.87621131860E+02  0.87621131860E+02  0.00000000000E+00 0.  1.
         25    1    1    2    0    0 -0.14325563903E+03  0.67764456521E+02  0.29384862997E+03  0.35649153849E+03  0.12500000000E+03 0.  0.
         25    1    1    2    0    0  0.11224074808E+03 -0.10925077487E+03  0.18655794848E+03  0.27379296098E+03  0.12500000000E+03 0.  0.
         25    1    1    2    0    0  0.31014890946E+02  0.41486318353E+02  0.34821892284E+03  0.37358326555E+03  0.12500000000E+03 0.  0.
</event>
<event>
 5    0  0.5489207E-005  0.3637129E+03  0.7546771E-02  0.1057123E+00
         21   -1    0    0  502  501  0.00000000000E+00  0.00000000000E+00  0.65688726465E+03  0.65688726465E+03  0.00000000000E+00 0.  1.
         21   -1    0    0  501  502 -0.00000000000E+00 -0.00000000000E+00 -0.20138471642E+03  0.20138471642E+03  0.00000000000E+00 0.  1.
         25    1    1    2    0    0  0.15084396050E+03 -0.95294915356E+02  0.98398865959E+02  0.23904467811E+03  0.12500000000E+03 0.  0.
         25    1    1    2    0    0 -0.20094089137E+03  0.88518485830E+02  0.40397243126E+03  0.47647821500E+03  0.12500000000E+03 0.  0.
         25    1    1    2    0    0  0.50096930870E+02  0.67764295260E+01 -0.46868748988E+02  0.14274908795E+03  0.12500000000E+03 0.  0.
</event>
<event>
 5    0  0.5489207E-005  0.2591022E+03  0.7546771E-02  0.1107684E+00
         21   -1    0    0  502  501  0.00000000000E+00  0.00000000000E+00  0.10042192815E+04  0.10042192815E+04  0.00000000000E+00 0.  1.
         21   -1    0    0  501  502 -0.00000000000E+00 -0.00000000000E+00 -0.66851893345E+02  0.66851893345E+02  0.00000000000E+00 0.  1.
         25    1    1    2    0    0 -0.22860105893E+02  0.14895531532E+03  0.46211790134E+03  0.50188467315E+03  0.12500000000E+03 0.  0.
         25    1    1    2    0    0  0.65307550518E+02 -0.55996522024E+02  0.23410287950E+03  0.27898000793E+03  0.12500000000E+03 0.  0.
         25    1    1    2    0    0 -0.42447444625E+02 -0.92958793293E+02  0.24114660732E+03  0.29020649377E+03  0.12500000000E+03 0.  0.
</event>
<event>
 5    0  0.5489207E-005  0.2885674E+03  0.7546771E-02  0.1091099E+00
         21   -1    0    0  502  501  0.00000000000E+00  0.00000000000E+00  0.91847044219E+03  0.91847044219E+03  0.00000000000E+00 0. -1.
         21   -1    0    0  501  502 -0.00000000000E+00 -0.00000000000E+00 -0.90662846519E+02  0.90662846519E+02  0.00000000000E+00 0. -1.
         25    1    1    2    0    0  0.58966706722E+02 -0.58333868323E+02  0.63978314179E+03  0.65713574032E+03  0.12500000000E+03 0.  0.
         25    1    1    2    0    0 -0.71269164872E+02 -0.19362254982E+01  0.14938670066E+03  0.20742330912E+03  0.12500000000E+03 0.  0.
         25    1    1    2    0    0  0.12302458150E+02  0.60270093822E+02  0.38637753222E+02  0.14457423927E+03  0.12500000000E+03 0.  0.
</event>
<event>
 5    0  0.5489207E-005  0.2584930E+03  0.7546771E-02  0.1108052E+00
         21   -1    0    0  502  501  0.00000000000E+00  0.00000000000E+00  0.17545763412E+04  0.17545763412E+04  0.00000000000E+00 0. -1.
         21   -1    0    0  501  502 -0.00000000000E+00 -0.00000000000E+00 -0.38082500361E+02  0.38082500361E+02  0.00000000000E+00 0. -1.
         25    1    1    2    0    0 -0.15175320988E+02 -0.95370285983E+02  0.32629958661E+03  0.36252200214E+03  0.12500000000E+03 0.  0.
         25    1    1    2    0    0 -0.28828048199E+01  0.15226813927E+03  0.83236001119E+03  0.85536079231E+03  0.12500000000E+03 0.  0.
         25    1    1    2    0    0  0.18058125808E+02 -0.56897853291E+02  0.55783424305E+03  0.57477604712E+03  0.12500000000E+03 0.  0.
</event>
<event>
 5    0  0.5489207E-005  0.2908682E+03  0.7546771E-02  0.1089897E+00
         21   -1    0    0  502  501  0.00000000000E+00  0.00000000000E+00  0.51721701561E+03  0.51721701561E+03  0.00000000000E+00 0.  1.
         21   -1    0    0  501  502 -0.00000000000E+00 -0.00000000000E+00 -0.16357608329E+03  0.16357608329E+03  0.00000000000E+00 0.  1.
         25    1    1    2    0    0 -0.50516186989E+02  0.48651681755E+02 -0.76794606275E+01  0.14353691303E+03  0.12500000000E+03 0.  0.
         25    1    1    2    0    0  0.46250552332E+02 -0.17159174420E+03  0.24150430243E+03  0.32485715070E+03  0.12500000000E+03 0.  0.
         25    1    1    2    0    0  0.42656346574E+01  0.12294006245E+03  0.11981609053E+03  0.21239903517E+03  0.12500000000E+03 0.  0.
</event>
<event>
 5    0  0.5489207E-005  0.3980148E+03  0.7546771E-02  0.1044469E+00
         21   -1    0    0  502  501  0.00000000000E+00  0.00000000000E+00  0.55477257428E+03  0.55477257428E+03  0.00000000000E+00 0. -1.
         21   -1    0    0  501  502 -0.00000000000E+00 -0.00000000000E+00 -0.28555087546E+03  0.28555087546E+03  0.00000000000E+00 0. -1.
         25    1    1    2    0    0  0.46981603716E+02 -0.27073810286E+03  0.99449805495E+02  0.31783903983E+03  0.12500000000E+03 0.  0.
         25    1    1    2    0    0 -0.17787828272E+03  0.15598299191E+03  0.36336173460E+02  0.27003091440E+03  0.12500000000E+03 0.  0.
         25    1    1    2    0    0  0.13089667900E+03  0.11475511095E+03  0.13343571986E+03  0.25245349551E+03  0.12500000000E+03 0.  0.
</event>
<event>
 5    0  0.5489207E-005  0.2852889E+03  0.7546771E-02  0.1092835E+00
         21   -1    0    0  502  501  0.00000000000E+00  0.00000000000E+00  0.75334760244E+03  0.75334760244E+03  0.00000000000E+00 0.  1.
         21   -1    0    0  501  502 -0.00000000000E+00 -0.00000000000E+00 -0.10803743887E+03  0.10803743887E+03  0.00000000000E+00 0.  1.
         25    1    1    2    0    0  0.59274926165E+01  0.16742971751E+03  0.18999335349E+03  0.28247180363E+03  0.12500000000E+03 0.  0.
         25    1    1    2    0    0  0.20814420869E+02  0.21927612363E+02  0.15006235578E+03  0.19763038967E+03  0.12500000000E+03 0.  0.
         25    1    1    2    0    0 -0.26741913486E+02 -0.18935732987E+03  0.30525445431E+03  0.38128284802E+03  0.12500000000E+03 0.  0.
</event>
<event>
 5    0  0.5489207E-005  0.2348844E+03  0.7546771E-02  0.1123248E+00
         21   -1    0    0  502  501  0.00000000000E+00  0.00000000000E+00  0.50564907941E+03  0.50564907941E+03  0.00000000000E+00 0. -1.
         21   -1    0    0  501  502 -0.00000000000E+00 -0.00000000000E+00 -0.10910860508E+03  0.10910860508E+03  0.00000000000E+00 0. -1.
         25    1    1    2    0    0 -0.37304699977E+02  0.70734815907E+02  0.16073612987E+03  0.21876050436E+03  0.12500000000E+03 0.  0.
         25    1    1    2    0    0  0.31282830043E+02  0.36526147286E+02  0.39419983685E+02  0.13961271434E+03  0.12500000000E+03 0.  0.
         25    1    1    2    0    0  0.60218699345E+01 -0.10726096319E+03  0.19638436078E+03  0.25638446579E+03  0.12500000000E+03 0.  0.
</event>
<event>
 5    0  0.6050150E-005  0.2481750E+03  0.7546771E-02  0.1114464E+00
         21   -1    0    0  502  501  0.00000000000E+00  0.00000000000E+00  0.39568560769E+03  0.39568560769E+03  0.00000000000E+00 0. -1.
         21   -1    0    0  501  502 -0.00000000000E+00 -0.00000000000E+00 -0.15565592246E+03  0.15565592246E+03  0.00000000000E+00 0. -1.
         25    1    1    2    0    0 -0.79348455822E+02  0.12396281619E+03  0.71083539190E+02  0.20576886738E+03  0.12500000000E+03 0.  0.
         25    1    1    2    0    0  0.81236055743E+02 -0.74888184649E+02  0.10157594058E+03  0.19532078399E+03  0.12500000000E+03 0.  0.
         25    1    1    2    0    0 -0.18875999213E+01 -0.49074631542E+02  0.67370205466E+02  0.15025187879E+03  0.12500000000E+03 0.  0.
</event>
<event>
 5    0  0.5735602E-005  0.3128146E+03  0.7546771E-02  0.1079005E+00
         21   -1    0    0  502  501  0.00000000000E+00  0.00000000000E+00  0.39015538586E+03  0.39015538586E+03  0.00000000000E+00 0. -1.
         21   -1    0    0  501  502 -0.00000000000E+00 -0.00000000000E+00 -0.25080510894E+03  0.25080510894E+03  0.00000000000E+00 0. -1.
         25    1    1    2    0    0  0.26772535773E+02  0.32512246246E+02 -0.80068582386E+02  0.15430422131E+03  0.12500000000E+03 0.  0.
         25    1    1    2    0    0  0.69828354006E+02  0.13944184808E+03  0.84649673042E+02  0.21704975274E+03  0.12500000000E+03 0.  0.
         25    1    1    2    0    0 -0.96600889779E+02 -0.17195409432E+03  0.13476918626E+03  0.26960652074E+03  0.12500000000E+03 0.  0.
</event>
<event>
 5    0  0.5489207E-005  0.3481373E+03  0.7546771E-02  0.1063382E+00
         21   -1    0    0  502  501  0.00000000000E+00  0.00000000000E+00  0.75482816413E+03  0.75482816413E+03  0.00000000000E+00 0.  1.
         21   -1    0    0  501  502 -0.00000000000E+00 -0.00000000000E+00 -0.16056578030E+03  0.16056578030E+03  0.00000000000E+00 0.  1.
         25    1    1    2    0    0 -0.25451414345E+02 -0.49697642954E+02  0.35875158796E+02  0.14152617152E+03  0.12500000000E+03 0.  0.
         25    1    1    2    0    0  0.70293617423E+02  0.82479660860E+02  0.60666059065E+03  0.62881329451E+03  0.12500000000E+03 0.  0.
         25    1    1    2    0    0 -0.44842203078E+02 -0.32782017906E+02 -0.48273365613E+02  0.14505447840E+03  0.12500000000E+03 0.  0.
</event>
<event>
 5    0  0.5489207E-005  0.2500139E+03  0.7546771E-02  0.1113296E+00
         21   -1    0    0  502  501  0.00000000000E+00  0.00000000000E+00  0.12868802188E+03  0.12868802188E+03  0.00000000000E+00 0.  1.
         21   -1    0    0  501  502 -0.00000000000E+00 -0.00000000000E+00 -0.48572486778E+03  0.48572486778E+03  0.00000000000E+00 0.  1.
         25    1    1    2    0    0  0.17726570621E+02  0.28196487871E+02 -0.81370735261E+02  0.15282496455E+03  0.12500000000E+03 0.  0.
         25    1    1    2    0    0 -0.39725000468E+02 -0.11822548932E+03 -0.43098229175E+02  0.18176303074E+03  0.12500000000E+03 0.  0.
         25    1    1    2    0    0  0.21998429847E+02  0.90029001445E+02 -0.23256788146E+03  0.27982489436E+03  0.12500000000E+03 0.  0.
</event>
<event>
 5    0  0.5489207E-005  0.3767954E+03  0.7546771E-02  0.1052125E+00
         21   -1    0    0  502  501  0.00000000000E+00  0.00000000000E+00  0.72373948197E+03  0.72373948197E+03  0.00000000000E+00 0.  1.
         21   -1    0    0  501  502 -0.00000000000E+00 -0.00000000000E+00 -0.19616832916E+03  0.19616832916E+03  0.00000000000E+00 0.  1.
         25    1    1    2    0    0 -0.27889560591E+03  0.99462378620E+01  0.16663569854E+03  0.34824437206E+03  0.12500000000E+03 0.  0.
         25    1    1    2    0    0  0.42089203640E+02 -0.91790050215E+02  0.16205753955E+03  0.22822042088E+03  0.12500000000E+03 0.  0.
         25    1    1    2    0    0  0.23680640227E+03  0.81843812353E+02  0.19887791472E+03  0.34344301818E+03  0.12500000000E+03 0.  0.
</event>
<event>
 5    0  0.5489207E-005  0.2596745E+03  0.7546771E-02  0.1107339E+00
         21   -1    0    0  502  501  0.00000000000E+00  0.00000000000E+00  0.30751479445E+02  0.30751479445E+02  0.00000000000E+00 0.  1.
         21   -1    0    0  501  502 -0.00000000000E+00 -0.00000000000E+00 -0.21927675669E+04  0.21927675669E+04  0.00000000000E+00 0.  1.
         25    1    1    2    0    0 -0.72195406540E+02  0.13692820994E+03 -0.91186249419E+03  0.93331651636E+03  0.12500000000E+03 0.  0.
         25    1    1    2    0    0  0.35970132656E+02 -0.11520018884E+03 -0.52106636674E+03  0.54927232999E+03  0.12500000000E+03 0.  0.
         25    1    1    2    0    0  0.36225273884E+02 -0.21728021105E+02 -0.72908722649E+03  0.74093019995E+03  0.12500000000E+03 0.  0.
</event>
<event>
 5    0  0.5489207E-005  0.3620364E+03  0.7546771E-02  0.1057780E+00
         21   -1    0    0  502  501  0.00000000000E+00  0.00000000000E+00  0.59809063624E+03  0.59809063624E+03  0.00000000000E+00 0. -1.
         21   -1    0    0  501  502 -0.00000000000E+00 -0.00000000000E+00 -0.21914794711E+03  0.21914794711E+03  0.00000000000E+00 0. -1.
         25    1    1    2    0    0 -0.26415955664E+03  0.36642183506E+02  0.25383970367E+03  0.38882195943E+03  0.12500000000E+03 0.  0.
         25    1    1    2    0    0  0.54995290569E+02  0.44993459396E+02  0.27870871975E+01  0.14381119994E+03  0.12500000000E+03 0.  0.
         25    1    1    2    0    0  0.20916426607E+03 -0.81635642902E+02  0.12231589826E+03  0.28460542398E+03  0.12500000000E+03 0.  0.
</event>
<event>
 5    0  0.5489207E-005  0.3131648E+03  0.7546771E-02  0.1078839E+00
         21   -1    0    0  502  501  0.00000000000E+00  0.00000000000E+00  0.13385351459E+03  0.13385351459E+03  0.00000000000E+00 0. -1.
         21   -1    0    0  501  502 -0.00000000000E+00 -0.00000000000E+00 -0.73268318042E+03  0.73268318042E+03  0.00000000000E+00 0. -1.
         25    1    1    2    0    0  0.11629917333E+02 -0.96396379833E+02 -0.64011040724E+02  0.17073350684E+03  0.12500000000E+03 0.  0.
         25    1    1    2    0    0 -0.16245120749E+03 -0.25560091854E+02 -0.18845332652E+03  0.27961289203E+03  0.12500000000E+03 0.  0.
         25    1    1    2    0    0  0.15082129016E+03  0.12195647169E+03 -0.34636529858E+03  0.41619029615E+03  0.12500000000E+03 0.  0.
</event>
<event>
 5    0  0.5489207E-005  0.3459191E+03  0.7546771E-02  0.1064303E+00
         21   -1    0    0  502  501  0.00000000000E+00  0.00000000000E+00  0.61370463571E+02  0.61370463571E+02  0.00000000000E+00 0. -1.
         21   -1    0    0  501  502 -0.00000000000E+00 -0.00000000000E+00 -0.19497978912E+04  0.19497978912E+04  0.00000000000E+00 0. -1.
         25    1    1    2    0    0 -0.11102684263E+03 -0.12771364714E+03 -0.14691768051E+04  0.14841641487E+04  0.12500000000E+03 0.  0.
         25    1    1    2    0    0  0.50520255273E+02  0.74616785828E+01 -0.19346691701E+03  0.23592884694E+03  0.12500000000E+03 0.  0.
         25    1    1    2    0    0  0.60506587355E+02  0.12025196855E+03 -0.22578370552E+03  0.29107535920E+03  0.12500000000E+03 0.  0.
</event>
<event>
 5    0  0.5489207E-005  0.2356825E+03  0.7546771E-02  0.1122703E+00
         21   -1    0    0  502  501  0.00000000000E+00  0.00000000000E+00  0.19323527590E+03  0.19323527590E+03  0.00000000000E+00 0. -1.
         21   -1    0    0  501  502 -0.00000000000E+00 -0.00000000000E+00 -0.28745403767E+03  0.28745403767E+03  0.00000000000E+00 0. -1.
         25    1    1    2    0    0  0.62302352824E+02  0.71361195352E+01  0.17522983858E+02  0.14094169835E+03  0.12500000000E+03 0.  0.
         25    1    1    2    0    0  0.25066372058E+01 -0.36793907854E+02  0.34262034465E+02  0.13475519245E+03  0.12500000000E+03 0.  0.
         25    1    1    2    0    0 -0.64808990030E+02  0.29657788319E+02 -0.14600378009E+03  0.20499242278E+03  0.12500000000E+03 0.  0.
</event>
<event>
 5    0  0.5489207E-005  0.5353930E+03  0.7546771E-02  0.1004933E+00
         21   -1    0    0  502  501  0.00000000000E+00  0.00000000000E+00  0.35550342249E+03  0.35550342249E+03  0.00000000000E+00 0. -1.
         21   -1    0    0  501  502 -0.00000000000E+00 -0.00000000000E+00 -0.80630904175E+03  0.80630904175E+03  0.00000000000E+00 0. -1.
         25    1    1    2    0    0  0.24287252844E+03  0.21687366542E+03 -0.12506708375E+03  0.37052399013E+03  0.12500000000E+03 0.  0.
         25    1    1    2    0    0  0.21310496675E+01  0.18025871117E+03 -0.21572850687E+02  0.22042715852E+03  0.12500000000E+03 0.  0.
         25    1    1    2    0    0 -0.24500357811E+03 -0.39713237659E+03 -0.30416568482E+03  0.57086131559E+03  0.12500000000E+03 0.  0.
</event>
<event>
 5    0  0.5489207E-005  0.2658004E+03  0.7546771E-02  0.1103707E+00
         21   -1    0    0  502  501  0.00000000000E+00  0.00000000000E+00  0.21698551854E+03  0.21698551854E+03  0.00000000000E+00 0.  1.
         21   -1    0    0  501  502 -0.00000000000E+00 -0.00000000000E+00 -0.32559712768E+03  0.32559712768E+03  0.00000000000E+00 0.  1.
         25    1    1    2    0    0  0.11674911166E+03 -0.28729322177E+02 -0.81836123357E+02  0.19177559832E+03  0.12500000000E+03 0.  0.
         25    1    1    2    0    0 -0.76195076788E+02 -0.20355413437E+02 -0.11308527666E+03  0.18610027507E+03  0.12500000000E+03 0.  0.
         25    1    1    2    0    0 -0.40554034875E+02  0.49084735613E+02  0.86309790876E+02  0.16470677283E+03  0.12500000000E+03 0.  0.
</event>
<event>
 5    0  0.5489207E-005  0.4170502E+03  0.7546771E-02  0.1038031E+00
         21   -1    0    0  502  501  0.00000000000E+00  0.00000000000E+00  0.50880861739E+03  0.50880861739E+03  0.00000000000E+00 0. -1.
         21   -1    0    0  501  502 -0.00000000000E+00 -0.00000000000E+00 -0.34183951764E+03  0.34183951764E+03  0.00000000000E+00 0. -1.
         25    1    1    2    0    0  0.11534412890E+03 -0.24353517426E+03  0.22804617278E+03  0.37449126303E+03  0.12500000000E+03 0.  0.
         25    1    1    2    0    0  0.23414916925E+01  0.16956240826E+03 -0.16010726920E+03  0.26460580214E+03  0.12500000000E+03 0.  0.
         25    1    1    2    0    0 -0.11768562059E+03  0.73972766001E+02  0.99030196173E+02  0.21155106986E+03  0.12500000000E+03 0.  0.
</event>
<event>
 5    0  0.5489207E-005  0.3701678E+03  0.7546771E-02  0.1054629E+00
         21   -1    0    0  502  501  0.00000000000E+00  0.00000000000E+00  0.38313490547E+03  0.38313490547E+03  0.00000000000E+00 0.  1.
         21   -1    0    0  501  502 -0.00000000000E+00 -0.00000000000E+00 -0.35763962868E+03  0.35763962868E+03  0.00000000000E+00 0.  1.
         25    1    1    2    0    0  0.13055440746E+03  0.14515731463E+02 -0.15877861908E+03  0.24102035111E+03  0.12500000000E+03 0.  0.
         25    1    1    2    0    0 -0.17759077189E+03  0.10977040107E+03  0.41431399853E+01  0.24337253095E+03  0.12500000000E+03 0.  0.
         25    1    1    2    0    0  0.47036364428E+02 -0.12428613253E+03  0.18013075589E+03  0.25638165210E+03  0.12500000000E+03 0.  0.
</event>
<event>
 5    0  0.5489207E-005  0.2048549E+03  0.7546771E-02  0.1145706E+00
         21   -1    0    0  502  501  0.00000000000E+00  0.00000000000E+00  0.20482506136E+03  0.20482506136E+03  0.00000000000E+00 0. -1.
         21   -1    0    0  501  502 -0.00000000000E+00 -0.00000000000E+00 -0.20488473939E+03  0.20488473939E+03  0.00000000000E+00 0. -1.
         25    1    1    2    0    0  0.32548432735E+02  0.26355275773E+02 -0.60109195839E+02  0.14488656411E+03  0.12500000000E+03 0.  0.
         25    1    1    2    0    0 -0.34504465306E+02 -0.91913561812E+01  0.45805040440E+02  0.13783374363E+03  0.12500000000E+03 0.  0.
         25    1    1    2    0    0  0.19560325717E+01 -0.17163919592E+02  0.14244477368E+02  0.12698949301E+03  0.12500000000E+03 0.  0.
</event>
<event>
 5    0  0.5489207E-005  0.2977095E+03  0.7546771E-02  0.1086391E+00
         21   -1    0    0  502  501  0.00000000000E+00  0.00000000000E+00  0.43744984675E+03  0.43744984675E+03  0.00000000000E+00 0.  1.
         21   -1    0    0  501  502 -0.00000000000E+00 -0.00000000000E+00 -0.20260830148E+03  0.20260830148E+03  0.00000000000E+00 0.  1.
         25    1    1    2    0    0 -0.14325224305E+03  0.18871912037E+02  0.13778678011E+03  0.23555795672E+03  0.12500000000E+03 0.  0.
         25    1    1    2    0    0 -0.62933622930E+02 -0.43059298565E+02  0.64484081182E+02  0.15999356491E+03  0.12500000000E+03 0.  0.
         25    1    1    2    0    0  0.20618586598E+03  0.24187386528E+02  0.32570683975E+02  0.24450662660E+03  0.12500000000E+03 0.  0.
</event>
<event>
 5    0  0.5489207E-005  0.4618031E+03  0.7546771E-02  0.1024260E+00
         21   -1    0    0  502  501  0.00000000000E+00  0.00000000000E+00  0.34266029629E+03  0.34266029629E+03  0.00000000000E+00 0. -1.
         21   -1    0    0  501  502 -0.00000000000E+00 -0.00000000000E+00 -0.62237174158E+03  0.62237174158E+03  0.00000000000E+00 0. -1.
         25    1    1    2    0    0 -0.57016906527E+02 -0.16907357551E+02  0.23662571186E+03  0.27414141220E+03  0.12500000000E+03 0.  0.
         25    1    1    2    0    0 -0.64455164576E+02 -0.93645442655E+02 -0.43913861129E+03  0.47052274875E+03  0.12500000000E+03 0.  0.
         25    1    1    2    0    0  0.12147207110E+03  0.11055280021E+03 -0.77198545866E+02  0.22036787691E+03  0.12500000000E+03 0.  0.
</event>
<event>
 5    0  0.5489207E-005  0.3987567E+03  0.7546771E-02  0.1044211E+00
         21   -1    0    0  502  501  0.00000000000E+00  0.00000000000E+00  0.15413737500E+03  0.15413737500E+03  0.00000000000E+00 0. -1.
         21   -1    0    0  501  502 -0.00000000000E+00 -0.00000000000E+00 -0.10315922658E+04  0.10315922658E+04  0.00000000000E+00 0. -1.
         25    1    1    2    0    0  0.21965113407E+03  0.78324169764E+02 -0.37450030183E+03  0.45853764550E+03  0.12500000000E+03 0.  0.
         25    1    1    2    0    0 -0.11500163136E+03 -0.22888052994E+03 -0.18624214619E+03  0.34047438849E+03  0.12500000000E+03 0.  0.
         25    1    1    2    0    0 -0.10464950271E+03  0.15055636018E+03 -0.31671244282E+03  0.38671760684E+03  0.12500000000E+03 0.  0.
</event>
<event>
 5    0  0.5489207E-005  0.2851280E+03  0.7546771E-02  0.1092921E+00
         21   -1    0    0  502  501  0.00000000000E+00  0.00000000000E+00  0.41753593146E+03  0.41753593146E+03  0.00000000000E+00 0.  1.
         21   -1    0    0  501  502 -0.00000000000E+00 -0.00000000000E+00 -0.19470895657E+03  0.19470895657E+03  0.00000000000E+00 0.  1.
         25    1    1    2    0    0  0.45262712000E+02  0.18601167052E+02  0.16986996948E+03  0.21650755886E+03  0.12500000000E+03 0.  0.
         25    1    1    2    0    0  0.11859581574E+03 -0.53465285130E+02  0.47864565789E+02  0.18665347809E+03  0.12500000000E+03 0.  0.
         25    1    1    2    0    0 -0.16385852774E+03  0.34864118077E+02  0.50924396242E+01  0.20908385108E+03  0.12500000000E+03 0.  0.
</event>
<event>
 5    0  0.5489207E-005  0.2665208E+03  0.7546771E-02  0.1103288E+00
         21   -1    0    0  502  501  0.00000000000E+00  0.00000000000E+00  0.14181490507E+03  0.14181490507E+03  0.00000000000E+00 0. -1.
         21   -1    0    0  501  502 -0.00000000000E+00 -0.00000000000E+00 -0.50088768590E+03  0.50088768590E+03  0.00000000000E+00 0. -1.
         25    1    1    2    0    0  0.38431513609E+02 -0.70298701159E+02 -0.32147253622E+03  0.35410235832E+03  0.12500000000E+03 0.  0.
         25    1    1    2    0    0 -0.74611975198E+02  0.46069235054E+02 -0.32640523393E+02  0.15614008143E+03  0.12500000000E+03 0.  0.
         25    1    1    2    0    0  0.36180461589E+02  0.24229466105E+02 -0.49597212229E+01  0.13246015123E+03  0.12500000000E+03 0.  0.
</event>
<event>
 5    0  0.5489207E-005  0.2847504E+03  0.7546771E-02  0.1093122E+00
         21   -1    0    0  502  501  0.00000000000E+00  0.00000000000E+00  0.33437379182E+03  0.33437379182E+03  0.00000000000E+00 0. -1.
         21   -1    0    0  501  502 -0.00000000000E+00 -0.00000000000E+00 -0.24249142129E+03  0.24249142129E+03  0.00000000000E+00 0.  1.
         25    1    1    2    0    0 -0.66712008251E+02 -0.68354595356E+02  0.62495386752E+01  0.15743855781E+03  0.12500000000E+03 0.  0.
         25    1    1    2    0    0  0.17333234047E+03  0.11048714330E+03  0.41035869621E+02  0.24405010077E+03  0.12500000000E+03 0.  0.
         25    1    1    2    0    0 -0.10662033222E+03 -0.42132547945E+02  0.44596962242E+02  0.17537655454E+03  0.12500000000E+03 0.  0.
</event>
<event>
 5    0  0.5489207E-005  0.3548561E+03  0.7546771E-02  0.1060639E+00
         21   -1    0    0  502  501  0.00000000000E+00  0.00000000000E+00  0.13402170459E+03  0.13402170459E+03  0.00000000000E+00 0. -1.
         21   -1    0    0  501  502 -0.00000000000E+00 -0.00000000000E+00 -0.93957048306E+03  0.93957048306E+03  0.00000000000E+00 0. -1.
         25    1    1    2    0    0 -0.72577500390E+02 -0.16888287114E+03 -0.16094440470E+03  0.27443946351E+03  0.12500000000E+03 0.  0.
         25    1    1    2    0    0  0.19317533415E+03  0.19497998565E+02 -0.41430450731E+03  0.47431013741E+03  0.12500000000E+03 0.  0.
         25    1    1    2    0    0 -0.12059783376E+03  0.14938487257E+03 -0.23029986646E+03  0.32484258673E+03  0.12500000000E+03 0.  0.
</event>
<event>
 5    0  0.5489207E-005  0.2686254E+03  0.7546771E-02  0.1102069E+00
         21   -1    0    0  502  501  0.00000000000E+00  0.00000000000E+00  0.94186317220E+03  0.94186317220E+03  0.00000000000E+00 0.  1.
         21   -1    0    0  501  502 -0.00000000000E+00 -0.00000000000E+00 -0.76613703237E+02  0.76613703237E+02  0.00000000000E+00 0.  1.
         25    1    1    2    0    0  0.15114747368E+02 -0.13043529747E+03  0.31267634181E+03  0.36143231336E+03  0.12500000000E+03 0.  0.
         25    1    1    2    0    0  0.44884411205E+02  0.43478317331E+02  0.89630530051E+02  0.16602290916E+03  0.12500000000E+03 0.  0.
         25    1    1    2    0    0 -0.59999158573E+02  0.86956980138E+02  0.46294259710E+03  0.49102165292E+03  0.12500000000E+03 0.  0.
</event>
<event>
 5    0  0.5489207E-005  0.3097667E+03  0.7546771E-02  0.1080458E+00
         21   -1    0    0  502  501  0.00000000000E+00  0.00000000000E+00  0.11181684296E+03  0.11181684296E+03  0.00000000000E+00 0.  1.
         21   -1    0    0  501  502 -0.00000000000E+00 -0.00000000000E+00 -0.85814814207E+03  0.85814814207E+03  0.00000000000E+00 0.  1.
         25    1    1    2    0    0  0.52823381770E+02 -0.58826301597E+02  0.10005010473E+02  0.14824285364E+03  0.12500000000E+03 0.  0.
         25    1    1    2    0    0 -0.77699224232E+02  0.83426722236E+02 -0.27224418210E+03  0.32052937793E+03  0.12500000000E+03 0.  0.
         25    1    1    2    0    0  0.24875842462E+02 -0.24600420639E+02 -0.48409212748E+03  0.50119275346E+03  0.12500000000E+03 0.  0.
</event>
<event>
 5    0  0.5489207E-005  0.2917596E+03  0.7546771E-02  0.1089434E+00
         21   -1    0    0  502  501  0.00000000000E+00  0.00000000000E+00  0.30725589886E+03  0.30725589886E+03  0.00000000000E+00 0. -1.
         21   -1    0    0  501  502 -0.00000000000E+00 -0.00000000000E+00 -0.27704492003E+03  0.27704492003E+03  0.00000000000E+00 0. -1.
         25    1    1    2    0    0 -0.58681676472E+02  0.40421143432E+02  0.51580064365E+02  0.15284930824E+03  0.12500000000E+03 0.  0.
         25    1    1    2    0    0 -0.12282413265E+03 -0.62282071832E+02 -0.79840661963E+02  0.20239652995E+03  0.12500000000E+03 0.  0.
         25    1    1    2    0    0  0.18150580912E+03  0.21860928400E+02  0.58471576428E+02  0.22905498071E+03  0.12500000000E+03 0.  0.
</event>
<event>
 5    0  0.5489207E-005  0.2453184E+03  0.7546771E-02  0.1116300E+00
         21   -1    0    0  502  501  0.00000000000E+00  0.00000000000E+00  0.51061520411E+03  0.51061520411E+03  0.00000000000E+00 0. -1.
         21   -1    0    0  501  502 -0.00000000000E+00 -0.00000000000E+00 -0.11785998808E+03  0.11785998808E+03  0.00000000000E+00 0. -1.
         25    1    1    2    0    0  0.54085548710E+02 -0.11568474372E+02  0.17078601657E+03  0.21875086202E+03  0.12500000000E+03 0.  0.
         25    1    1    2    0    0 -0.80677173256E+02 -0.13675059951E+02 -0.33723280144E+01  0.14943957356E+03  0.12500000000E+03 0.  0.
         25    1    1    2    0    0  0.26591624547E+02  0.25243534323E+02  0.22534152748E+03  0.26028475662E+03  0.12500000000E+03 0.  0.
</event>
<event>
 5    0  0.5489207E-005  0.2715819E+03  0.7546771E-02  0.1100378E+00
         21   -1    0    0  502  501  0.00000000000E+00  0.00000000000E+00  0.52754890413E+03  0.52754890413E+03  0.00000000000E+00 0.  1.
         21   -1    0    0  501  502 -0.00000000000E+00 -0.00000000000E+00 -0.13981024557E+03  0.13981024557E+03  0.00000000000E+00 0.  1.
         25    1    1    2    0    0  0.84193911282E+02 -0.17350210434E+01  0.17067403565E+01  0.15073001678E+03  0.12500000000E+03 0.  0.
         25    1    1    2    0    0  0.66220006670E+02 -0.17575376077E+02  0.20317263479E+03  0.24818965058E+03  0.12500000000E+03 0.  0.
         25    1    1    2    0    0 -0.15041391795E+03  0.19310397121E+02  0.18285928341E+03  0.26843948234E+03  0.12500000000E+03 0.  0.
</event>
<event>
 5    0  0.5489207E-005  0.4215214E+03  0.7546771E-02  0.1036572E+00
         21   -1    0    0  502  501  0.00000000000E+00  0.00000000000E+00  0.98422731467E+03  0.98422731467E+03  0.00000000000E+00 0. -1.
         21   -1    0    0  501  502 -0.00000000000E+00 -0.00000000000E+00 -0.18052770094E+03  0.18052770094E+03  0.00000000000E+00 0. -1.
         25    1    1    2    0    0 -0.29280053968E+03 -0.47276952887E+02  0.20239057117E+03  0.38020285324E+03  0.12500000000E+03 0.  0.
         25    1    1    2    0    0  0.52240454298E+02  0.84303855619E+02  0.43740547795E+03  0.46560150051E+03  0.12500000000E+03 0.  0.
         25    1    1    2    0    0  0.24056008539E+03 -0.37026902732E+02  0.16390356461E+03  0.31895066186E+03  0.12500000000E+03 0.  0.
</event>
<event>
 5    0  0.5489207E-005  0.2550415E+03  0.7546771E-02  0.1110160E+00
         21   -1    0    0  502  501  0.00000000000E+00  0.00000000000E+00  0.71721173437E+03  0.71721173437E+03  0.00000000000E+00 0. -1.
         21   -1    0    0  501  502 -0.00000000000E+00 -0.00000000000E+00 -0.90693130845E+02  0.90693130845E+02  0.00000000000E+00 0. -1.
         25    1    1    2    0    0  0.15833188218E+02  0.10485562323E+03  0.39869413211E+03  0.43107702624E+03  0.12500000000E+03 0.  0.
         25    1    1    2    0    0  0.43805872467E+02 -0.71689608429E+02  0.76128228000E+02  0.16875681177E+03  0.12500000000E+03 0.  0.
         25    1    1    2    0    0 -0.59639060685E+02 -0.33166014804E+02  0.15169624342E+03  0.20807102721E+03  0.12500000000E+03 0.  0.
</event>
<event>
 5    0  0.5489207E-005  0.2328306E+03  0.7546771E-02  0.1124663E+00
         21   -1    0    0  502  501  0.00000000000E+00  0.00000000000E+00  0.77641851443E+03  0.77641851443E+03  0.00000000000E+00 0. -1.
         21   -1    0    0  501  502 -0.00000000000E+00 -0.00000000000E+00 -0.69820721494E+02  0.69820721494E+02  0.00000000000E+00 0. -1.
         25    1    1    2    0    0  0.60373477135E+02  0.36448701578E+02  0.13822271895E+03  0.19925858732E+03  0.12500000000E+03 0.  0.
         25    1    1    2    0    0 -0.10686403431E+03 -0.38701101165E+02  0.38298361182E+03  0.41859185848E+03  0.12500000000E+03 0.  0.
         25    1    1    2    0    0  0.46490557176E+02  0.22523995862E+01  0.18539146216E+03  0.22838879012E+03  0.12500000000E+03 0.  0.
</event>
<event>
 5    0  0.5489207E-005  0.2690693E+03  0.7546771E-02  0.1101813E+00
         21   -1    0    0  502  501  0.00000000000E+00  0.00000000000E+00  0.48006181570E+03  0.48006181570E+03  0.00000000000E+00 0. -1.
         21   -1    0    0  501  502 -0.00000000000E+00 -0.00000000000E+00 -0.15081034644E+03  0.15081034644E+03  0.00000000000E+00 0. -1.
         25    1    1    2    0    0  0.11007508704E+03 -0.11952764284E+02  0.24121803908E+03  0.29337780376E+03  0.12500000000E+03 0.  0.
         25    1    1    2    0    0 -0.45652356821E+01 -0.96344109555E+01 -0.36637873788E+02  0.13069428850E+03  0.12500000000E+03 0.  0.
         25    1    1    2    0    0 -0.10550985136E+03  0.21587175240E+02  0.12467130397E+03  0.20680006988E+03  0.12500000000E+03 0.  0.
</event>
<event>
 5    0  0.5489207E-005  0.4894085E+03  0.7546771E-02  0.1016581E+00
         21   -1    0    0  502  501  0.00000000000E+00  0.00000000000E+00  0.11461752000E+04  0.11461752000E+04  0.00000000000E+00 0. -1.
         21   -1    0    0  501  502 -0.00000000000E+00 -0.00000000000E+00 -0.20897389877E+03  0.20897389877E+03  0.00000000000E+00 0. -1.
         25    1    1    2    0    0 -0.13242943470E+03 -0.22774630502E+02  0.17327034088E+03  0.25239621629E+03  0.12500000000E+03 0.  0.
         25    1    1    2    0    0 -0.26829318977E+03 -0.95608701697E+02  0.13902219057E+03  0.34069697532E+03  0.12500000000E+03 0.  0.
         25    1    1    2    0    0  0.40072262447E+03  0.11838333220E+03  0.62490876981E+03  0.76205590719E+03  0.12500000000E+03 0.  0.
</event>
<event>
 5    0  0.5489207E-005  0.5042018E+03  0.7546771E-02  0.1012688E+00
         21   -1    0    0  502  501  0.00000000000E+00  0.00000000000E+00  0.27524902812E+04  0.27524902812E+04  0.00000000000E+00 0. -1.
         21   -1    0    0  501  502 -0.00000000000E+00 -0.00000000000E+00 -0.92359799267E+02  0.92359799267E+02  0.00000000000E+00 0. -1.
         25    1    1    2    0    0  0.89332016299E+02 -0.44693925047E+02  0.87261435315E+03  0.88716321238E+03  0.12500000000E+03 0.  0.
         25    1    1    2    0    0 -0.51882083289E+02  0.23836263103E+03  0.16815434368E+03  0.32157328517E+03  0.12500000000E+03 0.  0.
         25    1    1    2    0    0 -0.37449933011E+02 -0.19366870598E+03  0.16193617851E+04  0.16361135829E+04  0.12500000000E+03 0.  0.
</event>
<event>
 5    0  0.5489207E-005  0.2403712E+03  0.7546771E-02  0.1119546E+00
         21   -1    0    0  502  501  0.00000000000E+00  0.00000000000E+00  0.31287411288E+02  0.31287411288E+02  0.00000000000E+00 0.  1.
         21   -1    0    0  501  502 -0.00000000000E+00 -0.00000000000E+00 -0.18466951194E+04  0.18466951194E+04  0.00000000000E+00 0.  1.
         25    1    1    2    0    0  0.53760402014E+02 -0.36497591370E+02 -0.51142701978E+03  0.53047606125E+03  0.12500000000E+03 0.  0.
         25    1    1    2    0    0 -0.78566812714E+01 -0.42599402179E+02 -0.97448924389E+03  0.98342804666E+03  0.12500000000E+03 0.  0.
         25    1    1    2    0    0 -0.45903720743E+02  0.79096993548E+02 -0.32949144441E+03  0.36407842274E+03  0.12500000000E+03 0.  0.
</event>
<event>
 5    0  0.5489207E-005  0.2439496E+03  0.7546771E-02  0.1117189E+00
         21   -1    0    0  502  501  0.00000000000E+00  0.00000000000E+00  0.14937387146E+03  0.14937387146E+03  0.00000000000E+00 0. -1.
         21   -1    0    0  501  502 -0.00000000000E+00 -0.00000000000E+00 -0.39840580759E+03  0.39840580759E+03  0.00000000000E+00 0.  1.
         25    1    1    2    0    0  0.39120321752E+02  0.12149905483E+02 -0.84864612060E+02  0.15654080030E+03  0.12500000000E+03 0.  0.
         25    1    1    2    0    0 -0.13650186782E+03  0.37833664536E+02 -0.90982059054E+02  0.20968281083E+03  0.12500000000E+03 0.  0.
         25    1    1    2    0    0  0.97381546064E+02 -0.49983570019E+02 -0.73185265017E+02  0.18155606793E+03  0.12500000000E+03 0.  0.
</event>
<event>
 5    0  0.5489207E-005  0.4651839E+03  0.7546771E-02  0.1023288E+00
         21   -1    0    0  502  501  0.00000000000E+00  0.00000000000E+00  0.86040988281E+03  0.86040988281E+03  0.00000000000E+00 0. -1.
         21   -1    0    0  501  502 -0.00000000000E+00 -0.00000000000E+00 -0.25150342297E+03  0.25150342297E+03  0.00000000000E+00 0. -1.
         25    1    1    2    0    0 -0.62385802818E+02 -0.21328229416E+03  0.81140607386E+02  0.26756330757E+03  0.12500000000E+03 0.  0.
         25    1    1    2    0    0  0.17022532598E+03  0.76093204775E+02 -0.48276994629E+02  0.22961381846E+03  0.12500000000E+03 0.  0.
         25    1    1    2    0    0 -0.10783952316E+03  0.13718908938E+03  0.57604284708E+03  0.61473617974E+03  0.12500000000E+03 0.  0.
</event>
<event>
 5    0  0.5489207E-005  0.3198427E+03  0.7546771E-02  0.1075722E+00
         21   -1    0    0  502  501  0.00000000000E+00  0.00000000000E+00  0.32771741199E+03  0.32771741199E+03  0.00000000000E+00 0.  1.
         21   -1    0    0  501  502 -0.00000000000E+00 -0.00000000000E+00 -0.31215722347E+03  0.31215722347E+03  0.00000000000E+00 0.  1.
         25    1    1    2    0    0  0.78112748496E+01  0.39324187375E+02 -0.23734843765E+03  0.27123179862E+03  0.12500000000E+03 0.  0.
         25    1    1    2    0    0  0.17159910764E+02  0.16263798801E+02  0.98874397794E+02  0.16112144559E+03  0.12500000000E+03 0.  0.
         25    1    1    2    0    0 -0.24971185613E+02 -0.55587986176E+02  0.15403422837E+03  0.20752139125E+03  0.12500000000E+03 0.  0.
</event>
<event>
 5    0  0.5489207E-005  0.3150417E+03  0.7546771E-02  0.1077954E+00
         21   -1    0    0  502  501  0.00000000000E+00  0.00000000000E+00  0.93787445783E+03  0.93787445783E+03  0.00000000000E+00 0. -1.
         21   -1    0    0  501  502 -0.00000000000E+00 -0.00000000000E+00 -0.10582573597E+03  0.10582573597E+03  0.00000000000E+00 0. -1.
         25    1    1    2    0    0 -0.16515089682E+03  0.95616034524E+02  0.57003538284E+03  0.61398907357E+03  0.12500000000E+03 0.  0.
         25    1    1    2    0    0  0.30843344247E+02 -0.24849322234E+02  0.49463342622E+02  0.14014429337E+03  0.12500000000E+03 0.  0.
         25    1    1    2    0    0  0.13430755257E+03 -0.70766712289E+02  0.21254999640E+03  0.28956682686E+03  0.12500000000E+03 0.  0.
</event>
<event>
 5    0  0.5489207E-005  0.3096265E+03  0.7546771E-02  0.1080525E+00
         21   -1    0    0  502  501  0.00000000000E+00  0.00000000000E+00  0.14418729947E+04  0.14418729947E+04  0.00000000000E+00 0.  1.
         21   -1    0    0  501  502 -0.00000000000E+00 -0.00000000000E+00 -0.66488924143E+02  0.66488924143E+02  0.00000000000E+00 0. -1.
         25    1    1    2    0    0  0.38586631817E+02 -0.13047781787E+03  0.40064178411E+03  0.44119409367E+03  0.12500000000E+03 0.  0.
         25    1    1    2    0    0 -0.13185790143E+03 -0.56987990370E+02  0.41372504038E+03  0.45544214369E+03  0.12500000000E+03 0.  0.
         25    1    1    2    0    0  0.93271269614E+02  0.18746580824E+03  0.56101724604E+03  0.61172568145E+03  0.12500000000E+03 0.  0.
</event>
<event>
 5    0  0.5489207E-005  0.3631534E+03  0.7546771E-02  0.1057342E+00
         21   -1    0    0  502  501  0.00000000000E+00  0.00000000000E+00  0.73621205541E+03  0.73621205541E+03  0.00000000000E+00 0. -1.
         21   -1    0    0  501  502 -0.00000000000E+00 -0.00000000000E+00 -0.17913367824E+03  0.17913367824E+03  0.00000000000E+00 0. -1.
         25    1    1    2    0    0  0.85031570360E+02  0.12315112264E+02  0.64415439843E+02  0.16479192589E+03  0.12500000000E+03 0.  0.
         25    1    1    2    0    0  0.10393510750E+03  0.19453562810E+03  0.16951938082E+03  0.30497284739E+03  0.12500000000E+03 0.  0.
         25    1    1    2    0    0 -0.18896667786E+03 -0.20685074036E+03  0.32314355651E+03  0.44558096037E+03  0.12500000000E+03 0.  0.
</event>
<event>
 5    0  0.5489207E-005  0.3742247E+03  0.7546771E-02  0.1053089E+00
         21   -1    0    0  502  501  0.00000000000E+00  0.00000000000E+00  0.63293655153E+02  0.63293655153E+02  0.00000000000E+00 0.  1.
         21   -1    0    0  501  502 -0.00000000000E+00 -0.00000000000E+00 -0.22126096146E+04  0.22126096146E+04  0.00000000000E+00 0.  1.
         25    1    1    2    0    0  0.22256234613E+02  0.16123328224E+03 -0.87545869714E+03  0.89919099288E+03  0.12500000000E+03 0.  0.
         25    1    1    2    0    0 -0.14376847783E+03 -0.25432203001E+03 -0.88891469178E+03  0.94400391918E+03  0.12500000000E+03 0.  0.
         25    1    1    2    0    0  0.12151224322E+03  0.93088747779E+02 -0.38494257056E+03  0.43270835772E+03  0.12500000000E+03 0.  0.
</event>
<event>
 5    0  0.5489207E-005  0.4620122E+03  0.7546771E-02  0.1024199E+00
         21   -1    0    0  502  501  0.00000000000E+00  0.00000000000E+00  0.85730162354E+03  0.85730162354E+03  0.00000000000E+00 0.  1.
         21   -1    0    0  501  502 -0.00000000000E+00 -0.00000000000E+00 -0.24898503631E+03  0.24898503631E+03  0.00000000000E+00 0.  1.
         25    1    1    2    0    0 -0.55234671488E+02 -0.10783630413E+03  0.60990120111E+03  0.63425863221E+03  0.12500000000E+03 0.  0.
         25    1    1    2    0    0  0.13446454905E+03  0.18872165064E+03 -0.94177797388E+02  0.27962659725E+03  0.12500000000E+03 0.  0.
         25    1    1    2    0    0 -0.79229877562E+02 -0.80885346511E+02  0.92593183506E+02  0.19240143038E+03  0.12500000000E+03 0.  0.
</event>
<event>
 5    0  0.5489207E-005  0.3379069E+03  0.7546771E-02  0.1067691E+00
         21   -1    0    0  502  501  0.00000000000E+00  0.00000000000E+00  0.49806163805E+03  0.49806163805E+03  0.00000000000E+00 0.  1.
         21   -1    0    0  501  502 -0.00000000000E+00 -0.00000000000E+00 -0.22925090541E+03  0.22925090541E+03  0.00000000000E+00 0.  1.
         25    1    1    2    0    0  0.51693797579E+02  0.15314617457E+03  0.94413694299E+02  0.22508874953E+03  0.12500000000E+03 0.  0.
         25    1    1    2    0    0 -0.26056963990E+02 -0.26626988672E+03  0.74362203288E+02  0.30452151849E+03  0.12500000000E+03 0.  0.
         25    1    1    2    0    0 -0.25636833589E+02  0.11312371216E+03  0.10003483505E+03  0.19770227543E+03  0.12500000000E+03 0.  0.
</event>
<event>
 5    0  0.5489207E-005  0.2690011E+03  0.7546771E-02  0.1101853E+00
         21   -1    0    0  502  501  0.00000000000E+00  0.00000000000E+00  0.58655332293E+03  0.58655332293E+03  0.00000000000E+00 0. -1.
         21   -1    0    0  501  502 -0.00000000000E+00 -0.00000000000E+00 -0.12336747149E+03  0.12336747149E+03  0.00000000000E+00 0. -1.
         25    1    1    2    0    0  0.26878712220E+02 -0.12665422856E+03  0.99935227404E+02  0.20585385219E+03  0.12500000000E+03 0.  0.
         25    1    1    2    0    0 -0.70161049535E+02 -0.26651226112E+02  0.13178536031E+03  0.19653305553E+03  0.12500000000E+03 0.  0.
         25    1    1    2    0    0  0.43282337315E+02  0.15330545467E+03  0.23146526372E+03  0.30753388669E+03  0.12500000000E+03 0.  0.
</event>
<event>
 5    0  0.5489207E-005  0.2227969E+03  0.7546771E-02  0.1131815E+00
         21   -1    0    0  502  501  0.00000000000E+00  0.00000000000E+00  0.18841112211E+02  0.18841112211E+02  0.00000000000E+00 0. -1.
         21   -1    0    0  501  502 -0.00000000000E+00 -0.00000000000E+00 -0.26345828270E+04  0.26345828270E+04  0.00000000000E+00 0. -1.
         25    1    1    2    0    0  0.78321765232E+02  0.45883128733E+02 -0.10199867747E+04  0.10316189126E+04  0.12500000000E+03 0.  0.
         25    1    1    2    0    0  0.55976275856E+01 -0.56464260774E+02 -0.83735664961E+03  0.84853444527E+03  0.12500000000E+03 0.  0.
         25    1    1    2    0    0 -0.83919392818E+02  0.10581132041E+02 -0.75839829053E+03  0.77327058132E+03  0.12500000000E+03 0.  0.
</event>
<event>
 5    0  0.6414973E-005  0.3019410E+03  0.7546771E-02  0.1084274E+00
         21   -1    0    0  502  501  0.00000000000E+00  0.00000000000E+00  0.42063751168E+03  0.42063751168E+03  0.00000000000E+00 0. -1.
         21   -1    0    0  501  502 -0.00000000000E+00 -0.00000000000E+00 -0.21673858442E+03  0.21673858442E+03  0.00000000000E+00 0. -1.
         25    1    1    2    0    0 -0.11060025804E+03 -0.11360129456E+01  0.25190693853E+01  0.16692828794E+03  0.12500000000E+03 0.  0.
         25    1    1    2    0    0  0.12272748344E+03 -0.10727659292E+03  0.22293884372E+03  0.30314523024E+03  0.12500000000E+03 0.  0.
         25    1    1    2    0    0 -0.12127225393E+02  0.10841260587E+03 -0.21558985847E+02  0.16730257792E+03  0.12500000000E+03 0.  0.
</event>
<event>
 5    0  0.5489207E-005  0.3011336E+03  0.7546771E-02  0.1084675E+00
         21   -1    0    0  502  501  0.00000000000E+00  0.00000000000E+00  0.46554669149E+03  0.46554669149E+03  0.00000000000E+00 0. -1.
         21   -1    0    0  501  502 -0.00000000000E+00 -0.00000000000E+00 -0.19478481158E+03  0.19478481158E+03  0.00000000000E+00 0. -1.
         25    1    1    2    0    0  0.78201412410E+02 -0.45261090069E+02  0.40367562901E+02  0.15943201470E+03  0.12500000000E+03 0.  0.
         25    1    1    2    0    0 -0.14475839735E+03  0.16005351456E+03  0.19166122977E+03  0.31453322261E+03  0.12500000000E+03 0.  0.
         25    1    1    2    0    0  0.66556984944E+02 -0.11479242449E+03  0.38733087231E+02  0.18636626576E+03  0.12500000000E+03 0.  0.
</event>
<event>
 5    0  0.5489207E-005  0.3297129E+03  0.7546771E-02  0.1071264E+00
         21   -1    0    0  502  501  0.00000000000E+00  0.00000000000E+00  0.37322141341E+03  0.37322141341E+03  0.00000000000E+00 0.  1.
         21   -1    0    0  501  502 -0.00000000000E+00 -0.00000000000E+00 -0.29127640571E+03  0.29127640571E+03  0.00000000000E+00 0.  1.
         25    1    1    2    0    0  0.10580608061E+03  0.22576588154E+02 -0.73817085245E+01  0.16548147524E+03  0.12500000000E+03 0.  0.
         25    1    1    2    0    0  0.12577838322E+03 -0.11567500166E+03  0.43178477771E+02  0.21607935727E+03  0.12500000000E+03 0.  0.
         25    1    1    2    0    0 -0.23158446383E+03  0.93098413507E+02  0.46148238453E+02  0.28293698662E+03  0.12500000000E+03 0.  0.
</event>
<event>
 5    0  0.5489207E-005  0.2957762E+03  0.7546771E-02  0.1087371E+00
         21   -1    0    0  502  501  0.00000000000E+00  0.00000000000E+00  0.73513983674E+03  0.73513983674E+03  0.00000000000E+00 0.  1.
         21   -1    0    0  501  502 -0.00000000000E+00 -0.00000000000E+00 -0.11900264129E+03  0.11900264129E+03  0.00000000000E+00 0.  1.
         25    1    1    2    0    0 -0.32262293711E+02 -0.75375945005E+02  0.12188213886E+03  0.19287987053E+03  0.12500000000E+03 0.  0.
         25    1    1    2    0    0 -0.89347962555E+02  0.12089283276E+03  0.83287702228E+02  0.21250876869E+03  0.12500000000E+03 0.  0.
         25    1    1    2    0    0  0.12161025627E+03 -0.45516887755E+02  0.41096735436E+03  0.44875383881E+03  0.12500000000E+03 0.  0.
</event>
<event>
 5    0  0.5489207E-005  0.3249691E+03  0.7546771E-02  0.1073385E+00
         21   -1    0    0  502  501  0.00000000000E+00  0.00000000000E+00  0.15123112945E+03  0.15123112945E+03  0.00000000000E+00 0.  1.
         21   -1    0    0  501  502 -0.00000000000E+00 -0.00000000000E+00 -0.69830148623E+03  0.69830148623E+03  0.00000000000E+00 0.  1.
         25    1    1    2    0    0  0.47492834457E+02  0.44340954408E+01 -0.37977330170E+03  0.40265120292E+03  0.12500000000E+03 0.  0.
         25    1    1    2    0    0  0.67746066809E+02 -0.60289215270E+01  0.67085281477E+02  0.15732549842E+03  0.12500000000E+03 0.  0.
         25    1    1    2    0    0 -0.11523890127E+03  0.15948260861E+01 -0.23438233656E+03  0.28955591433E+03  0.12500000000E+03 0.  0.
</event>
<event>
 5    0  0.5489207E-005  0.2966260E+03  0.7546771E-02  0.1086939E+00
         21   -1    0    0  502  501  0.00000000000E+00  0.00000000000E+00  0.94764339937E+02  0.94764339937E+02  0.00000000000E+00 0.  1.
         21   -1    0    0  501  502 -0.00000000000E+00 -0.00000000000E+00 -0.92848214430E+03  0.92848214430E+03  0.00000000000E+00 0. -1.
         25    1    1    2    0    0 -0.75065097510E+02 -0.13625122625E+03 -0.14855520865E+03  0.24878266727E+03  0.12500000000E+03 0.  0.
         25    1    1    2    0    0  0.11636941962E+03  0.12600029350E+03 -0.30145053364E+03  0.36866697712E+03  0.12500000000E+03 0.  0.
         25    1    1    2    0    0 -0.41304322115E+02  0.10250932752E+02 -0.38371206207E+03  0.40579683984E+03  0.12500000000E+03 0.  0.
</event>
<event>
 5    0  0.5489207E-005  0.4632879E+03  0.7546771E-02  0.1023832E+00
         21   -1    0    0  502  501  0.00000000000E+00  0.00000000000E+00  0.26452387111E+03  0.26452387111E+03  0.00000000000E+00 0.  1.
         21   -1    0    0  501  502 -0.00000000000E+00 -0.00000000000E+00 -0.81140387274E+03  0.81140387274E+03  0.00000000000E+00 0.  1.
         25    1    1    2    0    0  0.87999583990E+02 -0.27323520298E+03 -0.70206901687E+01  0.31317038976E+03  0.12500000000E+03 0.  0.
         25    1    1    2    0    0  0.17340274526E+02 -0.80116501101E+02 -0.15341259773E+03  0.21419562090E+03  0.12500000000E+03 0.  0.
         25    1    1    2    0    0 -0.10533985852E+03  0.35335170408E+03 -0.38644671374E+03  0.54856173320E+03  0.12500000000E+03 0.  0.
</event>
<event>
 5    0  0.5489207E-005  0.3062965E+03  0.7546771E-02  0.1082135E+00
         21   -1    0    0  502  501  0.00000000000E+00  0.00000000000E+00  0.79590429305E+02  0.79590429305E+02  0.00000000000E+00 0.  1.
         21   -1    0    0  501  502 -0.00000000000E+00 -0.00000000000E+00 -0.11787542511E+04  0.11787542511E+04  0.00000000000E+00 0.  1.
         25    1    1    2    0    0  0.19958458577E+03 -0.72318625378E+02 -0.33173519933E+03  0.41320362163E+03  0.12500000000E+03 0.  0.
         25    1    1    2    0    0 -0.90075795178E+02  0.10103669209E+03 -0.43392253807E+03  0.47141895493E+03  0.12500000000E+03 0.  0.
         25    1    1    2    0    0 -0.10950879059E+03 -0.28718066708E+02 -0.33350608437E+03  0.37372210382E+03  0.12500000000E+03 0.  0.
</event>
<event>
 5    0  0.6351562E-005  0.5163391E+03  0.7546771E-02  0.1009600E+00
         21   -1    0    0  502  501  0.00000000000E+00  0.00000000000E+00  0.48422103675E+03  0.48422103675E+03  0.00000000000E+00 0.  1.
         21   -1    0    0  501  502 -0.00000000000E+00 -0.00000000000E+00 -0.55058754930E+03  0.55058754930E+03  0.00000000000E+00 0.  1.
         25    1    1    2    0    0  0.18232325390E+03 -0.33234953678E+03 -0.89196813626E+01  0.39925248180E+03  0.12500000000E+03 0.  0.
         25    1    1    2    0    0 -0.17607642279E+03  0.74255096600E+02 -0.21038716158E+03  0.31049071450E+03  0.12500000000E+03 0.  0.
         25    1    1    2    0    0 -0.62468311142E+01  0.25809444018E+03  0.15294033039E+03  0.32506538974E+03  0.12500000000E+03 0.  0.
</event>
<event>
 5    0  0.5489207E-005  0.4543553E+03  0.7546771E-02  0.1026431E+00
         21   -1    0    0  502  501  0.00000000000E+00  0.00000000000E+00  0.16156539500E+03  0.16156539500E+03  0.00000000000E+00 0. -1.
         21   -1    0    0  501  502 -0.00000000000E+00 -0.00000000000E+00 -0.12777409103E+04  0.12777409103E+04  0.00000000000E+00 0. -1.
         25    1    1    2    0    0 -0.11471965292E+03  0.11128895999E+03 -0.36334150900E+03  0.41615848368E+03  0.12500000000E+03 0.  0.
         25    1    1    2    0    0  0.22882628697E+03 -0.15940015062E+03 -0.64051262068E+02  0.31224580350E+03  0.12500000000E+03 0.  0.
         25    1    1    2    0    0 -0.11410663405E+03  0.48111190637E+02 -0.68878274421E+03  0.71090201809E+03  0.12500000000E+03 0.  0.
</event>
<event>
 5    0  0.5489207E-005  0.2351009E+03  0.7546771E-02  0.1123100E+00
         21   -1    0    0  502  501  0.00000000000E+00  0.00000000000E+00  0.20572587600E+03  0.20572587600E+03  0.00000000000E+00 0. -1.
         21   -1    0    0  501  502 -0.00000000000E+00 -0.00000000000E+00 -0.26867040094E+03  0.26867040094E+03  0.00000000000E+00 0. -1.
         25    1    1    2    0    0  0.31080720427E+02  0.38931514414E+02  0.52102892628E+02  0.14429617257E+03  0.12500000000E+03 0.  0.
         25    1    1    2    0    0 -0.35580397618E+02 -0.67270431326E+02 -0.13643614208E+03  0.20007772613E+03  0.12500000000E+03 0.  0.
         25    1    1    2    0    0  0.44996771902E+01  0.28338916912E+02  0.21388724515E+02  0.13002237824E+03  0.12500000000E+03 0.  0.
</event>
<event>
 5    0  0.5489207E-005  0.2496025E+03  0.7546771E-02  0.1113556E+00
         21   -1    0    0  502  501  0.00000000000E+00  0.00000000000E+00  0.99269782204E+02  0.99269782204E+02  0.00000000000E+00 0. -1.
         21   -1    0    0  501  502 -0.00000000000E+00 -0.00000000000E+00 -0.62759701739E+03  0.62759701739E+03  0.00000000000E+00 0. -1.
         25    1    1    2    0    0 -0.54428038219E+02 -0.30765601752E+02 -0.13829347085E+03  0.19661896570E+03  0.12500000000E+03 0.  0.
         25    1    1    2    0    0  0.77393396097E+02  0.11640315389E+03 -0.29614292188E+03  0.35052112943E+03  0.12500000000E+03 0.  0.
         25    1    1    2    0    0 -0.22965357878E+02 -0.85637552138E+02 -0.93890842451E+02  0.17972670446E+03  0.12500000000E+03 0.  0.
</event>
<event>
 5    0  0.5489207E-005  0.3662776E+03  0.7546771E-02  0.1056125E+00
         21   -1    0    0  502  501  0.00000000000E+00  0.00000000000E+00  0.39858084036E+03  0.39858084036E+03  0.00000000000E+00 0.  1.
         21   -1    0    0  501  502 -0.00000000000E+00 -0.00000000000E+00 -0.33659248793E+03  0.33659248793E+03  0.00000000000E+00 0.  1.
         25    1    1    2    0    0 -0.14396614805E+03 -0.12778909903E+03 -0.51397152291E+02  0.23520836056E+03  0.12500000000E+03 0.  0.
         25    1    1    2    0    0  0.14337113801E+00  0.48727053211E+01 -0.12086155224E+03  0.17394332015E+03  0.12500000000E+03 0.  0.
         25    1    1    2    0    0  0.14382277691E+03  0.12291639371E+03  0.23424705696E+03  0.32602164758E+03  0.12500000000E+03 0.  0.
</event>
<event>
 5    0  0.5489207E-005  0.3294319E+03  0.7546771E-02  0.1071389E+00
         21   -1    0    0  502  501  0.00000000000E+00  0.00000000000E+00  0.61623782828E+03  0.61623782828E+03  0.00000000000E+00 0.  1.
         21   -1    0    0  501  502 -0.00000000000E+00 -0.00000000000E+00 -0.17610957813E+03  0.17610957813E+03  0.00000000000E+00 0.  1.
         25    1    1    2    0    0  0.14573797169E+01 -0.60497003610E+02  0.28499160630E+03  0.31702874801E+03  0.12500000000E+03 0.  0.
         25    1    1    2    0    0 -0.23623920545E+02 -0.11415103618E+03  0.19115202951E+03  0.25642278968E+03  0.12500000000E+03 0.  0.
         25    1    1    2    0    0  0.22166540829E+02  0.17464803979E+03 -0.36015385668E+02  0.21889586871E+03  0.12500000000E+03 0.  0.
</event>
<event>
 5    0  0.5489207E-005  0.2214315E+03  0.7546771E-02  0.1132820E+00
         21   -1    0    0  502  501  0.00000000000E+00  0.00000000000E+00  0.40526221896E+03  0.40526221896E+03  0.00000000000E+00 0. -1.
         21   -1    0    0  501  502 -0.00000000000E+00 -0.00000000000E+00 -0.12098805662E+03  0.12098805662E+03  0.00000000000E+00 0. -1.
         25    1    1    2    0    0  0.33279120410E+02  0.68975995475E+02  0.73800617265E+02  0.16412409609E+03  0.12500000000E+03 0.  0.
         25    1    1    2    0    0 -0.12148424127E+02 -0.10391769672E+03  0.11033812922E+03  0.19683997221E+03  0.12500000000E+03 0.  0.
         25    1    1    2    0    0 -0.21130696283E+02  0.34941701246E+02  0.10013541586E+03  0.16528620729E+03  0.12500000000E+03 0.  0.
</event>
<event>
 5    0  0.5489207E-005  0.2820716E+03  0.7546771E-02  0.1094563E+00
         21   -1    0    0  502  501  0.00000000000E+00  0.00000000000E+00  0.28787224768E+04  0.28787224768E+04  0.00000000000E+00 0.  1.
         21   -1    0    0  501  502 -0.00000000000E+00 -0.00000000000E+00 -0.27638783608E+02  0.27638783608E+02  0.00000000000E+00 0.  1.
         25    1    1    2    0    0 -0.93571931246E+02 -0.92767161326E+02  0.18911257028E+04  0.18998270648E+04  0.12500000000E+03 0.  0.
         25    1    1    2    0    0  0.26562241242E+02  0.53688560099E+02  0.30141176006E+03  0.33175602971E+03  0.12500000000E+03 0.  0.
         25    1    1    2    0    0  0.67009690004E+02  0.39078601226E+02  0.65854623042E+03  0.67477816594E+03  0.12500000000E+03 0.  0.
</event>
<event>
 5    0  0.5489207E-005  0.2493319E+03  0.7546771E-02  0.1113728E+00
         21   -1    0    0  502  501  0.00000000000E+00  0.00000000000E+00  0.13411049471E+04  0.13411049471E+04  0.00000000000E+00 0.  1.
         21   -1    0    0  501  502 -0.00000000000E+00 -0.00000000000E+00 -0.46354606950E+02  0.46354606950E+02  0.00000000000E+00 0.  1.
         25    1    1    2    0    0  0.18425909911E+01  0.19856496481E+02  0.70653871996E+03  0.71778801773E+03  0.12500000000E+03 0.  0.
         25    1    1    2    0    0  0.43489708478E+02  0.78723473885E+02  0.26324814012E+03  0.30498085737E+03  0.12500000000E+03 0.  0.
         25    1    1    2    0    0 -0.45332299469E+02 -0.98579970366E+02  0.32496348003E+03  0.36469067891E+03  0.12500000000E+03 0.  0.
</event>
<event>
 5    0  0.5489207E-005  0.2473770E+03  0.7546771E-02  0.1114974E+00
         21   -1    0    0  502  501  0.00000000000E+00  0.00000000000E+00  0.11842215431E+04  0.11842215431E+04  0.00000000000E+00 0. -1.
         21   -1    0    0  501  502 -0.00000000000E+00 -0.00000000000E+00 -0.51675617373E+02  0.51675617373E+02  0.00000000000E+00 0. -1.
         25    1    1    2    0    0 -0.12972773561E+02  0.85973528632E+02  0.37304416502E+03  0.40292268432E+03  0.12500000000E+03 0.  0.
         25    1    1    2    0    0  0.79174416531E+02  0.15113298205E+02  0.21532465516E+03  0.26169965062E+03  0.12500000000E+03 0.  0.
         25    1    1    2    0    0 -0.66201642970E+02 -0.10108682684E+03  0.54417710554E+03  0.57127482553E+03  0.12500000000E+03 0.  0.
</event>
<event>
 5    0  0.5489207E-005  0.2864245E+03  0.7546771E-02  0.1092231E+00
         21   -1    0    0  502  501  0.00000000000E+00  0.00000000000E+00  0.27075215650E+04  0.27075215650E+04  0.00000000000E+00 0.  1.
         21   -1    0    0  501  502 -0.00000000000E+00 -0.00000000000E+00 -0.30300402959E+02  0.30300402959E+02  0.00000000000E+00 0.  1.
         25    1    1    2    0    0  0.60220702847E+02  0.11974648676E+03  0.41953603883E+03  0.45782228214E+03  0.12500000000E+03 0.  0.
         25    1    1    2    0    0  0.12402417784E+02 -0.11982376059E+03  0.12507174594E+04  0.12627076925E+04  0.12500000000E+03 0.  0.
         25    1    1    2    0    0 -0.72623120631E+02  0.77273832831E-01  0.10069676638E+04  0.10172919933E+04  0.12500000000E+03 0.  0.
</event>
<event>
 5    0  0.5489207E-005  0.2785312E+03  0.7546771E-02  0.1096494E+00
         21   -1    0    0  502  501  0.00000000000E+00  0.00000000000E+00  0.10239762386E+03  0.10239762386E+03  0.00000000000E+00 0. -1.
         21   -1    0    0  501  502 -0.00000000000E+00 -0.00000000000E+00 -0.75763097263E+03  0.75763097263E+03  0.00000000000E+00 0. -1.
         25    1    1    2    0    0  0.21734224282E+02 -0.51467617273E+02 -0.29439924612E+03  0.32468016301E+03  0.12500000000E+03 0.  0.
         25    1    1    2    0    0 -0.10897712224E+03  0.12127074835E+03 -0.10834030697E+03  0.23226112393E+03  0.12500000000E+03 0.  0.
         25    1    1    2    0    0  0.87242897956E+02 -0.69803131074E+02 -0.25249379568E+03  0.30308730955E+03  0.12500000000E+03 0.  0.
</event>
<event>
 5    0  0.5489207E-005  0.2292819E+03  0.7546771E-02  0.1127146E+00
         21   -1    0    0  502  501  0.00000000000E+00  0.00000000000E+00  0.21940686899E+02  0.21940686899E+02  0.00000000000E+00 0.  1.
         21   -1    0    0  501  502 -0.00000000000E+00 -0.00000000000E+00 -0.23960137569E+04  0.23960137569E+04  0.00000000000E+00 0.  1.
         25    1    1    2    0    0  0.49754962859E+01  0.46829234341E+02 -0.76379222217E+03  0.77538460869E+03  0.12500000000E+03 0.  0.
         25    1    1    2    0    0  0.38624159996E+02 -0.63650338256E+02 -0.41306574699E+03  0.43794006740E+03  0.12500000000E+03 0.  0.
         25    1    1    2    0    0 -0.43599656282E+02  0.16821103915E+02 -0.11972151009E+04  0.12046297678E+04  0.12500000000E+03 0.  0.
</event>
<event>
 5    0  0.5489207E-005  0.2204268E+03  0.7546771E-02  0.1133565E+00
         21   -1    0    0  502  501  0.00000000000E+00  0.00000000000E+00  0.42135273088E+03  0.42135273088E+03  0.00000000000E+00 0.  1.
         21   -1    0    0  501  502 -0.00000000000E+00 -0.00000000000E+00 -0.11531428955E+03  0.11531428955E+03  0.00000000000E+00 0.  1.
         25    1    1    2    0    0  0.58620502822E+02 -0.26145398360E+02  0.16637356293E+03  0.21777306456E+03  0.12500000000E+03 0.  0.
         25    1    1    2    0    0 -0.73340798988E+02  0.58693501576E+02  0.83717821173E+02  0.17736254820E+03  0.12500000000E+03 0.  0.
         25    1    1    2    0    0  0.14720296166E+02 -0.32548103216E+02  0.55947057225E+02  0.14153140766E+03  0.12500000000E+03 0.  0.
</event>
<event>
 5    0  0.5489207E-005  0.2814518E+03  0.7546771E-02  0.1094899E+00
         21   -1    0    0  502  501  0.00000000000E+00  0.00000000000E+00  0.25571513006E+02  0.25571513006E+02  0.00000000000E+00 0.  1.
         21   -1    0    0  501  502 -0.00000000000E+00 -0.00000000000E+00 -0.30977886600E+04  0.30977886600E+04  0.00000000000E+00 0.  1.
         25    1    1    2    0    0  0.82811689434E+02 -0.59715254664E+02 -0.59922924635E+03  0.62058390023E+03  0.12500000000E+03 0.  0.
         25    1    1    2    0    0 -0.13297345749E+02 -0.59028074285E+02 -0.44211659573E+03  0.46341473560E+03  0.12500000000E+03 0.  0.
         25    1    1    2    0    0 -0.69514343685E+02  0.11874332895E+03 -0.20308713049E+04  0.20393615371E+04  0.12500000000E+03 0.  0.
</event>
<event>
 5    0  0.5489207E-005  0.4149984E+03  0.7546771E-02  0.1038707E+00
         21   -1    0    0  502  501  0.00000000000E+00  0.00000000000E+00  0.56107178332E+03  0.56107178332E+03  0.00000000000E+00 0. -1.
         21   -1    0    0  501  502 -0.00000000000E+00 -0.00000000000E+00 -0.30695476589E+03  0.30695476589E+03  0.00000000000E+00 0. -1.
         25    1    1    2    0    0  0.83906957699E+02  0.16195848851E+02 -0.13897958338E+02  0.15205537253E+03  0.12500000000E+03 0.  0.
         25    1    1    2    0    0  0.19715835889E+03  0.41613820267E+02  0.32042235646E+03  0.39862089137E+03  0.12500000000E+03 0.  0.
         25    1    1    2    0    0 -0.28106531659E+03 -0.57809669118E+02 -0.52407380684E+02  0.31735028530E+03  0.12500000000E+03 0.  0.
</event>
<event>
 5    0  0.5489207E-005  0.4515062E+03  0.7546771E-02  0.1027274E+00
         21   -1    0    0  502  501  0.00000000000E+00  0.00000000000E+00  0.52036607551E+03  0.52036607551E+03  0.00000000000E+00 0.  1.
         21   -1    0    0  501  502 -0.00000000000E+00 -0.00000000000E+00 -0.39175855046E+03  0.39175855046E+03  0.00000000000E+00 0.  1.
         25    1    1    2    0    0 -0.38805642556E+02 -0.11755192680E+03  0.66274926214E+02  0.18799388084E+03  0.12500000000E+03 0.  0.
         25    1    1    2    0    0  0.26805756590E+03 -0.15482662361E+03  0.90103529180E+02  0.34578864641E+03  0.12500000000E+03 0.  0.
         25    1    1    2    0    0 -0.22925192335E+03  0.27237855042E+03 -0.27770930350E+02  0.37834209871E+03  0.12500000000E+03 0.  0.
</event>
<event>
 5    0  0.5489207E-005  0.4243499E+03  0.7546771E-02  0.1035660E+00
         21   -1    0    0  502  501  0.00000000000E+00  0.00000000000E+00  0.39368715056E+03  0.39368715056E+03  0.00000000000E+00 0.  1.
         21   -1    0    0  501  502 -0.00000000000E+00 -0.00000000000E+00 -0.45740093291E+03  0.45740093291E+03  0.00000000000E+00 0.  1.
         25    1    1    2    0    0  0.11992778512E+03 -0.83070789155E+02 -0.16378431856E+03  0.25245540727E+03  0.12500000000E+03 0.  0.
         25    1    1    2    0    0 -0.10893825811E+03  0.29399076108E+03  0.11517288157E+02  0.33772142308E+03  0.12500000000E+03 0.  0.
         25    1    1    2    0    0 -0.10989527002E+02 -0.21091997193E+03  0.88553248054E+02  0.26091125312E+03  0.12500000000E+03 0.  0.
</event>
<event>
 5    0  0.5489207E-005  0.2628931E+03  0.7546771E-02  0.1105417E+00
         21   -1    0    0  502  501  0.00000000000E+00  0.00000000000E+00  0.58078270423E+02  0.58078270423E+02  0.00000000000E+00 0.  1.
         21   -1    0    0  501  502 -0.00000000000E+00 -0.00000000000E+00 -0.11899939867E+04  0.11899939867E+04  0.00000000000E+00 0.  1.
         25    1    1    2    0    0  0.15352368554E+02 -0.50995355719E+02 -0.92993043701E+02  0.16464789006E+03  0.12500000000E+03 0.  0.
         25    1    1    2    0    0 -0.16958769068E+02  0.11102010617E+03 -0.60290151808E+03  0.62588202109E+03  0.12500000000E+03 0.  0.
         25    1    1    2    0    0  0.16064005148E+01 -0.60024750451E+02 -0.43602115454E+03  0.45754234601E+03  0.12500000000E+03 0.  0.
</event>
<event>
 5    0  0.5489207E-005  0.2930009E+03  0.7546771E-02  0.1088793E+00
         21   -1    0    0  502  501  0.00000000000E+00  0.00000000000E+00  0.71312068902E+03  0.71312068902E+03  0.00000000000E+00 0.  1.
         21   -1    0    0  501  502 -0.00000000000E+00 -0.00000000000E+00 -0.12038570005E+03  0.12038570005E+03  0.00000000000E+00 0.  1.
         25    1    1    2    0    0  0.54409365461E+02 -0.98425751553E+02  0.12855397238E+03  0.21165805308E+03  0.12500000000E+03 0.  0.
         25    1    1    2    0    0  0.68497224319E+02 -0.26380537180E+02  0.46915075482E+02  0.15236084401E+03  0.12500000000E+03 0.  0.
         25    1    1    2    0    0 -0.12290658978E+03  0.12480628873E+03  0.41726594111E+03  0.46948749198E+03  0.12500000000E+03 0.  0.
</event>
<event>
 5    0  0.5489207E-005  0.3259704E+03  0.7546771E-02  0.1072934E+00
         21   -1    0    0  502  501  0.00000000000E+00  0.00000000000E+00  0.43898178915E+02  0.43898178915E+02  0.00000000000E+00 0.  1.
         21   -1    0    0  501  502 -0.00000000000E+00 -0.00000000000E+00 -0.24205262502E+04  0.24205262502E+04  0.00000000000E+00 0.  1.
         25    1    1    2    0    0  0.72867656652E+02 -0.12185777423E+03 -0.11176232330E+04  0.11335191676E+04  0.12500000000E+03 0.  0.
         25    1    1    2    0    0 -0.12546880801E+03  0.78343843763E+02 -0.27327693750E+03  0.33494098615E+03  0.12500000000E+03 0.  0.
         25    1    1    2    0    0  0.52601151357E+02  0.43513930465E+02 -0.98572790080E+03  0.99596427530E+03  0.12500000000E+03 0.  0.
</event>
<event>
 5    0  0.5489207E-005  0.2992381E+03  0.7546771E-02  0.1085622E+00
         21   -1    0    0  502  501  0.00000000000E+00  0.00000000000E+00  0.15913608794E+03  0.15913608794E+03  0.00000000000E+00 0.  1.
         21   -1    0    0  501  502 -0.00000000000E+00 -0.00000000000E+00 -0.56268451340E+03  0.56268451340E+03  0.00000000000E+00 0.  1.
         25    1    1    2    0    0  0.10398904784E+03  0.14625474027E+02 -0.20567465106E+03  0.26259224788E+03  0.12500000000E+03 0.  0.
         25    1    1    2    0    0 -0.91836005807E+02  0.52683330946E+02  0.51756736054E+02  0.17179390283E+03  0.12500000000E+03 0.  0.
         25    1    1    2    0    0 -0.12153042034E+02 -0.67308804973E+02 -0.24963051045E+03  0.28743445063E+03  0.12500000000E+03 0.  0.
</event>
<event>
 5    0  0.5489207E-005  0.3849168E+03  0.7546771E-02  0.1049131E+00
         21   -1    0    0  502  501  0.00000000000E+00  0.00000000000E+00  0.13425467180E+03  0.13425467180E+03  0.00000000000E+00 0.  1.
         21   -1    0    0  501  502 -0.00000000000E+00 -0.00000000000E+00 -0.11035813199E+04  0.11035813199E+04  0.00000000000E+00 0.  1.
         25    1    1    2    0    0 -0.28187115880E+03  0.90845273824E+02 -0.47260735969E+03  0.57156533343E+03  0.12500000000E+03 0.  0.
         25    1    1    2    0    0  0.19278673149E+02  0.15711198564E+02 -0.94742640608E+02  0.15880704313E+03  0.12500000000E+03 0.  0.
         25    1    1    2    0    0  0.26259248565E+03 -0.10655647239E+03 -0.40197664784E+03  0.50746361519E+03  0.12500000000E+03 0.  0.
</event>
<event>
 5    0  0.5489207E-005  0.4391228E+03  0.7546771E-02  0.1031016E+00
         21   -1    0    0  502  501  0.00000000000E+00  0.00000000000E+00  0.14095495662E+03  0.14095495662E+03  0.00000000000E+00 0. -1.
         21   -1    0    0  501  502 -0.00000000000E+00 -0.00000000000E+00 -0.13680172134E+04  0.13680172134E+04  0.00000000000E+00 0. -1.
         25    1    1    2    0    0 -0.18760922475E+03 -0.23673000964E+03 -0.42649559934E+03  0.53736562500E+03  0.12500000000E+03 0.  0.
         25    1    1    2    0    0  0.68642211958E+02  0.32019405280E+03 -0.59472452066E+03  0.69033197824E+03  0.12500000000E+03 0.  0.
         25    1    1    2    0    0  0.11896701279E+03 -0.83464043160E+02 -0.20584213673E+03  0.28127456672E+03  0.12500000000E+03 0.  0.
</event>
<event>
 5    0  0.5489207E-005  0.5760076E+03  0.7546771E-02  0.9956472E-01
         21   -1    0    0  502  501  0.00000000000E+00  0.00000000000E+00  0.38944109213E+03  0.38944109213E+03  0.00000000000E+00 0. -1.
         21   -1    0    0  501  502 -0.00000000000E+00 -0.00000000000E+00 -0.85195112917E+03  0.85195112917E+03  0.00000000000E+00 0. -1.
         25    1    1    2    0    0  0.11274241583E+03  0.58914597873E+01 -0.76539944425E+03  0.78371351327E+03  0.12500000000E+03 0.  0.
         25    1    1    2    0    0 -0.98664677343E+02 -0.93657715969E+02  0.20379342126E+03  0.27506952733E+03  0.12500000000E+03 0.  0.
         25    1    1    2    0    0 -0.14077738488E+02  0.87766256182E+02  0.99095985946E+02  0.18260918070E+03  0.12500000000E+03 0.  0.
</event>
<event>
 5    0  0.5489207E-005  0.2818430E+03  0.7546771E-02  0.1094687E+00
         21   -1    0    0  502  501  0.00000000000E+00  0.00000000000E+00  0.13672484599E+04  0.13672484599E+04  0.00000000000E+00 0. -1.
         21   -1    0    0  501  502 -0.00000000000E+00 -0.00000000000E+00 -0.58098782434E+02  0.58098782434E+02  0.00000000000E+00 0. -1.
         25    1    1    2    0    0  0.55277965083E+02  0.64990087865E+02  0.18582622281E+03  0.23965756827E+03  0.12500000000E+03 0.  0.
         25    1    1    2    0    0 -0.13945704221E+02 -0.16969664518E+03  0.63348635600E+03  0.66777346256E+03  0.12500000000E+03 0.  0.
         25    1    1    2    0    0 -0.41332260862E+02  0.10470655731E+03  0.48983709869E+03  0.51791621155E+03  0.12500000000E+03 0.  0.
</event>
<event>
 5    0  0.5489207E-005  0.3115801E+03  0.7546771E-02  0.1079591E+00
         21   -1    0    0  502  501  0.00000000000E+00  0.00000000000E+00  0.10077889010E+03  0.10077889010E+03  0.00000000000E+00 0.  1.
         21   -1    0    0  501  502 -0.00000000000E+00 -0.00000000000E+00 -0.96331814578E+03  0.96331814578E+03  0.00000000000E+00 0.  1.
         25    1    1    2    0    0 -0.10093478225E+02  0.14530027149E+03 -0.13214510600E+03  0.23302655693E+03  0.12500000000E+03 0.  0.
         25    1    1    2    0    0  0.79560778592E+02 -0.13339442934E+03 -0.20311587018E+03  0.28461385769E+03  0.12500000000E+03 0.  0.
         25    1    1    2    0    0 -0.69467300368E+02 -0.11905842151E+02 -0.52727827949E+03  0.54645662126E+03  0.12500000000E+03 0.  0.
</event>
<event>
 5    0  0.5811309E-005  0.2822087E+03  0.7546771E-02  0.1094489E+00
         21   -1    0    0  502  501  0.00000000000E+00  0.00000000000E+00  0.21005793947E+03  0.21005793947E+03  0.00000000000E+00 0.  1.
         21   -1    0    0  501  502 -0.00000000000E+00 -0.00000000000E+00 -0.37914187173E+03  0.37914187173E+03  0.00000000000E+00 0.  1.
         25    1    1    2    0    0 -0.70121337654E+02 -0.37502765752E+02  0.74981875980E+02  0.16604439514E+03  0.12500000000E+03 0.  0.
         25    1    1    2    0    0 -0.33374740599E+02 -0.57440673761E+02 -0.16963851379E+03  0.22094236731E+03  0.12500000000E+03 0.  0.
         25    1    1    2    0    0  0.10349607825E+03  0.94943439513E+02 -0.74427294449E+02  0.20221304874E+03  0.12500000000E+03 0.  0.
</event>
<event>
 5    0  0.5489207E-005  0.2367326E+03  0.7546771E-02  0.1121989E+00
         21   -1    0    0  502  501  0.00000000000E+00  0.00000000000E+00  0.46403865089E+03  0.46403865089E+03  0.00000000000E+00 0. -1.
         21   -1    0    0  501  502 -0.00000000000E+00 -0.00000000000E+00 -0.12077080453E+03  0.12077080453E+03  0.00000000000E+00 0. -1.
         25    1    1    2    0    0 -0.10937233562E+03  0.36022296387E+02  0.12074990332E+03  0.20848369910E+03  0.12500000000E+03 0.  0.
         25    1    1    2    0    0  0.53158909101E+02  0.41166208480E+02  0.74340635643E+02  0.16022501816E+03  0.12500000000E+03 0.  0.
         25    1    1    2    0    0  0.56213426523E+02 -0.77188504868E+02  0.14817730740E+03  0.21610073816E+03  0.12500000000E+03 0.  0.
</event>
<event>
 5    0  0.5489207E-005  0.4263809E+03  0.7546771E-02  0.1035009E+00
         21   -1    0    0  502  501  0.00000000000E+00  0.00000000000E+00  0.13187296712E+04  0.13187296712E+04  0.00000000000E+00 0.  1.
         21   -1    0    0  501  502 -0.00000000000E+00 -0.00000000000E+00 -0.13786043509E+03  0.13786043509E+03  0.00000000000E+00 0.  1.
         25    1    1    2    0    0 -0.10921650043E+03  0.10717012190E+02  0.11233086718E+03  0.20071452872E+03  0.12500000000E+03 0.  0.
         25    1    1    2    0    0  0.59684761612E+02  0.69322955091E+02 -0.19969293596E+02  0.15617847341E+03  0.12500000000E+03 0.  0.
         25    1    1    2    0    0  0.49531738820E+02 -0.80039967282E+02  0.10885076625E+04  0.10996971042E+04  0.12500000000E+03 0.  0.
</event>
<event>
 5    0  0.6495527E-005  0.3469450E+03  0.7546771E-02  0.1063876E+00
         21   -1    0    0  502  501  0.00000000000E+00  0.00000000000E+00  0.59530303782E+03  0.59530303782E+03  0.00000000000E+00 0.  1.
         21   -1    0    0  501  502 -0.00000000000E+00 -0.00000000000E+00 -0.20220090818E+03  0.20220090818E+03  0.00000000000E+00 0.  1.
         25    1    1    2    0    0 -0.85772764011E+02 -0.84385548336E+02  0.34006332547E+02  0.17680304994E+03  0.12500000000E+03 0.  0.
         25    1    1    2    0    0 -0.62492707153E+02  0.10384462203E+03  0.38647808989E+03  0.42388601999E+03  0.12500000000E+03 0.  0.
         25    1    1    2    0    0  0.14826547116E+03 -0.19459073693E+02 -0.27382292799E+02  0.19681487608E+03  0.12500000000E+03 0.  0.
</event>
<event>
 5    0  0.5489207E-005  0.5162520E+03  0.7546771E-02  0.1009622E+00
         21   -1    0    0  502  501  0.00000000000E+00  0.00000000000E+00  0.13061862314E+04  0.13061862314E+04  0.00000000000E+00 0.  1.
         21   -1    0    0  501  502 -0.00000000000E+00 -0.00000000000E+00 -0.20404148244E+03  0.20404148244E+03  0.00000000000E+00 0.  1.
         25    1    1    2    0    0 -0.50266275629E+02  0.25294381774E+02  0.10739884307E+04  0.10827015533E+04  0.12500000000E+03 0.  0.
         25    1    1    2    0    0 -0.14428279805E+03  0.16386955116E+02  0.14950785924E+02  0.19218372489E+03  0.12500000000E+03 0.  0.
         25    1    1    2    0    0  0.19454907368E+03 -0.41681336889E+02  0.13205532277E+02  0.23534243561E+03  0.12500000000E+03 0.  0.
</event>
<event>
 5    0  0.5489207E-005  0.3696545E+03  0.7546771E-02  0.1054825E+00
         21   -1    0    0  502  501  0.00000000000E+00  0.00000000000E+00  0.89519556187E+03  0.89519556187E+03  0.00000000000E+00 0.  1.
         21   -1    0    0  501  502 -0.00000000000E+00 -0.00000000000E+00 -0.15264201866E+03  0.15264201866E+03  0.00000000000E+00 0.  1.
         25    1    1    2    0    0  0.16801384302E+01 -0.40313485998E+02 -0.14677041389E+02  0.13216813369E+03  0.12500000000E+03 0.  0.
         25    1    1    2    0    0 -0.14132933062E+03  0.19403630861E+03  0.36125932368E+03  0.45139491324E+03  0.12500000000E+03 0.  0.
         25    1    1    2    0    0  0.13964919219E+03 -0.15372282261E+03  0.39597126092E+03  0.46427453360E+03  0.12500000000E+03 0.  0.
</event>
<event>
 5    0  0.5489207E-005  0.4252738E+03  0.7546771E-02  0.1035363E+00
         21   -1    0    0  502  501  0.00000000000E+00  0.00000000000E+00  0.25960600730E+03  0.25960600730E+03  0.00000000000E+00 0.  1.
         21   -1    0    0  501  502 -0.00000000000E+00 -0.00000000000E+00 -0.69666251923E+03  0.69666251923E+03  0.00000000000E+00 0.  1.
         25    1    1    2    0    0  0.42947153361E+02  0.39699403526E+01  0.91160778912E+01  0.13254554419E+03  0.12500000000E+03 0.  0.
         25    1    1    2    0    0  0.45455093315E+02 -0.24936817184E+03 -0.45353649910E+03  0.53438844173E+03  0.12500000000E+03 0.  0.
         25    1    1    2    0    0 -0.88402246676E+02  0.24539823148E+03  0.73639092805E+01  0.28933454061E+03  0.12500000000E+03 0.  0.
</event>
<event>
 5    0  0.5489207E-005  0.3220052E+03  0.7546771E-02  0.1074730E+00
         21   -1    0    0  502  501  0.00000000000E+00  0.00000000000E+00  0.89870099756E+02  0.89870099756E+02  0.00000000000E+00 0.  1.
         21   -1    0    0  501  502 -0.00000000000E+00 -0.00000000000E+00 -0.11537471767E+04  0.11537471767E+04  0.00000000000E+00 0.  1.
         25    1    1    2    0    0  0.46987516185E+01 -0.53444009748E+02 -0.36291495776E+03  0.38757013173E+03  0.12500000000E+03 0.  0.
         25    1    1    2    0    0  0.12541629737E+03 -0.92166997003E+02 -0.53467580415E+03  0.57072516900E+03  0.12500000000E+03 0.  0.
         25    1    1    2    0    0 -0.13011504899E+03  0.14561100675E+03 -0.16628631501E+03  0.28532197571E+03  0.12500000000E+03 0.  0.
</event>
<event>
 5    0  0.5489207E-005  0.3938378E+03  0.7546771E-02  0.1045935E+00
         21   -1    0    0  502  501  0.00000000000E+00  0.00000000000E+00  0.85492131564E+02  0.85492131564E+02  0.00000000000E+00 0. -1.
         21   -1    0    0  501  502 -0.00000000000E+00 -0.00000000000E+00 -0.18142976984E+04  0.18142976984E+04  0.00000000000E+00 0.  1.
         25    1    1    2    0    0 -0.27294836121E+02  0.14827788824E+03 -0.59602034510E+03  0.62737276956E+03  0.12500000000E+03 0.  0.
         25    1    1    2    0    0  0.67862142369E+02 -0.32348117362E+03 -0.59926759293E+03  0.69569532699E+03  0.12500000000E+03 0.  0.
         25    1    1    2    0    0 -0.40567306248E+02  0.17520328538E+03 -0.53351762880E+03  0.57672173341E+03  0.12500000000E+03 0.  0.
</event>
<event>
 5    0  0.5489207E-005  0.4313880E+03  0.7546771E-02  0.1033422E+00
         21   -1    0    0  502  501  0.00000000000E+00  0.00000000000E+00  0.32326249364E+03  0.32326249364E+03  0.00000000000E+00 0.  1.
         21   -1    0    0  501  502 -0.00000000000E+00 -0.00000000000E+00 -0.57567962641E+03  0.57567962641E+03  0.00000000000E+00 0.  1.
         25    1    1    2    0    0  0.55691496205E+02 -0.13085076532E+03  0.22773492938E+03  0.29616154982E+03  0.12500000000E+03 0.  0.
         25    1    1    2    0    0 -0.14099320447E+03  0.78261755790E+02 -0.25968362591E+03  0.33024925691E+03  0.12500000000E+03 0.  0.
         25    1    1    2    0    0  0.85301708263E+02  0.52589009528E+02 -0.22046843625E+03  0.27253131332E+03  0.12500000000E+03 0.  0.
</event>
<event>
 5    0  0.5489207E-005  0.3423351E+03  0.7546771E-02  0.1065806E+00
         21   -1    0    0  502  501  0.00000000000E+00  0.00000000000E+00  0.44138324809E+03  0.44138324809E+03  0.00000000000E+00 0. -1.
         21   -1    0    0  501  502 -0.00000000000E+00 -0.00000000000E+00 -0.26551372812E+03  0.26551372812E+03  0.00000000000E+00 0. -1.
         25    1    1    2    0    0  0.11705935391E+03 -0.10906787858E+03 -0.11532704110E+03  0.23350379201E+03  0.12500000000E+03 0.  0.
         25    1    1    2    0    0  0.42035631404E+02 -0.15839307593E+02  0.13187933733E+03  0.18717648780E+03  0.12500000000E+03 0.  0.
         25    1    1    2    0    0 -0.15909498531E+03  0.12490718617E+03  0.15931722375E+03  0.28621669639E+03  0.12500000000E+03 0.  0.
</event>
<event>
 5    0  0.5489207E-005  0.2905798E+03  0.7546771E-02  0.1090047E+00
         21   -1    0    0  502  501  0.00000000000E+00  0.00000000000E+00  0.11401622152E+03  0.11401622152E+03  0.00000000000E+00 0. -1.
         21   -1    0    0  501  502 -0.00000000000E+00 -0.00000000000E+00 -0.74056681340E+03  0.74056681340E+03  0.00000000000E+00 0. -1.
         25    1    1    2    0    0  0.65494852802E+02 -0.25920299988E+02 -0.32423209661E+03  0.35456013618E+03  0.12500000000E+03 0.  0.
         25    1    1    2    0    0 -0.62036165142E+02  0.89951157785E+02  0.69292474058E+00  0.16602763841E+03  0.12500000000E+03 0.  0.
         25    1    1    2    0    0 -0.34586876597E+01 -0.64030857798E+02 -0.30301142000E+03  0.33399526033E+03  0.12500000000E+03 0.  0.
</event>
<event>
 5    0  0.5489207E-005  0.4134826E+03  0.7546771E-02  0.1039209E+00
         21   -1    0    0  502  501  0.00000000000E+00  0.00000000000E+00  0.21643713567E+04  0.21643713567E+04  0.00000000000E+00 0. -1.
         21   -1    0    0  501  502 -0.00000000000E+00 -0.00000000000E+00 -0.78991911659E+02  0.78991911659E+02  0.00000000000E+00 0. -1.
         25    1    1    2    0    0  0.19974350725E+03 -0.96676985009E+02  0.30650830046E+03  0.39851756093E+03  0.12500000000E+03 0.  0.
         25    1    1    2    0    0 -0.80619662814E+02  0.18827448908E+03  0.54351159244E+03  0.59411839257E+03  0.12500000000E+03 0.  0.
         25    1    1    2    0    0 -0.11912384444E+03 -0.91597504075E+02  0.12353595522E+04  0.12507273149E+04  0.12500000000E+03 0.  0.
</event>
<event>
 5    0  0.5489207E-005  0.2501909E+03  0.7546771E-02  0.1113184E+00
         21   -1    0    0  502  501  0.00000000000E+00  0.00000000000E+00  0.10139518391E+03  0.10139518391E+03  0.00000000000E+00 0.  1.
         21   -1    0    0  501  502 -0.00000000000E+00 -0.00000000000E+00 -0.61734200266E+03  0.61734200266E+03  0.00000000000E+00 0.  1.
         25    1    1    2    0    0 -0.52712717199E+02 -0.64022949856E+02 -0.28236007543E+02  0.15264285370E+03  0.12500000000E+03 0.  0.
         25    1    1    2    0    0 -0.16988417182E+02  0.62625221323E+02 -0.19828533307E+03  0.24321307115E+03  0.12500000000E+03 0.  0.
         25    1    1    2    0    0  0.69701134381E+02  0.13977285335E+01 -0.28942547814E+03  0.32288126173E+03  0.12500000000E+03 0.  0.
</event>
<event>
 5    0  0.5489207E-005  0.2990280E+03  0.7546771E-02  0.1085728E+00
         21   -1    0    0  502  501  0.00000000000E+00  0.00000000000E+00  0.45082713803E+03  0.45082713803E+03  0.00000000000E+00 0.  1.
         21   -1    0    0  501  502 -0.00000000000E+00 -0.00000000000E+00 -0.19834148052E+03  0.19834148052E+03  0.00000000000E+00 0.  1.
         25    1    1    2    0    0 -0.10804941280E+03  0.46293277314E+02 -0.35764273208E+02  0.17527642845E+03  0.12500000000E+03 0.  0.
         25    1    1    2    0    0  0.16829941153E+03 -0.76473637214E+02  0.11880387356E+03  0.25280876069E+03  0.12500000000E+03 0.  0.
         25    1    1    2    0    0 -0.60249998727E+02  0.30180359900E+02  0.16944605717E+03  0.22108342941E+03  0.12500000000E+03 0.  0.
</event>
<event>
 5    0  0.5489207E-005  0.2746606E+03  0.7546771E-02  0.1098641E+00
         21   -1    0    0  502  501  0.00000000000E+00  0.00000000000E+00  0.43363223488E+03  0.43363223488E+03  0.00000000000E+00 0.  1.
         21   -1    0    0  501  502 -0.00000000000E+00 -0.00000000000E+00 -0.17396873388E+03  0.17396873388E+03  0.00000000000E+00 0.  1.
         25    1    1    2    0    0  0.45765760213E+02 -0.10944730326E+02  0.10037922355E+03  0.16707866546E+03  0.12500000000E+03 0.  0.
         25    1    1    2    0    0  0.12658824739E+03 -0.35041684914E+02  0.21046103989E+02  0.18253887956E+03  0.12500000000E+03 0.  0.
         25    1    1    2    0    0 -0.17235400760E+03  0.45986415240E+02  0.13823817347E+03  0.25798342374E+03  0.12500000000E+03 0.  0.
</event>
<event>
 5    0  0.5489207E-005  0.2354153E+03  0.7546771E-02  0.1122885E+00
         21   -1    0    0  502  501  0.00000000000E+00  0.00000000000E+00  0.10635650647E+03  0.10635650647E+03  0.00000000000E+00 0. -1.
         21   -1    0    0  501  502 -0.00000000000E+00 -0.00000000000E+00 -0.52108097977E+03  0.52108097977E+03  0.00000000000E+00 0. -1.
         25    1    1    2    0    0 -0.12982304793E+02  0.29535903985E+02 -0.16947163487E+03  0.21304118120E+03  0.12500000000E+03 0.  0.
         25    1    1    2    0    0 -0.22737716934E+02  0.42263426853E+02 -0.22863462757E+03  0.26495658880E+03  0.12500000000E+03 0.  0.
         25    1    1    2    0    0  0.35720021726E+02 -0.71799330837E+02 -0.16618210857E+02  0.14943971625E+03  0.12500000000E+03 0.  0.
</event>
<event>
 5    0  0.5489207E-005  0.2863648E+03  0.7546771E-02  0.1092263E+00
         21   -1    0    0  502  501  0.00000000000E+00  0.00000000000E+00  0.45473722449E+02  0.45473722449E+02  0.00000000000E+00 0. -1.
         21   -1    0    0  501  502 -0.00000000000E+00 -0.00000000000E+00 -0.18033443587E+04  0.18033443587E+04  0.00000000000E+00 0. -1.
         25    1    1    2    0    0 -0.56846032668E+02  0.43121279205E+02 -0.29039166449E+03  0.32410374104E+03  0.12500000000E+03 0.  0.
         25    1    1    2    0    0 -0.66977815397E+02 -0.22324447750E+01 -0.20442143205E+03  0.24880541282E+03  0.12500000000E+03 0.  0.
         25    1    1    2    0    0  0.12382384806E+03 -0.40888834430E+02 -0.12630575397E+04  0.12759089273E+04  0.12500000000E+03 0.  0.
</event>
<event>
 5    0  0.5489207E-005  0.4251688E+03  0.7546771E-02  0.1035397E+00
         21   -1    0    0  502  501  0.00000000000E+00  0.00000000000E+00  0.60634785813E+03  0.60634785813E+03  0.00000000000E+00 0.  1.
         21   -1    0    0  501  502 -0.00000000000E+00 -0.00000000000E+00 -0.29812672425E+03  0.29812672425E+03  0.00000000000E+00 0.  1.
         25    1    1    2    0    0 -0.67826262188E+02 -0.18077786846E+03 -0.13361323011E+03  0.26600476467E+03  0.12500000000E+03 0.  0.
         25    1    1    2    0    0 -0.75431398753E+02  0.49357108646E+02  0.17279028761E+02  0.15507928594E+03  0.12500000000E+03 0.  0.
         25    1    1    2    0    0  0.14325766094E+03  0.13142075981E+03  0.42455533524E+03  0.48339053177E+03  0.12500000000E+03 0.  0.
</event>
<event>
 5    0  0.5489207E-005  0.2766263E+03  0.7546771E-02  0.1097546E+00
         21   -1    0    0  502  501  0.00000000000E+00  0.00000000000E+00  0.27819377650E+03  0.27819377650E+03  0.00000000000E+00 0. -1.
         21   -1    0    0  501  502 -0.00000000000E+00 -0.00000000000E+00 -0.27506772671E+03  0.27506772671E+03  0.00000000000E+00 0. -1.
         25    1    1    2    0    0 -0.11666690532E+02 -0.85331288175E+02 -0.79740863842E+02  0.17146762311E+03  0.12500000000E+03 0.  0.
         25    1    1    2    0    0  0.26389802818E+02 -0.85198607940E+00 -0.86171353046E+02  0.15410272437E+03  0.12500000000E+03 0.  0.
         25    1    1    2    0    0 -0.14723112286E+02  0.86183274255E+02  0.16903826668E+03  0.22769115573E+03  0.12500000000E+03 0.  0.
</event>
<event>
 5    0  0.5489207E-005  0.4086022E+03  0.7546771E-02  0.1040841E+00
         21   -1    0    0  502  501  0.00000000000E+00  0.00000000000E+00  0.70799974201E+03  0.70799974201E+03  0.00000000000E+00 0. -1.
         21   -1    0    0  501  502 -0.00000000000E+00 -0.00000000000E+00 -0.23581329848E+03  0.23581329848E+03  0.00000000000E+00 0. -1.
         25    1    1    2    0    0  0.10012599568E+03  0.78115541831E+02 -0.32609889504E+02  0.18115092542E+03  0.12500000000E+03 0.  0.
         25    1    1    2    0    0 -0.27723788484E+03  0.61381829759E+02  0.31831871213E+03  0.44450014208E+03  0.12500000000E+03 0.  0.
         25    1    1    2    0    0  0.17711188916E+03 -0.13949737159E+03  0.18647762091E+03  0.31816197300E+03  0.12500000000E+03 0.  0.
</event>
<event>
 5    0  0.5489207E-005  0.4337894E+03  0.7546771E-02  0.1032670E+00
         21   -1    0    0  502  501  0.00000000000E+00  0.00000000000E+00  0.65553911884E+03  0.65553911884E+03  0.00000000000E+00 0. -1.
         21   -1    0    0  501  502 -0.00000000000E+00 -0.00000000000E+00 -0.28705115761E+03  0.28705115761E+03  0.00000000000E+00 0. -1.
         25    1    1    2    0    0  0.23753309051E+03  0.36024351412E+02  0.23808215589E+03  0.36059372697E+03  0.12500000000E+03 0.  0.
         25    1    1    2    0    0 -0.34358186395E+03  0.56839818926E+02  0.37406222774E+02  0.37189176887E+03  0.12500000000E+03 0.  0.
         25    1    1    2    0    0  0.10604877343E+03 -0.92864170338E+02  0.92999582569E+02  0.21010478062E+03  0.12500000000E+03 0.  0.
</event>
<event>
 5    0  0.5932587E-005  0.2983187E+03  0.7546771E-02  0.1086084E+00
         21   -1    0    0  502  501  0.00000000000E+00  0.00000000000E+00  0.18383319984E+03  0.18383319984E+03  0.00000000000E+00 0.  1.
         21   -1    0    0  501  502 -0.00000000000E+00 -0.00000000000E+00 -0.48410204718E+03  0.48410204718E+03  0.00000000000E+00 0.  1.
         25    1    1    2    0    0 -0.15532202738E+03  0.13498557879E+03 -0.87396257248E+02  0.25614282042E+03  0.12500000000E+03 0.  0.
         25    1    1    2    0    0  0.21720142347E+02 -0.10204092248E+03 -0.69517353280E+02  0.17703608912E+03  0.12500000000E+03 0.  0.
         25    1    1    2    0    0  0.13360188503E+03 -0.32944656305E+02 -0.14335523682E+03  0.23475633748E+03  0.12500000000E+03 0.  0.
</event>
<event>
 5    0  0.5489207E-005  0.3054036E+03  0.7546771E-02  0.1082570E+00
         21   -1    0    0  502  501  0.00000000000E+00  0.00000000000E+00  0.27793416994E+04  0.27793416994E+04  0.00000000000E+00 0. -1.
         21   -1    0    0  501  502 -0.00000000000E+00 -0.00000000000E+00 -0.33558802879E+02  0.33558802879E+02  0.00000000000E+00 0. -1.
         25    1    1    2    0    0 -0.12404590633E+03  0.60350682162E+01  0.12021122656E+04  0.12149579038E+04  0.12500000000E+03 0.  0.
         25    1    1    2    0    0  0.53155292968E+02  0.12441250691E+03  0.43467414489E+03  0.47209169584E+03  0.12500000000E+03 0.  0.
         25    1    1    2    0    0  0.70890613365E+02 -0.13044757512E+03  0.11089964861E+04  0.11258509027E+04  0.12500000000E+03 0.  0.
</event>
<event>
 5    0  0.5489207E-005  0.2209124E+03  0.7546771E-02  0.1133205E+00
         21   -1    0    0  502  501  0.00000000000E+00  0.00000000000E+00  0.26715572272E+02  0.26715572272E+02  0.00000000000E+00 0.  1.
         21   -1    0    0  501  502 -0.00000000000E+00 -0.00000000000E+00 -0.18267351242E+04  0.18267351242E+04  0.00000000000E+00 0.  1.
         25    1    1    2    0    0  0.19339588352E+02  0.62356234022E+02 -0.44297633893E+03  0.46488208876E+03  0.12500000000E+03 0.  0.
         25    1    1    2    0    0 -0.13345706075E+02  0.37095322090E+02 -0.50989298129E+03  0.52646939433E+03  0.12500000000E+03 0.  0.
         25    1    1    2    0    0 -0.59938822768E+01 -0.99451556112E+02 -0.84715023171E+03  0.86209921339E+03  0.12500000000E+03 0.  0.
</event>
<event>
 5    0  0.5489207E-005  0.3342539E+03  0.7546771E-02  0.1069270E+00
         21   -1    0    0  502  501  0.00000000000E+00  0.00000000000E+00  0.11934838803E+03  0.11934838803E+03  0.00000000000E+00 0.  1.
         21   -1    0    0  501  502 -0.00000000000E+00 -0.00000000000E+00 -0.93613075093E+03  0.93613075093E+03  0.00000000000E+00 0.  1.
         25    1    1    2    0    0 -0.16611903496E+02 -0.28090592583E+02 -0.40265134616E+02  0.13531931789E+03  0.12500000000E+03 0.  0.
         25    1    1    2    0    0 -0.13897002670E+03  0.10649032727E+03 -0.16197454261E+03  0.26928351338E+03  0.12500000000E+03 0.  0.
         25    1    1    2    0    0  0.15558193020E+03 -0.78399734691E+02 -0.61454268567E+03  0.65087630769E+03  0.12500000000E+03 0.  0.
</event>
<event>
 5    0  0.5489207E-005  0.2908793E+03  0.7546771E-02  0.1089891E+00
         21   -1    0    0  502  501  0.00000000000E+00  0.00000000000E+00  0.13250707376E+04  0.13250707376E+04  0.00000000000E+00 0.  1.
         21   -1    0    0  501  502 -0.00000000000E+00 -0.00000000000E+00 -0.63853761802E+02  0.63853761802E+02  0.00000000000E+00 0.  1.
         25    1    1    2    0    0 -0.90112459364E+02  0.12730377161E+03  0.22229668627E+03  0.29894367751E+03  0.12500000000E+03 0.  0.
         25    1    1    2    0    0  0.75375708033E+02 -0.12025675977E+03  0.77140905536E+03  0.79425444055E+03  0.12500000000E+03 0.  0.
         25    1    1    2    0    0  0.14736751331E+02 -0.70470118346E+01  0.26751123415E+03  0.29572638132E+03  0.12500000000E+03 0.  0.
</event>
<event>
 5    0  0.5489207E-005  0.3048393E+03  0.7546771E-02  0.1082846E+00
         21   -1    0    0  502  501  0.00000000000E+00  0.00000000000E+00  0.66999719716E+03  0.66999719716E+03  0.00000000000E+00 0. -1.
         21   -1    0    0  501  502 -0.00000000000E+00 -0.00000000000E+00 -0.13869761458E+03  0.13869761458E+03  0.00000000000E+00 0. -1.
         25    1    1    2    0    0 -0.98325559371E+02 -0.97340976544E+02  0.30427722145E+03  0.35686525305E+03  0.12500000000E+03 0.  0.
         25    1    1    2    0    0  0.92808309868E+02 -0.41674536517E+02  0.46152085385E+01  0.16123414503E+03  0.12500000000E+03 0.  0.
         25    1    1    2    0    0  0.55172495032E+01  0.13901551306E+03  0.22240715259E+03  0.29059541365E+03  0.12500000000E+03 0.  0.
</event>
<event>
 5    0  0.5489207E-005  0.2509116E+03  0.7546771E-02  0.1112730E+00
         21   -1    0    0  502  501  0.00000000000E+00  0.00000000000E+00  0.17332492230E+02  0.17332492230E+02  0.00000000000E+00 0.  1.
         21   -1    0    0  501  502 -0.00000000000E+00 -0.00000000000E+00 -0.36322898094E+04  0.36322898094E+04  0.00000000000E+00 0.  1.
         25    1    1    2    0    0 -0.79791587812E+02 -0.37876230819E+02 -0.11487711153E+04  0.11589225090E+04  0.12500000000E+03 0.  0.
         25    1    1    2    0    0 -0.40474330064E+02  0.81098640185E+02 -0.15160861074E+04  0.15239282286E+04  0.12500000000E+03 0.  0.
         25    1    1    2    0    0  0.12026591788E+03 -0.43222409366E+02 -0.95010009446E+03  0.96677156410E+03  0.12500000000E+03 0.  0.
</event>
<event>
 5    0  0.5489207E-005  0.3200585E+03  0.7546771E-02  0.1075622E+00
         21   -1    0    0  502  501  0.00000000000E+00  0.00000000000E+00  0.51069005396E+03  0.51069005396E+03  0.00000000000E+00 0.  1.
         21   -1    0    0  501  502 -0.00000000000E+00 -0.00000000000E+00 -0.20058630463E+03  0.20058630463E+03  0.00000000000E+00 0.  1.
         25    1    1    2    0    0 -0.65970100310E+02 -0.85481478623E+02  0.15374575040E+03  0.22565879795E+03  0.12500000000E+03 0.  0.
         25    1    1    2    0    0 -0.58601987124E+02 -0.10147384546E+03  0.15114344857E+03  0.22847423542E+03  0.12500000000E+03 0.  0.
         25    1    1    2    0    0  0.12457208743E+03  0.18695532409E+03  0.52145503546E+01  0.25714332522E+03  0.12500000000E+03 0.  0.
</event>
<event>
 5    0  0.5489207E-005  0.5114041E+03  0.7546771E-02  0.1010844E+00
         21   -1    0    0  502  501  0.00000000000E+00  0.00000000000E+00  0.14526489553E+04  0.14526489553E+04  0.00000000000E+00 0. -1.
         21   -1    0    0  501  502 -0.00000000000E+00 -0.00000000000E+00 -0.18003946065E+03  0.18003946065E+03  0.00000000000E+00 0. -1.
         25    1    1    2    0    0 -0.17944053078E+03 -0.18117124910E+03  0.92510424823E+03  0.96771111169E+03  0.12500000000E+03 0.  0.
         25    1    1    2    0    0 -0.12214029319E+03  0.10661215171E+03  0.36460907510E+02  0.20793941399E+03  0.12500000000E+03 0.  0.
         25    1    1    2    0    0  0.30158082397E+03  0.74559097394E+02  0.31104433894E+03  0.45703789030E+03  0.12500000000E+03 0.  0.
</event>
<event>
 5    0  0.5489207E-005  0.3669918E+03  0.7546771E-02  0.1055849E+00
         21   -1    0    0  502  501  0.00000000000E+00  0.00000000000E+00  0.14438382878E+03  0.14438382878E+03  0.00000000000E+00 0. -1.
         21   -1    0    0  501  502 -0.00000000000E+00 -0.00000000000E+00 -0.93281188865E+03  0.93281188865E+03  0.00000000000E+00 0. -1.
         25    1    1    2    0    0 -0.53539818736E+02 -0.14032116762E+02 -0.43048802737E+03  0.45167283979E+03  0.12500000000E+03 0.  0.
         25    1    1    2    0    0  0.17724353634E+02  0.22224294021E+03 -0.11542483047E+03  0.28045314881E+03  0.12500000000E+03 0.  0.
         25    1    1    2    0    0  0.35815465102E+02 -0.20821082345E+03 -0.24251520202E+03  0.34506972883E+03  0.12500000000E+03 0.  0.
</event>
<event>
 5    0  0.5489207E-005  0.2538665E+03  0.7546771E-02  0.1110885E+00
         21   -1    0    0  502  501  0.00000000000E+00  0.00000000000E+00  0.17484561534E+03  0.17484561534E+03  0.00000000000E+00 0. -1.
         21   -1    0    0  501  502 -0.00000000000E+00 -0.00000000000E+00 -0.36860069196E+03  0.36860069196E+03  0.00000000000E+00 0. -1.
         25    1    1    2    0    0  0.17340488584E+02 -0.13283382663E+03 -0.35861223922E+02  0.18669907718E+03  0.12500000000E+03 0.  0.
         25    1    1    2    0    0 -0.68212494546E+01 -0.86991183746E+01 -0.95171042559E+02  0.15749517912E+03  0.12500000000E+03 0.  0.
         25    1    1    2    0    0 -0.10519239129E+02  0.14153294500E+03 -0.62722810146E+02  0.19925205099E+03  0.12500000000E+03 0.  0.
</event>
<event>
 5    0  0.5489207E-005  0.5261133E+03  0.7546771E-02  0.1007179E+00
         21   -1    0    0  502  501  0.00000000000E+00  0.00000000000E+00  0.13853932245E+03  0.13853932245E+03  0.00000000000E+00 0. -1.
         21   -1    0    0  501  502 -0.00000000000E+00 -0.00000000000E+00 -0.19979539407E+04  0.19979539407E+04  0.00000000000E+00 0. -1.
         25    1    1    2    0    0 -0.29323859631E+03  0.14423640509E+02 -0.63967403394E+03  0.71484598724E+03  0.12500000000E+03 0.  0.
         25    1    1    2    0    0  0.20008903866E+03 -0.22310104580E+03 -0.22925107769E+03  0.39748051104E+03  0.12500000000E+03 0.  0.
         25    1    1    2    0    0  0.93149557647E+02  0.20867740529E+03 -0.99048950659E+03  0.10241667649E+04  0.12500000000E+03 0.  0.
</event>
<event>
 5    0  0.5489207E-005  0.2574705E+03  0.7546771E-02  0.1108673E+00
         21   -1    0    0  502  501  0.00000000000E+00  0.00000000000E+00  0.43905371801E+03  0.43905371801E+03  0.00000000000E+00 0.  1.
         21   -1    0    0  501  502 -0.00000000000E+00 -0.00000000000E+00 -0.15098625938E+03  0.15098625938E+03  0.00000000000E+00 0.  1.
         25    1    1    2    0    0 -0.78421616647E+02  0.10426632810E+03  0.69708541798E+02  0.19366387875E+03  0.12500000000E+03 0.  0.
         25    1    1    2    0    0  0.28712952903E+02 -0.11326449580E+03  0.19520100108E+03  0.25957987305E+03  0.12500000000E+03 0.  0.
         25    1    1    2    0    0  0.49708663743E+02  0.89981677017E+01  0.23157915759E+02  0.13679622559E+03  0.12500000000E+03 0.  0.
</event>
<event>
 5    0  0.5489207E-005  0.2653162E+03  0.7546771E-02  0.1103991E+00
         21   -1    0    0  502  501  0.00000000000E+00  0.00000000000E+00  0.15290834807E+04  0.15290834807E+04  0.00000000000E+00 0.  1.
         21   -1    0    0  501  502 -0.00000000000E+00 -0.00000000000E+00 -0.46035855986E+02  0.46035855986E+02  0.00000000000E+00 0.  1.
         25    1    1    2    0    0  0.95014282836E+02 -0.45567033615E+02  0.87962390450E+03  0.89468837137E+03  0.12500000000E+03 0.  0.
         25    1    1    2    0    0  0.26859315887E+02  0.14812294096E+00  0.31849525584E+03  0.34319917364E+03  0.12500000000E+03 0.  0.
         25    1    1    2    0    0 -0.12187359872E+03  0.45418910674E+02  0.28492846438E+03  0.33723179169E+03  0.12500000000E+03 0.  0.
</event>
<event>
 5    0  0.5489207E-005  0.3010938E+03  0.7546771E-02  0.1084695E+00
         21   -1    0    0  502  501  0.00000000000E+00  0.00000000000E+00  0.36601492668E+03  0.36601492668E+03  0.00000000000E+00 0. -1.
         21   -1    0    0  501  502 -0.00000000000E+00 -0.00000000000E+00 -0.24768792811E+03  0.24768792811E+03  0.00000000000E+00 0. -1.
         25    1    1    2    0    0 -0.13092842811E+03 -0.11041176303E+02 -0.66328298846E+02  0.19310257401E+03  0.12500000000E+03 0.  0.
         25    1    1    2    0    0  0.17141181224E+03 -0.38965379334E+02  0.17833361352E+03  0.27987173468E+03  0.12500000000E+03 0.  0.
         25    1    1    2    0    0 -0.40483384132E+02  0.50006555637E+02  0.63216839018E+01  0.14072854609E+03  0.12500000000E+03 0.  0.
</event>
<event>
 5    0  0.5489207E-005  0.4814564E+03  0.7546771E-02  0.1018736E+00
         21   -1    0    0  502  501  0.00000000000E+00  0.00000000000E+00  0.53622969131E+03  0.53622969131E+03  0.00000000000E+00 0. -1.
         21   -1    0    0  501  502 -0.00000000000E+00 -0.00000000000E+00 -0.43227790240E+03  0.43227790240E+03  0.00000000000E+00 0. -1.
         25    1    1    2    0    0 -0.61429089824E+01  0.12075003936E+03  0.42982909374E+03  0.46367699658E+03  0.12500000000E+03 0.  0.
         25    1    1    2    0    0  0.43152862541E+02 -0.36672772639E+02  0.71819476720E+01  0.13741776512E+03  0.12500000000E+03 0.  0.
         25    1    1    2    0    0 -0.37009953559E+02 -0.84077266721E+02 -0.33305925250E+03  0.36741283200E+03  0.12500000000E+03 0.  0.
</event>
<event>
 5    0  0.5489207E-005  0.3119553E+03  0.7546771E-02  0.1079412E+00
         21   -1    0    0  502  501  0.00000000000E+00  0.00000000000E+00  0.80403110053E+02  0.80403110053E+02  0.00000000000E+00 0.  1.
         21   -1    0    0  501  502 -0.00000000000E+00 -0.00000000000E+00 -0.12103528726E+04  0.12103528726E+04  0.00000000000E+00 0.  1.
         25    1    1    2    0    0 -0.12299843909E+03 -0.10561251047E+02 -0.97394156096E+02  0.20087503001E+03  0.12500000000E+03 0.  0.
         25    1    1    2    0    0  0.13527828960E+02 -0.83532857442E+02 -0.35102173299E+03  0.38210207727E+03  0.12500000000E+03 0.  0.
         25    1    1    2    0    0  0.10947061013E+03  0.94094108489E+02 -0.68153387351E+03  0.70777887541E+03  0.12500000000E+03 0.  0.
</event>
<event>
 5    0  0.5489207E-005  0.2939873E+03  0.7546771E-02  0.1088286E+00
         21   -1    0    0  502  501  0.00000000000E+00  0.00000000000E+00  0.12442604364E+03  0.12442604364E+03  0.00000000000E+00 0. -1.
         21   -1    0    0  501  502 -0.00000000000E+00 -0.00000000000E+00 -0.69461777622E+03  0.69461777622E+03  0.00000000000E+00 0. -1.
         25    1    1    2    0    0  0.12119014588E+02  0.71224578827E+02 -0.37163892516E+02  0.14908375515E+03  0.12500000000E+03 0.  0.
         25    1    1    2    0    0 -0.13064392142E+03 -0.48195032351E+02 -0.12115364052E+03  0.22292106217E+03  0.12500000000E+03 0.  0.
         25    1    1    2    0    0  0.11852490683E+03 -0.23029546476E+02 -0.41187419953E+03  0.44703900254E+03  0.12500000000E+03 0.  0.
</event>
<event>
 5    0  0.5489207E-005  0.2892536E+03  0.7546771E-02  0.1090739E+00
         21   -1    0    0  502  501  0.00000000000E+00  0.00000000000E+00  0.36147548987E+03  0.36147548987E+03  0.00000000000E+00 0. -1.
         21   -1    0    0  501  502 -0.00000000000E+00 -0.00000000000E+00 -0.23146149504E+03  0.23146149504E+03  0.00000000000E+00 0. -1.
         25    1    1    2    0    0  0.13868710897E+03 -0.11561976886E+03  0.54259752976E+02  0.22621044613E+03  0.12500000000E+03 0.  0.
         25    1    1    2    0    0 -0.11536042249E+02  0.11057782327E+03 -0.12417436052E+02  0.16774900294E+03  0.12500000000E+03 0.  0.
         25    1    1    2    0    0 -0.12715106672E+03  0.50419455978E+01  0.88171677908E+02  0.19897753584E+03  0.12500000000E+03 0.  0.
</event>
<event>
 5    0  0.5489207E-005  0.3857530E+03  0.7546771E-02  0.1048828E+00
         21   -1    0    0  502  501  0.00000000000E+00  0.00000000000E+00  0.78885511527E+03  0.78885511527E+03  0.00000000000E+00 0. -1.
         21   -1    0    0  501  502 -0.00000000000E+00 -0.00000000000E+00 -0.18863463706E+03  0.18863463706E+03  0.00000000000E+00 0. -1.
         25    1    1    2    0    0 -0.18308921292E+03  0.92885616038E+02  0.29330969635E+03  0.37921626485E+03  0.12500000000E+03 0.  0.
         25    1    1    2    0    0  0.23465449891E+03 -0.19970833844E+03  0.14839630637E+03  0.36413269291E+03  0.12500000000E+03 0.  0.
         25    1    1    2    0    0 -0.51565285988E+02  0.10682272240E+03  0.15851447549E+03  0.23414079456E+03  0.12500000000E+03 0.  0.
</event>
<event>
 5    0  0.5489207E-005  0.2374468E+03  0.7546771E-02  0.1121505E+00
         21   -1    0    0  502  501  0.00000000000E+00  0.00000000000E+00  0.55317451836E+02  0.55317451836E+02  0.00000000000E+00 0. -1.
         21   -1    0    0  501  502 -0.00000000000E+00 -0.00000000000E+00 -0.10192263592E+04  0.10192263592E+04  0.00000000000E+00 0. -1.
         25    1    1    2    0    0 -0.14882507485E+02 -0.57362392720E+02 -0.41343983592E+03  0.43596952996E+03  0.12500000000E+03 0.  0.
         25    1    1    2    0    0  0.10120861492E+03  0.22892208622E+02 -0.22255538376E+03  0.27554153188E+03  0.12500000000E+03 0.  0.
         25    1    1    2    0    0 -0.86326107437E+02  0.34470184098E+02 -0.32791368767E+03  0.36303274918E+03  0.12500000000E+03 0.  0.
</event>
<event>
 5    0  0.5489207E-005  0.2516254E+03  0.7546771E-02  0.1112282E+00
         21   -1    0    0  502  501  0.00000000000E+00  0.00000000000E+00  0.16806767122E+03  0.16806767122E+03  0.00000000000E+00 0. -1.
         21   -1    0    0  501  502 -0.00000000000E+00 -0.00000000000E+00 -0.37672529927E+03  0.37672529927E+03  0.00000000000E+00 0. -1.
         25    1    1    2    0    0  0.53977980067E+02  0.63548803094E+01 -0.83337628529E+02  0.15976284663E+03  0.12500000000E+03 0.  0.
         25    1    1    2    0    0 -0.78651552482E+01 -0.12025582313E+03 -0.74353537628E+01  0.17379185295E+03  0.12500000000E+03 0.  0.
         25    1    1    2    0    0 -0.46112824818E+02  0.11390094282E+03 -0.11788464576E+03  0.21123827090E+03  0.12500000000E+03 0.  0.
</event>
<event>
 5    0  0.5489207E-005  0.2388937E+03  0.7546771E-02  0.1120532E+00
         21   -1    0    0  502  501  0.00000000000E+00  0.00000000000E+00  0.72902313773E+03  0.72902313773E+03  0.00000000000E+00 0.  1.
         21   -1    0    0  501  502 -0.00000000000E+00 -0.00000000000E+00 -0.78283134161E+02  0.78283134161E+02  0.00000000000E+00 0.  1.
         25    1    1    2    0    0  0.51288779483E+02  0.53226664754E+02  0.99990815060E+02  0.17631443457E+03  0.12500000000E+03 0.  0.
         25    1    1    2    0    0 -0.63866244506E+02  0.45741397120E+02  0.27988858848E+03  0.31643924308E+03  0.12500000000E+03 0.  0.
         25    1    1    2    0    0  0.12577465023E+02 -0.98968061874E+02  0.27086060003E+03  0.31455259425E+03  0.12500000000E+03 0.  0.
</event>
<event>
 5    0  0.6603511E-005  0.3031972E+03  0.7546771E-02  0.1083653E+00
         21   -1    0    0  502  501  0.00000000000E+00  0.00000000000E+00  0.19376734735E+03  0.19376734735E+03  0.00000000000E+00 0. -1.
         21   -1    0    0  501  502 -0.00000000000E+00 -0.00000000000E+00 -0.47442744609E+03  0.47442744609E+03  0.00000000000E+00 0. -1.
         25    1    1    2    0    0 -0.94763619738E+02 -0.13253245814E+03 -0.23781027137E+03  0.31420331197E+03  0.12500000000E+03 0.  0.
         25    1    1    2    0    0  0.12652894431E+03  0.50142221593E+02 -0.71766769573E+02  0.19824047354E+03  0.12500000000E+03 0.  0.
         25    1    1    2    0    0 -0.31765324573E+02  0.82390236551E+02  0.28916942200E+02  0.15575100793E+03  0.12500000000E+03 0.  0.
</event>
<event>
 5    0  0.5489207E-005  0.2987778E+03  0.7546771E-02  0.1085853E+00
         21   -1    0    0  502  501  0.00000000000E+00  0.00000000000E+00  0.42823400709E+03  0.42823400709E+03  0.00000000000E+00 0. -1.
         21   -1    0    0  501  502 -0.00000000000E+00 -0.00000000000E+00 -0.20845656676E+03  0.20845656676E+03  0.00000000000E+00 0. -1.
         25    1    1    2    0    0  0.15100105273E+03  0.73929597027E+02  0.12171479733E+03  0.24229402620E+03  0.12500000000E+03 0.  0.
         25    1    1    2    0    0  0.72144905189E+01 -0.85799725481E+02  0.11683059385E+03  0.19154119511E+03  0.12500000000E+03 0.  0.
         25    1    1    2    0    0 -0.15821554324E+03  0.11870128454E+02 -0.18767950850E+02  0.20285535254E+03  0.12500000000E+03 0.  0.
</event>
<event>
 5    0  0.5489207E-005  0.3937151E+03  0.7546771E-02  0.1045978E+00
         21   -1    0    0  502  501  0.00000000000E+00  0.00000000000E+00  0.55093415791E+03  0.55093415791E+03  0.00000000000E+00 0.  1.
         21   -1    0    0  501  502 -0.00000000000E+00 -0.00000000000E+00 -0.28136133480E+03  0.28136133480E+03  0.00000000000E+00 0.  1.
         25    1    1    2    0    0 -0.20887207769E+03 -0.21701593765E+03  0.12722061389E+03  0.35004792048E+03  0.12500000000E+03 0.  0.
         25    1    1    2    0    0  0.24257475445E+03  0.11912771628E+03  0.79396321671E+02  0.30816018591E+03  0.12500000000E+03 0.  0.
         25    1    1    2    0    0 -0.33702676762E+02  0.97888221363E+02  0.62955887549E+02  0.17408738633E+03  0.12500000000E+03 0.  0.
</event>
<event>
 5    0  0.5489207E-005  0.3027862E+03  0.7546771E-02  0.1083856E+00
         21   -1    0    0  502  501  0.00000000000E+00  0.00000000000E+00  0.27327758917E+03  0.27327758917E+03  0.00000000000E+00 0.  1.
         21   -1    0    0  501  502 -0.00000000000E+00 -0.00000000000E+00 -0.33548114989E+03  0.33548114989E+03  0.00000000000E+00 0.  1.
         25    1    1    2    0    0 -0.72016279828E+02 -0.11377251363E+03 -0.11781107126E+03  0.21825438811E+03  0.12500000000E+03 0.  0.
         25    1    1    2    0    0  0.13378066451E+03 -0.25110490699E+02  0.58006798009E+02  0.19369458318E+03  0.12500000000E+03 0.  0.
         25    1    1    2    0    0 -0.61764384680E+02  0.13888300433E+03 -0.23992874661E+01  0.19680976776E+03  0.12500000000E+03 0.  0.
</event>
<event>
 5    0  0.5489207E-005  0.3147697E+03  0.7546771E-02  0.1078082E+00
         21   -1    0    0  502  501  0.00000000000E+00  0.00000000000E+00  0.17966761581E+03  0.17966761581E+03  0.00000000000E+00 0.  1.
         21   -1    0    0  501  502 -0.00000000000E+00 -0.00000000000E+00 -0.55146246400E+03  0.55146246400E+03  0.00000000000E+00 0.  1.
         25    1    1    2    0    0  0.82938446918E+02  0.36387847510E+02  0.82180613042E+02  0.17487571182E+03  0.12500000000E+03 0.  0.
         25    1    1    2    0    0 -0.74869440946E+02  0.14097575012E+02 -0.36828415773E+03  0.39631098350E+03  0.12500000000E+03 0.  0.
         25    1    1    2    0    0 -0.80690059726E+01 -0.50485422521E+02 -0.85691303501E+02  0.15994338448E+03  0.12500000000E+03 0.  0.
</event>
<event>
 5    0  0.5489207E-005  0.2690543E+03  0.7546771E-02  0.1101822E+00
         21   -1    0    0  502  501  0.00000000000E+00  0.00000000000E+00  0.21572569541E+03  0.21572569541E+03  0.00000000000E+00 0. -1.
         21   -1    0    0  501  502 -0.00000000000E+00 -0.00000000000E+00 -0.33556610862E+03  0.33556610862E+03  0.00000000000E+00 0. -1.
         25    1    1    2    0    0  0.89261297053E+02  0.16042647481E+02  0.10992727081E+03  0.18956252414E+03  0.12500000000E+03 0.  0.
         25    1    1    2    0    0 -0.59949700205E+02  0.25975303051E+02 -0.14479045731E+03  0.20213351887E+03  0.12500000000E+03 0.  0.
         25    1    1    2    0    0 -0.29311596848E+02 -0.42017950532E+02 -0.84977226714E+02  0.15959576102E+03  0.12500000000E+03 0.  0.
</event>
<event>
 5    0  0.5845973E-005  0.3021311E+03  0.7546771E-02  0.1084180E+00
         21   -1    0    0  502  501  0.00000000000E+00  0.00000000000E+00  0.15795007575E+03  0.15795007575E+03  0.00000000000E+00 0.  1.
         21   -1    0    0  501  502 -0.00000000000E+00 -0.00000000000E+00 -0.57792435576E+03  0.57792435576E+03  0.00000000000E+00 0.  1.
         25    1    1    2    0    0  0.11792443852E+03 -0.33679478521E+02 -0.15361009990E+03  0.23294107252E+03  0.12500000000E+03 0.  0.
         25    1    1    2    0    0  0.13391217576E+02 -0.12668392028E+03 -0.71764001081E+02  0.19236219019E+03  0.12500000000E+03 0.  0.
         25    1    1    2    0    0 -0.13131565610E+03  0.16036339880E+03 -0.19460017903E+03  0.31057116880E+03  0.12500000000E+03 0.  0.
</event>
<event>
 5    0  0.5489207E-005  0.3765222E+03  0.7546771E-02  0.1052227E+00
         21   -1    0    0  502  501  0.00000000000E+00  0.00000000000E+00  0.12569635847E+04  0.12569635847E+04  0.00000000000E+00 0. -1.
         21   -1    0    0  501  502 -0.00000000000E+00 -0.00000000000E+00 -0.11278683332E+03  0.11278683332E+03  0.00000000000E+00 0. -1.
         25    1    1    2    0    0 -0.19830400171E+03  0.73881279655E+02  0.52998889137E+03  0.58420556789E+03  0.12500000000E+03 0.  0.
         25    1    1    2    0    0  0.61218095226E+02  0.16146469470E+02  0.26158403974E+01  0.14014352029E+03  0.12500000000E+03 0.  0.
         25    1    1    2    0    0  0.13708590649E+03 -0.90027749125E+02  0.61157201961E+03  0.64540132982E+03  0.12500000000E+03 0.  0.
</event>
<event>
 5    0  0.5489207E-005  0.3718155E+03  0.7546771E-02  0.1054001E+00
         21   -1    0    0  502  501  0.00000000000E+00  0.00000000000E+00  0.12465453295E+04  0.12465453295E+04  0.00000000000E+00 0. -1.
         21   -1    0    0  501  502 -0.00000000000E+00 -0.00000000000E+00 -0.11090394667E+03  0.11090394667E+03  0.00000000000E+00 0. -1.
         25    1    1    2    0    0  0.15770265428E+03 -0.33892174478E+01  0.26936095472E+03  0.33624684072E+03  0.12500000000E+03 0.  0.
         25    1    1    2    0    0 -0.24331227237E+03  0.16414696318E+03  0.48367849201E+03  0.57940915685E+03  0.12500000000E+03 0.  0.
         25    1    1    2    0    0  0.85609618090E+02 -0.16075774574E+03  0.38260193610E+03  0.44179327862E+03  0.12500000000E+03 0.  0.
</event>
<event>
 5    0  0.5489207E-005  0.3096668E+03  0.7546771E-02  0.1080506E+00
         21   -1    0    0  502  501  0.00000000000E+00  0.00000000000E+00  0.92324556657E+02  0.92324556657E+02  0.00000000000E+00 0.  1.
         21   -1    0    0  501  502 -0.00000000000E+00 -0.00000000000E+00 -0.10386569947E+04  0.10386569947E+04  0.00000000000E+00 0.  1.
         25    1    1    2    0    0  0.13886481850E+03  0.61314764707E+02 -0.60010263737E+03  0.63149910021E+03  0.12500000000E+03 0.  0.
         25    1    1    2    0    0  0.69685222234E+01  0.45210406986E+02 -0.83883399461E+02  0.15733393120E+03  0.12500000000E+03 0.  0.
         25    1    1    2    0    0 -0.14583334073E+03 -0.10652517169E+03 -0.26234640121E+03  0.34214851994E+03  0.12500000000E+03 0.  0.
</event>
<event>
 5    0  0.5489207E-005  0.3013966E+03  0.7546771E-02  0.1084545E+00
         21   -1    0    0  502  501  0.00000000000E+00  0.00000000000E+00  0.16243088834E+04  0.16243088834E+04  0.00000000000E+00 0. -1.
         21   -1    0    0  501  502 -0.00000000000E+00 -0.00000000000E+00 -0.55925267515E+02  0.55925267515E+02  0.00000000000E+00 0. -1.
         25    1    1    2    0    0 -0.11456493325E+03 -0.74079229503E+02  0.96139711288E+03  0.97904150312E+03  0.12500000000E+03 0.  0.
         25    1    1    2    0    0 -0.49846295437E+01  0.70287347964E+02  0.12934753675E+03  0.19318629112E+03  0.12500000000E+03 0.  0.
         25    1    1    2    0    0  0.11954956280E+03  0.37918815393E+01  0.47763896623E+03  0.50800635665E+03  0.12500000000E+03 0.  0.
</event>
<event>
 5    0  0.5489207E-005  0.4713542E+03  0.7546771E-02  0.1021539E+00
         21   -1    0    0  502  501  0.00000000000E+00  0.00000000000E+00  0.20252467398E+04  0.20252467398E+04  0.00000000000E+00 0. -1.
         21   -1    0    0  501  502 -0.00000000000E+00 -0.00000000000E+00 -0.10970259658E+03  0.10970259658E+03  0.00000000000E+00 0. -1.
         25    1    1    2    0    0 -0.36424892448E+02  0.15406730344E+03  0.31143936786E+03  0.37105658144E+03  0.12500000000E+03 0.  0.
         25    1    1    2    0    0  0.44202953559E+02 -0.32954770865E+03  0.14646996629E+04  0.15071581522E+04  0.12500000000E+03 0.  0.
         25    1    1    2    0    0 -0.77780611117E+01  0.17548040521E+03  0.13940511250E+03  0.25673460273E+03  0.12500000000E+03 0.  0.
</event>
<event>
 5    0  0.5489207E-005  0.4248007E+03  0.7546771E-02  0.1035515E+00
         21   -1    0    0  502  501  0.00000000000E+00  0.00000000000E+00  0.38424844564E+03  0.38424844564E+03  0.00000000000E+00 0. -1.
         21   -1    0    0  501  502 -0.00000000000E+00 -0.00000000000E+00 -0.46963261887E+03  0.46963261887E+03  0.00000000000E+00 0. -1.
         25    1    1    2    0    0  0.97273716069E+02 -0.18834275568E+03 -0.25292190361E+03  0.35288760077E+03  0.12500000000E+03 0.  0.
         25    1    1    2    0    0 -0.18412607543E+03  0.97867780546E+01  0.14385115031E+03  0.26517229516E+03  0.12500000000E+03 0.  0.
         25    1    1    2    0    0  0.86852359362E+02  0.17855597762E+03  0.23686580076E+02  0.23582116857E+03  0.12500000000E+03 0.  0.
</event>
<event>
 5    0  0.5489207E-005  0.3166867E+03  0.7546771E-02  0.1077184E+00
         21   -1    0    0  502  501  0.00000000000E+00  0.00000000000E+00  0.41750984130E+03  0.41750984130E+03  0.00000000000E+00 0.  1.
         21   -1    0    0  501  502 -0.00000000000E+00 -0.00000000000E+00 -0.24021098695E+03  0.24021098695E+03  0.00000000000E+00 0.  1.
         25    1    1    2    0    0 -0.20888017886E+03  0.95209230139E+02  0.11957609041E+03  0.28743550237E+03  0.12500000000E+03 0.  0.
         25    1    1    2    0    0  0.44652643350E+02 -0.20302868793E+02  0.67937400895E+02  0.15048772535E+03  0.12500000000E+03 0.  0.
         25    1    1    2    0    0  0.16422753551E+03 -0.74906361346E+02 -0.10214636952E+02  0.21979760053E+03  0.12500000000E+03 0.  0.
</event>
<event>
 5    0  0.5489207E-005  0.2249627E+03  0.7546771E-02  0.1130236E+00
         21   -1    0    0  502  501  0.00000000000E+00  0.00000000000E+00  0.45994199323E+02  0.45994199323E+02  0.00000000000E+00 0.  1.
         21   -1    0    0  501  502 -0.00000000000E+00 -0.00000000000E+00 -0.11003178107E+04  0.11003178107E+04  0.00000000000E+00 0.  1.
         25    1    1    2    0    0 -0.47284015755E+02  0.32299799592E+02 -0.20133191643E+03  0.24380031947E+03  0.12500000000E+03 0.  0.
         25    1    1    2    0    0 -0.42321437848E+02 -0.47075349221E+02 -0.42314665162E+03  0.44574127180E+03  0.12500000000E+03 0.  0.
         25    1    1    2    0    0  0.89605453603E+02  0.14775549629E+02 -0.42984504336E+03  0.45677041880E+03  0.12500000000E+03 0.  0.
</event>
<event>
 5    0  0.5489207E-005  0.4748643E+03  0.7546771E-02  0.1020556E+00
         21   -1    0    0  502  501  0.00000000000E+00  0.00000000000E+00  0.69867142669E+03  0.69867142669E+03  0.00000000000E+00 0. -1.
         21   -1    0    0  501  502 -0.00000000000E+00 -0.00000000000E+00 -0.32274979854E+03  0.32274979854E+03  0.00000000000E+00 0. -1.
         25    1    1    2    0    0 -0.18393739241E+03 -0.28079863204E+02  0.57245249346E+03  0.61477499975E+03  0.12500000000E+03 0.  0.
         25    1    1    2    0    0  0.67159747867E+02 -0.36651266855E+02 -0.16562022589E+03  0.22115335475E+03  0.12500000000E+03 0.  0.
         25    1    1    2    0    0  0.11677764454E+03  0.64731130059E+02 -0.30910639428E+02  0.18549287073E+03  0.12500000000E+03 0.  0.
</event>
<event>
 5    0  0.5489207E-005  0.3065291E+03  0.7546771E-02  0.1082022E+00
         21   -1    0    0  502  501  0.00000000000E+00  0.00000000000E+00  0.34418628424E+03  0.34418628424E+03  0.00000000000E+00 0.  1.
         21   -1    0    0  501  502 -0.00000000000E+00 -0.00000000000E+00 -0.27299199549E+03  0.27299199549E+03  0.00000000000E+00 0.  1.
         25    1    1    2    0    0 -0.50016223408E+02 -0.17226347346E+03 -0.11408030664E+03  0.24660827897E+03  0.12500000000E+03 0.  0.
         25    1    1    2    0    0  0.11587011898E+02  0.13312812937E+03  0.88626901069E+02  0.20331523619E+03  0.12500000000E+03 0.  0.
         25    1    1    2    0    0  0.38429211511E+02  0.39135344092E+02  0.96647694323E+02  0.16725476457E+03  0.12500000000E+03 0.  0.
</event>
<event>
 5    0  0.5489207E-005  0.2148242E+03  0.7546771E-02  0.1137802E+00
         21   -1    0    0  502  501  0.00000000000E+00  0.00000000000E+00  0.12932551445E+03  0.12932551445E+03  0.00000000000E+00 0. -1.
         21   -1    0    0  501  502 -0.00000000000E+00 -0.00000000000E+00 -0.35684720584E+03  0.35684720584E+03  0.00000000000E+00 0. -1.
         25    1    1    2    0    0 -0.79891289561E+02 -0.41041206259E+02 -0.56777137751E+02  0.16405987361E+03  0.12500000000E+03 0.  0.
         25    1    1    2    0    0  0.61262753919E+02  0.43885796081E+02 -0.79459505289E+02  0.16618634449E+03  0.12500000000E+03 0.  0.
         25    1    1    2    0    0  0.18628535641E+02 -0.28445898224E+01 -0.91285048350E+02  0.15592650218E+03  0.12500000000E+03 0.  0.
</event>
<event>
 5    0  0.5489207E-005  0.3597425E+03  0.7546771E-02  0.1058686E+00
         21   -1    0    0  502  501  0.00000000000E+00  0.00000000000E+00  0.11525619027E+04  0.11525619027E+04  0.00000000000E+00 0. -1.
         21   -1    0    0  501  502 -0.00000000000E+00 -0.00000000000E+00 -0.11228436767E+03  0.11228436767E+03  0.00000000000E+00 0. -1.
         25    1    1    2    0    0  0.13982000755E+03 -0.11164574644E+03  0.67746375850E+02  0.22853660243E+03  0.12500000000E+03 0.  0.
         25    1    1    2    0    0 -0.26184494609E+02  0.63497323303E+02  0.21032730445E+03  0.25412617500E+03  0.12500000000E+03 0.  0.
         25    1    1    2    0    0 -0.11363551294E+03  0.48148423134E+02  0.76220385478E+03  0.78218349298E+03  0.12500000000E+03 0.  0.
</event>
<event>
 5    0  0.5649503E-005  0.2773292E+03  0.7546771E-02  0.1097157E+00
         21   -1    0    0  502  501  0.00000000000E+00  0.00000000000E+00  0.63336347373E+03  0.63336347373E+03  0.00000000000E+00 0.  1.
         21   -1    0    0  501  502 -0.00000000000E+00 -0.00000000000E+00 -0.12143341898E+03  0.12143341898E+03  0.00000000000E+00 0.  1.
         25    1    1    2    0    0  0.44102356199E+02 -0.61721797167E+02  0.26752641974E+03  0.30487699705E+03  0.12500000000E+03 0.  0.
         25    1    1    2    0    0  0.40663582652E+02  0.19185997156E+02  0.26027283121E+03  0.29221323739E+03  0.12500000000E+03 0.  0.
         25    1    1    2    0    0 -0.84765938852E+02  0.42535800011E+02 -0.15869196203E+02  0.15770665826E+03  0.12500000000E+03 0.  0.
</event>
<event>
 5    0  0.5489207E-005  0.5151528E+03  0.7546771E-02  0.1009898E+00
         21   -1    0    0  502  501  0.00000000000E+00  0.00000000000E+00  0.20561989787E+03  0.20561989787E+03  0.00000000000E+00 0.  1.
         21   -1    0    0  501  502 -0.00000000000E+00 -0.00000000000E+00 -0.12906456312E+04  0.12906456312E+04  0.00000000000E+00 0.  1.
         25    1    1    2    0    0 -0.22221262705E+03  0.27808868365E+03 -0.18949285999E+03  0.42218989990E+03  0.12500000000E+03 0.  0.
         25    1    1    2    0    0  0.21696353729E+02 -0.16553764019E+03 -0.90111358558E+02  0.22719704889E+03  0.12500000000E+03 0.  0.
         25    1    1    2    0    0  0.20051627332E+03 -0.11255104347E+03 -0.80542151482E+03  0.84687858030E+03  0.12500000000E+03 0.  0.
</event>
<event>
 5    0  0.5489207E-005  0.3524231E+03  0.7546771E-02  0.1061625E+00
         21   -1    0    0  502  501  0.00000000000E+00  0.00000000000E+00  0.24689277522E+04  0.24689277522E+04  0.00000000000E+00 0.  1.
         21   -1    0    0  501  502 -0.00000000000E+00 -0.00000000000E+00 -0.50306075564E+02  0.50306075564E+02  0.00000000000E+00 0.  1.
         25    1    1    2    0    0 -0.14106687440E+03 -0.21274731960E+03  0.66552258733E+03  0.72367575564E+03  0.12500000000E+03 0.  0.
         25    1    1    2    0    0  0.11253504904E+03  0.17378872400E+03  0.89687772649E+03  0.92891405099E+03  0.12500000000E+03 0.  0.
         25    1    1    2    0    0  0.28531825364E+02  0.38958595599E+02  0.85622136277E+03  0.86664402109E+03  0.12500000000E+03 0.  0.
</event>
<event>
 5    0  0.5489207E-005  0.4182360E+03  0.7546771E-02  0.1037642E+00
         21   -1    0    0  502  501  0.00000000000E+00  0.00000000000E+00  0.50351383453E+03  0.50351383453E+03  0.00000000000E+00 0.  1.
         21   -1    0    0  501  502 -0.00000000000E+00 -0.00000000000E+00 -0.34740133005E+03  0.34740133005E+03  0.00000000000E+00 0.  1.
         25    1    1    2    0    0  0.79530417555E+02 -0.14541739627E+03 -0.23059831294E+03  0.31027711547E+03  0.12500000000E+03 0.  0.
         25    1    1    2    0    0 -0.11236961191E+03  0.17746747473E+03  0.25923139166E+03  0.35629699506E+03  0.12500000000E+03 0.  0.
         25    1    1    2    0    0  0.32839194351E+02 -0.32050078458E+02  0.12747942577E+03  0.18434105405E+03  0.12500000000E+03 0.  0.
</event>
<event>
 5    0  0.5489207E-005  0.3440704E+03  0.7546771E-02  0.1065075E+00
         21   -1    0    0  502  501  0.00000000000E+00  0.00000000000E+00  0.20771492523E+03  0.20771492523E+03  0.00000000000E+00 0. -1.
         21   -1    0    0  501  502 -0.00000000000E+00 -0.00000000000E+00 -0.56993703277E+03  0.56993703277E+03  0.00000000000E+00 0. -1.
         25    1    1    2    0    0 -0.16771223598E+03 -0.59575859029E+02 -0.27186858397E+03  0.34815830311E+03  0.12500000000E+03 0.  0.
         25    1    1    2    0    0  0.52322871683E+02 -0.42528302148E+02 -0.16482245588E+03  0.21757247378E+03  0.12500000000E+03 0.  0.
         25    1    1    2    0    0  0.11538936430E+03  0.10210416118E+03  0.74468932305E+02  0.21192118110E+03  0.12500000000E+03 0.  0.
</event>
<event>
 5    0  0.5489207E-005  0.2532274E+03  0.7546771E-02  0.1111282E+00
         21   -1    0    0  502  501  0.00000000000E+00  0.00000000000E+00  0.26340308787E+03  0.26340308787E+03  0.00000000000E+00 0.  1.
         21   -1    0    0  501  502 -0.00000000000E+00 -0.00000000000E+00 -0.24344490567E+03  0.24344490567E+03  0.00000000000E+00 0.  1.
         25    1    1    2    0    0 -0.11654922446E+03  0.70816601860E+02 -0.44372959675E+02  0.19024371835E+03  0.12500000000E+03 0.  0.
         25    1    1    2    0    0  0.43224911826E+02 -0.91665647686E+02  0.12962694906E+02  0.16144353634E+03  0.12500000000E+03 0.  0.
         25    1    1    2    0    0  0.73324312629E+02  0.20849045825E+02  0.51368446973E+02  0.15516073884E+03  0.12500000000E+03 0.  0.
</event>
<event>
 5    0  0.5581245E-005  0.3735620E+03  0.7546771E-02  0.1053339E+00
         21   -1    0    0  502  501  0.00000000000E+00  0.00000000000E+00  0.64572188433E+03  0.64572188433E+03  0.00000000000E+00 0.  1.
         21   -1    0    0  501  502 -0.00000000000E+00 -0.00000000000E+00 -0.21611253686E+03  0.21611253686E+03  0.00000000000E+00 0.  1.
         25    1    1    2    0    0 -0.40335531059E+02 -0.24754639877E+03  0.51494025476E+02  0.28492597156E+03  0.12500000000E+03 0.  0.
         25    1    1    2    0    0  0.15117276576E+02  0.16962460261E+03  0.51065496098E+02  0.21733320675E+03  0.12500000000E+03 0.  0.
         25    1    1    2    0    0  0.25218254484E+02  0.77921796156E+02  0.32704982590E+03  0.35957524289E+03  0.12500000000E+03 0.  0.
</event>
<event>
 5    0  0.5489207E-005  0.3022041E+03  0.7546771E-02  0.1084144E+00
         21   -1    0    0  502  501  0.00000000000E+00  0.00000000000E+00  0.44196761638E+02  0.44196761638E+02  0.00000000000E+00 0.  1.
         21   -1    0    0  501  502 -0.00000000000E+00 -0.00000000000E+00 -0.20663808954E+04  0.20663808954E+04  0.00000000000E+00 0.  1.
         25    1    1    2    0    0 -0.44883869201E+02 -0.14634929218E+03 -0.42183897812E+03  0.46583881386E+03  0.12500000000E+03 0.  0.
         25    1    1    2    0    0  0.10847586175E+03  0.19472516627E+02 -0.10418069477E+04  0.10550511399E+04  0.12500000000E+03 0.  0.
         25    1    1    2    0    0 -0.63591992552E+02  0.12687677555E+03 -0.55853820794E+03  0.58968770329E+03  0.12500000000E+03 0.  0.
</event>
<event>
 5    0  0.5489207E-005  0.2467077E+03  0.7546771E-02  0.1115403E+00
         21   -1    0    0  502  501  0.00000000000E+00  0.00000000000E+00  0.10003935614E+04  0.10003935614E+04  0.00000000000E+00 0.  1.
         21   -1    0    0  501  502 -0.00000000000E+00 -0.00000000000E+00 -0.60840726440E+02  0.60840726440E+02  0.00000000000E+00 0.  1.
         25    1    1    2    0    0  0.94119590973E+02  0.23315439922E+02  0.59456011967E+03  0.61524697727E+03  0.12500000000E+03 0.  0.
         25    1    1    2    0    0 -0.72624216696E+02 -0.45555566307E+01  0.12409835546E+03  0.19057920079E+03  0.12500000000E+03 0.  0.
         25    1    1    2    0    0 -0.21495374278E+02 -0.18759883291E+02  0.22089435988E+03  0.25540810982E+03  0.12500000000E+03 0.  0.
</event>
<event>
 5    0  0.5489207E-005  0.2937927E+03  0.7546771E-02  0.1088385E+00
         21   -1    0    0  502  501  0.00000000000E+00  0.00000000000E+00  0.14208458852E+04  0.14208458852E+04  0.00000000000E+00 0. -1.
         21   -1    0    0  501  502 -0.00000000000E+00 -0.00000000000E+00 -0.60748414808E+02  0.60748414808E+02  0.00000000000E+00 0. -1.
         25    1    1    2    0    0  0.92813754464E+02  0.75301116382E+02  0.64451406847E+03  0.66731404571E+03  0.12500000000E+03 0.  0.
         25    1    1    2    0    0 -0.17139771462E+01  0.28357541747E+02  0.77974099034E+02  0.15004015466E+03  0.12500000000E+03 0.  0.
         25    1    1    2    0    0 -0.91099777318E+02 -0.10365865813E+03  0.63760930288E+03  0.66424009963E+03  0.12500000000E+03 0.  0.
</event>
<event>
 5    0  0.5489207E-005  0.4201992E+03  0.7546771E-02  0.1037001E+00
         21   -1    0    0  502  501  0.00000000000E+00  0.00000000000E+00  0.44004976539E+03  0.44004976539E+03  0.00000000000E+00 0. -1.
         21   -1    0    0  501  502 -0.00000000000E+00 -0.00000000000E+00 -0.40124415530E+03  0.40124415530E+03  0.00000000000E+00 0. -1.
         25    1    1    2    0    0 -0.35543771369E+02 -0.79706374076E+02  0.45038043792E+02  0.15896506264E+03  0.12500000000E+03 0.  0.
         25    1    1    2    0    0  0.24455297420E+02  0.35554653977E+03 -0.26549761737E+02  0.37860440220E+03  0.12500000000E+03 0.  0.
         25    1    1    2    0    0  0.11088473949E+02 -0.27584016570E+03  0.20317328026E+02  0.30372445585E+03  0.12500000000E+03 0.  0.
</event>
<event>
 5    0  0.5489207E-005  0.4284000E+03  0.7546771E-02  0.1034367E+00
         21   -1    0    0  502  501  0.00000000000E+00  0.00000000000E+00  0.19720188621E+04  0.19720188621E+04  0.00000000000E+00 0. -1.
         21   -1    0    0  501  502 -0.00000000000E+00 -0.00000000000E+00 -0.93065335452E+02  0.93065335452E+02  0.00000000000E+00 0. -1.
         25    1    1    2    0    0  0.96095325216E+02  0.28758731696E+03  0.12370742237E+04  0.12798118656E+04  0.12500000000E+03 0.  0.
         25    1    1    2    0    0 -0.13827367498E+03 -0.11345311816E+03  0.21822500100E+03  0.30860714553E+03  0.12500000000E+03 0.  0.
         25    1    1    2    0    0  0.42178349763E+02 -0.17413419881E+03  0.42365430198E+03  0.47666518645E+03  0.12500000000E+03 0.  0.
</event>
<event>
 5    0  0.5489207E-005  0.3783538E+03  0.7546771E-02  0.1051544E+00
         21   -1    0    0  502  501  0.00000000000E+00  0.00000000000E+00  0.10093866605E+04  0.10093866605E+04  0.00000000000E+00 0. -1.
         21   -1    0    0  501  502 -0.00000000000E+00 -0.00000000000E+00 -0.14182037043E+03  0.14182037043E+03  0.00000000000E+00 0. -1.
         25    1    1    2    0    0 -0.79094339199E+01  0.16434446240E+03  0.53672403938E+03  0.57512551319E+03  0.12500000000E+03 0.  0.
         25    1    1    2    0    0 -0.10895800569E+03  0.71105229446E+02  0.12038567977E+03  0.21689977536E+03  0.12500000000E+03 0.  0.
         25    1    1    2    0    0  0.11686743961E+03 -0.23544969185E+03  0.21045657095E+03  0.35918174242E+03  0.12500000000E+03 0.  0.
</event>
<event>
 5    0  0.5489207E-005  0.2382154E+03  0.7546771E-02  0.1120987E+00
         21   -1    0    0  502  501  0.00000000000E+00  0.00000000000E+00  0.48528063093E+03  0.48528063093E+03  0.00000000000E+00 0.  1.
         21   -1    0    0  501  502 -0.00000000000E+00 -0.00000000000E+00 -0.11693563704E+03  0.11693563704E+03  0.00000000000E+00 0.  1.
         25    1    1    2    0    0  0.22293440997E+02  0.27070062219E+02  0.17781875012E+03  0.22016878452E+03  0.12500000000E+03 0.  0.
         25    1    1    2    0    0  0.91521595859E+02  0.17995198919E+02  0.96884265360E+02  0.18360716371E+03  0.12500000000E+03 0.  0.
         25    1    1    2    0    0 -0.11381503686E+03 -0.45065261138E+02  0.93641978408E+02  0.19844031973E+03  0.12500000000E+03 0.  0.
</event>
<event>
 5    0  0.5489207E-005  0.2623653E+03  0.7546771E-02  0.1105730E+00
         21   -1    0    0  502  501  0.00000000000E+00  0.00000000000E+00  0.93369943778E+02  0.93369943778E+02  0.00000000000E+00 0. -1.
         21   -1    0    0  501  502 -0.00000000000E+00 -0.00000000000E+00 -0.73723437385E+03  0.73723437385E+03  0.00000000000E+00 0. -1.
         25    1    1    2    0    0  0.45608249765E+02 -0.97804472464E+02 -0.19613253119E+03  0.25639578208E+03  0.12500000000E+03 0.  0.
         25    1    1    2    0    0  0.30768820588E+02 -0.57775615875E+02 -0.13382857892E+03  0.19447321319E+03  0.12500000000E+03 0.  0.
         25    1    1    2    0    0 -0.76377070353E+02  0.15558008834E+03 -0.31390331996E+03  0.37973532236E+03  0.12500000000E+03 0.  0.
</event>
<event>
 5    0  0.5489207E-005  0.2454377E+03  0.7546771E-02  0.1116222E+00
         21   -1    0    0  502  501  0.00000000000E+00  0.00000000000E+00  0.78453243407E+02  0.78453243407E+02  0.00000000000E+00 0. -1.
         21   -1    0    0  501  502 -0.00000000000E+00 -0.00000000000E+00 -0.76784182995E+03  0.76784182995E+03  0.00000000000E+00 0. -1.
         25    1    1    2    0    0  0.10828686631E+03  0.12568479582E+02 -0.34628730384E+03  0.38395821243E+03  0.12500000000E+03 0.  0.
         25    1    1    2    0    0 -0.85800861869E+02  0.56039426084E+02 -0.14446699494E+03  0.21679003160E+03  0.12500000000E+03 0.  0.
         25    1    1    2    0    0 -0.22486004446E+02 -0.68607905666E+02 -0.19863428776E+03  0.24554682932E+03  0.12500000000E+03 0.  0.
</event>
<event>
 5    0  0.5489207E-005  0.2331160E+03  0.7546771E-02  0.1124466E+00
         21   -1    0    0  502  501  0.00000000000E+00  0.00000000000E+00  0.34518370632E+03  0.34518370632E+03  0.00000000000E+00 0.  1.
         21   -1    0    0  501  502 -0.00000000000E+00 -0.00000000000E+00 -0.15743225448E+03  0.15743225448E+03  0.00000000000E+00 0.  1.
         25    1    1    2    0    0  0.38919101821E+02  0.11387085456E+03  0.36691763482E+02  0.17734867778E+03  0.12500000000E+03 0.  0.
         25    1    1    2    0    0  0.19402670599E+02 -0.57750954585E+02  0.68877969083E+02  0.15517993107E+03  0.12500000000E+03 0.  0.
         25    1    1    2    0    0 -0.58321772420E+02 -0.56119899972E+02  0.82181719269E+02  0.17008735195E+03  0.12500000000E+03 0.  0.
</event>
<event>
 5    0  0.5489207E-005  0.2834546E+03  0.7546771E-02  0.1093817E+00
         21   -1    0    0  502  501  0.00000000000E+00  0.00000000000E+00  0.23117300366E+03  0.23117300366E+03  0.00000000000E+00 0.  1.
         21   -1    0    0  501  502 -0.00000000000E+00 -0.00000000000E+00 -0.34756018294E+03  0.34756018294E+03  0.00000000000E+00 0.  1.
         25    1    1    2    0    0  0.63059691167E+02  0.41170442508E+02 -0.80394147316E+02  0.16661257128E+03  0.12500000000E+03 0.  0.
         25    1    1    2    0    0 -0.44421644899E+02 -0.16915054728E+03 -0.75737021442E+02  0.22791728016E+03  0.12500000000E+03 0.  0.
         25    1    1    2    0    0 -0.18638046268E+02  0.12798010477E+03  0.39743989481E+02  0.18420333516E+03  0.12500000000E+03 0.  0.
</event>
<event>
 5    0  0.5489207E-005  0.2670917E+03  0.7546771E-02  0.1102956E+00
         21   -1    0    0  502  501  0.00000000000E+00  0.00000000000E+00  0.80680709325E+02  0.80680709325E+02  0.00000000000E+00 0.  1.
         21   -1    0    0  501  502 -0.00000000000E+00 -0.00000000000E+00 -0.88420108002E+03  0.88420108002E+03  0.00000000000E+00 0.  1.
         25    1    1    2    0    0  0.96016613340E+02  0.34106904816E+02 -0.15889511633E+03  0.22639595621E+03  0.12500000000E+03 0.  0.
         25    1    1    2    0    0 -0.17583670823E+02  0.97574866875E+02 -0.33550807952E+03  0.37151138819E+03  0.12500000000E+03 0.  0.
         25    1    1    2    0    0 -0.78432942517E+02 -0.13168177169E+03 -0.30911717484E+03  0.36697444495E+03  0.12500000000E+03 0.  0.
</event>
<event>
 5    0  0.6275783E-005  0.4656057E+03  0.7546771E-02  0.1023168E+00
         21   -1    0    0  502  501  0.00000000000E+00  0.00000000000E+00  0.16882078241E+03  0.16882078241E+03  0.00000000000E+00 0.  1.
         21   -1    0    0  501  502 -0.00000000000E+00 -0.00000000000E+00 -0.12841351753E+04  0.12841351753E+04  0.00000000000E+00 0.  1.
         25    1    1    2    0    0  0.23820280178E+03 -0.87892220274E+02 -0.72265528132E+03  0.77609359795E+03  0.12500000000E+03 0.  0.
         25    1    1    2    0    0 -0.12107784594E+02 -0.11773727932E+03 -0.11437559384E+02  0.17252386257E+03  0.12500000000E+03 0.  0.
         25    1    1    2    0    0 -0.22609501718E+03  0.20562949960E+03 -0.38122155217E+03  0.50433849718E+03  0.12500000000E+03 0.  0.
</event>
<event>
 5    0  0.5489207E-005  0.6190729E+03  0.7546771E-02  0.9866607E-01
         21   -1    0    0  502  501  0.00000000000E+00  0.00000000000E+00  0.84233431557E+03  0.84233431557E+03  0.00000000000E+00 0. -1.
         21   -1    0    0  501  502 -0.00000000000E+00 -0.00000000000E+00 -0.45498708897E+03  0.45498708897E+03  0.00000000000E+00 0. -1.
         25    1    1    2    0    0  0.39665764560E+02  0.20143374914E+03 -0.94064145203E+02  0.25811236232E+03  0.12500000000E+03 0.  0.
         25    1    1    2    0    0  0.63079405079E+02  0.26585655331E+03 -0.59513550841E+02  0.30630961626E+03  0.12500000000E+03 0.  0.
         25    1    1    2    0    0 -0.10274516964E+03 -0.46729030244E+03  0.54092492264E+03  0.73289942596E+03  0.12500000000E+03 0.  0.
</event>
<event>
 5    0  0.6652431E-005  0.2930298E+03  0.7546771E-02  0.1088778E+00
         21   -1    0    0  502  501  0.00000000000E+00  0.00000000000E+00  0.57199059602E+03  0.57199059602E+03  0.00000000000E+00 0.  1.
         21   -1    0    0  501  502 -0.00000000000E+00 -0.00000000000E+00 -0.15011870503E+03  0.15011870503E+03  0.00000000000E+00 0.  1.
         25    1    1    2    0    0  0.68665008230E+02 -0.79391705256E+01 -0.27115314306E+02  0.14538966282E+03  0.12500000000E+03 0.  0.
         25    1    1    2    0    0 -0.68049519868E+02  0.12501365168E+03  0.25977682497E+03  0.32150917413E+03  0.12500000000E+03 0.  0.
         25    1    1    2    0    0 -0.61548836182E+00 -0.11707448116E+03  0.18921038032E+03  0.25521046410E+03  0.12500000000E+03 0.  0.
</event>
<event>
 5    0  0.5489207E-005  0.2955940E+03  0.7546771E-02  0.1087464E+00
         21   -1    0    0  502  501  0.00000000000E+00  0.00000000000E+00  0.19748171394E+04  0.19748171394E+04  0.00000000000E+00 0.  1.
         21   -1    0    0  501  502 -0.00000000000E+00 -0.00000000000E+00 -0.44245019660E+02  0.44245019660E+02  0.00000000000E+00 0.  1.
         25    1    1    2    0    0 -0.38159866134E+02 -0.19532731890E+02  0.28482237634E+03  0.31398485483E+03  0.12500000000E+03 0.  0.
         25    1    1    2    0    0 -0.10579130246E+03  0.13882044108E+03  0.94698593903E+03  0.97101507880E+03  0.12500000000E+03 0.  0.
         25    1    1    2    0    0  0.14395116860E+03 -0.11928770919E+03  0.69876380438E+03  0.73406222544E+03  0.12500000000E+03 0.  0.
</event>
<event>
 5    0  0.5489207E-005  0.2632151E+03  0.7546771E-02  0.1105227E+00
         21   -1    0    0  502  501  0.00000000000E+00  0.00000000000E+00  0.30000610827E+02  0.30000610827E+02  0.00000000000E+00 0. -1.
         21   -1    0    0  501  502 -0.00000000000E+00 -0.00000000000E+00 -0.23093589918E+04  0.23093589918E+04  0.00000000000E+00 0. -1.
         25    1    1    2    0    0 -0.10875407597E+03  0.48129326768E+02 -0.45722559969E+03  0.48869635782E+03  0.12500000000E+03 0.  0.
         25    1    1    2    0    0  0.71369256255E+02 -0.95919779054E+02 -0.12494041306E+04  0.12613206794E+04  0.12500000000E+03 0.  0.
         25    1    1    2    0    0  0.37384819710E+02  0.47790452286E+02 -0.57272865073E+03  0.58934256544E+03  0.12500000000E+03 0.  0.
</event>
<event>
 5    0  0.6069598E-005  0.5173324E+03  0.7546771E-02  0.1009351E+00
         21   -1    0    0  502  501  0.00000000000E+00  0.00000000000E+00  0.51583069932E+03  0.51583069932E+03  0.00000000000E+00 0. -1.
         21   -1    0    0  501  502 -0.00000000000E+00 -0.00000000000E+00 -0.51883854407E+03  0.51883854407E+03  0.00000000000E+00 0.  1.
         25    1    1    2    0    0 -0.22070394728E+02  0.30976541343E+01  0.23839114660E+03  0.27009634682E+03  0.12500000000E+03 0.  0.
         25    1    1    2    0    0 -0.19521482891E+02  0.33741609741E+03 -0.12025008044E+03  0.37988918507E+03  0.12500000000E+03 0.  0.
         25    1    1    2    0    0  0.41591877619E+02 -0.34051375155E+03 -0.12114891092E+03  0.38468371150E+03  0.12500000000E+03 0.  0.
</event>
<event>
 5    0  0.5489207E-005  0.3003880E+03  0.7546771E-02  0.1085047E+00
         21   -1    0    0  502  501  0.00000000000E+00  0.00000000000E+00  0.33625518292E+03  0.33625518292E+03  0.00000000000E+00 0.  1.
         21   -1    0    0  501  502 -0.00000000000E+00 -0.00000000000E+00 -0.26834658757E+03  0.26834658757E+03  0.00000000000E+00 0.  1.
         25    1    1    2    0    0  0.10816572815E+03  0.72119016129E+02  0.16716939005E+03  0.24590970335E+03  0.12500000000E+03 0.  0.
         25    1    1    2    0    0 -0.92387424311E+02  0.29481082054E+02 -0.11570834046E+03  0.19600507754E+03  0.12500000000E+03 0.  0.
         25    1    1    2    0    0 -0.15778303837E+02 -0.10160009818E+03  0.16447545763E+02  0.16268698960E+03  0.12500000000E+03 0.  0.
</event>
<event>
 5    0  0.5489207E-005  0.3272206E+03  0.7546771E-02  0.1072373E+00
         21   -1    0    0  502  501  0.00000000000E+00  0.00000000000E+00  0.87319659319E+03  0.87319659319E+03  0.00000000000E+00 0.  1.
         21   -1    0    0  501  502 -0.00000000000E+00 -0.00000000000E+00 -0.12262226513E+03  0.12262226513E+03  0.00000000000E+00 0.  1.
         25    1    1    2    0    0  0.28817161540E+02 -0.38726751796E+02  0.16289991368E+03  0.21093025383E+03  0.12500000000E+03 0.  0.
         25    1    1    2    0    0  0.14002755894E+02  0.16385873734E+03  0.56490697697E+03  0.60149036202E+03  0.12500000000E+03 0.  0.
         25    1    1    2    0    0 -0.42819917434E+02 -0.12513198554E+03  0.22767437406E+02  0.18339824247E+03  0.12500000000E+03 0.  0.
</event>
<event>
 5    0  0.5489207E-005  0.3776223E+03  0.7546771E-02  0.1051816E+00
         21   -1    0    0  502  501  0.00000000000E+00  0.00000000000E+00  0.52589149948E+03  0.52589149948E+03  0.00000000000E+00 0.  1.
         21   -1    0    0  501  502 -0.00000000000E+00 -0.00000000000E+00 -0.27115593484E+03  0.27115593484E+03  0.00000000000E+00 0.  1.
         25    1    1    2    0    0  0.29244922342E+02  0.46105625021E+02  0.17575547069E+03  0.22247691930E+03  0.12500000000E+03 0.  0.
         25    1    1    2    0    0  0.94774112831E+02  0.20021872628E+03  0.94611362963E+02  0.27137792986E+03  0.12500000000E+03 0.  0.
         25    1    1    2    0    0 -0.12401903517E+03 -0.24632435130E+03 -0.15631269017E+02  0.30319258516E+03  0.12500000000E+03 0.  0.
</event>
<event>
 5    0  0.6608369E-005  0.3280015E+03  0.7546771E-02  0.1072025E+00
         21   -1    0    0  502  501  0.00000000000E+00  0.00000000000E+00  0.24799226777E+03  0.24799226777E+03  0.00000000000E+00 0. -1.
         21   -1    0    0  501  502 -0.00000000000E+00 -0.00000000000E+00 -0.43382384923E+03  0.43382384923E+03  0.00000000000E+00 0. -1.
         25    1    1    2    0    0 -0.12634741938E+03 -0.62151550263E+02 -0.68526733843E+02  0.20036815824E+03  0.12500000000E+03 0.  0.
         25    1    1    2    0    0  0.12337145890E+03  0.15846059850E+03 -0.19404308268E+03  0.30595423855E+03  0.12500000000E+03 0.  0.
         25    1    1    2    0    0  0.29759604853E+01 -0.96309048238E+02  0.76738235067E+02  0.17549372021E+03  0.12500000000E+03 0.  0.
</event>
<event>
 5    0  0.5489207E-005  0.2023586E+03  0.7546771E-02  0.1147764E+00
         21   -1    0    0  502  501  0.00000000000E+00  0.00000000000E+00  0.11750398132E+03  0.11750398132E+03  0.00000000000E+00 0. -1.
         21   -1    0    0  501  502 -0.00000000000E+00 -0.00000000000E+00 -0.34849041587E+03  0.34849041587E+03  0.00000000000E+00 0. -1.
         25    1    1    2    0    0 -0.47789367526E+02 -0.16606388048E+02 -0.54203145023E+02  0.14533608190E+03  0.12500000000E+03 0.  0.
         25    1    1    2    0    0  0.41471699562E+02  0.34395169821E+02 -0.12233826305E+03  0.18301524575E+03  0.12500000000E+03 0.  0.
         25    1    1    2    0    0  0.63176679640E+01 -0.17788781773E+02 -0.54445026478E+02  0.13764306954E+03  0.12500000000E+03 0.  0.
</event>
<event>
 5    0  0.5707431E-005  0.3155089E+03  0.7546771E-02  0.1077735E+00
         21   -1    0    0  502  501  0.00000000000E+00  0.00000000000E+00  0.43311487316E+03  0.43311487316E+03  0.00000000000E+00 0.  1.
         21   -1    0    0  501  502 -0.00000000000E+00 -0.00000000000E+00 -0.22983707736E+03  0.22983707736E+03  0.00000000000E+00 0.  1.
         25    1    1    2    0    0 -0.25200303859E+02 -0.73833129441E+02  0.12553097909E+03  0.19357017598E+03  0.12500000000E+03 0.  0.
         25    1    1    2    0    0  0.17835126835E+03 -0.18205074492E+02 -0.39042987963E+02  0.22201341079E+03  0.12500000000E+03 0.  0.
         25    1    1    2    0    0 -0.15315096449E+03  0.92038203933E+02  0.11678980468E+03  0.24736836375E+03  0.12500000000E+03 0.  0.
</event>
<event>
 5    0  0.5489207E-005  0.3283935E+03  0.7546771E-02  0.1071850E+00
         21   -1    0    0  502  501  0.00000000000E+00  0.00000000000E+00  0.17342916586E+03  0.17342916586E+03  0.00000000000E+00 0. -1.
         21   -1    0    0  501  502 -0.00000000000E+00 -0.00000000000E+00 -0.62182311522E+03  0.62182311522E+03  0.00000000000E+00 0. -1.
         25    1    1    2    0    0 -0.30186172675E+02  0.12563073335E+03 -0.25779367552E+03  0.31428787014E+03  0.12500000000E+03 0.  0.
         25    1    1    2    0    0 -0.68329165668E+02 -0.13069549676E+03  0.43194753115E+02  0.19809334782E+03  0.12500000000E+03 0.  0.
         25    1    1    2    0    0  0.98515338343E+02  0.50647634136E+01 -0.23379502696E+03  0.28287106312E+03  0.12500000000E+03 0.  0.
</event>
<event>
 5    0  0.5489207E-005  0.3311778E+03  0.7546771E-02  0.1070617E+00
         21   -1    0    0  502  501  0.00000000000E+00  0.00000000000E+00  0.20768694918E+03  0.20768694918E+03  0.00000000000E+00 0.  1.
         21   -1    0    0  501  502 -0.00000000000E+00 -0.00000000000E+00 -0.52809651792E+03  0.52809651792E+03  0.00000000000E+00 0.  1.
         25    1    1    2    0    0  0.12999771150E+03  0.31629519820E+02 -0.18159682972E+03  0.25788028246E+03  0.12500000000E+03 0.  0.
         25    1    1    2    0    0  0.11319439246E+03  0.39416902906E+02 -0.72278221158E+02  0.18765874339E+03  0.12500000000E+03 0.  0.
         25    1    1    2    0    0 -0.24319210396E+03 -0.71046422727E+02 -0.66534517862E+02  0.29024444125E+03  0.12500000000E+03 0.  0.
</event>
<event>
 5    0  0.5489207E-005  0.3165466E+03  0.7546771E-02  0.1077250E+00
         21   -1    0    0  502  501  0.00000000000E+00  0.00000000000E+00  0.81862533044E+03  0.81862533044E+03  0.00000000000E+00 0.  1.
         21   -1    0    0  501  502 -0.00000000000E+00 -0.00000000000E+00 -0.12240246294E+03  0.12240246294E+03  0.00000000000E+00 0.  1.
         25    1    1    2    0    0  0.12353609818E+03 -0.14619669387E+03  0.14606249521E+03  0.27128194440E+03  0.12500000000E+03 0.  0.
         25    1    1    2    0    0  0.26545274260E+02  0.13308464917E+03  0.23559755227E+03  0.29924468594E+03  0.12500000000E+03 0.  0.
         25    1    1    2    0    0 -0.15008137244E+03  0.13112044695E+02  0.31456282003E+03  0.37050116304E+03  0.12500000000E+03 0.  0.
</event>
<event>
 5    0  0.5489207E-005  0.2686883E+03  0.7546771E-02  0.1102033E+00
         21   -1    0    0  502  501  0.00000000000E+00  0.00000000000E+00  0.14866377461E+03  0.14866377461E+03  0.00000000000E+00 0. -1.
         21   -1    0    0  501  502 -0.00000000000E+00 -0.00000000000E+00 -0.48561547341E+03  0.48561547341E+03  0.00000000000E+00 0. -1.
         25    1    1    2    0    0  0.32766780059E+02 -0.21258881827E+02 -0.21617911785E+03  0.25275286927E+03  0.12500000000E+03 0.  0.
         25    1    1    2    0    0  0.96297870257E+02  0.74312668095E+02 -0.52770766782E+02  0.18222350639E+03  0.12500000000E+03 0.  0.
         25    1    1    2    0    0 -0.12906465032E+03 -0.53053786268E+02 -0.68001814167E+02  0.19930287235E+03  0.12500000000E+03 0.  0.
</event>
<event>
 5    0  0.5489207E-005  0.4689640E+03  0.7546771E-02  0.1022213E+00
         21   -1    0    0  502  501  0.00000000000E+00  0.00000000000E+00  0.23697945847E+04  0.23697945847E+04  0.00000000000E+00 0.  1.
         21   -1    0    0  501  502 -0.00000000000E+00 -0.00000000000E+00 -0.92804346606E+02  0.92804346606E+02  0.00000000000E+00 0.  1.
         25    1    1    2    0    0 -0.21287342926E+03 -0.27434109063E+03  0.15529822739E+04  0.15962321492E+04  0.12500000000E+03 0.  0.
         25    1    1    2    0    0  0.10249528169E+02  0.17789279764E+03  0.30053117286E+03  0.37107261572E+03  0.12500000000E+03 0.  0.
         25    1    1    2    0    0  0.20262390109E+03  0.96448292990E+02  0.42347679130E+03  0.49529416642E+03  0.12500000000E+03 0.  0.
</event>
<event>
 5    0  0.5489207E-005  0.2962014E+03  0.7546771E-02  0.1087155E+00
         21   -1    0    0  502  501  0.00000000000E+00  0.00000000000E+00  0.43646308260E+03  0.43646308260E+03  0.00000000000E+00 0. -1.
         21   -1    0    0  501  502 -0.00000000000E+00 -0.00000000000E+00 -0.20101422125E+03  0.20101422125E+03  0.00000000000E+00 0. -1.
         25    1    1    2    0    0 -0.24064988707E+02  0.11048776290E+03  0.73298606679E+02  0.18380520986E+03  0.12500000000E+03 0.  0.
         25    1    1    2    0    0  0.45191383737E+02 -0.21907114872E+03  0.10939362423E+03  0.27861513669E+03  0.12500000000E+03 0.  0.
         25    1    1    2    0    0 -0.21126395030E+02  0.10858338583E+03  0.52756630438E+02  0.17505695730E+03  0.12500000000E+03 0.  0.
</event>
<event>
 5    0  0.5489207E-005  0.2245185E+03  0.7546771E-02  0.1130558E+00
         21   -1    0    0  502  501  0.00000000000E+00  0.00000000000E+00  0.64958338382E+03  0.64958338382E+03  0.00000000000E+00 0. -1.
         21   -1    0    0  501  502 -0.00000000000E+00 -0.00000000000E+00 -0.77601356221E+02  0.77601356221E+02  0.00000000000E+00 0. -1.
         25    1    1    2    0    0  0.63829445499E+02  0.32054604711E+02  0.29742080263E+03  0.33043279140E+03  0.12500000000E+03 0.  0.
         25    1    1    2    0    0 -0.88062305270E+02 -0.12911112536E+02  0.11522677385E+03  0.19189548157E+03  0.12500000000E+03 0.  0.
         25    1    1    2    0    0  0.24232859771E+02 -0.19143492176E+02  0.15933445111E+03  0.20485646706E+03  0.12500000000E+03 0.  0.
</event>
<event>
 5    0  0.5489207E-005  0.2592052E+03  0.7546771E-02  0.1107622E+00
         21   -1    0    0  502  501  0.00000000000E+00  0.00000000000E+00  0.12207742434E+03  0.12207742434E+03  0.00000000000E+00 0.  1.
         21   -1    0    0  501  502 -0.00000000000E+00 -0.00000000000E+00 -0.55036667271E+03  0.55036667271E+03  0.00000000000E+00 0.  1.
         25    1    1    2    0    0 -0.79345572748E+02 -0.94886536976E+02 -0.18935737586E+03  0.25841902137E+03  0.12500000000E+03 0.  0.
         25    1    1    2    0    0  0.32994018018E+02  0.63367325439E+02 -0.23665928582E+03  0.27701379158E+03  0.12500000000E+03 0.  0.
         25    1    1    2    0    0  0.46351554730E+02  0.31519211537E+02 -0.22725866833E+01  0.13701128410E+03  0.12500000000E+03 0.  0.
</event>
<event>
 5    0  0.5489207E-005  0.2429231E+03  0.7546771E-02  0.1117861E+00
         21   -1    0    0  502  501  0.00000000000E+00  0.00000000000E+00  0.24817160457E+03  0.24817160457E+03  0.00000000000E+00 0.  1.
         21   -1    0    0  501  502 -0.00000000000E+00 -0.00000000000E+00 -0.23778551615E+03  0.23778551615E+03  0.00000000000E+00 0.  1.
         25    1    1    2    0    0 -0.84673292636E+01  0.21801300005E+02  0.46682735230E+02  0.13546685984E+03  0.12500000000E+03 0.  0.
         25    1    1    2    0    0 -0.83462201075E+02 -0.53109886912E+01  0.65649854041E+02  0.16410072804E+03  0.12500000000E+03 0.  0.
         25    1    1    2    0    0  0.91929530339E+02 -0.16490311314E+02 -0.10194650084E+03  0.18638953283E+03  0.12500000000E+03 0.  0.
</event>
<event>
 5    0  0.5489207E-005  0.3461299E+03  0.7546771E-02  0.1064215E+00
         21   -1    0    0  502  501  0.00000000000E+00  0.00000000000E+00  0.52021630731E+03  0.52021630731E+03  0.00000000000E+00 0.  1.
         21   -1    0    0  501  502 -0.00000000000E+00 -0.00000000000E+00 -0.23030013970E+03  0.23030013970E+03  0.00000000000E+00 0.  1.
         25    1    1    2    0    0 -0.13949993464E+03  0.96896503940E+02  0.63665414364E+02  0.22028946690E+03  0.12500000000E+03 0.  0.
         25    1    1    2    0    0  0.24233178302E+03  0.28956340217E+02  0.12022956911E+03  0.29940492980E+03  0.12500000000E+03 0.  0.
         25    1    1    2    0    0 -0.10283184838E+03 -0.12585284416E+03  0.10602118413E+03  0.23082205031E+03  0.12500000000E+03 0.  0.
</event>
<event>
 5    0  0.5489207E-005  0.3644063E+03  0.7546771E-02  0.1056853E+00
         21   -1    0    0  502  501  0.00000000000E+00  0.00000000000E+00  0.14764227183E+03  0.14764227183E+03  0.00000000000E+00 0.  1.
         21   -1    0    0  501  502 -0.00000000000E+00 -0.00000000000E+00 -0.89941685037E+03  0.89941685037E+03  0.00000000000E+00 0.  1.
         25    1    1    2    0    0  0.10257367510E+03  0.32220137855E+02 -0.81825596054E+02  0.18406500014E+03  0.12500000000E+03 0.  0.
         25    1    1    2    0    0  0.17551040529E+03 -0.29790940164E+02 -0.40205328364E+03  0.45712497784E+03  0.12500000000E+03 0.  0.
         25    1    1    2    0    0 -0.27808408039E+03 -0.24291976908E+01 -0.26789569885E+03  0.40586914422E+03  0.12500000000E+03 0.  0.
</event>
<event>
 5    0  0.5489207E-005  0.3093976E+03  0.7546771E-02  0.1080635E+00
         21   -1    0    0  502  501  0.00000000000E+00  0.00000000000E+00  0.12836141125E+03  0.12836141125E+03  0.00000000000E+00 0.  1.
         21   -1    0    0  501  502 -0.00000000000E+00 -0.00000000000E+00 -0.74576051780E+03  0.74576051780E+03  0.00000000000E+00 0.  1.
         25    1    1    2    0    0  0.72384559739E+02  0.12956380521E+02 -0.73244701504E+02  0.16247208555E+03  0.12500000000E+03 0.  0.
         25    1    1    2    0    0  0.11521187738E+03  0.43291311907E+02 -0.80439708957E+02  0.19298565012E+03  0.12500000000E+03 0.  0.
         25    1    1    2    0    0 -0.18759643712E+03 -0.56247692428E+02 -0.46371469608E+03  0.51866419337E+03  0.12500000000E+03 0.  0.
</event>
<event>
 5    0  0.5489207E-005  0.4410935E+03  0.7546771E-02  0.1030412E+00
         21   -1    0    0  502  501  0.00000000000E+00  0.00000000000E+00  0.17279417537E+03  0.17279417537E+03  0.00000000000E+00 0. -1.
         21   -1    0    0  501  502 -0.00000000000E+00 -0.00000000000E+00 -0.11259841366E+04  0.11259841366E+04  0.00000000000E+00 0. -1.
         25    1    1    2    0    0 -0.13461108829E+03  0.67661385766E+02  0.50754169530E+02  0.20223549129E+03  0.12500000000E+03 0.  0.
         25    1    1    2    0    0 -0.12077459957E+02 -0.14343965501E+03 -0.24836668388E+03  0.31310031831E+03  0.12500000000E+03 0.  0.
         25    1    1    2    0    0  0.14668854825E+03  0.75778269241E+02 -0.75557744689E+03  0.78344250237E+03  0.12500000000E+03 0.  0.
</event>
<event>
 5    0  0.5489207E-005  0.2203669E+03  0.7546771E-02  0.1133610E+00
         21   -1    0    0  502  501  0.00000000000E+00  0.00000000000E+00  0.20614993348E+03  0.20614993348E+03  0.00000000000E+00 0. -1.
         21   -1    0    0  501  502 -0.00000000000E+00 -0.00000000000E+00 -0.23556431299E+03  0.23556431299E+03  0.00000000000E+00 0. -1.
         25    1    1    2    0    0 -0.58437742369E+02  0.33929803898E+02  0.58409382653E+00  0.14209694751E+03  0.12500000000E+03 0.  0.
         25    1    1    2    0    0 -0.43420305786E+02 -0.31376972152E+02 -0.24642102298E+01  0.13601804905E+03  0.12500000000E+03 0.  0.
         25    1    1    2    0    0  0.10185804816E+03 -0.25528317454E+01 -0.27534263112E+02  0.16359924990E+03  0.12500000000E+03 0.  0.
</event>
<event>
 5    0  0.5489207E-005  0.4229170E+03  0.7546771E-02  0.1036121E+00
         21   -1    0    0  502  501  0.00000000000E+00  0.00000000000E+00  0.10378113562E+03  0.10378113562E+03  0.00000000000E+00 0.  1.
         21   -1    0    0  501  502 -0.00000000000E+00 -0.00000000000E+00 -0.17234226802E+04  0.17234226802E+04  0.00000000000E+00 0.  1.
         25    1    1    2    0    0  0.34009348847E+03  0.10920042190E+03 -0.72579475613E+03  0.81852998788E+03  0.12500000000E+03 0.  0.
         25    1    1    2    0    0 -0.17354614010E+03 -0.11981875110E+03 -0.60193186211E+03  0.64993981451E+03  0.12500000000E+03 0.  0.
         25    1    1    2    0    0 -0.16654734836E+03  0.10618329196E+02 -0.29191492629E+03  0.35873401338E+03  0.12500000000E+03 0.  0.
</event>
<event>
 5    0  0.5489207E-005  0.3309876E+03  0.7546771E-02  0.1070701E+00
         21   -1    0    0  502  501  0.00000000000E+00  0.00000000000E+00  0.13494708203E+04  0.13494708203E+04  0.00000000000E+00 0.  1.
         21   -1    0    0  501  502 -0.00000000000E+00 -0.00000000000E+00 -0.81182030581E+02  0.81182030581E+02  0.00000000000E+00 0.  1.
         25    1    1    2    0    0 -0.58766682111E+02  0.15310212572E+03  0.38504635157E+03  0.43678310027E+03  0.12500000000E+03 0.  0.
         25    1    1    2    0    0  0.36880073774E+02 -0.20525665949E+03  0.26108733024E+03  0.35676607199E+03  0.12500000000E+03 0.  0.
         25    1    1    2    0    0  0.21886608337E+02  0.52154533772E+02  0.62215510788E+03  0.63710367859E+03  0.12500000000E+03 0.  0.
</event>
<event>
 5    0  0.5489207E-005  0.3756697E+03  0.7546771E-02  0.1052546E+00
         21   -1    0    0  502  501  0.00000000000E+00  0.00000000000E+00  0.16285172331E+04  0.16285172331E+04  0.00000000000E+00 0. -1.
         21   -1    0    0  501  502 -0.00000000000E+00 -0.00000000000E+00 -0.86660273056E+02  0.86660273056E+02  0.00000000000E+00 0. -1.
         25    1    1    2    0    0  0.16726432253E+02 -0.10326929322E+03  0.42533457606E+02  0.16845894300E+03  0.12500000000E+03 0.  0.
         25    1    1    2    0    0  0.52828619523E+02  0.40559319884E+02  0.12070248726E+04  0.12153065312E+04  0.12500000000E+03 0.  0.
         25    1    1    2    0    0 -0.69555051776E+02  0.62709973341E+02  0.29229862980E+03  0.33141203202E+03  0.12500000000E+03 0.  0.
</event>
<event>
 5    0  0.5489207E-005  0.3271672E+03  0.7546771E-02  0.1072397E+00
         21   -1    0    0  502  501  0.00000000000E+00  0.00000000000E+00  0.13327420233E+03  0.13327420233E+03  0.00000000000E+00 0. -1.
         21   -1    0    0  501  502 -0.00000000000E+00 -0.00000000000E+00 -0.80314386877E+03  0.80314386877E+03  0.00000000000E+00 0. -1.
         25    1    1    2    0    0 -0.16723165333E+03 -0.55374191621E+02 -0.29264398729E+03  0.36372823683E+03  0.12500000000E+03 0.  0.
         25    1    1    2    0    0  0.77648189199E+01  0.16938698112E+02 -0.34051967198E+03  0.36321599485E+03  0.12500000000E+03 0.  0.
         25    1    1    2    0    0  0.15946683441E+03  0.38435493509E+02 -0.36706007171E+02  0.20947383942E+03  0.12500000000E+03 0.  0.
</event>
<event>
 5    0  0.5489207E-005  0.4057195E+03  0.7546771E-02  0.1041817E+00
         21   -1    0    0  502  501  0.00000000000E+00  0.00000000000E+00  0.14734096665E+04  0.14734096665E+04  0.00000000000E+00 0.  1.
         21   -1    0    0  501  502 -0.00000000000E+00 -0.00000000000E+00 -0.11171929025E+03  0.11171929025E+03  0.00000000000E+00 0.  1.
         25    1    1    2    0    0  0.20639614647E+03  0.24323957325E+03  0.42943041311E+03  0.54936357631E+03  0.12500000000E+03 0.  0.
         25    1    1    2    0    0 -0.64024017501E+02 -0.73871997361E+02  0.17135630962E+03  0.23354685110E+03  0.12500000000E+03 0.  0.
         25    1    1    2    0    0 -0.14237212897E+03 -0.16936757589E+03  0.76090365350E+03  0.80221852932E+03  0.12500000000E+03 0.  0.
</event>
<event>
 5    0  0.5489207E-005  0.2326902E+03  0.7546771E-02  0.1124760E+00
         21   -1    0    0  502  501  0.00000000000E+00  0.00000000000E+00  0.23979082465E+03  0.23979082465E+03  0.00000000000E+00 0. -1.
         21   -1    0    0  501  502 -0.00000000000E+00 -0.00000000000E+00 -0.22579988943E+03  0.22579988943E+03  0.00000000000E+00 0. -1.
         25    1    1    2    0    0 -0.80178302425E+02 -0.34858370992E+02 -0.11330549507E+02  0.15296093475E+03  0.12500000000E+03 0.  0.
         25    1    1    2    0    0  0.46899915355E+02  0.85050639569E+02  0.60539654768E+02  0.16947938857E+03  0.12500000000E+03 0.  0.
         25    1    1    2    0    0  0.33278387070E+02 -0.50192268577E+02 -0.35218170040E+02  0.14315039075E+03  0.12500000000E+03 0.  0.
</event>
<event>
 5    0  0.5489207E-005  0.3018357E+03  0.7546771E-02  0.1084327E+00
         21   -1    0    0  502  501  0.00000000000E+00  0.00000000000E+00  0.25633625175E+03  0.25633625175E+03  0.00000000000E+00 0. -1.
         21   -1    0    0  501  502 -0.00000000000E+00 -0.00000000000E+00 -0.35541132395E+03  0.35541132395E+03  0.00000000000E+00 0. -1.
         25    1    1    2    0    0 -0.28445649437E+02  0.14034779716E+03 -0.14939922178E+03  0.24176804298E+03  0.12500000000E+03 0.  0.
         25    1    1    2    0    0  0.48389115463E+02 -0.51578431184E+02 -0.82955308826E+02  0.16585663786E+03  0.12500000000E+03 0.  0.
         25    1    1    2    0    0 -0.19943466025E+02 -0.88769365977E+02  0.13327945840E+03  0.20412289486E+03  0.12500000000E+03 0.  0.
</event>
<event>
 5    0  0.5489207E-005  0.3317202E+03  0.7546771E-02  0.1070378E+00
         21   -1    0    0  502  501  0.00000000000E+00  0.00000000000E+00  0.19497499215E+03  0.19497499215E+03  0.00000000000E+00 0. -1.
         21   -1    0    0  501  502 -0.00000000000E+00 -0.00000000000E+00 -0.56437118323E+03  0.56437118323E+03  0.00000000000E+00 0. -1.
         25    1    1    2    0    0  0.20535538374E+02  0.18413739354E+03 -0.13177961822E+03  0.25945935291E+03  0.12500000000E+03 0.  0.
         25    1    1    2    0    0 -0.13373900612E+02 -0.11135940996E+03 -0.29872852784E+03  0.34270032499E+03  0.12500000000E+03 0.  0.
         25    1    1    2    0    0 -0.71616377614E+01 -0.72777983575E+02  0.61111954980E+02  0.15718649748E+03  0.12500000000E+03 0.  0.
</event>
<event>
 5    0  0.5489207E-005  0.3155983E+03  0.7546771E-02  0.1077693E+00
         21   -1    0    0  502  501  0.00000000000E+00  0.00000000000E+00  0.10021901494E+03  0.10021901494E+03  0.00000000000E+00 0. -1.
         21   -1    0    0  501  502 -0.00000000000E+00 -0.00000000000E+00 -0.99384633205E+03  0.99384633205E+03  0.00000000000E+00 0. -1.
         25    1    1    2    0    0  0.68130179692E+02 -0.56841035474E+02 -0.68783545097E+03  0.70470932470E+03  0.12500000000E+03 0.  0.
         25    1    1    2    0    0 -0.10506184822E+03  0.24514718898E+01 -0.18472169701E+03  0.24655852654E+03  0.12500000000E+03 0.  0.
         25    1    1    2    0    0  0.36931668530E+02  0.54389563584E+02 -0.21070169131E+02  0.14279749576E+03  0.12500000000E+03 0.  0.
</event>
<event>
 5    0  0.5489207E-005  0.3525168E+03  0.7546771E-02  0.1061587E+00
         21   -1    0    0  502  501  0.00000000000E+00  0.00000000000E+00  0.24078434913E+03  0.24078434913E+03  0.00000000000E+00 0. -1.
         21   -1    0    0  501  502 -0.00000000000E+00 -0.00000000000E+00 -0.51609716026E+03  0.51609716026E+03  0.00000000000E+00 0. -1.
         25    1    1    2    0    0  0.63043327966E+02  0.10056812129E+03  0.21440037675E+02  0.17370401100E+03  0.12500000000E+03 0.  0.
         25    1    1    2    0    0 -0.13537896554E+02 -0.66237425441E+02  0.92747106326E+02  0.16969884179E+03  0.12500000000E+03 0.  0.
         25    1    1    2    0    0 -0.49505431411E+02 -0.34330695852E+02 -0.38949995513E+03  0.41347865660E+03  0.12500000000E+03 0.  0.
</event>
<event>
 5    0  0.5489207E-005  0.4322044E+03  0.7546771E-02  0.1033166E+00
         21   -1    0    0  502  501  0.00000000000E+00  0.00000000000E+00  0.15115812894E+03  0.15115812894E+03  0.00000000000E+00 0.  1.
         21   -1    0    0  501  502 -0.00000000000E+00 -0.00000000000E+00 -0.12357962383E+04  0.12357962383E+04  0.00000000000E+00 0.  1.
         25    1    1    2    0    0  0.28844182957E+03  0.26178192087E+02 -0.23175319121E+03  0.39143138405E+03  0.12500000000E+03 0.  0.
         25    1    1    2    0    0 -0.11152977450E+03  0.15607507037E+03 -0.34480231200E+03  0.41389848097E+03  0.12500000000E+03 0.  0.
         25    1    1    2    0    0 -0.17691205506E+03 -0.18225326246E+03 -0.50808260614E+03  0.58162450221E+03  0.12500000000E+03 0.  0.
</event>
<event>
 5    0  0.5489207E-005  0.3317425E+03  0.7546771E-02  0.1070368E+00
         21   -1    0    0  502  501  0.00000000000E+00  0.00000000000E+00  0.32055132385E+03  0.32055132385E+03  0.00000000000E+00 0.  1.
         21   -1    0    0  501  502 -0.00000000000E+00 -0.00000000000E+00 -0.34332443679E+03  0.34332443679E+03  0.00000000000E+00 0.  1.
         25    1    1    2    0    0 -0.60109773847E+02  0.19617858781E+03 -0.58229402459E+02  0.24721425230E+03  0.12500000000E+03 0.  0.
         25    1    1    2    0    0  0.94323203673E+02 -0.16396224285E+02 -0.68695738066E+02  0.17178418830E+03  0.12500000000E+03 0.  0.
         25    1    1    2    0    0 -0.34213429826E+02 -0.17978236353E+03  0.10415202758E+03  0.24487732003E+03  0.12500000000E+03 0.  0.
</event>
<event>
 5    0  0.5489207E-005  0.3665482E+03  0.7546771E-02  0.1056021E+00
         21   -1    0    0  502  501  0.00000000000E+00  0.00000000000E+00  0.18664607176E+03  0.18664607176E+03  0.00000000000E+00 0.  1.
         21   -1    0    0  501  502 -0.00000000000E+00 -0.00000000000E+00 -0.71985218146E+03  0.71985218146E+03  0.00000000000E+00 0.  1.
         25    1    1    2    0    0 -0.15047029184E+03 -0.13652995284E+03 -0.47634915185E+03  0.53274313813E+03  0.12500000000E+03 0.  0.
         25    1    1    2    0    0  0.12259746679E+02  0.11968572385E+03  0.13113629368E+02  0.17398833627E+03  0.12500000000E+03 0.  0.
         25    1    1    2    0    0  0.13821054517E+03  0.16844228987E+02 -0.69970587218E+02  0.19976677882E+03  0.12500000000E+03 0.  0.
</event>
<event>
 5    0  0.5489207E-005  0.4302054E+03  0.7546771E-02  0.1033795E+00
         21   -1    0    0  502  501  0.00000000000E+00  0.00000000000E+00  0.18676599021E+03  0.18676599021E+03  0.00000000000E+00 0.  1.
         21   -1    0    0  501  502 -0.00000000000E+00 -0.00000000000E+00 -0.99095496207E+03  0.99095496207E+03  0.00000000000E+00 0.  1.
         25    1    1    2    0    0  0.17606251871E+03 -0.72561120287E+02 -0.64265946953E+02  0.23668172428E+03  0.12500000000E+03 0.  0.
         25    1    1    2    0    0  0.15107649444E+03 -0.53299914656E+02 -0.19854922967E+03  0.28409819548E+03  0.12500000000E+03 0.  0.
         25    1    1    2    0    0 -0.32713901314E+03  0.12586103494E+03 -0.54137379524E+03  0.65694103252E+03  0.12500000000E+03 0.  0.
</event>
<event>
 5    0  0.5489207E-005  0.2937050E+03  0.7546771E-02  0.1088430E+00
         21   -1    0    0  502  501  0.00000000000E+00  0.00000000000E+00  0.89787851706E+03  0.89787851706E+03  0.00000000000E+00 0.  1.
         21   -1    0    0  501  502 -0.00000000000E+00 -0.00000000000E+00 -0.96073809321E+02  0.96073809321E+02  0.00000000000E+00 0.  1.
         25    1    1    2    0    0  0.15420773218E+03 -0.77334730169E+02  0.41094697241E+03  0.46288562225E+03  0.12500000000E+03 0.  0.
         25    1    1    2    0    0 -0.42715405998E+02 -0.14452468763E+02  0.53213248800E+02  0.14314373759E+03  0.12500000000E+03 0.  0.
         25    1    1    2    0    0 -0.11149232618E+03  0.91787198932E+02  0.33764448653E+03  0.38792296654E+03  0.12500000000E+03 0.  0.
</event>
<event>
 5    0  0.5489207E-005  0.7128744E+03  0.7546771E-02  0.9695465E-01
         21   -1    0    0  502  501  0.00000000000E+00  0.00000000000E+00  0.38904443834E+03  0.38904443834E+03  0.00000000000E+00 0. -1.
         21   -1    0    0  501  502 -0.00000000000E+00 -0.00000000000E+00 -0.13062517203E+04  0.13062517203E+04  0.00000000000E+00 0. -1.
         25    1    1    2    0    0  0.28286341238E+03 -0.48695714442E+03 -0.10387601731E+03  0.58613496529E+03  0.12500000000E+03 0.  0.
         25    1    1    2    0    0  0.46550571489E+02  0.28051515946E+03 -0.19044196524E+03  0.36434715933E+03  0.12500000000E+03 0.  0.
         25    1    1    2    0    0 -0.32941398387E+03  0.20644198496E+03 -0.62288929944E+03  0.74481403402E+03  0.12500000000E+03 0.  0.
</event>
<event>
 5    0  0.5489207E-005  0.2927760E+03  0.7546771E-02  0.1088909E+00
         21   -1    0    0  502  501  0.00000000000E+00  0.00000000000E+00  0.61346360897E+03  0.61346360897E+03  0.00000000000E+00 0. -1.
         21   -1    0    0  501  502 -0.00000000000E+00 -0.00000000000E+00 -0.13972757944E+03  0.13972757944E+03  0.00000000000E+00 0. -1.
         25    1    1    2    0    0  0.61377299175E+02  0.32277043578E+02  0.18145168511E+03  0.23099500952E+03  0.12500000000E+03 0.  0.
         25    1    1    2    0    0  0.41836506630E+02  0.10569117340E+03  0.10821592377E+02  0.16930157791E+03  0.12500000000E+03 0.  0.
         25    1    1    2    0    0 -0.10321380581E+03 -0.13796821698E+03  0.28146275205E+03  0.35289460097E+03  0.12500000000E+03 0.  0.
</event>
<event>
 5    0  0.5489207E-005  0.2449908E+03  0.7546771E-02  0.1116512E+00
         21   -1    0    0  502  501  0.00000000000E+00  0.00000000000E+00  0.22608373368E+03  0.22608373368E+03  0.00000000000E+00 0. -1.
         21   -1    0    0  501  502 -0.00000000000E+00 -0.00000000000E+00 -0.26547893446E+03  0.26547893446E+03  0.00000000000E+00 0. -1.
         25    1    1    2    0    0  0.39526113843E+02 -0.39751108216E+02 -0.94074877105E+01  0.13731702409E+03  0.12500000000E+03 0.  0.
         25    1    1    2    0    0  0.88501436531E+02 -0.28501205285E+02  0.17985718075E+02  0.15682253991E+03  0.12500000000E+03 0.  0.
         25    1    1    2    0    0 -0.12802755037E+03  0.68252313500E+02 -0.47973431147E+02  0.19742310414E+03  0.12500000000E+03 0.  0.
</event>
<event>
 5    0  0.7035825E-005  0.3703402E+03  0.7546771E-02  0.1054563E+00
         21   -1    0    0  502  501  0.00000000000E+00  0.00000000000E+00  0.57107816700E+03  0.57107816700E+03  0.00000000000E+00 0. -1.
         21   -1    0    0  501  502 -0.00000000000E+00 -0.00000000000E+00 -0.24016305763E+03  0.24016305763E+03  0.00000000000E+00 0. -1.
         25    1    1    2    0    0 -0.55094079184E+01  0.11465377283E+03 -0.53821910740E+02  0.17803830845E+03  0.12500000000E+03 0.  0.
         25    1    1    2    0    0  0.61367498146E+02  0.65316054578E+02  0.37674555518E+03  0.40693288164E+03  0.12500000000E+03 0.  0.
         25    1    1    2    0    0 -0.55858090228E+02 -0.17996982741E+03  0.79914649391E+01  0.22627003454E+03  0.12500000000E+03 0.  0.
</event>
<event>
 5    0  0.5489207E-005  0.3463691E+03  0.7546771E-02  0.1064115E+00
         21   -1    0    0  502  501  0.00000000000E+00  0.00000000000E+00  0.72691174135E+02  0.72691174135E+02  0.00000000000E+00 0. -1.
         21   -1    0    0  501  502 -0.00000000000E+00 -0.00000000000E+00 -0.16504276725E+04  0.16504276725E+04  0.00000000000E+00 0. -1.
         25    1    1    2    0    0 -0.80708180210E+02  0.11312343531E+03 -0.32755766981E+03  0.37713359572E+03  0.12500000000E+03 0.  0.
         25    1    1    2    0    0 -0.69841767650E+02 -0.22967153136E+03 -0.70277943368E+03  0.75309416226E+03  0.12500000000E+03 0.  0.
         25    1    1    2    0    0  0.15054994786E+03  0.11654809606E+03 -0.54739939487E+03  0.59289108865E+03  0.12500000000E+03 0.  0.
</event>
<event>
 5    0  0.5489207E-005  0.2966366E+03  0.7546771E-02  0.1086934E+00
         21   -1    0    0  502  501  0.00000000000E+00  0.00000000000E+00  0.11316751212E+03  0.11316751212E+03  0.00000000000E+00 0.  1.
         21   -1    0    0  501  502 -0.00000000000E+00 -0.00000000000E+00 -0.77754904630E+03  0.77754904630E+03  0.00000000000E+00 0.  1.
         25    1    1    2    0    0 -0.92091179339E+02  0.24859155707E+02 -0.15336154158E+03  0.21964408795E+03  0.12500000000E+03 0.  0.
         25    1    1    2    0    0  0.68928794465E+01 -0.14774437163E+03 -0.40568025860E+03  0.44953018069E+03  0.12500000000E+03 0.  0.
         25    1    1    2    0    0  0.85198299892E+02  0.12288521593E+03 -0.10533973400E+03  0.22154228977E+03  0.12500000000E+03 0.  0.
</event>
<event>
 5    0  0.5489207E-005  0.5060089E+03  0.7546771E-02  0.1012222E+00
         21   -1    0    0  502  501  0.00000000000E+00  0.00000000000E+00  0.34394727657E+03  0.34394727657E+03  0.00000000000E+00 0. -1.
         21   -1    0    0  501  502 -0.00000000000E+00 -0.00000000000E+00 -0.74443090986E+03  0.74443090986E+03  0.00000000000E+00 0. -1.
         25    1    1    2    0    0  0.22862054235E+03  0.35250156865E+03 -0.22564318882E+03  0.49301577758E+03  0.12500000000E+03 0.  0.
         25    1    1    2    0    0 -0.22447238281E+03 -0.26639513402E+03 -0.22774606341E+03  0.43456586092E+03  0.12500000000E+03 0.  0.
         25    1    1    2    0    0 -0.41481595378E+01 -0.86106434629E+02  0.52905618939E+02  0.16079654793E+03  0.12500000000E+03 0.  0.
</event>
<event>
 5    0  0.5489207E-005  0.5815391E+03  0.7546771E-02  0.9944464E-01
         21   -1    0    0  502  501  0.00000000000E+00  0.00000000000E+00  0.27037821048E+03  0.27037821048E+03  0.00000000000E+00 0.  1.
         21   -1    0    0  501  502 -0.00000000000E+00 -0.00000000000E+00 -0.12507951153E+04  0.12507951153E+04  0.00000000000E+00 0.  1.
         25    1    1    2    0    0 -0.21175467670E+03 -0.13818943550E+03  0.26027706012E+02  0.28326454891E+03  0.12500000000E+03 0.  0.
         25    1    1    2    0    0  0.21242002435E+03 -0.11578363823E+03 -0.10297148056E+03  0.29112925555E+03  0.12500000000E+03 0.  0.
         25    1    1    2    0    0 -0.66534764596E+00  0.25397307374E+03 -0.90347313031E+03  0.94677952136E+03  0.12500000000E+03 0.  0.
</event>
<event>
 5    0  0.5489207E-005  0.2790136E+03  0.7546771E-02  0.1096229E+00
         21   -1    0    0  502  501  0.00000000000E+00  0.00000000000E+00  0.11229982226E+04  0.11229982226E+04  0.00000000000E+00 0. -1.
         21   -1    0    0  501  502 -0.00000000000E+00 -0.00000000000E+00 -0.69322082876E+02  0.69322082876E+02  0.00000000000E+00 0. -1.
         25    1    1    2    0    0  0.10947054106E+03 -0.72773521802E+02  0.23549749799E+03  0.29726058668E+03  0.12500000000E+03 0.  0.
         25    1    1    2    0    0 -0.13997010679E+03 -0.18450290821E+02  0.57571852819E+03  0.60581256815E+03  0.12500000000E+03 0.  0.
         25    1    1    2    0    0  0.30499565734E+02  0.91223812623E+02  0.24246011357E+03  0.28924715067E+03  0.12500000000E+03 0.  0.
</event>
<event>
 5    0  0.5784000E-005  0.3587561E+03  0.7546771E-02  0.1059077E+00
         21   -1    0    0  502  501  0.00000000000E+00  0.00000000000E+00  0.21831057107E+03  0.21831057107E+03  0.00000000000E+00 0.  1.
         21   -1    0    0  501  502 -0.00000000000E+00 -0.00000000000E+00 -0.58955429346E+03  0.58955429346E+03  0.00000000000E+00 0.  1.
         25    1    1    2    0    0  0.59707021166E+02  0.15370439693E+03  0.38227557965E+02  0.21041938171E+03  0.12500000000E+03 0.  0.
         25    1    1    2    0    0 -0.26654968303E+02 -0.23249892005E+03 -0.17327466545E+03  0.31688380338E+03  0.12500000000E+03 0.  0.
         25    1    1    2    0    0 -0.33052052864E+02  0.78794523113E+02 -0.23619661492E+03  0.28056167944E+03  0.12500000000E+03 0.  0.
</event>
<event>
 5    0  0.6839437E-005  0.8004278E+03  0.7546771E-02  0.9559398E-01
         21   -1    0    0  502  501  0.00000000000E+00  0.00000000000E+00  0.18742952164E+04  0.18742952164E+04  0.00000000000E+00 0. -1.
         21   -1    0    0  501  502 -0.00000000000E+00 -0.00000000000E+00 -0.34182699516E+03  0.34182699516E+03  0.00000000000E+00 0. -1.
         25    1    1    2    0    0  0.41768312335E+03 -0.14832807677E+03  0.90905011957E+03  0.10190473639E+04  0.12500000000E+03 0.  0.
         25    1    1    2    0    0 -0.40512159017E+02  0.39962797421E+03  0.55977991154E+01  0.42071378413E+03  0.12500000000E+03 0.  0.
         25    1    1    2    0    0 -0.37717096433E+03 -0.25129989744E+03  0.61782030251E+03  0.77636106354E+03  0.12500000000E+03 0.  0.
</event>
<event>
 5    0  0.5489207E-005  0.2926561E+03  0.7546771E-02  0.1088970E+00
         21   -1    0    0  502  501  0.00000000000E+00  0.00000000000E+00  0.29226757449E+03  0.29226757449E+03  0.00000000000E+00 0.  1.
         21   -1    0    0  501  502 -0.00000000000E+00 -0.00000000000E+00 -0.29304510497E+03  0.29304510497E+03  0.00000000000E+00 0.  1.
         25    1    1    2    0    0 -0.55630201109E+02  0.32108714754E+02 -0.71999170721E+01  0.14072145410E+03  0.12500000000E+03 0.  0.
         25    1    1    2    0    0 -0.70697543995E+02  0.27337186542E+01  0.15428451258E+03  0.21079451313E+03  0.12500000000E+03 0.  0.
         25    1    1    2    0    0  0.12632774510E+03 -0.34842433408E+02 -0.14786212599E+03  0.23379671223E+03  0.12500000000E+03 0.  0.
</event>
<event>
 5    0  0.5489207E-005  0.2413328E+03  0.7546771E-02  0.1118908E+00
         21   -1    0    0  502  501  0.00000000000E+00  0.00000000000E+00  0.19343389430E+03  0.19343389430E+03  0.00000000000E+00 0. -1.
         21   -1    0    0  501  502 -0.00000000000E+00 -0.00000000000E+00 -0.30109255741E+03  0.30109255741E+03  0.00000000000E+00 0. -1.
         25    1    1    2    0    0  0.86133203369E+01 -0.26612591882E+02 -0.16485358766E+03  0.20876811226E+03  0.12500000000E+03 0.  0.
         25    1    1    2    0    0 -0.92560445681E+01  0.57700418294E+02  0.72791055863E+02  0.15600817429E+03  0.12500000000E+03 0.  0.
         25    1    1    2    0    0  0.64272423121E+00 -0.31087826411E+02 -0.15596131322E+02  0.12975016515E+03  0.12500000000E+03 0.  0.
</event>
<event>
 5    0  0.5489207E-005  0.3120626E+03  0.7546771E-02  0.1079361E+00
         21   -1    0    0  502  501  0.00000000000E+00  0.00000000000E+00  0.81218544700E+03  0.81218544700E+03  0.00000000000E+00 0. -1.
         21   -1    0    0  501  502 -0.00000000000E+00 -0.00000000000E+00 -0.11990248013E+03  0.11990248013E+03  0.00000000000E+00 0. -1.
         25    1    1    2    0    0 -0.80143490989E+02 -0.54044118973E+02  0.19264925856E+02  0.15918505995E+03  0.12500000000E+03 0.  0.
         25    1    1    2    0    0  0.69580203062E+02  0.13877507601E+03  0.52338581901E+03  0.56005146363E+03  0.12500000000E+03 0.  0.
         25    1    1    2    0    0  0.10563287927E+02 -0.84730957038E+02  0.14963222201E+03  0.21285140356E+03  0.12500000000E+03 0.  0.
</event>
<event>
 5    0  0.5489207E-005  0.4227650E+03  0.7546771E-02  0.1036170E+00
         21   -1    0    0  502  501  0.00000000000E+00  0.00000000000E+00  0.12259627162E+03  0.12259627162E+03  0.00000000000E+00 0.  1.
         21   -1    0    0  501  502 -0.00000000000E+00 -0.00000000000E+00 -0.14578766673E+04  0.14578766673E+04  0.00000000000E+00 0.  1.
         25    1    1    2    0    0 -0.12965819273E+03 -0.95279483621E+02 -0.68868034299E+03  0.71818872294E+03  0.12500000000E+03 0.  0.
         25    1    1    2    0    0  0.28814919167E+03  0.35415558746E+02 -0.21561398317E+03  0.38262071063E+03  0.12500000000E+03 0.  0.
         25    1    1    2    0    0 -0.15849099895E+03  0.59863924875E+02 -0.43098606950E+03  0.47966350534E+03  0.12500000000E+03 0.  0.
</event>
<event>
 5    0  0.5489207E-005  0.4382655E+03  0.7546771E-02  0.1031280E+00
         21   -1    0    0  502  501  0.00000000000E+00  0.00000000000E+00  0.11112168247E+03  0.11112168247E+03  0.00000000000E+00 0. -1.
         21   -1    0    0  501  502 -0.00000000000E+00 -0.00000000000E+00 -0.17285252493E+04  0.17285252493E+04  0.00000000000E+00 0. -1.
         25    1    1    2    0    0  0.12862631970E+03 -0.48018891283E+01 -0.56315630035E+02  0.18805381795E+03  0.12500000000E+03 0.  0.
         25    1    1    2    0    0 -0.27660041068E+03  0.39688599818E+02 -0.63647345101E+03  0.70626229262E+03  0.12500000000E+03 0.  0.
         25    1    1    2    0    0  0.14797409097E+03 -0.34886710690E+02 -0.92461448580E+03  0.94533082121E+03  0.12500000000E+03 0.  0.
</event>
<event>
 5    0  0.6681721E-005  0.3024622E+03  0.7546771E-02  0.1084016E+00
         21   -1    0    0  502  501  0.00000000000E+00  0.00000000000E+00  0.17902809347E+03  0.17902809347E+03  0.00000000000E+00 0. -1.
         21   -1    0    0  501  502 -0.00000000000E+00 -0.00000000000E+00 -0.51100014224E+03  0.51100014224E+03  0.00000000000E+00 0. -1.
         25    1    1    2    0    0 -0.16525952203E+03  0.78458149839E+01 -0.23854990014E+03  0.31607486659E+03  0.12500000000E+03 0.  0.
         25    1    1    2    0    0  0.25564226500E+02 -0.49030473661E+02  0.37367015508E+02  0.14169972079E+03  0.12500000000E+03 0.  0.
         25    1    1    2    0    0  0.13969529553E+03  0.41184658677E+02 -0.13078916413E+03  0.23225364832E+03  0.12500000000E+03 0.  0.
</event>
<event>
 5    0  0.5489207E-005  0.2482503E+03  0.7546771E-02  0.1114416E+00
         21   -1    0    0  502  501  0.00000000000E+00  0.00000000000E+00  0.73252476393E+02  0.73252476393E+02  0.00000000000E+00 0.  1.
         21   -1    0    0  501  502 -0.00000000000E+00 -0.00000000000E+00 -0.84131263361E+03  0.84131263361E+03  0.00000000000E+00 0.  1.
         25    1    1    2    0    0 -0.20428541931E+02 -0.59986162042E+02 -0.34259786364E+03  0.37015396950E+03  0.12500000000E+03 0.  0.
         25    1    1    2    0    0 -0.48014229981E+02  0.10193181609E+03 -0.12634979522E+03  0.21043937884E+03  0.12500000000E+03 0.  0.
         25    1    1    2    0    0  0.68442771912E+02 -0.41945654052E+02 -0.29911249835E+03  0.33397176167E+03  0.12500000000E+03 0.  0.
</event>
<event>
 5    0  0.5489207E-005  0.6556758E+03  0.7546771E-02  0.9796187E-01
         21   -1    0    0  502  501  0.00000000000E+00  0.00000000000E+00  0.15487754965E+04  0.15487754965E+04  0.00000000000E+00 0.  1.
         21   -1    0    0  501  502 -0.00000000000E+00 -0.00000000000E+00 -0.27758109828E+03  0.27758109828E+03  0.00000000000E+00 0.  1.
         25    1    1    2    0    0  0.36624029275E+03  0.18902672801E+02  0.21476065016E+02  0.38804057061E+03  0.12500000000E+03 0.  0.
         25    1    1    2    0    0 -0.57245258383E+02  0.17892606387E+02 -0.58187065825E+01  0.13876607048E+03  0.12500000000E+03 0.  0.
         25    1    1    2    0    0 -0.30899503437E+03 -0.36795279187E+02  0.12555370397E+04  0.12995499536E+04  0.12500000000E+03 0.  0.
</event>
<event>
 5    0  0.5489207E-005  0.2495073E+03  0.7546771E-02  0.1113617E+00
         21   -1    0    0  502  501  0.00000000000E+00  0.00000000000E+00  0.53817797850E+02  0.53817797850E+02  0.00000000000E+00 0. -1.
         21   -1    0    0  501  502 -0.00000000000E+00 -0.00000000000E+00 -0.11567524837E+04  0.11567524837E+04  0.00000000000E+00 0. -1.
         25    1    1    2    0    0  0.41192572424E+01  0.80862181191E+02 -0.26094500375E+03  0.30045458161E+03  0.12500000000E+03 0.  0.
         25    1    1    2    0    0  0.26292788510E+02 -0.13360594462E+03 -0.63033006512E+03  0.65687354198E+03  0.12500000000E+03 0.  0.
         25    1    1    2    0    0 -0.30412045752E+02  0.52743763429E+02 -0.21165961698E+03  0.25324215796E+03  0.12500000000E+03 0.  0.
</event>
<event>
 5    0  0.5489207E-005  0.2270285E+03  0.7546771E-02  0.1128749E+00
         21   -1    0    0  502  501  0.00000000000E+00  0.00000000000E+00  0.13985835727E+03  0.13985835727E+03  0.00000000000E+00 0.  1.
         21   -1    0    0  501  502 -0.00000000000E+00 -0.00000000000E+00 -0.36852956328E+03  0.36852956328E+03  0.00000000000E+00 0.  1.
         25    1    1    2    0    0  0.69738150438E+01 -0.28910062763E+02 -0.71284421124E+01  0.12868659803E+03  0.12500000000E+03 0.  0.
         25    1    1    2    0    0  0.73010438922E+02  0.60072379520E+02 -0.11352836854E+03  0.19352753147E+03  0.12500000000E+03 0.  0.
         25    1    1    2    0    0 -0.79984253965E+02 -0.31162316757E+02 -0.10801439536E+03  0.18617379105E+03  0.12500000000E+03 0.  0.
</event>
<event>
 5    0  0.5489207E-005  0.3503897E+03  0.7546771E-02  0.1062455E+00
         21   -1    0    0  502  501  0.00000000000E+00  0.00000000000E+00  0.37017013991E+03  0.37017013991E+03  0.00000000000E+00 0.  1.
         21   -1    0    0  501  502 -0.00000000000E+00 -0.00000000000E+00 -0.33166617863E+03  0.33166617863E+03  0.00000000000E+00 0.  1.
         25    1    1    2    0    0  0.75487433950E+02 -0.50983857946E+02 -0.11106738162E+03  0.19041709407E+03  0.12500000000E+03 0.  0.
         25    1    1    2    0    0  0.11846910514E+03  0.12478997612E+03  0.16423738212E+03  0.26871245728E+03  0.12500000000E+03 0.  0.
         25    1    1    2    0    0 -0.19395653909E+03 -0.73806118171E+02 -0.14666039221E+02  0.24270676719E+03  0.12500000000E+03 0.  0.
</event>
<event>
 5    0  0.5489207E-005  0.2641781E+03  0.7546771E-02  0.1104659E+00
         21   -1    0    0  502  501  0.00000000000E+00  0.00000000000E+00  0.52943727571E+02  0.52943727571E+02  0.00000000000E+00 0. -1.
         21   -1    0    0  501  502 -0.00000000000E+00 -0.00000000000E+00 -0.13181935969E+04  0.13181935969E+04  0.00000000000E+00 0. -1.
         25    1    1    2    0    0  0.12500472193E+02  0.12239096737E+03 -0.45975767291E+03  0.49207512485E+03  0.12500000000E+03 0.  0.
         25    1    1    2    0    0  0.23267719007E+02  0.21419858202E+02 -0.50697807069E+03  0.52311754055E+03  0.12500000000E+03 0.  0.
         25    1    1    2    0    0 -0.35768191200E+02 -0.14381082557E+03 -0.29851412569E+03  0.35594465903E+03  0.12500000000E+03 0.  0.
</event>
<event>
 5    0  0.5489207E-005  0.2621901E+03  0.7546771E-02  0.1105834E+00
         21   -1    0    0  502  501  0.00000000000E+00  0.00000000000E+00  0.10469695115E+04  0.10469695115E+04  0.00000000000E+00 0. -1.
         21   -1    0    0  501  502 -0.00000000000E+00 -0.00000000000E+00 -0.65659664939E+02  0.65659664939E+02  0.00000000000E+00 0. -1.
         25    1    1    2    0    0 -0.11754690080E+03 -0.39773786717E+02  0.20821696654E+03  0.27272428046E+03  0.12500000000E+03 0.  0.
         25    1    1    2    0    0  0.72121279268E+02 -0.74479582738E+01  0.59697107669E+03  0.61421202969E+03  0.12500000000E+03 0.  0.
         25    1    1    2    0    0  0.45425621531E+02  0.47221744991E+02  0.17612180337E+03  0.22569286633E+03  0.12500000000E+03 0.  0.
</event>
<event>
 5    0  0.5489207E-005  0.3458977E+03  0.7546771E-02  0.1064311E+00
         21   -1    0    0  502  501  0.00000000000E+00  0.00000000000E+00  0.11350079123E+04  0.11350079123E+04  0.00000000000E+00 0.  1.
         21   -1    0    0  501  502 -0.00000000000E+00 -0.00000000000E+00 -0.10541356712E+03  0.10541356712E+03  0.00000000000E+00 0.  1.
         25    1    1    2    0    0 -0.83520548729E+02  0.18985900300E+03  0.50297957050E+03  0.55824329053E+03  0.12500000000E+03 0.  0.
         25    1    1    2    0    0 -0.50994959278E+00 -0.55441457241E+02  0.44307955407E+03  0.46370088038E+03  0.12500000000E+03 0.  0.
         25    1    1    2    0    0  0.84030498321E+02 -0.13441754576E+03  0.83535220626E+02  0.21847730853E+03  0.12500000000E+03 0.  0.
</event>
<event>
 5    0  0.5489207E-005  0.4175463E+03  0.7546771E-02  0.1037868E+00
         21   -1    0    0  502  501  0.00000000000E+00  0.00000000000E+00  0.15032252156E+03  0.15032252156E+03  0.00000000000E+00 0. -1.
         21   -1    0    0  501  502 -0.00000000000E+00 -0.00000000000E+00 -0.11598056548E+04  0.11598056548E+04  0.00000000000E+00 0. -1.
         25    1    1    2    0    0 -0.85536027615E+02  0.13503597341E+03 -0.42845774896E+03  0.47408034000E+03  0.12500000000E+03 0.  0.
         25    1    1    2    0    0  0.22876789592E+03  0.76701939781E+02 -0.44318718234E+03  0.51986326698E+03  0.12500000000E+03 0.  0.
         25    1    1    2    0    0 -0.14323186831E+03 -0.21173791319E+03 -0.13783820190E+03  0.31618456933E+03  0.12500000000E+03 0.  0.
</event>
<event>
 5    0  0.5489207E-005  0.2707020E+03  0.7546771E-02  0.1100879E+00
         21   -1    0    0  502  501  0.00000000000E+00  0.00000000000E+00  0.37304077265E+03  0.37304077265E+03  0.00000000000E+00 0. -1.
         21   -1    0    0  501  502 -0.00000000000E+00 -0.00000000000E+00 -0.19643845966E+03  0.19643845966E+03  0.00000000000E+00 0. -1.
         25    1    1    2    0    0 -0.62023437489E+02  0.30182544535E+02  0.88938352753E+02  0.16820500404E+03  0.12500000000E+03 0.  0.
         25    1    1    2    0    0  0.49704669897E+02  0.12598060606E+03  0.46683207174E+01  0.18435959571E+03  0.12500000000E+03 0.  0.
         25    1    1    2    0    0  0.12318767592E+02 -0.15616315060E+03  0.82995639523E+02  0.21691463256E+03  0.12500000000E+03 0.  0.
</event>
<event>
 5    0  0.5489207E-005  0.3742758E+03  0.7546771E-02  0.1053070E+00
         21   -1    0    0  502  501  0.00000000000E+00  0.00000000000E+00  0.76571357795E+02  0.76571357795E+02  0.00000000000E+00 0.  1.
         21   -1    0    0  501  502 -0.00000000000E+00 -0.00000000000E+00 -0.18294357030E+04  0.18294357030E+04  0.00000000000E+00 0.  1.
         25    1    1    2    0    0  0.33797709752E+02 -0.92685977012E+02 -0.54983990433E+03  0.57243505825E+03  0.12500000000E+03 0.  0.
         25    1    1    2    0    0  0.84107999391E+02 -0.15925349446E+03 -0.79192808837E+03  0.82171219305E+03  0.12500000000E+03 0.  0.
         25    1    1    2    0    0 -0.11790570914E+03  0.25193947147E+03 -0.41109635251E+03  0.51185980950E+03  0.12500000000E+03 0.  0.
</event>
<event>
 5    0  0.5489207E-005  0.5587550E+03  0.7546771E-02  0.9994876E-01
         21   -1    0    0  502  501  0.00000000000E+00  0.00000000000E+00  0.91886087926E+03  0.91886087926E+03  0.00000000000E+00 0. -1.
         21   -1    0    0  501  502 -0.00000000000E+00 -0.00000000000E+00 -0.33977624297E+03  0.33977624297E+03  0.00000000000E+00 0. -1.
         25    1    1    2    0    0  0.23418458187E+03  0.10848555307E+03  0.43915726314E+03  0.52449560091E+03  0.12500000000E+03 0.  0.
         25    1    1    2    0    0  0.13983609952E+03  0.14830491401E+03  0.10828339107E+03  0.26248576158E+03  0.12500000000E+03 0.  0.
         25    1    1    2    0    0 -0.37402068139E+03 -0.25679046708E+03  0.31643982078E+02  0.47165575974E+03  0.12500000000E+03 0.  0.
</event>
<event>
 5    0  0.5489207E-005  0.3960406E+03  0.7546771E-02  0.1045159E+00
         21   -1    0    0  502  501  0.00000000000E+00  0.00000000000E+00  0.56456081490E+03  0.56456081490E+03  0.00000000000E+00 0.  1.
         21   -1    0    0  501  502 -0.00000000000E+00 -0.00000000000E+00 -0.27782329562E+03  0.27782329562E+03  0.00000000000E+00 0.  1.
         25    1    1    2    0    0  0.25426016316E+02 -0.58918191713E+02 -0.90694780377E+00  0.14051212821E+03  0.12500000000E+03 0.  0.
         25    1    1    2    0    0 -0.11912060791E+03  0.24431901852E+03  0.34099190946E+03  0.45363199221E+03  0.12500000000E+03 0.  0.
         25    1    1    2    0    0  0.93694591593E+02 -0.18540082680E+03 -0.53347442376E+02  0.24823999009E+03  0.12500000000E+03 0.  0.
</event>
<event>
 5    0  0.5489207E-005  0.2830627E+03  0.7546771E-02  0.1094028E+00
         21   -1    0    0  502  501  0.00000000000E+00  0.00000000000E+00  0.32377064242E+02  0.32377064242E+02  0.00000000000E+00 0. -1.
         21   -1    0    0  501  502 -0.00000000000E+00 -0.00000000000E+00 -0.24747293096E+04  0.24747293096E+04  0.00000000000E+00 0. -1.
         25    1    1    2    0    0  0.22072514747E+01  0.73882267966E+01 -0.15018551615E+03  0.19555088114E+03  0.12500000000E+03 0.  0.
         25    1    1    2    0    0 -0.42166018974E+02  0.10048663766E+02 -0.16818564102E+04  0.16870521430E+04  0.12500000000E+03 0.  0.
         25    1    1    2    0    0  0.39958767499E+02 -0.17436890563E+02 -0.61031031907E+03  0.62450334972E+03  0.12500000000E+03 0.  0.
</event>
<event>
 5    0  0.5489207E-005  0.3105112E+03  0.7546771E-02  0.1080101E+00
         21   -1    0    0  502  501  0.00000000000E+00  0.00000000000E+00  0.14260676022E+03  0.14260676022E+03  0.00000000000E+00 0.  1.
         21   -1    0    0  501  502 -0.00000000000E+00 -0.00000000000E+00 -0.67610537534E+03  0.67610537534E+03  0.00000000000E+00 0.  1.
         25    1    1    2    0    0 -0.72868599556E+02  0.14075073664E+03 -0.17888033517E+03  0.26971054295E+03  0.12500000000E+03 0.  0.
         25    1    1    2    0    0  0.18014584526E+03 -0.11686801594E+03 -0.24964751433E+03  0.35222086838E+03  0.12500000000E+03 0.  0.
         25    1    1    2    0    0 -0.10727724571E+03 -0.23882720700E+02 -0.10497076561E+03  0.19678072423E+03  0.12500000000E+03 0.  0.
</event>
<event>
 5    0  0.5489207E-005  0.2872145E+03  0.7546771E-02  0.1091813E+00
         21   -1    0    0  502  501  0.00000000000E+00  0.00000000000E+00  0.55276403459E+03  0.55276403459E+03  0.00000000000E+00 0.  1.
         21   -1    0    0  501  502 -0.00000000000E+00 -0.00000000000E+00 -0.14923573989E+03  0.14923573989E+03  0.00000000000E+00 0.  1.
         25    1    1    2    0    0 -0.20942423760E+02 -0.14295999769E+03  0.31261245106E+03  0.36637097402E+03  0.12500000000E+03 0.  0.
         25    1    1    2    0    0  0.36417184798E+02  0.50927831864E+02 -0.24037088566E+02  0.14185428098E+03  0.12500000000E+03 0.  0.
         25    1    1    2    0    0 -0.15474761038E+02  0.92032165821E+02  0.11495293221E+03  0.19377451948E+03  0.12500000000E+03 0.  0.
</event>
<event>
 5    0  0.5489207E-005  0.2645666E+03  0.7546771E-02  0.1104430E+00
         21   -1    0    0  502  501  0.00000000000E+00  0.00000000000E+00  0.21147130168E+03  0.21147130168E+03  0.00000000000E+00 0.  1.
         21   -1    0    0  501  502 -0.00000000000E+00 -0.00000000000E+00 -0.33099285313E+03  0.33099285313E+03  0.00000000000E+00 0.  1.
         25    1    1    2    0    0  0.99757263490E+02 -0.14763302762E+01 -0.92274792118E+01  0.16019936811E+03  0.12500000000E+03 0.  0.
         25    1    1    2    0    0  0.64261417148E+02  0.53990799758E+02 -0.23251144138E+02  0.15234878370E+03  0.12500000000E+03 0.  0.
         25    1    1    2    0    0 -0.16401868064E+03 -0.52514469482E+02 -0.87042928099E+02  0.22991600300E+03  0.12500000000E+03 0.  0.
</event>
<event>
 5    0  0.5489207E-005  0.3329259E+03  0.7546771E-02  0.1069850E+00
         21   -1    0    0  502  501  0.00000000000E+00  0.00000000000E+00  0.24887552660E+03  0.24887552660E+03  0.00000000000E+00 0. -1.
         21   -1    0    0  501  502 -0.00000000000E+00 -0.00000000000E+00 -0.44536176726E+03  0.44536176726E+03  0.00000000000E+00 0. -1.
         25    1    1    2    0    0  0.39060766309E+02  0.32410908505E+02  0.15593281913E+03  0.20619470055E+03  0.12500000000E+03 0.  0.
         25    1    1    2    0    0  0.64390138733E+02  0.48261102129E+02 -0.21136628319E+03  0.25841038991E+03  0.12500000000E+03 0.  0.
         25    1    1    2    0    0 -0.10345090504E+03 -0.80672010634E+02 -0.14105277660E+03  0.22963220340E+03  0.12500000000E+03 0.  0.
</event>
<event>
 5    0  0.6176407E-005  0.3658323E+03  0.7546771E-02  0.1056298E+00
         21   -1    0    0  502  501  0.00000000000E+00  0.00000000000E+00  0.47002356181E+03  0.47002356181E+03  0.00000000000E+00 0.  1.
         21   -1    0    0  501  502 -0.00000000000E+00 -0.00000000000E+00 -0.28473741870E+03  0.28473741870E+03  0.00000000000E+00 0.  1.
         25    1    1    2    0    0  0.13156798725E+03 -0.18024389863E+03  0.11649148515E+03  0.28105740405E+03  0.12500000000E+03 0.  0.
         25    1    1    2    0    0 -0.54192565920E+02  0.11182329010E+03 -0.12864638281E+03  0.21821130635E+03  0.12500000000E+03 0.  0.
         25    1    1    2    0    0 -0.77375421328E+02  0.68420608529E+02  0.19744104078E+03  0.25549227010E+03  0.12500000000E+03 0.  0.
</event>
<event>
 5    0  0.5489207E-005  0.3297494E+03  0.7546771E-02  0.1071248E+00
         21   -1    0    0  502  501  0.00000000000E+00  0.00000000000E+00  0.25296195429E+04  0.25296195429E+04  0.00000000000E+00 0. -1.
         21   -1    0    0  501  502 -0.00000000000E+00 -0.00000000000E+00 -0.42984594425E+02  0.42984594425E+02  0.00000000000E+00 0. -1.
         25    1    1    2    0    0  0.16071606141E+02 -0.46134932733E+02  0.19099400010E+03  0.23343186718E+03  0.12500000000E+03 0.  0.
         25    1    1    2    0    0  0.17264538739E+03 -0.16080051466E+02  0.11579972024E+04  0.11775599851E+04  0.12500000000E+03 0.  0.
         25    1    1    2    0    0 -0.18871699353E+03  0.62214984199E+02  0.11376437460E+04  0.11616122850E+04  0.12500000000E+03 0.  0.
</event>
<event>
 5    0  0.5489207E-005  0.2410053E+03  0.7546771E-02  0.1119125E+00
         21   -1    0    0  502  501  0.00000000000E+00  0.00000000000E+00  0.46466859284E+03  0.46466859284E+03  0.00000000000E+00 0. -1.
         21   -1    0    0  501  502 -0.00000000000E+00 -0.00000000000E+00 -0.12499994976E+03  0.12499994976E+03  0.00000000000E+00 0. -1.
         25    1    1    2    0    0 -0.53752505815E+02 -0.57344923525E+02  0.11161646732E+03  0.18509729310E+03  0.12500000000E+03 0.  0.
         25    1    1    2    0    0 -0.10363347501E+02 -0.61686828591E+02  0.50050881285E+02  0.14846802521E+03  0.12500000000E+03 0.  0.
         25    1    1    2    0    0  0.64115853316E+02  0.11903175212E+03  0.17800129447E+03  0.25610322429E+03  0.12500000000E+03 0.  0.
</event>
<event>
 5    0  0.5489207E-005  0.3543202E+03  0.7546771E-02  0.1060856E+00
         21   -1    0    0  502  501  0.00000000000E+00  0.00000000000E+00  0.43507606288E+03  0.43507606288E+03  0.00000000000E+00 0.  1.
         21   -1    0    0  501  502 -0.00000000000E+00 -0.00000000000E+00 -0.28855366995E+03  0.28855366995E+03  0.00000000000E+00 0.  1.
         25    1    1    2    0    0 -0.42206107970E+02  0.20101016411E+03 -0.17564353570E+02  0.24108079173E+03  0.12500000000E+03 0.  0.
         25    1    1    2    0    0  0.10259779440E+03 -0.60770268185E+02 -0.61002012680E+02  0.18320911129E+03  0.12500000000E+03 0.  0.
         25    1    1    2    0    0 -0.60391686425E+02 -0.14023989593E+03  0.22508875918E+03  0.29933982981E+03  0.12500000000E+03 0.  0.
</event>
<event>
 5    0  0.5489207E-005  0.2449565E+03  0.7546771E-02  0.1116534E+00
         21   -1    0    0  502  501  0.00000000000E+00  0.00000000000E+00  0.33881981897E+03  0.33881981897E+03  0.00000000000E+00 0.  1.
         21   -1    0    0  501  502 -0.00000000000E+00 -0.00000000000E+00 -0.17709621534E+03  0.17709621534E+03  0.00000000000E+00 0.  1.
         25    1    1    2    0    0 -0.25766790673E+01 -0.67458791211E+02  0.15838240119E+03  0.21276116373E+03  0.12500000000E+03 0.  0.
         25    1    1    2    0    0 -0.74149429888E+02  0.26281054412E+02  0.23269376742E+02  0.14951687419E+03  0.12500000000E+03 0.  0.
         25    1    1    2    0    0  0.76726108955E+02  0.41177736798E+02 -0.19928174303E+02  0.15363799639E+03  0.12500000000E+03 0.  0.
</event>
<event>
 5    0  0.5489207E-005  0.2694721E+03  0.7546771E-02  0.1101582E+00
         21   -1    0    0  502  501  0.00000000000E+00  0.00000000000E+00  0.96269039583E+02  0.96269039583E+02  0.00000000000E+00 0. -1.
         21   -1    0    0  501  502 -0.00000000000E+00 -0.00000000000E+00 -0.75429452173E+03  0.75429452173E+03  0.00000000000E+00 0. -1.
         25    1    1    2    0    0 -0.50945220679E+02 -0.77914114257E+02 -0.13599151847E+03  0.20684467072E+03  0.12500000000E+03 0.  0.
         25    1    1    2    0    0  0.47526765032E+02 -0.38020434818E+02 -0.60373671135E+02  0.15157284395E+03  0.12500000000E+03 0.  0.
         25    1    1    2    0    0  0.34184556472E+01  0.11593454908E+03 -0.46166029255E+03  0.49214604664E+03  0.12500000000E+03 0.  0.
</event>
<event>
 5    0  0.5489207E-005  0.2291801E+03  0.7546771E-02  0.1127218E+00
         21   -1    0    0  502  501  0.00000000000E+00  0.00000000000E+00  0.13430863206E+03  0.13430863206E+03  0.00000000000E+00 0.  1.
         21   -1    0    0  501  502 -0.00000000000E+00 -0.00000000000E+00 -0.39106600176E+03  0.39106600176E+03  0.00000000000E+00 0.  1.
         25    1    1    2    0    0  0.80425616700E+02  0.28972197825E+02 -0.17542679860E+03  0.23174820331E+03  0.12500000000E+03 0.  0.
         25    1    1    2    0    0 -0.84531552782E+02 -0.15034562556E+02 -0.17889943938E+02  0.15269797504E+03  0.12500000000E+03 0.  0.
         25    1    1    2    0    0  0.41059360815E+01 -0.13937635269E+02 -0.63440627158E+02  0.14092845547E+03  0.12500000000E+03 0.  0.
</event>
<event>
 5    0  0.5489207E-005  0.1953730E+03  0.7546771E-02  0.1153703E+00
         21   -1    0    0  502  501  0.00000000000E+00  0.00000000000E+00  0.23621683604E+03  0.23621683604E+03  0.00000000000E+00 0.  1.
         21   -1    0    0  501  502 -0.00000000000E+00 -0.00000000000E+00 -0.16159144568E+03  0.16159144568E+03  0.00000000000E+00 0.  1.
         25    1    1    2    0    0  0.16165726291E+02  0.35865111604E+02  0.86347877742E+01  0.13132858218E+03  0.12500000000E+03 0.  0.
         25    1    1    2    0    0 -0.17338773676E+02 -0.23317808891E+02  0.57305139704E+02  0.14054619284E+03  0.12500000000E+03 0.  0.
         25    1    1    2    0    0  0.11730473847E+01 -0.12547302713E+02  0.86854628850E+01  0.12593350671E+03  0.12500000000E+03 0.  0.
</event>
<event>
 5    0  0.6077475E-005  0.3253459E+03  0.7546771E-02  0.1073215E+00
         21   -1    0    0  502  501  0.00000000000E+00  0.00000000000E+00  0.12438977478E+03  0.12438977478E+03  0.00000000000E+00 0. -1.
         21   -1    0    0  501  502 -0.00000000000E+00 -0.00000000000E+00 -0.85095372021E+03  0.85095372021E+03  0.00000000000E+00 0. -1.
         25    1    1    2    0    0  0.14859002070E+03  0.13244804800E+03 -0.20584700391E+03  0.31244114436E+03  0.12500000000E+03 0.  0.
         25    1    1    2    0    0  0.11134994715E+01 -0.79504749301E+02 -0.40222204622E+03  0.42863716534E+03  0.12500000000E+03 0.  0.
         25    1    1    2    0    0 -0.14970352017E+03 -0.52943298698E+02 -0.11849489530E+03  0.23426518529E+03  0.12500000000E+03 0.  0.
</event>
<event>
 5    0  0.5489207E-005  0.4005687E+03  0.7546771E-02  0.1043583E+00
         21   -1    0    0  502  501  0.00000000000E+00  0.00000000000E+00  0.13084930639E+04  0.13084930639E+04  0.00000000000E+00 0. -1.
         21   -1    0    0  501  502 -0.00000000000E+00 -0.00000000000E+00 -0.12262602144E+03  0.12262602144E+03  0.00000000000E+00 0. -1.
         25    1    1    2    0    0  0.60907121485E+02 -0.26509921899E+03  0.75153440947E+03  0.80895997551E+03  0.12500000000E+03 0.  0.
         25    1    1    2    0    0  0.66228913217E+02  0.12480399595E+03  0.88069450477E+02  0.20819110081E+03  0.12500000000E+03 0.  0.
         25    1    1    2    0    0 -0.12713603470E+03  0.14029522304E+03  0.34626318254E+03  0.41396800904E+03  0.12500000000E+03 0.  0.
</event>
<event>
 5    0  0.5489207E-005  0.3597738E+03  0.7546771E-02  0.1058673E+00
         21   -1    0    0  502  501  0.00000000000E+00  0.00000000000E+00  0.94118105669E+02  0.94118105669E+02  0.00000000000E+00 0.  1.
         21   -1    0    0  501  502 -0.00000000000E+00 -0.00000000000E+00 -0.13752635919E+04  0.13752635919E+04  0.00000000000E+00 0.  1.
         25    1    1    2    0    0 -0.26266918743E+03  0.19222588835E+02 -0.29469810930E+03  0.41453176666E+03  0.12500000000E+03 0.  0.
         25    1    1    2    0    0  0.13332507039E+03 -0.53755219371E+02 -0.50705736358E+03  0.54166167297E+03  0.12500000000E+03 0.  0.
         25    1    1    2    0    0  0.12934411703E+03  0.34532630536E+02 -0.47939001334E+03  0.51318825792E+03  0.12500000000E+03 0.  0.
</event>
<event>
 5    0  0.5489207E-005  0.2428461E+03  0.7546771E-02  0.1117911E+00
         21   -1    0    0  502  501  0.00000000000E+00  0.00000000000E+00  0.17210890454E+03  0.17210890454E+03  0.00000000000E+00 0. -1.
         21   -1    0    0  501  502 -0.00000000000E+00 -0.00000000000E+00 -0.34265636432E+03  0.34265636432E+03  0.00000000000E+00 0. -1.
         25    1    1    2    0    0 -0.43191158343E+02  0.18477741406E+02 -0.16489018420E+03  0.21218076240E+03  0.12500000000E+03 0.  0.
         25    1    1    2    0    0  0.30940192336E+02  0.55780831610E+02  0.46185233686E+02  0.14773920430E+03  0.12500000000E+03 0.  0.
         25    1    1    2    0    0  0.12250966007E+02 -0.74258573016E+02 -0.51842509266E+02  0.15484530216E+03  0.12500000000E+03 0.  0.
</event>
<event>
 5    0  0.5489207E-005  0.3479839E+03  0.7546771E-02  0.1063446E+00
         21   -1    0    0  502  501  0.00000000000E+00  0.00000000000E+00  0.23639899906E+03  0.23639899906E+03  0.00000000000E+00 0.  1.
         21   -1    0    0  501  502 -0.00000000000E+00 -0.00000000000E+00 -0.51223897580E+03  0.51223897580E+03  0.00000000000E+00 0.  1.
         25    1    1    2    0    0  0.20101652126E+03 -0.39948185650E+02 -0.72398886174E+02  0.25073910360E+03  0.12500000000E+03 0.  0.
         25    1    1    2    0    0  0.30585221194E+02  0.66967352013E+01 -0.19344700062E+03  0.23243718306E+03  0.12500000000E+03 0.  0.
         25    1    1    2    0    0 -0.23160174246E+03  0.33251450449E+02 -0.99940899507E+01  0.26546168820E+03  0.12500000000E+03 0.  0.
</event>
<event>
 5    0  0.5489207E-005  0.2847579E+03  0.7546771E-02  0.1093118E+00
         21   -1    0    0  502  501  0.00000000000E+00  0.00000000000E+00  0.19410628793E+03  0.19410628793E+03  0.00000000000E+00 0. -1.
         21   -1    0    0  501  502 -0.00000000000E+00 -0.00000000000E+00 -0.41774556966E+03  0.41774556966E+03  0.00000000000E+00 0. -1.
         25    1    1    2    0    0  0.13939267554E+03 -0.84938780821E+02 -0.79188389484E+02  0.22031957587E+03  0.12500000000E+03 0.  0.
         25    1    1    2    0    0 -0.15047161220E+03  0.84187642271E+02 -0.18552446562E+02  0.21377197773E+03  0.12500000000E+03 0.  0.
         25    1    1    2    0    0  0.11078936665E+02  0.75113855062E+00 -0.12589844569E+03  0.17776030399E+03  0.12500000000E+03 0.  0.
</event>
<event>
 5    0  0.5489207E-005  0.3090429E+03  0.7546771E-02  0.1080806E+00
         21   -1    0    0  502  501  0.00000000000E+00  0.00000000000E+00  0.20051517295E+03  0.20051517295E+03  0.00000000000E+00 0.  1.
         21   -1    0    0  501  502 -0.00000000000E+00 -0.00000000000E+00 -0.47631064903E+03  0.47631064903E+03  0.00000000000E+00 0.  1.
         25    1    1    2    0    0 -0.14451160119E+03  0.90412984597E+02 -0.19226232930E+03  0.28574099099E+03  0.12500000000E+03 0.  0.
         25    1    1    2    0    0  0.13560268562E+03 -0.92518975624E+02  0.45404974979E+02  0.21126869373E+03  0.12500000000E+03 0.  0.
         25    1    1    2    0    0  0.89089155763E+01  0.21059910263E+01 -0.12893812176E+03  0.17981613726E+03  0.12500000000E+03 0.  0.
</event>
<event>
 5    0  0.5489207E-005  0.2843288E+03  0.7546771E-02  0.1093348E+00
         21   -1    0    0  502  501  0.00000000000E+00  0.00000000000E+00  0.20058822219E+03  0.20058822219E+03  0.00000000000E+00 0.  1.
         21   -1    0    0  501  502 -0.00000000000E+00 -0.00000000000E+00 -0.40302902799E+03  0.40302902799E+03  0.00000000000E+00 0.  1.
         25    1    1    2    0    0 -0.43815949888E+02 -0.56712314386E+02 -0.36843226792E+02  0.14872305614E+03  0.12500000000E+03 0.  0.
         25    1    1    2    0    0  0.32253362480E+02 -0.13668514616E+03 -0.39564026306E+02  0.19212865677E+03  0.12500000000E+03 0.  0.
         25    1    1    2    0    0  0.11562587408E+02  0.19339746055E+03 -0.12603355270E+03  0.26276553728E+03  0.12500000000E+03 0.  0.
</event>
<event>
 5    0  0.5489207E-005  0.2397879E+03  0.7546771E-02  0.1119934E+00
         21   -1    0    0  502  501  0.00000000000E+00  0.00000000000E+00  0.25064167974E+03  0.25064167974E+03  0.00000000000E+00 0.  1.
         21   -1    0    0  501  502 -0.00000000000E+00 -0.00000000000E+00 -0.22940406643E+03  0.22940406643E+03  0.00000000000E+00 0.  1.
         25    1    1    2    0    0 -0.33195212573E+02 -0.24321468427E+02 -0.75197675151E+02  0.15156894904E+03  0.12500000000E+03 0.  0.
         25    1    1    2    0    0 -0.23003631477E+02 -0.92173405301E+00 -0.40202758435E+02  0.13330895859E+03  0.12500000000E+03 0.  0.
         25    1    1    2    0    0  0.56198844050E+02  0.25243202480E+02  0.13663804689E+03  0.19516783854E+03  0.12500000000E+03 0.  0.
</event>
<event>
 5    0  0.5489207E-005  0.3971503E+03  0.7546771E-02  0.1044771E+00
         21   -1    0    0  502  501  0.00000000000E+00  0.00000000000E+00  0.61838453745E+03  0.61838453745E+03  0.00000000000E+00 0.  1.
         21   -1    0    0  501  502 -0.00000000000E+00 -0.00000000000E+00 -0.25506520748E+03  0.25506520748E+03  0.00000000000E+00 0.  1.
         25    1    1    2    0    0  0.12735319604E+03  0.25064470492E+03  0.45204932340E+02  0.31098246021E+03  0.12500000000E+03 0.  0.
         25    1    1    2    0    0 -0.32405331884E+02  0.38265914008E+02  0.10294906166E+03  0.16952255014E+03  0.12500000000E+03 0.  0.
         25    1    1    2    0    0 -0.94947864155E+02 -0.28891061893E+03  0.21516533597E+03  0.39294473459E+03  0.12500000000E+03 0.  0.
</event>
<event>
 5    0  0.5489207E-005  0.3056886E+03  0.7546771E-02  0.1082431E+00
         21   -1    0    0  502  501  0.00000000000E+00  0.00000000000E+00  0.17745563284E+03  0.17745563284E+03  0.00000000000E+00 0. -1.
         21   -1    0    0  501  502 -0.00000000000E+00 -0.00000000000E+00 -0.52658530802E+03  0.52658530802E+03  0.00000000000E+00 0. -1.
         25    1    1    2    0    0  0.97664510340E+02 -0.55493522891E+02 -0.81444700783E+02  0.18675151123E+03  0.12500000000E+03 0.  0.
         25    1    1    2    0    0  0.12371135349E+03 -0.20574840345E+02 -0.99334193507E+02  0.20302735047E+03  0.12500000000E+03 0.  0.
         25    1    1    2    0    0 -0.22137586383E+03  0.76068363236E+02 -0.16835078089E+03  0.31426207916E+03  0.12500000000E+03 0.  0.
</event>
<event>
 5    0  0.5489207E-005  0.3420600E+03  0.7546771E-02  0.1065922E+00
         21   -1    0    0  502  501  0.00000000000E+00  0.00000000000E+00  0.16838825645E+03  0.16838825645E+03  0.00000000000E+00 0. -1.
         21   -1    0    0  501  502 -0.00000000000E+00 -0.00000000000E+00 -0.69485285573E+03  0.69485285573E+03  0.00000000000E+00 0. -1.
         25    1    1    2    0    0  0.18711377222E+03  0.15229403052E+03 -0.35283772258E+03  0.44533638293E+03  0.12500000000E+03 0.  0.
         25    1    1    2    0    0 -0.35613146142E+02  0.25611142374E+01 -0.61113519585E+02  0.14364789508E+03  0.12500000000E+03 0.  0.
         25    1    1    2    0    0 -0.15150062608E+03 -0.15485514476E+03 -0.11251335711E+03  0.27425683417E+03  0.12500000000E+03 0.  0.
</event>
<event>
 5    0  0.5489207E-005  0.3842236E+03  0.7546771E-02  0.1049384E+00
         21   -1    0    0  502  501  0.00000000000E+00  0.00000000000E+00  0.12132076931E+04  0.12132076931E+04  0.00000000000E+00 0. -1.
         21   -1    0    0  501  502 -0.00000000000E+00 -0.00000000000E+00 -0.12168381836E+03  0.12168381836E+03  0.00000000000E+00 0. -1.
         25    1    1    2    0    0 -0.18405064519E+03 -0.20601515949E+03  0.51456842880E+03  0.59726255018E+03  0.12500000000E+03 0.  0.
         25    1    1    2    0    0  0.17029982605E+03  0.42909506902E+01  0.19372926820E+03  0.28666438978E+03  0.12500000000E+03 0.  0.
         25    1    1    2    0    0  0.13750819140E+02  0.20172420880E+03  0.38322617777E+03  0.45096457153E+03  0.12500000000E+03 0.  0.
</event>
<event>
 5    0  0.5489207E-005  0.3763729E+03  0.7546771E-02  0.1052283E+00
         21   -1    0    0  502  501  0.00000000000E+00  0.00000000000E+00  0.38275850240E+03  0.38275850240E+03  0.00000000000E+00 0.  1.
         21   -1    0    0  501  502 -0.00000000000E+00 -0.00000000000E+00 -0.37009379966E+03  0.37009379966E+03  0.00000000000E+00 0.  1.
         25    1    1    2    0    0  0.10033910952E+03 -0.17249601036E+03 -0.18901899041E+03  0.30195362098E+03  0.12500000000E+03 0.  0.
         25    1    1    2    0    0 -0.12180689323E+03 -0.11085103236E+02  0.52897878458E+02  0.18271011000E+03  0.12500000000E+03 0.  0.
         25    1    1    2    0    0  0.21467783704E+02  0.18358111359E+03  0.14878581470E+03  0.26818857108E+03  0.12500000000E+03 0.  0.
</event>
<event>
 5    0  0.6164243E-005  0.4720764E+03  0.7546771E-02  0.1021336E+00
         21   -1    0    0  502  501  0.00000000000E+00  0.00000000000E+00  0.64466873743E+03  0.64466873743E+03  0.00000000000E+00 0. -1.
         21   -1    0    0  501  502 -0.00000000000E+00 -0.00000000000E+00 -0.34569085406E+03  0.34569085406E+03  0.00000000000E+00 0. -1.
         25    1    1    2    0    0 -0.11369914566E+03 -0.10052882895E+03 -0.86649288291E+02  0.21486423699E+03  0.12500000000E+03 0.  0.
         25    1    1    2    0    0  0.25790546758E+03  0.11259893766E+03 -0.38431870385E+02  0.31031558071E+03  0.12500000000E+03 0.  0.
         25    1    1    2    0    0 -0.14420632192E+03 -0.12070108705E+02  0.42405904205E+03  0.46517977380E+03  0.12500000000E+03 0.  0.
</event>
<event>
 5    0  0.5489207E-005  0.2574837E+03  0.7546771E-02  0.1108665E+00
         21   -1    0    0  502  501  0.00000000000E+00  0.00000000000E+00  0.46914240679E+03  0.46914240679E+03  0.00000000000E+00 0.  1.
         21   -1    0    0  501  502 -0.00000000000E+00 -0.00000000000E+00 -0.14131713403E+03  0.14131713403E+03  0.00000000000E+00 0.  1.
         25    1    1    2    0    0  0.13517567746E+02  0.10318363167E+03  0.17806264707E+03  0.24116569566E+03  0.12500000000E+03 0.  0.
         25    1    1    2    0    0  0.91277016488E+02 -0.28660483239E+02  0.82862456300E+02  0.17788789645E+03  0.12500000000E+03 0.  0.
         25    1    1    2    0    0 -0.10479458423E+03 -0.74523148427E+02  0.66900169385E+02  0.19140594871E+03  0.12500000000E+03 0.  0.
</event>
<event>
 5    0  0.5489207E-005  0.4407265E+03  0.7546771E-02  0.1030524E+00
         21   -1    0    0  502  501  0.00000000000E+00  0.00000000000E+00  0.88947264616E+03  0.88947264616E+03  0.00000000000E+00 0. -1.
         21   -1    0    0  501  502 -0.00000000000E+00 -0.00000000000E+00 -0.21837642782E+03  0.21837642782E+03  0.00000000000E+00 0. -1.
         25    1    1    2    0    0  0.15130151567E+03 -0.14434625712E+03  0.58573029996E+03  0.63437605163E+03  0.12500000000E+03 0.  0.
         25    1    1    2    0    0  0.94927355369E+02  0.11871583827E+02  0.50036714639E+02  0.16516903497E+03  0.12500000000E+03 0.  0.
         25    1    1    2    0    0 -0.24622887104E+03  0.13247467330E+03  0.35329203740E+02  0.30830398738E+03  0.12500000000E+03 0.  0.
</event>
<event>
 5    0  0.5489207E-005  0.3369864E+03  0.7546771E-02  0.1068087E+00
         21   -1    0    0  502  501  0.00000000000E+00  0.00000000000E+00  0.22132556306E+03  0.22132556306E+03  0.00000000000E+00 0.  1.
         21   -1    0    0  501  502 -0.00000000000E+00 -0.00000000000E+00 -0.51308942281E+03  0.51308942281E+03  0.00000000000E+00 0.  1.
         25    1    1    2    0    0  0.18734136871E+03 -0.13570376893E+02 -0.20581142069E+03  0.30539201765E+03  0.12500000000E+03 0.  0.
         25    1    1    2    0    0 -0.21549120816E+03 -0.65005737808E+02 -0.10392623742E+03  0.27764702333E+03  0.12500000000E+03 0.  0.
         25    1    1    2    0    0  0.28149839445E+02  0.78576114702E+02  0.17973798359E+02  0.15137594488E+03  0.12500000000E+03 0.  0.
</event>
<event>
 5    0  0.5489207E-005  0.2974244E+03  0.7546771E-02  0.1086535E+00
         21   -1    0    0  502  501  0.00000000000E+00  0.00000000000E+00  0.64058072791E+03  0.64058072791E+03  0.00000000000E+00 0.  1.
         21   -1    0    0  501  502 -0.00000000000E+00 -0.00000000000E+00 -0.13809541048E+03  0.13809541048E+03  0.00000000000E+00 0.  1.
         25    1    1    2    0    0 -0.49091450719E+02  0.80895657117E+02  0.16099143826E+03  0.22471608992E+03  0.12500000000E+03 0.  0.
         25    1    1    2    0    0  0.50372194547E+02 -0.21436466727E+03  0.19229356146E+03  0.31794871023E+03  0.12500000000E+03 0.  0.
         25    1    1    2    0    0 -0.12807438277E+01  0.13346901015E+03  0.14920031771E+03  0.23601133824E+03  0.12500000000E+03 0.  0.
</event>
<event>
 5    0  0.5489207E-005  0.2344901E+03  0.7546771E-02  0.1123519E+00
         21   -1    0    0  502  501  0.00000000000E+00  0.00000000000E+00  0.90213665590E+02  0.90213665590E+02  0.00000000000E+00 0.  1.
         21   -1    0    0  501  502 -0.00000000000E+00 -0.00000000000E+00 -0.60950411034E+03  0.60950411034E+03  0.00000000000E+00 0.  1.
         25    1    1    2    0    0  0.24369707787E+02  0.76404884837E+02 -0.20259647992E+03  0.25120096090E+03  0.12500000000E+03 0.  0.
         25    1    1    2    0    0 -0.44402762286E+02 -0.23473876920E+02 -0.27314206609E+03  0.30455576906E+03  0.12500000000E+03 0.  0.
         25    1    1    2    0    0  0.20033054499E+02 -0.52931007917E+02 -0.43551898735E+02  0.14396104596E+03  0.12500000000E+03 0.  0.
</event>
<event>
 5    0  0.5489207E-005  0.3501452E+03  0.7546771E-02  0.1062555E+00
         21   -1    0    0  502  501  0.00000000000E+00  0.00000000000E+00  0.14860065540E+03  0.14860065540E+03  0.00000000000E+00 0.  1.
         21   -1    0    0  501  502 -0.00000000000E+00 -0.00000000000E+00 -0.82504109962E+03  0.82504109962E+03  0.00000000000E+00 0.  1.
         25    1    1    2    0    0 -0.13916463898E+03  0.11668393998E+03 -0.43156935061E+03  0.48462257787E+03  0.12500000000E+03 0.  0.
         25    1    1    2    0    0  0.85992446760E+02 -0.33426359365E+02 -0.28511061226E+03  0.32469229068E+03  0.12500000000E+03 0.  0.
         25    1    1    2    0    0  0.53172192225E+02 -0.83257580614E+02  0.40239518655E+02  0.16432688647E+03  0.12500000000E+03 0.  0.
</event>
<event>
 5    0  0.5489207E-005  0.3171733E+03  0.7546771E-02  0.1076958E+00
         21   -1    0    0  502  501  0.00000000000E+00  0.00000000000E+00  0.52436020644E+03  0.52436020644E+03  0.00000000000E+00 0.  1.
         21   -1    0    0  501  502 -0.00000000000E+00 -0.00000000000E+00 -0.19185073703E+03  0.19185073703E+03  0.00000000000E+00 0.  1.
         25    1    1    2    0    0  0.57990362621E+01  0.17900706775E+03 -0.27473057466E+01  0.21842551778E+03  0.12500000000E+03 0.  0.
         25    1    1    2    0    0  0.74698390828E+02 -0.89994839409E+02  0.25423100570E+03  0.30649196559E+03  0.12500000000E+03 0.  0.
         25    1    1    2    0    0 -0.80497427090E+02 -0.89012228345E+02  0.81025769460E+02  0.19129346011E+03  0.12500000000E+03 0.  0.
</event>
<event>
 5    0  0.5489207E-005  0.2453953E+03  0.7546771E-02  0.1116250E+00
         21   -1    0    0  502  501  0.00000000000E+00  0.00000000000E+00  0.75789924795E+02  0.75789924795E+02  0.00000000000E+00 0.  1.
         21   -1    0    0  501  502 -0.00000000000E+00 -0.00000000000E+00 -0.79454949862E+03  0.79454949862E+03  0.00000000000E+00 0.  1.
         25    1    1    2    0    0 -0.51363119174E+02  0.55877713603E+02 -0.35174505842E+03  0.38093316344E+03  0.12500000000E+03 0.  0.
         25    1    1    2    0    0  0.76297479207E+02 -0.11212031593E+03 -0.20921026177E+03  0.27890178237E+03  0.12500000000E+03 0.  0.
         25    1    1    2    0    0 -0.24934360033E+02  0.56242602324E+02 -0.15780425363E+03  0.21050447760E+03  0.12500000000E+03 0.  0.
</event>
<event>
 5    0  0.5489207E-005  0.2689163E+03  0.7546771E-02  0.1101901E+00
         21   -1    0    0  502  501  0.00000000000E+00  0.00000000000E+00  0.22610554334E+03  0.22610554334E+03  0.00000000000E+00 0.  1.
         21   -1    0    0  501  502 -0.00000000000E+00 -0.00000000000E+00 -0.31983292571E+03  0.31983292571E+03  0.00000000000E+00 0.  1.
         25    1    1    2    0    0 -0.17150288023E+02 -0.78694709302E+02 -0.52437987521E+02  0.15767603555E+03  0.12500000000E+03 0.  0.
         25    1    1    2    0    0  0.12393766840E+03  0.20352313103E+02 -0.10089620321E+03  0.20391127022E+03  0.12500000000E+03 0.  0.
         25    1    1    2    0    0 -0.10678738038E+03  0.58342396199E+02  0.59606808357E+02  0.18435116329E+03  0.12500000000E+03 0.  0.
</event>
<event>
 5    0  0.5489207E-005  0.3969385E+03  0.7546771E-02  0.1044845E+00
         21   -1    0    0  502  501  0.00000000000E+00  0.00000000000E+00  0.31597729410E+03  0.31597729410E+03  0.00000000000E+00 0.  1.
         21   -1    0    0  501  502 -0.00000000000E+00 -0.00000000000E+00 -0.49864385701E+03  0.49864385701E+03  0.00000000000E+00 0.  1.
         25    1    1    2    0    0 -0.24704342225E+03  0.10082973629E+03  0.12542917206E+03  0.32024141737E+03  0.12500000000E+03 0.  0.
         25    1    1    2    0    0  0.19063222042E+03 -0.37972986107E+02 -0.14813004906E+03  0.27449973146E+03  0.12500000000E+03 0.  0.
         25    1    1    2    0    0  0.56411201825E+02 -0.62856750182E+02 -0.15996568591E+03  0.21988000228E+03  0.12500000000E+03 0.  0.
</event>
<event>
 5    0  0.5489207E-005  0.3472144E+03  0.7546771E-02  0.1063764E+00
         21   -1    0    0  502  501  0.00000000000E+00  0.00000000000E+00  0.18683548326E+04  0.18683548326E+04  0.00000000000E+00 0. -1.
         21   -1    0    0  501  502 -0.00000000000E+00 -0.00000000000E+00 -0.64526187278E+02  0.64526187278E+02  0.00000000000E+00 0. -1.
         25    1    1    2    0    0  0.10162435471E+03 -0.16708271052E+03  0.11159707536E+04  0.11398508080E+04  0.12500000000E+03 0.  0.
         25    1    1    2    0    0 -0.45049160952E+02 -0.27526307526E+02  0.38218649380E+03  0.40555966337E+03  0.12500000000E+03 0.  0.
         25    1    1    2    0    0 -0.56575193761E+02  0.19460901805E+03  0.30567139796E+03  0.38747054853E+03  0.12500000000E+03 0.  0.
</event>
<event>
 5    0  0.5489207E-005  0.4017650E+03  0.7546771E-02  0.1043170E+00
         21   -1    0    0  502  501  0.00000000000E+00  0.00000000000E+00  0.12478425337E+04  0.12478425337E+04  0.00000000000E+00 0.  1.
         21   -1    0    0  501  502 -0.00000000000E+00 -0.00000000000E+00 -0.12935534141E+03  0.12935534141E+03  0.00000000000E+00 0.  1.
         25    1    1    2    0    0  0.27722502247E+03 -0.16775356900E+03  0.43631071124E+03  0.55766209279E+03  0.12500000000E+03 0.  0.
         25    1    1    2    0    0 -0.25085997346E+03  0.15443618601E+03  0.54193362119E+03  0.62936341775E+03  0.12500000000E+03 0.  0.
         25    1    1    2    0    0 -0.26365049012E+02  0.13317382997E+02  0.14024285983E+03  0.19017236453E+03  0.12500000000E+03 0.  0.
</event>
<event>
 5    0  0.5489207E-005  0.2738887E+03  0.7546771E-02  0.1099074E+00
         21   -1    0    0  502  501  0.00000000000E+00  0.00000000000E+00  0.28997049410E+03  0.28997049410E+03  0.00000000000E+00 0. -1.
         21   -1    0    0  501  502 -0.00000000000E+00 -0.00000000000E+00 -0.25869882226E+03  0.25869882226E+03  0.00000000000E+00 0. -1.
         25    1    1    2    0    0 -0.89662776561E+02 -0.11425827538E+03  0.80055496355E+02  0.20767342028E+03  0.12500000000E+03 0.  0.
         25    1    1    2    0    0  0.11080015664E+03  0.23184172631E+01 -0.39262257672E+02  0.17160587009E+03  0.12500000000E+03 0.  0.
         25    1    1    2    0    0 -0.21137380082E+02  0.11193985812E+03 -0.95215668339E+01  0.16939002600E+03  0.12500000000E+03 0.  0.
</event>
<event>
 5    0  0.5489207E-005  0.2714761E+03  0.7546771E-02  0.1100438E+00
         21   -1    0    0  502  501  0.00000000000E+00  0.00000000000E+00  0.12313519050E+03  0.12313519050E+03  0.00000000000E+00 0.  1.
         21   -1    0    0  501  502 -0.00000000000E+00 -0.00000000000E+00 -0.59852311974E+03  0.59852311974E+03  0.00000000000E+00 0.  1.
         25    1    1    2    0    0 -0.40950194621E+02 -0.59173306830E+01 -0.31931770149E+02  0.13548642436E+03  0.12500000000E+03 0.  0.
         25    1    1    2    0    0 -0.10951084560E+03  0.57140187848E+02 -0.15776232187E+03  0.23616006558E+03  0.12500000000E+03 0.  0.
         25    1    1    2    0    0  0.15046104022E+03 -0.51222857165E+02 -0.28569383722E+03  0.35001182029E+03  0.12500000000E+03 0.  0.
</event>
<event>
 5    0  0.5489207E-005  0.4305781E+03  0.7546771E-02  0.1033677E+00
         21   -1    0    0  502  501  0.00000000000E+00  0.00000000000E+00  0.14592351297E+04  0.14592351297E+04  0.00000000000E+00 0. -1.
         21   -1    0    0  501  502 -0.00000000000E+00 -0.00000000000E+00 -0.12705117466E+03  0.12705117466E+03  0.00000000000E+00 0. -1.
         25    1    1    2    0    0 -0.82910981021E+02 -0.23834620109E+03  0.66954479771E+03  0.72635967571E+03  0.12500000000E+03 0.  0.
         25    1    1    2    0    0 -0.50541667160E+02  0.76949641800E+02  0.15161136653E+01  0.15525142863E+03  0.12500000000E+03 0.  0.
         25    1    1    2    0    0  0.13345264818E+03  0.16139655929E+03  0.66112304363E+03  0.70467519998E+03  0.12500000000E+03 0.  0.
</event>
<event>
 5    0  0.5489207E-005  0.2663756E+03  0.7546771E-02  0.1103372E+00
         21   -1    0    0  502  501  0.00000000000E+00  0.00000000000E+00  0.20649939440E+03  0.20649939440E+03  0.00000000000E+00 0. -1.
         21   -1    0    0  501  502 -0.00000000000E+00 -0.00000000000E+00 -0.34361341697E+03  0.34361341697E+03  0.00000000000E+00 0. -1.
         25    1    1    2    0    0  0.72625247666E+02  0.34533033543E+02 -0.16128288896E+03  0.21932653117E+03  0.12500000000E+03 0.  0.
         25    1    1    2    0    0 -0.12925277864E+02 -0.33552303409E+02 -0.84167768963E+02  0.15492589585E+03  0.12500000000E+03 0.  0.
         25    1    1    2    0    0 -0.59699969802E+02 -0.98073013362E+00  0.10833663536E+03  0.17586038436E+03  0.12500000000E+03 0.  0.
</event>
<event>
 5    0  0.5489207E-005  0.2508482E+03  0.7546771E-02  0.1112770E+00
         21   -1    0    0  502  501  0.00000000000E+00  0.00000000000E+00  0.65837610516E+02  0.65837610516E+02  0.00000000000E+00 0. -1.
         21   -1    0    0  501  502 -0.00000000000E+00 -0.00000000000E+00 -0.95575784704E+03  0.95575784704E+03  0.00000000000E+00 0. -1.
         25    1    1    2    0    0  0.28476481504E+02 -0.34472208408E+02 -0.84308966131E+02  0.15726488776E+03  0.12500000000E+03 0.  0.
         25    1    1    2    0    0  0.42256080112E+02 -0.47519997895E+02 -0.46506036448E+03  0.48574671293E+03  0.12500000000E+03 0.  0.
         25    1    1    2    0    0 -0.70732561616E+02  0.81992206303E+02 -0.34055090591E+03  0.37858385687E+03  0.12500000000E+03 0.  0.
</event>
<event>
 5    0  0.5489207E-005  0.3774906E+03  0.7546771E-02  0.1051865E+00
         21   -1    0    0  502  501  0.00000000000E+00  0.00000000000E+00  0.23965486059E+03  0.23965486059E+03  0.00000000000E+00 0. -1.
         21   -1    0    0  501  502 -0.00000000000E+00 -0.00000000000E+00 -0.59460163768E+03  0.59460163768E+03  0.00000000000E+00 0. -1.
         25    1    1    2    0    0 -0.10403582597E+03 -0.12662240369E+03 -0.45620847926E+03  0.50060749370E+03  0.12500000000E+03 0.  0.
         25    1    1    2    0    0  0.48739056715E+02  0.11331599307E+03  0.85785953678E+02  0.19544881627E+03  0.12500000000E+03 0.  0.
         25    1    1    2    0    0  0.55296769253E+02  0.13306410621E+02  0.15475748495E+02  0.13820018830E+03  0.12500000000E+03 0.  0.
</event>
<event>
 5    0  0.5489207E-005  0.2558418E+03  0.7546771E-02  0.1109668E+00
         21   -1    0    0  502  501  0.00000000000E+00  0.00000000000E+00  0.15533889572E+04  0.15533889572E+04  0.00000000000E+00 0. -1.
         21   -1    0    0  501  502 -0.00000000000E+00 -0.00000000000E+00 -0.42136933743E+02  0.42136933743E+02  0.00000000000E+00 0. -1.
         25    1    1    2    0    0  0.66707130548E+02 -0.83536162021E+02  0.36039043546E+03  0.39614946372E+03  0.12500000000E+03 0.  0.
         25    1    1    2    0    0 -0.47831071343E+02  0.65487880489E+02  0.94821411343E+03  0.95984971677E+03  0.12500000000E+03 0.  0.
         25    1    1    2    0    0 -0.18876059205E+02  0.18048281532E+02  0.20264747461E+03  0.23952671050E+03  0.12500000000E+03 0.  0.
</event>
<event>
 5    0  0.5489207E-005  0.2196522E+03  0.7546771E-02  0.1134143E+00
         21   -1    0    0  502  501  0.00000000000E+00  0.00000000000E+00  0.38329137313E+03  0.38329137313E+03  0.00000000000E+00 0.  1.
         21   -1    0    0  501  502 -0.00000000000E+00 -0.00000000000E+00 -0.12587573402E+03  0.12587573402E+03  0.00000000000E+00 0.  1.
         25    1    1    2    0    0  0.42471596586E+01  0.19277095133E+00  0.75054253180E+02  0.14586369132E+03  0.12500000000E+03 0.  0.
         25    1    1    2    0    0 -0.21512133227E+02  0.67191682607E+02  0.16822023124E+02  0.14451807690E+03  0.12500000000E+03 0.  0.
         25    1    1    2    0    0  0.17264973569E+02 -0.67384453558E+02  0.16553936281E+03  0.21878533893E+03  0.12500000000E+03 0.  0.
</event>
<event>
 5    0  0.5489207E-005  0.4427703E+03  0.7546771E-02  0.1029900E+00
         21   -1    0    0  502  501  0.00000000000E+00  0.00000000000E+00  0.22469044700E+03  0.22469044700E+03  0.00000000000E+00 0.  1.
         21   -1    0    0  501  502 -0.00000000000E+00 -0.00000000000E+00 -0.87251378301E+03  0.87251378301E+03  0.00000000000E+00 0.  1.
         25    1    1    2    0    0 -0.45393874674E+02 -0.12779074714E+03  0.11407859629E+03  0.21686402432E+03  0.12500000000E+03 0.  0.
         25    1    1    2    0    0  0.11591588617E+03  0.98324247849E+02 -0.68926290810E+03  0.71680716156E+03  0.12500000000E+03 0.  0.
         25    1    1    2    0    0 -0.70522011495E+02  0.29466499291E+02 -0.72639024197E+02  0.16353304413E+03  0.12500000000E+03 0.  0.
</event>
<event>
 5    0  0.5489207E-005  0.2647384E+03  0.7546771E-02  0.1104329E+00
         21   -1    0    0  502  501  0.00000000000E+00  0.00000000000E+00  0.16412674505E+04  0.16412674505E+04  0.00000000000E+00 0.  1.
         21   -1    0    0  501  502 -0.00000000000E+00 -0.00000000000E+00 -0.42702607907E+02  0.42702607907E+02  0.00000000000E+00 0.  1.
         25    1    1    2    0    0 -0.17323967965E+02 -0.85534002249E+02  0.29632643820E+03  0.33324246936E+03  0.12500000000E+03 0.  0.
         25    1    1    2    0    0 -0.83102702908E+01  0.16530741894E+02  0.10662988660E+04  0.10737600280E+04  0.12500000000E+03 0.  0.
         25    1    1    2    0    0  0.25634238256E+02  0.69003260355E+02  0.23593953831E+03  0.27696756101E+03  0.12500000000E+03 0.  0.
</event>
<event>
 5    0  0.5489207E-005  0.2609815E+03  0.7546771E-02  0.1106555E+00
         21   -1    0    0  502  501  0.00000000000E+00  0.00000000000E+00  0.20389965949E+03  0.20389965949E+03  0.00000000000E+00 0.  1.
         21   -1    0    0  501  502 -0.00000000000E+00 -0.00000000000E+00 -0.33404351817E+03  0.33404351817E+03  0.00000000000E+00 0.  1.
         25    1    1    2    0    0  0.85702210551E+02 -0.11051409998E+03  0.15824758630E+01  0.18757862196E+03  0.12500000000E+03 0.  0.
         25    1    1    2    0    0 -0.58271885900E+02  0.78433079055E+01 -0.12477583219E+03  0.18614816266E+03  0.12500000000E+03 0.  0.
         25    1    1    2    0    0 -0.27430324651E+02  0.10267079207E+03 -0.69505023552E+01  0.16421639302E+03  0.12500000000E+03 0.  0.
</event>
<event>
 5    0  0.5489207E-005  0.2948597E+03  0.7546771E-02  0.1087839E+00
         21   -1    0    0  502  501  0.00000000000E+00  0.00000000000E+00  0.21200455592E+03  0.21200455592E+03  0.00000000000E+00 0. -1.
         21   -1    0    0  501  502 -0.00000000000E+00 -0.00000000000E+00 -0.41009602827E+03  0.41009602827E+03  0.00000000000E+00 0. -1.
         25    1    1    2    0    0 -0.55368850236E+02 -0.15923566284E+02 -0.14999970784E+03  0.20357844162E+03  0.12500000000E+03 0.  0.
         25    1    1    2    0    0  0.68779809597E+02 -0.40894025345E+02  0.12718870109E+03  0.19546086361E+03  0.12500000000E+03 0.  0.
         25    1    1    2    0    0 -0.13410959361E+02  0.56817591629E+02 -0.17528046560E+03  0.22306127896E+03  0.12500000000E+03 0.  0.
</event>
<event>
 5    0  0.5489207E-005  0.4280454E+03  0.7546771E-02  0.1034479E+00
         21   -1    0    0  502  501  0.00000000000E+00  0.00000000000E+00  0.11370698229E+03  0.11370698229E+03  0.00000000000E+00 0. -1.
         21   -1    0    0  501  502 -0.00000000000E+00 -0.00000000000E+00 -0.16113600832E+04  0.16113600832E+04  0.00000000000E+00 0. -1.
         25    1    1    2    0    0  0.17073628614E+03  0.31531330289E+02 -0.22326891502E+03  0.30922340243E+03  0.12500000000E+03 0.  0.
         25    1    1    2    0    0 -0.16600937776E+03 -0.27409575827E+03 -0.70679578592E+03  0.78604890509E+03  0.12500000000E+03 0.  0.
         25    1    1    2    0    0 -0.47269083832E+01  0.24256442798E+03 -0.56758840000E+03  0.62979475800E+03  0.12500000000E+03 0.  0.
</event>
<event>
 5    0  0.5489207E-005  0.3630189E+03  0.7546771E-02  0.1057395E+00
         21   -1    0    0  502  501  0.00000000000E+00  0.00000000000E+00  0.52332873527E+03  0.52332873527E+03  0.00000000000E+00 0. -1.
         21   -1    0    0  501  502 -0.00000000000E+00 -0.00000000000E+00 -0.25181630083E+03  0.25181630083E+03  0.00000000000E+00 0. -1.
         25    1    1    2    0    0 -0.88786255169E+02 -0.38682928453E+01  0.11558445700E+03  0.19204876854E+03  0.12500000000E+03 0.  0.
         25    1    1    2    0    0 -0.56717905768E+02  0.16953927443E+03 -0.84314952380E+02  0.23386854770E+03  0.12500000000E+03 0.  0.
         25    1    1    2    0    0  0.14550416094E+03 -0.16567098159E+03  0.24024292982E+03  0.34922771986E+03  0.12500000000E+03 0.  0.
</event>
<event>
 5    0  0.5489207E-005  0.2419604E+03  0.7546771E-02  0.1118494E+00
         21   -1    0    0  502  501  0.00000000000E+00  0.00000000000E+00  0.41037622994E+03  0.41037622994E+03  0.00000000000E+00 0. -1.
         21   -1    0    0  501  502 -0.00000000000E+00 -0.00000000000E+00 -0.14266139906E+03  0.14266139906E+03  0.00000000000E+00 0. -1.
         25    1    1    2    0    0 -0.11457379171E+02 -0.31564130760E+01 -0.18057160657E+00  0.12556379688E+03  0.12500000000E+03 0.  0.
         25    1    1    2    0    0  0.39168162150E+02  0.69645753723E+02  0.23751343714E+03  0.28003983423E+03  0.12500000000E+03 0.  0.
         25    1    1    2    0    0 -0.27710782979E+02 -0.66489340647E+02  0.30381965355E+02  0.14743399788E+03  0.12500000000E+03 0.  0.
</event>
<event>
 5    0  0.5489207E-005  0.4590396E+03  0.7546771E-02  0.1025060E+00
         21   -1    0    0  502  501  0.00000000000E+00  0.00000000000E+00  0.99116771676E+03  0.99116771676E+03  0.00000000000E+00 0. -1.
         21   -1    0    0  501  502 -0.00000000000E+00 -0.00000000000E+00 -0.21259509474E+03  0.21259509474E+03  0.00000000000E+00 0. -1.
         25    1    1    2    0    0 -0.10279864910E+03  0.84917965792E+02  0.42677212822E+03  0.46426078081E+03  0.12500000000E+03 0.  0.
         25    1    1    2    0    0  0.13436668088E+03 -0.32768533848E+03  0.20130467125E+03  0.42612281874E+03  0.12500000000E+03 0.  0.
         25    1    1    2    0    0 -0.31568031777E+02  0.24276737269E+03  0.15049582256E+03  0.31337921195E+03  0.12500000000E+03 0.  0.
</event>
<event>
 5    0  0.5489207E-005  0.3326392E+03  0.7546771E-02  0.1069975E+00
         21   -1    0    0  502  501  0.00000000000E+00  0.00000000000E+00  0.16778291840E+03  0.16778291840E+03  0.00000000000E+00 0.  1.
         21   -1    0    0  501  502 -0.00000000000E+00 -0.00000000000E+00 -0.65947620079E+03  0.65947620079E+03  0.00000000000E+00 0.  1.
         25    1    1    2    0    0 -0.37673930584E+02  0.16854781340E+03 -0.32688737135E+03  0.39026663193E+03  0.12500000000E+03 0.  0.
         25    1    1    2    0    0 -0.72736655437E+02 -0.22891135745E+02 -0.15806065841E+03  0.21545950171E+03  0.12500000000E+03 0.  0.
         25    1    1    2    0    0  0.11041058602E+03 -0.14565667766E+03 -0.67452526259E+01  0.22153298555E+03  0.12500000000E+03 0.  0.
</event>
<event>
 5    0  0.5489207E-005  0.2886706E+03  0.7546771E-02  0.1091045E+00
         21   -1    0    0  502  501  0.00000000000E+00  0.00000000000E+00  0.10345412926E+04  0.10345412926E+04  0.00000000000E+00 0.  1.
         21   -1    0    0  501  502 -0.00000000000E+00 -0.00000000000E+00 -0.80548491047E+02  0.80548491047E+02  0.00000000000E+00 0.  1.
         25    1    1    2    0    0  0.80517963385E+02 -0.78880897850E+02  0.39481092971E+03  0.42919227473E+03  0.12500000000E+03 0.  0.
         25    1    1    2    0    0 -0.10570576580E+03 -0.93734538089E+01  0.80388185011E+02  0.18261662260E+03  0.12500000000E+03 0.  0.
         25    1    1    2    0    0  0.25187802419E+02  0.88254351659E+02  0.47879368683E+03  0.50328088631E+03  0.12500000000E+03 0.  0.
</event>
<event>
 5    0  0.5489207E-005  0.3408711E+03  0.7546771E-02  0.1066426E+00
         21   -1    0    0  502  501  0.00000000000E+00  0.00000000000E+00  0.55314425992E+02  0.55314425992E+02  0.00000000000E+00 0. -1.
         21   -1    0    0  501  502 -0.00000000000E+00 -0.00000000000E+00 -0.21005930931E+04  0.21005930931E+04  0.00000000000E+00 0. -1.
         25    1    1    2    0    0  0.23535575148E+03 -0.45301800893E+02 -0.77477420256E+03  0.82057580264E+03  0.12500000000E+03 0.  0.
         25    1    1    2    0    0 -0.53869450268E+02  0.10021547018E+03 -0.72494693522E+03  0.74439110488E+03  0.12500000000E+03 0.  0.
         25    1    1    2    0    0 -0.18148630121E+03 -0.54913669284E+02 -0.54555752928E+03  0.59094061153E+03  0.12500000000E+03 0.  0.
</event>
<event>
 5    0  0.5489207E-005  0.3665015E+03  0.7546771E-02  0.1056039E+00
         21   -1    0    0  502  501  0.00000000000E+00  0.00000000000E+00  0.39069833740E+03  0.39069833740E+03  0.00000000000E+00 0. -1.
         21   -1    0    0  501  502 -0.00000000000E+00 -0.00000000000E+00 -0.34380322965E+03  0.34380322965E+03  0.00000000000E+00 0. -1.
         25    1    1    2    0    0 -0.73580209511E+02 -0.14605177436E+03 -0.97347632065E+01  0.20607021531E+03  0.12500000000E+03 0.  0.
         25    1    1    2    0    0  0.45267987201E+01 -0.12788427045E+03 -0.73267432219E+02  0.19330803180E+03  0.12500000000E+03 0.  0.
         25    1    1    2    0    0  0.69053410790E+02  0.27393604481E+03  0.12989730318E+03  0.33512331993E+03  0.12500000000E+03 0.  0.
</event>
<event>
 5    0  0.5489207E-005  0.4186093E+03  0.7546771E-02  0.1037520E+00
         21   -1    0    0  502  501  0.00000000000E+00  0.00000000000E+00  0.10534209331E+03  0.10534209331E+03  0.00000000000E+00 0.  1.
         21   -1    0    0  501  502 -0.00000000000E+00 -0.00000000000E+00 -0.16634731516E+04  0.16634731516E+04  0.00000000000E+00 0.  1.
         25    1    1    2    0    0  0.11074363341E+02  0.92550288848E+02 -0.84408744573E+03  0.85836869324E+03  0.12500000000E+03 0.  0.
         25    1    1    2    0    0 -0.21745190767E+03 -0.12853200588E+03 -0.54528791158E+03  0.61381570133E+03  0.12500000000E+03 0.  0.
         25    1    1    2    0    0  0.20637754432E+03  0.35981717036E+02 -0.16875570097E+03  0.29663085034E+03  0.12500000000E+03 0.  0.
</event>
<event>
 5    0  0.6117853E-005  0.5620339E+03  0.7546771E-02  0.9987463E-01
         21   -1    0    0  502  501  0.00000000000E+00  0.00000000000E+00  0.87892228985E+03  0.87892228985E+03  0.00000000000E+00 0. -1.
         21   -1    0    0  501  502 -0.00000000000E+00 -0.00000000000E+00 -0.35939705205E+03  0.35939705205E+03  0.00000000000E+00 0. -1.
         25    1    1    2    0    0  0.20676089357E+03 -0.30362046991E+03  0.49622857606E+03  0.62992321481E+03  0.12500000000E+03 0.  0.
         25    1    1    2    0    0  0.25454933634E+02  0.68451912558E+02 -0.15544071510E+03  0.21241571008E+03  0.12500000000E+03 0.  0.
         25    1    1    2    0    0 -0.23221582721E+03  0.23516855735E+03  0.17873737684E+03  0.39598041701E+03  0.12500000000E+03 0.  0.
</event>
<event>
 5    0  0.5489207E-005  0.3359316E+03  0.7546771E-02  0.1068542E+00
         21   -1    0    0  502  501  0.00000000000E+00  0.00000000000E+00  0.23511483621E+03  0.23511483621E+03  0.00000000000E+00 0.  1.
         21   -1    0    0  501  502 -0.00000000000E+00 -0.00000000000E+00 -0.47997850827E+03  0.47997850827E+03  0.00000000000E+00 0.  1.
         25    1    1    2    0    0  0.39270712944E+02  0.10562546352E+03  0.11355818818E+03  0.20302558839E+03  0.12500000000E+03 0.  0.
         25    1    1    2    0    0 -0.83166387762E+02  0.48966974350E+02 -0.11870728156E+03  0.19756222140E+03  0.12500000000E+03 0.  0.
         25    1    1    2    0    0  0.43895674818E+02 -0.15459243787E+03 -0.23971457868E+03  0.31450553468E+03  0.12500000000E+03 0.  0.
</event>
<event>
 5    0  0.5489207E-005  0.3309777E+03  0.7546771E-02  0.1070705E+00
         21   -1    0    0  502  501  0.00000000000E+00  0.00000000000E+00  0.51755979396E+03  0.51755979396E+03  0.00000000000E+00 0.  1.
         21   -1    0    0  501  502 -0.00000000000E+00 -0.00000000000E+00 -0.21165909680E+03  0.21165909680E+03  0.00000000000E+00 0.  1.
         25    1    1    2    0    0 -0.14916583700E+03 -0.10824636986E+03 -0.77342716028E+01  0.22282850462E+03  0.12500000000E+03 0.  0.
         25    1    1    2    0    0  0.96409674107E+02  0.84276626802E+02  0.32197354876E+03  0.36836034150E+03  0.12500000000E+03 0.  0.
         25    1    1    2    0    0  0.52756162894E+02  0.23969743055E+02 -0.83385799977E+01  0.13803004463E+03  0.12500000000E+03 0.  0.
</event>
<event>
 5    0  0.5489207E-005  0.3124069E+03  0.7546771E-02  0.1079198E+00
         21   -1    0    0  502  501  0.00000000000E+00  0.00000000000E+00  0.41768573561E+03  0.41768573561E+03  0.00000000000E+00 0.  1.
         21   -1    0    0  501  502 -0.00000000000E+00 -0.00000000000E+00 -0.23366392741E+03  0.23366392741E+03  0.00000000000E+00 0.  1.
         25    1    1    2    0    0 -0.15030167163E+02 -0.18709725806E+03  0.11354332943E+03  0.25248441052E+03  0.12500000000E+03 0.  0.
         25    1    1    2    0    0  0.10193219419E+03  0.15160903874E+03 -0.12827375687E+02  0.22173185249E+03  0.12500000000E+03 0.  0.
         25    1    1    2    0    0 -0.86902027032E+02  0.35488219318E+02  0.83305854450E+02  0.17713340001E+03  0.12500000000E+03 0.  0.
</event>
<event>
 5    0  0.5489207E-005  0.3288607E+03  0.7546771E-02  0.1071642E+00
         21   -1    0    0  502  501  0.00000000000E+00  0.00000000000E+00  0.83003260126E+03  0.83003260126E+03  0.00000000000E+00 0.  1.
         21   -1    0    0  501  502 -0.00000000000E+00 -0.00000000000E+00 -0.13029535446E+03  0.13029535446E+03  0.00000000000E+00 0.  1.
         25    1    1    2    0    0 -0.15317536496E+03  0.59423876779E+02  0.46525853224E+03  0.50900333140E+03  0.12500000000E+03 0.  0.
         25    1    1    2    0    0  0.19191432605E+03 -0.50213289296E+02  0.77950968565E+02  0.24709074541E+03  0.12500000000E+03 0.  0.
         25    1    1    2    0    0 -0.38738961092E+02 -0.92105874827E+01  0.15652774600E+03  0.20423387892E+03  0.12500000000E+03 0.  0.
</event>
<event>
 5    0  0.5489207E-005  0.2326595E+03  0.7546771E-02  0.1124782E+00
         21   -1    0    0  502  501  0.00000000000E+00  0.00000000000E+00  0.11229075648E+03  0.11229075648E+03  0.00000000000E+00 0.  1.
         21   -1    0    0  501  502 -0.00000000000E+00 -0.00000000000E+00 -0.48205610761E+03  0.48205610761E+03  0.00000000000E+00 0.  1.
         25    1    1    2    0    0  0.19611489596E+02  0.86051275762E+02 -0.74969245857E+02  0.17039606923E+03  0.12500000000E+03 0.  0.
         25    1    1    2    0    0  0.51565717770E+02 -0.69516044201E+02 -0.10303072976E+03  0.18366228498E+03  0.12500000000E+03 0.  0.
         25    1    1    2    0    0 -0.71177207366E+02 -0.16535231560E+02 -0.19176537552E+03  0.24028850988E+03  0.12500000000E+03 0.  0.
</event>
<event>
 5    0  0.5489207E-005  0.2739210E+03  0.7546771E-02  0.1099056E+00
         21   -1    0    0  502  501  0.00000000000E+00  0.00000000000E+00  0.26680339700E+04  0.26680339700E+04  0.00000000000E+00 0.  1.
         21   -1    0    0  501  502 -0.00000000000E+00 -0.00000000000E+00 -0.28122849765E+02  0.28122849765E+02  0.00000000000E+00 0.  1.
         25    1    1    2    0    0 -0.35348653558E+02 -0.10947658624E+03  0.60962920985E+03  0.63285655859E+03  0.12500000000E+03 0.  0.
         25    1    1    2    0    0 -0.34242387028E+02 -0.35808115698E+02  0.44245926002E+03  0.46243914086E+03  0.12500000000E+03 0.  0.
         25    1    1    2    0    0  0.69591040586E+02  0.14528470194E+03  0.15878226504E+04  0.16008611203E+04  0.12500000000E+03 0.  0.
</event>
<event>
 5    0  0.5489207E-005  0.2619821E+03  0.7546771E-02  0.1105958E+00
         21   -1    0    0  502  501  0.00000000000E+00  0.00000000000E+00  0.10908763588E+04  0.10908763588E+04  0.00000000000E+00 0.  1.
         21   -1    0    0  501  502 -0.00000000000E+00 -0.00000000000E+00 -0.62916942429E+02  0.62916942429E+02  0.00000000000E+00 0.  1.
         25    1    1    2    0    0 -0.20091974304E+02 -0.99209411788E+02  0.29104339382E+03  0.33253188104E+03  0.12500000000E+03 0.  0.
         25    1    1    2    0    0  0.59620714321E+02 -0.49326553392E+02  0.44342944158E+03  0.46716421963E+03  0.12500000000E+03 0.  0.
         25    1    1    2    0    0 -0.39528740016E+02  0.14853596518E+03  0.29348658101E+03  0.35409720060E+03  0.12500000000E+03 0.  0.
</event>
<event>
 5    0  0.5489207E-005  0.3779072E+03  0.7546771E-02  0.1051710E+00
         21   -1    0    0  502  501  0.00000000000E+00  0.00000000000E+00  0.15471123854E+04  0.15471123854E+04  0.00000000000E+00 0.  1.
         21   -1    0    0  501  502 -0.00000000000E+00 -0.00000000000E+00 -0.92309948462E+02  0.92309948462E+02  0.00000000000E+00 0.  1.
         25    1    1    2    0    0  0.46849787822E+02  0.37247177112E+02  0.28501454879E+03  0.31692356782E+03  0.12500000000E+03 0.  0.
         25    1    1    2    0    0  0.23874038096E+03 -0.10422327965E+03  0.67014534276E+03  0.72978026964E+03  0.12500000000E+03 0.  0.
         25    1    1    2    0    0 -0.28559016878E+03  0.66976102539E+02  0.49964254538E+03  0.59271849640E+03  0.12500000000E+03 0.  0.
</event>
<event>
 5    0  0.5489207E-005  0.3233405E+03  0.7546771E-02  0.1074122E+00
         21   -1    0    0  502  501  0.00000000000E+00  0.00000000000E+00  0.29202847631E+04  0.29202847631E+04  0.00000000000E+00 0.  1.
         21   -1    0    0  501  502 -0.00000000000E+00 -0.00000000000E+00 -0.35800988255E+02  0.35800988255E+02  0.00000000000E+00 0.  1.
         25    1    1    2    0    0 -0.26708785845E+02 -0.23728728219E+03  0.14972143792E+04  0.15212805497E+04  0.12500000000E+03 0.  0.
         25    1    1    2    0    0  0.29996742796E+02  0.10351816459E+03  0.88360602772E+03  0.89888843980E+03  0.12500000000E+03 0.  0.
         25    1    1    2    0    0 -0.32879569509E+01  0.13376911759E+03  0.50366336797E+03  0.53591676192E+03  0.12500000000E+03 0.  0.
</event>
<event>
 5    0  0.5489207E-005  0.2727303E+03  0.7546771E-02  0.1099727E+00
         21   -1    0    0  502  501  0.00000000000E+00  0.00000000000E+00  0.69097398954E+02  0.69097398954E+02  0.00000000000E+00 0. -1.
         21   -1    0    0  501  502 -0.00000000000E+00 -0.00000000000E+00 -0.10764776587E+04  0.10764776587E+04  0.00000000000E+00 0. -1.
         25    1    1    2    0    0  0.14706319737E+03  0.47210208392E+02 -0.19513766988E+03  0.27849613642E+03  0.12500000000E+03 0.  0.
         25    1    1    2    0    0 -0.95115902028E+02 -0.25540831962E+01 -0.49389674519E+03  0.51827845129E+03  0.12500000000E+03 0.  0.
         25    1    1    2    0    0 -0.51947295344E+02 -0.44656125196E+02 -0.31834584472E+03  0.34880046999E+03  0.12500000000E+03 0.  0.
</event>
<event>
 5    0  0.5489207E-005  0.2178458E+03  0.7546771E-02  0.1135499E+00
         21   -1    0    0  502  501  0.00000000000E+00  0.00000000000E+00  0.36317680930E+03  0.36317680930E+03  0.00000000000E+00 0. -1.
         21   -1    0    0  501  502 -0.00000000000E+00 -0.00000000000E+00 -0.13067132385E+03  0.13067132385E+03  0.00000000000E+00 0. -1.
         25    1    1    2    0    0 -0.16135971192E+02 -0.21015132008E+02  0.14284926306E+03  0.19165833479E+03  0.12500000000E+03 0.  0.
         25    1    1    2    0    0  0.12364666334E+02  0.40257807997E+02 -0.21652925045E+02  0.13366908858E+03  0.12500000000E+03 0.  0.
         25    1    1    2    0    0  0.37713048580E+01 -0.19242675988E+02  0.11130914744E+03  0.16852070978E+03  0.12500000000E+03 0.  0.
</event>
<event>
 5    0  0.5489207E-005  0.2652962E+03  0.7546771E-02  0.1104002E+00
         21   -1    0    0  502  501  0.00000000000E+00  0.00000000000E+00  0.18029729018E+03  0.18029729018E+03  0.00000000000E+00 0. -1.
         21   -1    0    0  501  502 -0.00000000000E+00 -0.00000000000E+00 -0.39036692877E+03  0.39036692877E+03  0.00000000000E+00 0. -1.
         25    1    1    2    0    0 -0.96531042868E+02 -0.17945686745E+02 -0.56042248222E+02  0.16854086595E+03  0.12500000000E+03 0.  0.
         25    1    1    2    0    0  0.76335819904E+01  0.13000148786E+03 -0.60417898759E+02  0.19035225481E+03  0.12500000000E+03 0.  0.
         25    1    1    2    0    0  0.88897460877E+02 -0.11205580111E+03 -0.93609491609E+02  0.21177109820E+03  0.12500000000E+03 0.  0.
</event>
<event>
 5    0  0.5489207E-005  0.4202159E+03  0.7546771E-02  0.1036996E+00
         21   -1    0    0  502  501  0.00000000000E+00  0.00000000000E+00  0.34327259446E+04  0.34327259446E+04  0.00000000000E+00 0. -1.
         21   -1    0    0  501  502 -0.00000000000E+00 -0.00000000000E+00 -0.51440577531E+02  0.51440577531E+02  0.00000000000E+00 0. -1.
         25    1    1    2    0    0  0.60160888230E+02  0.57046046511E+02  0.14949337404E+03  0.21177075524E+03  0.12500000000E+03 0.  0.
         25    1    1    2    0    0 -0.22042648261E+03  0.79592249759E+02  0.14932273535E+04  0.15166659783E+04  0.12500000000E+03 0.  0.
         25    1    1    2    0    0  0.16026559438E+03 -0.13663829627E+03  0.17385646395E+04  0.17557297886E+04  0.12500000000E+03 0.  0.
</event>
<event>
 5    0  0.5489207E-005  0.2591824E+03  0.7546771E-02  0.1107635E+00
         21   -1    0    0  502  501  0.00000000000E+00  0.00000000000E+00  0.56506753452E+03  0.56506753452E+03  0.00000000000E+00 0. -1.
         21   -1    0    0  501  502 -0.00000000000E+00 -0.00000000000E+00 -0.11888051470E+03  0.11888051470E+03  0.00000000000E+00 0. -1.
         25    1    1    2    0    0 -0.36284818183E+01 -0.76220355489E+02  0.55102841977E+01  0.14655398904E+03  0.12500000000E+03 0.  0.
         25    1    1    2    0    0 -0.23328463436E+02  0.37699679098E+02  0.35438832157E+03  0.37839340042E+03  0.12500000000E+03 0.  0.
         25    1    1    2    0    0  0.26956945254E+02  0.38520676391E+02  0.86288414048E+02  0.15900065977E+03  0.12500000000E+03 0.  0.
</event>
<event>
 5    0  0.5489207E-005  0.3334507E+03  0.7546771E-02  0.1069620E+00
         21   -1    0    0  502  501  0.00000000000E+00  0.00000000000E+00  0.47435707379E+03  0.47435707379E+03  0.00000000000E+00 0.  1.
         21   -1    0    0  501  502 -0.00000000000E+00 -0.00000000000E+00 -0.23440013230E+03  0.23440013230E+03  0.00000000000E+00 0.  1.
         25    1    1    2    0    0 -0.90280016531E+02  0.48005184521E+02  0.90285414222E+02  0.18501739147E+03  0.12500000000E+03 0.  0.
         25    1    1    2    0    0  0.57995328414E+02 -0.23346005938E+03  0.11762388490E+03  0.29551215837E+03  0.12500000000E+03 0.  0.
         25    1    1    2    0    0  0.32284688117E+02  0.18545487486E+03  0.32047642381E+02  0.22822765625E+03  0.12500000000E+03 0.  0.
</event>
<event>
 5    0  0.5489207E-005  0.2408623E+03  0.7546771E-02  0.1119220E+00
         21   -1    0    0  502  501  0.00000000000E+00  0.00000000000E+00  0.14283654616E+03  0.14283654616E+03  0.00000000000E+00 0.  1.
         21   -1    0    0  501  502 -0.00000000000E+00 -0.00000000000E+00 -0.40616124633E+03  0.40616124633E+03  0.00000000000E+00 0.  1.
         25    1    1    2    0    0 -0.85502689763E+02 -0.16753576875E+02 -0.11471423070E+03  0.19072426962E+03  0.12500000000E+03 0.  0.
         25    1    1    2    0    0  0.39446447621E+02 -0.64226500823E+02 -0.13982113371E+03  0.20212870917E+03  0.12500000000E+03 0.  0.
         25    1    1    2    0    0  0.46056242143E+02  0.80980077698E+02 -0.87893357554E+01  0.15614481371E+03  0.12500000000E+03 0.  0.
</event>
<event>
 5    0  0.5489207E-005  0.2274348E+03  0.7546771E-02  0.1128458E+00
         21   -1    0    0  502  501  0.00000000000E+00  0.00000000000E+00  0.45200861778E+02  0.45200861778E+02  0.00000000000E+00 0.  1.
         21   -1    0    0  501  502 -0.00000000000E+00 -0.00000000000E+00 -0.11443719430E+04  0.11443719430E+04  0.00000000000E+00 0.  1.
         25    1    1    2    0    0  0.26920307221E+02 -0.14482361237E+02 -0.15005548779E+03  0.19767673395E+03  0.12500000000E+03 0.  0.
         25    1    1    2    0    0  0.33789542330E+02 -0.35341918491E+02 -0.55611088914E+03  0.57207963204E+03  0.12500000000E+03 0.  0.
         25    1    1    2    0    0 -0.60709849551E+02  0.49824279728E+02 -0.39300470425E+03  0.41981643875E+03  0.12500000000E+03 0.  0.
</event>
<event>
 5    0  0.5489207E-005  0.3136154E+03  0.7546771E-02  0.1078626E+00
         21   -1    0    0  502  501  0.00000000000E+00  0.00000000000E+00  0.35300435407E+03  0.35300435407E+03  0.00000000000E+00 0. -1.
         21   -1    0    0  501  502 -0.00000000000E+00 -0.00000000000E+00 -0.27862154128E+03  0.27862154128E+03  0.00000000000E+00 0. -1.
         25    1    1    2    0    0  0.10298205191E+03  0.15373801163E+03  0.11110320139E+03  0.24941852497E+03  0.12500000000E+03 0.  0.
         25    1    1    2    0    0  0.35776228216E+02 -0.56935055248E+02 -0.86263091394E+02  0.16609593601E+03  0.12500000000E+03 0.  0.
         25    1    1    2    0    0 -0.13875828013E+03 -0.96802956384E+02  0.49542702791E+02  0.21611143438E+03  0.12500000000E+03 0.  0.
</event>
<event>
 5    0  0.5489207E-005  0.2433698E+03  0.7546771E-02  0.1117568E+00
         21   -1    0    0  502  501  0.00000000000E+00  0.00000000000E+00  0.11430974866E+04  0.11430974866E+04  0.00000000000E+00 0. -1.
         21   -1    0    0  501  502 -0.00000000000E+00 -0.00000000000E+00 -0.51814344483E+02  0.51814344483E+02  0.00000000000E+00 0. -1.
         25    1    1    2    0    0  0.76440107142E+02 -0.22988657063E+02  0.24465475361E+03  0.28609878853E+03  0.12500000000E+03 0.  0.
         25    1    1    2    0    0 -0.12125802200E+03 -0.42511308352E+02  0.52438434048E+03  0.55417926322E+03  0.12500000000E+03 0.  0.
         25    1    1    2    0    0  0.44817914855E+02  0.65499965416E+02  0.32224404804E+03  0.35463377935E+03  0.12500000000E+03 0.  0.
</event>
<event>
 5    0  0.5489207E-005  0.2778683E+03  0.7546771E-02  0.1096859E+00
         21   -1    0    0  502  501  0.00000000000E+00  0.00000000000E+00  0.70142220745E+02  0.70142220745E+02  0.00000000000E+00 0.  1.
         21   -1    0    0  501  502 -0.00000000000E+00 -0.00000000000E+00 -0.11007746446E+04  0.11007746446E+04  0.00000000000E+00 0.  1.
         25    1    1    2    0    0  0.11042308364E+03  0.38203868267E+02 -0.26760967043E+03  0.31763615767E+03  0.12500000000E+03 0.  0.
         25    1    1    2    0    0  0.67049950306E+02 -0.10316676361E+02 -0.44540231052E+03  0.46755785510E+03  0.12500000000E+03 0.  0.
         25    1    1    2    0    0 -0.17747303394E+03 -0.27887191906E+02 -0.31762044291E+03  0.38572285258E+03  0.12500000000E+03 0.  0.
</event>
<event>
 5    0  0.5489207E-005  0.2319727E+03  0.7546771E-02  0.1125259E+00
         21   -1    0    0  502  501  0.00000000000E+00  0.00000000000E+00  0.13368416367E+03  0.13368416367E+03  0.00000000000E+00 0.  1.
         21   -1    0    0  501  502 -0.00000000000E+00 -0.00000000000E+00 -0.40252581669E+03  0.40252581669E+03  0.00000000000E+00 0.  1.
         25    1    1    2    0    0  0.79865764757E+02  0.96232676932E+02 -0.78873270085E+02  0.19361110821E+03  0.12500000000E+03 0.  0.
         25    1    1    2    0    0 -0.60117958766E+02 -0.53068217004E+02 -0.75581606117E+02  0.16663728216E+03  0.12500000000E+03 0.  0.
         25    1    1    2    0    0 -0.19747805990E+02 -0.43164459928E+02 -0.11438677681E+03  0.17596158999E+03  0.12500000000E+03 0.  0.
</event>
<event>
 5    0  0.5489207E-005  0.2466981E+03  0.7546771E-02  0.1115409E+00
         21   -1    0    0  502  501  0.00000000000E+00  0.00000000000E+00  0.90016375628E+03  0.90016375628E+03  0.00000000000E+00 0. -1.
         21   -1    0    0  501  502 -0.00000000000E+00 -0.00000000000E+00 -0.67609889442E+02  0.67609889442E+02  0.00000000000E+00 0. -1.
         25    1    1    2    0    0  0.26091150023E+02 -0.53581244340E+02  0.21971035851E+03  0.25971010664E+03  0.12500000000E+03 0.  0.
         25    1    1    2    0    0 -0.11412936096E+03  0.17420217468E+02  0.18050950283E+03  0.24806784479E+03  0.12500000000E+03 0.  0.
         25    1    1    2    0    0  0.88038210940E+02  0.36161026872E+02  0.43233400550E+03  0.45999569429E+03  0.12500000000E+03 0.  0.
</event>
<event>
 5    0  0.5489207E-005  0.5410791E+03  0.7546771E-02  0.1003580E+00
         21   -1    0    0  502  501  0.00000000000E+00  0.00000000000E+00  0.11626224779E+04  0.11626224779E+04  0.00000000000E+00 0.  1.
         21   -1    0    0  501  502 -0.00000000000E+00 -0.00000000000E+00 -0.25181570155E+03  0.25181570155E+03  0.00000000000E+00 0.  1.
         25    1    1    2    0    0  0.34050535629E+03 -0.20164281010E+03  0.23084204409E+03  0.47488605986E+03  0.12500000000E+03 0.  0.
         25    1    1    2    0    0 -0.21796367262E+03  0.85383149583E+02  0.43019688968E+02  0.26883849883E+03  0.12500000000E+03 0.  0.
         25    1    1    2    0    0 -0.12254168367E+03  0.11625966051E+03  0.63694504328E+03  0.67071362075E+03  0.12500000000E+03 0.  0.
</event>
<event>
 5    0  0.5489207E-005  0.2597298E+03  0.7546771E-02  0.1107306E+00
         21   -1    0    0  502  501  0.00000000000E+00  0.00000000000E+00  0.10120604093E+04  0.10120604093E+04  0.00000000000E+00 0. -1.
         21   -1    0    0  501  502 -0.00000000000E+00 -0.00000000000E+00 -0.66655682101E+02  0.66655682101E+02  0.00000000000E+00 0. -1.
         25    1    1    2    0    0  0.34010165846E+02 -0.11218817190E+03  0.35938557107E+03  0.39815306854E+03  0.12500000000E+03 0.  0.
         25    1    1    2    0    0  0.15608842576E+02 -0.11753459119E+02  0.40068107890E+03  0.42018104045E+03  0.12500000000E+03 0.  0.
         25    1    1    2    0    0 -0.49619008421E+02  0.12394163101E+03  0.18533807725E+03  0.26038198243E+03  0.12500000000E+03 0.  0.
</event>
<event>
 5    0  0.5489207E-005  0.2265729E+03  0.7546771E-02  0.1129075E+00
         21   -1    0    0  502  501  0.00000000000E+00  0.00000000000E+00  0.10460605170E+03  0.10460605170E+03  0.00000000000E+00 0. -1.
         21   -1    0    0  501  502 -0.00000000000E+00 -0.00000000000E+00 -0.49074851347E+03  0.49074851347E+03  0.00000000000E+00 0. -1.
         25    1    1    2    0    0  0.36241265021E+02  0.29772663357E+02 -0.26845944594E+03  0.29982547405E+03  0.12500000000E+03 0.  0.
         25    1    1    2    0    0  0.14998412578E+02 -0.66358959651E+01 -0.21023085601E+02  0.12781219669E+03  0.12500000000E+03 0.  0.
         25    1    1    2    0    0 -0.51239677599E+02 -0.23136767391E+02 -0.96659930218E+02  0.16771689442E+03  0.12500000000E+03 0.  0.
</event>
<event>
 5    0  0.6050166E-005  0.2553929E+03  0.7546771E-02  0.1109943E+00
         21   -1    0    0  502  501  0.00000000000E+00  0.00000000000E+00  0.38106916750E+03  0.38106916750E+03  0.00000000000E+00 0.  1.
         21   -1    0    0  501  502 -0.00000000000E+00 -0.00000000000E+00 -0.17116454847E+03  0.17116454847E+03  0.00000000000E+00 0.  1.
         25    1    1    2    0    0 -0.41519795459E+02  0.20530939840E+02  0.11947432171E+03  0.17900985016E+03  0.12500000000E+03 0.  0.
         25    1    1    2    0    0  0.13877852407E+03  0.19083973903E+02  0.24391320243E+01  0.18776215318E+03  0.12500000000E+03 0.  0.
         25    1    1    2    0    0 -0.97258728607E+02 -0.39614913744E+02  0.87991165290E+02  0.18546171263E+03  0.12500000000E+03 0.  0.
</event>
<event>
 5    0  0.5489207E-005  0.2446898E+03  0.7546771E-02  0.1116707E+00
         21   -1    0    0  502  501  0.00000000000E+00  0.00000000000E+00  0.12549973581E+03  0.12549973581E+03  0.00000000000E+00 0. -1.
         21   -1    0    0  501  502 -0.00000000000E+00 -0.00000000000E+00 -0.47707733660E+03  0.47707733660E+03  0.00000000000E+00 0. -1.
         25    1    1    2    0    0 -0.12391132018E+03 -0.24948313374E+02 -0.41413444900E+02  0.18252809928E+03  0.12500000000E+03 0.  0.
         25    1    1    2    0    0  0.70107239920E+02  0.27889329753E+02 -0.14166384520E+03  0.20343668509E+03  0.12500000000E+03 0.  0.
         25    1    1    2    0    0  0.53804080256E+02 -0.29410163790E+01 -0.16850031069E+03  0.21661228804E+03  0.12500000000E+03 0.  0.
</event>
<event>
 5    0  0.5489207E-005  0.2865121E+03  0.7546771E-02  0.1092184E+00
         21   -1    0    0  502  501  0.00000000000E+00  0.00000000000E+00  0.17360920743E+04  0.17360920743E+04  0.00000000000E+00 0.  1.
         21   -1    0    0  501  502 -0.00000000000E+00 -0.00000000000E+00 -0.47283886855E+02  0.47283886855E+02  0.00000000000E+00 0.  1.
         25    1    1    2    0    0  0.45543418240E+02 -0.11453542044E+02  0.50172028555E+03  0.51918554632E+03  0.12500000000E+03 0.  0.
         25    1    1    2    0    0 -0.52162062397E+02  0.68367038973E+02  0.13479774662E+03  0.20295409645E+03  0.12500000000E+03 0.  0.
         25    1    1    2    0    0  0.66186441577E+01 -0.56913496929E+02  0.10522901552E+04  0.10612363183E+04  0.12500000000E+03 0.  0.
</event>
<event>
 5    0  0.5489207E-005  0.4078183E+03  0.7546771E-02  0.1041106E+00
         21   -1    0    0  502  501  0.00000000000E+00  0.00000000000E+00  0.80970010872E+03  0.80970010872E+03  0.00000000000E+00 0.  1.
         21   -1    0    0  501  502 -0.00000000000E+00 -0.00000000000E+00 -0.20540411657E+03  0.20540411657E+03  0.00000000000E+00 0.  1.
         25    1    1    2    0    0 -0.29266702065E+03  0.40812720037E+02  0.34325350993E+03  0.46985916525E+03  0.12500000000E+03 0.  0.
         25    1    1    2    0    0  0.63925260461E+02 -0.14079759935E+03  0.12290113333E+03  0.23375220102E+03  0.12500000000E+03 0.  0.
         25    1    1    2    0    0  0.22874176019E+03  0.99984879314E+02  0.13814134888E+03  0.31149285901E+03  0.12500000000E+03 0.  0.
</event>
<event>
 5    0  0.5489207E-005  0.2695853E+03  0.7546771E-02  0.1101517E+00
         21   -1    0    0  502  501  0.00000000000E+00  0.00000000000E+00  0.48196803060E+02  0.48196803060E+02  0.00000000000E+00 0. -1.
         21   -1    0    0  501  502 -0.00000000000E+00 -0.00000000000E+00 -0.15079060313E+04  0.15079060313E+04  0.00000000000E+00 0. -1.
         25    1    1    2    0    0 -0.59976482620E+02  0.14000388962E+02 -0.26802150295E+03  0.30208229906E+03  0.12500000000E+03 0.  0.
         25    1    1    2    0    0  0.96002071904E+02  0.11553788040E+03 -0.46279635635E+03  0.50236527255E+03  0.12500000000E+03 0.  0.
         25    1    1    2    0    0 -0.36025589284E+02 -0.12953826936E+03 -0.72889136898E+03  0.75165526279E+03  0.12500000000E+03 0.  0.
</event>
<event>
 5    0  0.5489207E-005  0.3178952E+03  0.7546771E-02  0.1076622E+00
         21   -1    0    0  502  501  0.00000000000E+00  0.00000000000E+00  0.28934369934E+03  0.28934369934E+03  0.00000000000E+00 0.  1.
         21   -1    0    0  501  502 -0.00000000000E+00 -0.00000000000E+00 -0.34926414598E+03  0.34926414598E+03  0.00000000000E+00 0.  1.
         25    1    1    2    0    0  0.80295662803E+02  0.47049305739E+01 -0.16036819787E+03  0.21866067028E+03  0.12500000000E+03 0.  0.
         25    1    1    2    0    0 -0.31258372087E+02  0.65333607871E+02 -0.94842589567E+02  0.17281690582E+03  0.12500000000E+03 0.  0.
         25    1    1    2    0    0 -0.49037290716E+02 -0.70038538445E+02  0.19529034080E+03  0.24713026921E+03  0.12500000000E+03 0.  0.
</event>
<event>
 5    0  0.5489207E-005  0.2685175E+03  0.7546771E-02  0.1102131E+00
         21   -1    0    0  502  501  0.00000000000E+00  0.00000000000E+00  0.11332830581E+03  0.11332830581E+03  0.00000000000E+00 0.  1.
         21   -1    0    0  501  502 -0.00000000000E+00 -0.00000000000E+00 -0.63621922466E+03  0.63621922466E+03  0.00000000000E+00 0.  1.
         25    1    1    2    0    0 -0.93165792627E+02 -0.21863992690E+02 -0.10116334163E+03  0.18712808656E+03  0.12500000000E+03 0.  0.
         25    1    1    2    0    0  0.83711590264E+02  0.54943513163E+02 -0.48542607520E+02  0.16735532477E+03  0.12500000000E+03 0.  0.
         25    1    1    2    0    0  0.94542023626E+01 -0.33079520473E+02 -0.37318496971E+03  0.39506411914E+03  0.12500000000E+03 0.  0.
</event>
<event>
 5    0  0.5489207E-005  0.2319278E+03  0.7546771E-02  0.1125290E+00
         21   -1    0    0  502  501  0.00000000000E+00  0.00000000000E+00  0.16746261376E+03  0.16746261376E+03  0.00000000000E+00 0. -1.
         21   -1    0    0  501  502 -0.00000000000E+00 -0.00000000000E+00 -0.32120905957E+03  0.32120905957E+03  0.00000000000E+00 0. -1.
         25    1    1    2    0    0 -0.31159782608E+02  0.33652399400E+02 -0.13598922964E+01  0.13315504251E+03  0.12500000000E+03 0.  0.
         25    1    1    2    0    0 -0.33751406117E+02  0.16844713548E+02  0.14505327219E+02  0.13137087313E+03  0.12500000000E+03 0.  0.
         25    1    1    2    0    0  0.64911188725E+02 -0.50497112948E+02 -0.16689188074E+03  0.22414575770E+03  0.12500000000E+03 0.  0.
</event>
<event>
 5    0  0.5489207E-005  0.3403251E+03  0.7546771E-02  0.1066658E+00
         21   -1    0    0  502  501  0.00000000000E+00  0.00000000000E+00  0.40140737517E+03  0.40140737517E+03  0.00000000000E+00 0.  1.
         21   -1    0    0  501  502 -0.00000000000E+00 -0.00000000000E+00 -0.28853765071E+03  0.28853765071E+03  0.00000000000E+00 0.  1.
         25    1    1    2    0    0 -0.79552415624E+02 -0.12790521068E+03 -0.99943700599E+02  0.21977732604E+03  0.12500000000E+03 0.  0.
         25    1    1    2    0    0  0.18072479029E+03  0.63470176811E+02  0.18611828106E+03  0.29488120950E+03  0.12500000000E+03 0.  0.
         25    1    1    2    0    0 -0.10117237467E+03  0.64435033865E+02  0.26695143998E+02  0.17528649035E+03  0.12500000000E+03 0.  0.
</event>
<event>
 5    0  0.5489207E-005  0.6712968E+03  0.7546771E-02  0.9767618E-01
         21   -1    0    0  502  501  0.00000000000E+00  0.00000000000E+00  0.13491473072E+03  0.13491473072E+03  0.00000000000E+00 0.  1.
         21   -1    0    0  501  502 -0.00000000000E+00 -0.00000000000E+00 -0.33401796036E+04  0.33401796036E+04  0.00000000000E+00 0.  1.
         25    1    1    2    0    0 -0.86582383043E+02 -0.17720727480E+03 -0.60694785782E+03  0.65031502321E+03  0.12500000000E+03 0.  0.
         25    1    1    2    0    0 -0.11056434017E+03 -0.42083120599E+03 -0.86331488683E+03  0.97481330063E+03  0.12500000000E+03 0.  0.
         25    1    1    2    0    0  0.19714672321E+03  0.59803848079E+03 -0.17350021282E+04  0.18499660105E+04  0.12500000000E+03 0.  0.
</event>
<event>
 5    0  0.5532473E-005  0.3106552E+03  0.7546771E-02  0.1080032E+00
         21   -1    0    0  502  501  0.00000000000E+00  0.00000000000E+00  0.41419334487E+03  0.41419334487E+03  0.00000000000E+00 0.  1.
         21   -1    0    0  501  502 -0.00000000000E+00 -0.00000000000E+00 -0.23299899239E+03  0.23299899239E+03  0.00000000000E+00 0.  1.
         25    1    1    2    0    0  0.12552134152E+02 -0.12349258270E+03  0.24629881181E+02  0.17787525151E+03  0.12500000000E+03 0.  0.
         25    1    1    2    0    0 -0.11515211659E+03 -0.75120976256E+02  0.54942129504E+02  0.19376998896E+03  0.12500000000E+03 0.  0.
         25    1    1    2    0    0  0.10259998244E+03  0.19861355895E+03  0.10162234179E+03  0.27554709679E+03  0.12500000000E+03 0.  0.
</event>
<event>
 5    0  0.5489207E-005  0.3375659E+03  0.7546771E-02  0.1067837E+00
         21   -1    0    0  502  501  0.00000000000E+00  0.00000000000E+00  0.11128923844E+04  0.11128923844E+04  0.00000000000E+00 0. -1.
         21   -1    0    0  501  502 -0.00000000000E+00 -0.00000000000E+00 -0.10239149614E+03  0.10239149614E+03  0.00000000000E+00 0. -1.
         25    1    1    2    0    0 -0.21619037545E+02  0.37461002992E+02  0.36840795912E+03  0.39143343479E+03  0.12500000000E+03 0.  0.
         25    1    1    2    0    0 -0.55165203289E+01  0.14536976326E+03  0.54995636272E+03  0.58244295941E+03  0.12500000000E+03 0.  0.
         25    1    1    2    0    0  0.27135557874E+02 -0.18283076625E+03  0.92136566418E+02  0.24140748634E+03  0.12500000000E+03 0.  0.
</event>
<event>
 5    0  0.5669682E-005  0.2840237E+03  0.7546771E-02  0.1093511E+00
         21   -1    0    0  502  501  0.00000000000E+00  0.00000000000E+00  0.16471400078E+03  0.16471400078E+03  0.00000000000E+00 0. -1.
         21   -1    0    0  501  502 -0.00000000000E+00 -0.00000000000E+00 -0.48975479983E+03  0.48975479983E+03  0.00000000000E+00 0. -1.
         25    1    1    2    0    0  0.10226427347E+03  0.85604136848E+02 -0.87548008259E+02  0.20267141787E+03  0.12500000000E+03 0.  0.
         25    1    1    2    0    0 -0.16637663128E+03  0.17079009907E+02 -0.10939416229E+03  0.23572220675E+03  0.12500000000E+03 0.  0.
         25    1    1    2    0    0  0.64112357808E+02 -0.10268314675E+03 -0.12809862850E+03  0.21607517598E+03  0.12500000000E+03 0.  0.
</event>
<event>
 5    0  0.5489207E-005  0.2183812E+03  0.7546771E-02  0.1135096E+00
         21   -1    0    0  502  501  0.00000000000E+00  0.00000000000E+00  0.95891795659E+03  0.95891795659E+03  0.00000000000E+00 0.  1.
         21   -1    0    0  501  502 -0.00000000000E+00 -0.00000000000E+00 -0.49733500168E+02  0.49733500168E+02  0.00000000000E+00 0.  1.
         25    1    1    2    0    0  0.56771663042E+02 -0.26471204555E+02  0.33268712063E+03  0.36087320021E+03  0.12500000000E+03 0.  0.
         25    1    1    2    0    0 -0.27788213655E+02  0.85079255758E+02  0.27989546874E+03  0.31933859460E+03  0.12500000000E+03 0.  0.
         25    1    1    2    0    0 -0.28983449387E+02 -0.58608051203E+02  0.29660186704E+03  0.32843966194E+03  0.12500000000E+03 0.  0.
</event>
<event>
 5    0  0.5489207E-005  0.2267497E+03  0.7546771E-02  0.1128949E+00
         21   -1    0    0  502  501  0.00000000000E+00  0.00000000000E+00  0.45880962389E+02  0.45880962389E+02  0.00000000000E+00 0.  1.
         21   -1    0    0  501  502 -0.00000000000E+00 -0.00000000000E+00 -0.11206263419E+04  0.11206263419E+04  0.00000000000E+00 0.  1.
         25    1    1    2    0    0 -0.69534718478E+02  0.16601150354E+02 -0.23325953746E+03  0.27412713671E+03  0.12500000000E+03 0.  0.
         25    1    1    2    0    0 -0.26882901623E+02 -0.16721021633E+02 -0.26556843729E+03  0.29521835622E+03  0.12500000000E+03 0.  0.
         25    1    1    2    0    0  0.96417620101E+02  0.11987127914E+00 -0.57591740476E+03  0.59716181136E+03  0.12500000000E+03 0.  0.
</event>
<event>
 5    0  0.5489207E-005  0.2097964E+03  0.7546771E-02  0.1141727E+00
         21   -1    0    0  502  501  0.00000000000E+00  0.00000000000E+00  0.10953541052E+03  0.10953541052E+03  0.00000000000E+00 0. -1.
         21   -1    0    0  501  502 -0.00000000000E+00 -0.00000000000E+00 -0.40182912951E+03  0.40182912951E+03  0.00000000000E+00 0. -1.
         25    1    1    2    0    0  0.28493748848E+02 -0.64672221803E+01 -0.14487395834E+02  0.12918437725E+03  0.12500000000E+03 0.  0.
         25    1    1    2    0    0 -0.50265087159E+02  0.73303705331E+00 -0.12884782659E+03  0.18642392215E+03  0.12500000000E+03 0.  0.
         25    1    1    2    0    0  0.21771338311E+02  0.57341851269E+01 -0.14895849656E+03  0.19575624064E+03  0.12500000000E+03 0.  0.
</event>
<event>
 5    0  0.5489207E-005  0.3565075E+03  0.7546771E-02  0.1059975E+00
         21   -1    0    0  502  501  0.00000000000E+00  0.00000000000E+00  0.32280860239E+03  0.32280860239E+03  0.00000000000E+00 0. -1.
         21   -1    0    0  501  502 -0.00000000000E+00 -0.00000000000E+00 -0.39372442366E+03  0.39372442366E+03  0.00000000000E+00 0. -1.
         25    1    1    2    0    0 -0.11909095605E+03 -0.14483361174E+03  0.12549606979E+03  0.25794126160E+03  0.12500000000E+03 0.  0.
         25    1    1    2    0    0  0.61543185308E+02  0.31865521649E+02  0.52755355574E+02  0.15235190406E+03  0.12500000000E+03 0.  0.
         25    1    1    2    0    0  0.57547770745E+02  0.11296809010E+03 -0.24916724663E+03  0.30623986039E+03  0.12500000000E+03 0.  0.
</event>
<event>
 5    0  0.5489207E-005  0.3847248E+03  0.7546771E-02  0.1049201E+00
         21   -1    0    0  502  501  0.00000000000E+00  0.00000000000E+00  0.15706518805E+04  0.15706518805E+04  0.00000000000E+00 0.  1.
         21   -1    0    0  501  502 -0.00000000000E+00 -0.00000000000E+00 -0.94236777472E+02  0.94236777472E+02  0.00000000000E+00 0.  1.
         25    1    1    2    0    0 -0.19931203768E+03 -0.50602458807E+02  0.20375190591E+03  0.31531846816E+03  0.12500000000E+03 0.  0.
         25    1    1    2    0    0  0.28326626562E+02  0.16026544909E+03  0.69329179567E+03  0.72302553612E+03  0.12500000000E+03 0.  0.
         25    1    1    2    0    0  0.17098541112E+03 -0.10966299028E+03  0.57937140148E+03  0.62654465372E+03  0.12500000000E+03 0.  0.
</event>
<event>
 5    0  0.5489207E-005  0.3728245E+03  0.7546771E-02  0.1053618E+00
         21   -1    0    0  502  501  0.00000000000E+00  0.00000000000E+00  0.91093631289E+03  0.91093631289E+03  0.00000000000E+00 0.  1.
         21   -1    0    0  501  502 -0.00000000000E+00 -0.00000000000E+00 -0.15258820664E+03  0.15258820664E+03  0.00000000000E+00 0.  1.
         25    1    1    2    0    0 -0.21905293806E+03  0.14355219843E+02  0.32674947647E+03  0.41301390096E+03  0.12500000000E+03 0.  0.
         25    1    1    2    0    0  0.28875851717E+02 -0.16313565411E+03  0.13215570581E+03  0.24604305930E+03  0.12500000000E+03 0.  0.
         25    1    1    2    0    0  0.19017708634E+03  0.14878043426E+03  0.29944292397E+03  0.40446755927E+03  0.12500000000E+03 0.  0.
</event>
<event>
 5    0  0.6034127E-005  0.3028875E+03  0.7546771E-02  0.1083806E+00
         21   -1    0    0  502  501  0.00000000000E+00  0.00000000000E+00  0.63240762290E+03  0.63240762290E+03  0.00000000000E+00 0.  1.
         21   -1    0    0  501  502 -0.00000000000E+00 -0.00000000000E+00 -0.14506599272E+03  0.14506599272E+03  0.00000000000E+00 0.  1.
         25    1    1    2    0    0 -0.12992972259E+03 -0.36737314325E+02  0.25300664691E+03  0.31283977761E+03  0.12500000000E+03 0.  0.
         25    1    1    2    0    0 -0.53036153576E+01 -0.10534209544E+03  0.13350958441E+03  0.21112767354E+03  0.12500000000E+03 0.  0.
         25    1    1    2    0    0  0.13523333794E+03  0.14207940976E+03  0.10082539886E+03  0.25350616447E+03  0.12500000000E+03 0.  0.
</event>
<event>
 5    0  0.5489207E-005  0.4231419E+03  0.7546771E-02  0.1036049E+00
         21   -1    0    0  502  501  0.00000000000E+00  0.00000000000E+00  0.15824207752E+03  0.15824207752E+03  0.00000000000E+00 0. -1.
         21   -1    0    0  501  502 -0.00000000000E+00 -0.00000000000E+00 -0.11314886104E+04  0.11314886104E+04  0.00000000000E+00 0. -1.
         25    1    1    2    0    0 -0.32461004501E+03 -0.11659424840E+03 -0.60297474118E+03  0.70581119188E+03  0.12500000000E+03 0.  0.
         25    1    1    2    0    0  0.23693638657E+03  0.71378946187E+02 -0.30403689090E+03  0.41145745377E+03  0.12500000000E+03 0.  0.
         25    1    1    2    0    0  0.87673658442E+02  0.45215302215E+02 -0.66234900795E+02  0.17246204227E+03  0.12500000000E+03 0.  0.
</event>
<event>
 5    0  0.5489207E-005  0.2712884E+03  0.7546771E-02  0.1100544E+00
         21   -1    0    0  502  501  0.00000000000E+00  0.00000000000E+00  0.57853680960E+03  0.57853680960E+03  0.00000000000E+00 0. -1.
         21   -1    0    0  501  502 -0.00000000000E+00 -0.00000000000E+00 -0.12721302102E+03  0.12721302102E+03  0.00000000000E+00 0. -1.
         25    1    1    2    0    0  0.78349652515E+02  0.87310863500E+02  0.12752880183E+03  0.21365965981E+03  0.12500000000E+03 0.  0.
         25    1    1    2    0    0 -0.15484732552E+03  0.13739910200E+01  0.16500012667E+03  0.25851426242E+03  0.12500000000E+03 0.  0.
         25    1    1    2    0    0  0.76497673005E+02 -0.88684854520E+02  0.15879486008E+03  0.23357590840E+03  0.12500000000E+03 0.  0.
</event>
<event>
 5    0  0.5489207E-005  0.4031703E+03  0.7546771E-02  0.1042687E+00
         21   -1    0    0  502  501  0.00000000000E+00  0.00000000000E+00  0.35700637626E+02  0.35700637626E+02  0.00000000000E+00 0. -1.
         21   -1    0    0  501  502 -0.00000000000E+00 -0.00000000000E+00 -0.45530358926E+04  0.45530358926E+04  0.00000000000E+00 0. -1.
         25    1    1    2    0    0  0.25137444799E+03 -0.69598304997E+02 -0.14087236738E+04  0.14381100189E+04  0.12500000000E+03 0.  0.
         25    1    1    2    0    0 -0.13912765542E+02 -0.12613858916E+03 -0.12390179593E+04  0.12517567704E+04  0.12500000000E+03 0.  0.
         25    1    1    2    0    0 -0.23746168245E+03  0.19573689416E+03 -0.18695936218E+04  0.18988697410E+04  0.12500000000E+03 0.  0.
</event>
<event>
 5    0  0.5489207E-005  0.3445613E+03  0.7546771E-02  0.1064870E+00
         21   -1    0    0  502  501  0.00000000000E+00  0.00000000000E+00  0.97427010966E+02  0.97427010966E+02  0.00000000000E+00 0.  1.
         21   -1    0    0  501  502 -0.00000000000E+00 -0.00000000000E+00 -0.12185787446E+04  0.12185787446E+04  0.00000000000E+00 0.  1.
         25    1    1    2    0    0 -0.86597416322E+02 -0.35226407273E+02 -0.97922453872E+02  0.18426562147E+03  0.12500000000E+03 0.  0.
         25    1    1    2    0    0  0.18635254112E+02  0.21752764002E+03 -0.56433308271E+03  0.61786922169E+03  0.12500000000E+03 0.  0.
         25    1    1    2    0    0  0.67962162210E+02 -0.18230123275E+03 -0.45889619708E+03  0.51387091243E+03  0.12500000000E+03 0.  0.
</event>
<event>
 5    0  0.5489207E-005  0.2941840E+03  0.7546771E-02  0.1088185E+00
         21   -1    0    0  502  501  0.00000000000E+00  0.00000000000E+00  0.31500853790E+03  0.31500853790E+03  0.00000000000E+00 0. -1.
         21   -1    0    0  501  502 -0.00000000000E+00 -0.00000000000E+00 -0.27473604419E+03  0.27473604419E+03  0.00000000000E+00 0. -1.
         25    1    1    2    0    0  0.18794739101E+01  0.16274659347E+03  0.39896800567E+02  0.20906157180E+03  0.12500000000E+03 0.  0.
         25    1    1    2    0    0 -0.63138037874E+02 -0.10672682506E+03 -0.97756091908E+02  0.20139086504E+03  0.12500000000E+03 0.  0.
         25    1    1    2    0    0  0.61258563964E+02 -0.56019768409E+02  0.98131785046E+02  0.17929214525E+03  0.12500000000E+03 0.  0.
</event>
<event>
 5    0  0.5489207E-005  0.2802704E+03  0.7546771E-02  0.1095541E+00
         21   -1    0    0  502  501  0.00000000000E+00  0.00000000000E+00  0.77791006510E+02  0.77791006510E+02  0.00000000000E+00 0.  1.
         21   -1    0    0  501  502 -0.00000000000E+00 -0.00000000000E+00 -0.10097762166E+04  0.10097762166E+04  0.00000000000E+00 0.  1.
         25    1    1    2    0    0 -0.75276282530E+02 -0.53387733357E+02 -0.47150863954E+03  0.49644956033E+03  0.12500000000E+03 0.  0.
         25    1    1    2    0    0  0.11939626656E+03  0.12732995573E+03 -0.31244467770E+03  0.37909769548E+03  0.12500000000E+03 0.  0.
         25    1    1    2    0    0 -0.44119984033E+02 -0.73942222368E+02 -0.14803189288E+03  0.21201996734E+03  0.12500000000E+03 0.  0.
</event>
<event>
 5    0  0.5489207E-005  0.2965659E+03  0.7546771E-02  0.1086970E+00
         21   -1    0    0  502  501  0.00000000000E+00  0.00000000000E+00  0.68977780347E+02  0.68977780347E+02  0.00000000000E+00 0. -1.
         21   -1    0    0  501  502 -0.00000000000E+00 -0.00000000000E+00 -0.12750672930E+04  0.12750672930E+04  0.00000000000E+00 0. -1.
         25    1    1    2    0    0 -0.62624635803E+02 -0.41394996841E+02 -0.56937317527E+03  0.58774671712E+03  0.12500000000E+03 0.  0.
         25    1    1    2    0    0  0.40195034150E+02 -0.10767280293E+03 -0.46786029812E+03  0.49772214318E+03  0.12500000000E+03 0.  0.
         25    1    1    2    0    0  0.22429601653E+02  0.14906779977E+03 -0.16885603929E+03  0.25857621307E+03  0.12500000000E+03 0.  0.
</event>
<event>
 5    0  0.5489207E-005  0.3360084E+03  0.7546771E-02  0.1068509E+00
         21   -1    0    0  502  501  0.00000000000E+00  0.00000000000E+00  0.40804791296E+03  0.40804791296E+03  0.00000000000E+00 0. -1.
         21   -1    0    0  501  502 -0.00000000000E+00 -0.00000000000E+00 -0.27668719163E+03  0.27668719163E+03  0.00000000000E+00 0. -1.
         25    1    1    2    0    0  0.65593962759E+02 -0.12230512277E+01  0.18762851683E+03  0.23480528983E+03  0.12500000000E+03 0.  0.
         25    1    1    2    0    0 -0.21154501284E+03 -0.39967735736E+01 -0.74604620471E+02  0.25682312212E+03  0.12500000000E+03 0.  0.
         25    1    1    2    0    0  0.14595105008E+03  0.52198248013E+01  0.18336824972E+02  0.19310669264E+03  0.12500000000E+03 0.  0.
</event>
<event>
 5    0  0.5489207E-005  0.4823469E+03  0.7546771E-02  0.1018492E+00
         21   -1    0    0  502  501  0.00000000000E+00  0.00000000000E+00  0.30127280659E+03  0.30127280659E+03  0.00000000000E+00 0. -1.
         21   -1    0    0  501  502 -0.00000000000E+00 -0.00000000000E+00 -0.77225216514E+03  0.77225216514E+03  0.00000000000E+00 0. -1.
         25    1    1    2    0    0 -0.13539190566E+02  0.14681671317E+03 -0.21032447363E+02  0.19443718983E+03  0.12500000000E+03 0.  0.
         25    1    1    2    0    0 -0.15673592917E+03 -0.38289865106E+03 -0.31470069913E+03  0.53463918535E+03  0.12500000000E+03 0.  0.
         25    1    1    2    0    0  0.17027511973E+03  0.23608193788E+03 -0.13524621205E+03  0.34444859655E+03  0.12500000000E+03 0.  0.
</event>
<event>
 5    0  0.5489207E-005  0.3157221E+03  0.7546771E-02  0.1077635E+00
         21   -1    0    0  502  501  0.00000000000E+00  0.00000000000E+00  0.47362709939E+03  0.47362709939E+03  0.00000000000E+00 0.  1.
         21   -1    0    0  501  502 -0.00000000000E+00 -0.00000000000E+00 -0.21046186720E+03  0.21046186720E+03  0.00000000000E+00 0.  1.
         25    1    1    2    0    0 -0.13688192595E+03  0.17559105303E+03  0.12989100371E+02  0.25566109654E+03  0.12500000000E+03 0.  0.
         25    1    1    2    0    0  0.83173646420E+02 -0.14415370413E+03  0.15194698161E+03  0.25770337812E+03  0.12500000000E+03 0.  0.
         25    1    1    2    0    0  0.53708279528E+02 -0.31437348899E+02  0.98229150211E+02  0.17072449194E+03  0.12500000000E+03 0.  0.
</event>
<event>
 5    0  0.5489207E-005  0.4568593E+03  0.7546771E-02  0.1025696E+00
         21   -1    0    0  502  501  0.00000000000E+00  0.00000000000E+00  0.65784884914E+03  0.65784884914E+03  0.00000000000E+00 0. -1.
         21   -1    0    0  501  502 -0.00000000000E+00 -0.00000000000E+00 -0.31727715274E+03  0.31727715274E+03  0.00000000000E+00 0. -1.
         25    1    1    2    0    0 -0.69247006612E+02 -0.52123143092E+02  0.31307793995E+03  0.34807293266E+03  0.12500000000E+03 0.  0.
         25    1    1    2    0    0  0.13232652587E+03  0.14460283546E+03  0.25454246999E+03  0.34472765845E+03  0.12500000000E+03 0.  0.
         25    1    1    2    0    0 -0.63079519263E+02 -0.92479692365E+02 -0.22704871354E+03  0.28232541077E+03  0.12500000000E+03 0.  0.
</event>
<event>
 5    0  0.5489207E-005  0.3330410E+03  0.7546771E-02  0.1069799E+00
         21   -1    0    0  502  501  0.00000000000E+00  0.00000000000E+00  0.20393944207E+04  0.20393944207E+04  0.00000000000E+00 0.  1.
         21   -1    0    0  501  502 -0.00000000000E+00 -0.00000000000E+00 -0.54386886146E+02  0.54386886146E+02  0.00000000000E+00 0.  1.
         25    1    1    2    0    0 -0.21551681729E+01  0.22331792238E+03  0.91379186973E+03  0.94895527839E+03  0.12500000000E+03 0.  0.
         25    1    1    2    0    0  0.98010081562E+02 -0.16422407053E+03  0.72024256533E+03  0.75561225132E+03  0.12500000000E+03 0.  0.
         25    1    1    2    0    0 -0.95854913390E+02 -0.59093851845E+02  0.35097309953E+03  0.38921377717E+03  0.12500000000E+03 0.  0.
</event>
<event>
 5    0  0.5489207E-005  0.3335322E+03  0.7546771E-02  0.1069585E+00
         21   -1    0    0  502  501  0.00000000000E+00  0.00000000000E+00  0.21196574982E+03  0.21196574982E+03  0.00000000000E+00 0.  1.
         21   -1    0    0  501  502 -0.00000000000E+00 -0.00000000000E+00 -0.52481946300E+03  0.52481946300E+03  0.00000000000E+00 0.  1.
         25    1    1    2    0    0 -0.58816331154E+02  0.64652217548E+02  0.57667919066E+02  0.16306397191E+03  0.12500000000E+03 0.  0.
         25    1    1    2    0    0 -0.30500352816E+02 -0.38569870736E+02  0.35405263384E+02  0.13891162344E+03  0.12500000000E+03 0.  0.
         25    1    1    2    0    0  0.89316683970E+02 -0.26082346811E+02 -0.40592689564E+03  0.43480961748E+03  0.12500000000E+03 0.  0.
</event>
<event>
 5    0  0.5489207E-005  0.2269082E+03  0.7546771E-02  0.1128835E+00
         21   -1    0    0  502  501  0.00000000000E+00  0.00000000000E+00  0.13799078184E+03  0.13799078184E+03  0.00000000000E+00 0. -1.
         21   -1    0    0  501  502 -0.00000000000E+00 -0.00000000000E+00 -0.37312162989E+03  0.37312162989E+03  0.00000000000E+00 0. -1.
         25    1    1    2    0    0 -0.37158712651E+02  0.23468117275E+02 -0.12449610761E+03  0.18181254980E+03  0.12500000000E+03 0.  0.
         25    1    1    2    0    0  0.47165231205E+02 -0.96532341884E+02 -0.52949600916E+02  0.17312340195E+03  0.12500000000E+03 0.  0.
         25    1    1    2    0    0 -0.10006518554E+02  0.73064224609E+02 -0.57685139527E+02  0.15617645999E+03  0.12500000000E+03 0.  0.
</event>
<event>
 5    0  0.5489207E-005  0.2296017E+03  0.7546771E-02  0.1126920E+00
         21   -1    0    0  502  501  0.00000000000E+00  0.00000000000E+00  0.11627363206E+03  0.11627363206E+03  0.00000000000E+00 0. -1.
         21   -1    0    0  501  502 -0.00000000000E+00 -0.00000000000E+00 -0.45338694428E+03  0.45338694428E+03  0.00000000000E+00 0. -1.
         25    1    1    2    0    0  0.30259254624E+02 -0.85466817222E+02 -0.21671493770E+03  0.26610254332E+03  0.12500000000E+03 0.  0.
         25    1    1    2    0    0 -0.19154652270E+02  0.76575969218E+02 -0.36291901672E+02  0.15222641654E+03  0.12500000000E+03 0.  0.
         25    1    1    2    0    0 -0.11104602353E+02  0.88908480037E+01 -0.84106472847E+02  0.15133161648E+03  0.12500000000E+03 0.  0.
</event>
<event>
 5    0  0.5489207E-005  0.2554369E+03  0.7546771E-02  0.1109916E+00
         21   -1    0    0  502  501  0.00000000000E+00  0.00000000000E+00  0.21753173019E+04  0.21753173019E+04  0.00000000000E+00 0. -1.
         21   -1    0    0  501  502 -0.00000000000E+00 -0.00000000000E+00 -0.29994711038E+02  0.29994711038E+02  0.00000000000E+00 0. -1.
         25    1    1    2    0    0  0.52719004734E+01  0.60283632356E-01  0.24399473750E+03  0.27420107311E+03  0.12500000000E+03 0.  0.
         25    1    1    2    0    0  0.32090858111E+01 -0.85754258890E+02  0.13749375238E+04  0.13832723106E+04  0.12500000000E+03 0.  0.
         25    1    1    2    0    0 -0.84809862845E+01  0.85693975258E+02  0.52639032957E+03  0.54783862915E+03  0.12500000000E+03 0.  0.
</event>
<event>
 5    0  0.5489207E-005  0.3539049E+03  0.7546771E-02  0.1061024E+00
         21   -1    0    0  502  501  0.00000000000E+00  0.00000000000E+00  0.15088858678E+03  0.15088858678E+03  0.00000000000E+00 0. -1.
         21   -1    0    0  501  502 -0.00000000000E+00 -0.00000000000E+00 -0.83007388567E+03  0.83007388567E+03  0.00000000000E+00 0. -1.
         25    1    1    2    0    0  0.60671548419E+02 -0.14021879588E+02 -0.11784879390E+03  0.18273201175E+03  0.12500000000E+03 0.  0.
         25    1    1    2    0    0 -0.13457541804E+03  0.14659706856E+03 -0.36564697296E+02  0.23783023513E+03  0.12500000000E+03 0.  0.
         25    1    1    2    0    0  0.73903869625E+02 -0.13257518897E+03 -0.52477180769E+03  0.56040022557E+03  0.12500000000E+03 0.  0.
</event>
<event>
 5    0  0.5489207E-005  0.3283386E+03  0.7546771E-02  0.1071874E+00
         21   -1    0    0  502  501  0.00000000000E+00  0.00000000000E+00  0.14554771359E+03  0.14554771359E+03  0.00000000000E+00 0. -1.
         21   -1    0    0  501  502 -0.00000000000E+00 -0.00000000000E+00 -0.74069336932E+03  0.74069336932E+03  0.00000000000E+00 0.  1.
         25    1    1    2    0    0 -0.12218909123E+03 -0.64908599018E+02 -0.19033446647E+03  0.26644982523E+03  0.12500000000E+03 0.  0.
         25    1    1    2    0    0 -0.85948072673E+02 -0.26611283286E+02 -0.30520750866E+03  0.34186525846E+03  0.12500000000E+03 0.  0.
         25    1    1    2    0    0  0.20813716390E+03  0.91519882304E+02 -0.99603680597E+02  0.27792599922E+03  0.12500000000E+03 0.  0.
</event>
<event>
 5    0  0.5489207E-005  0.2885042E+03  0.7546771E-02  0.1091133E+00
         21   -1    0    0  502  501  0.00000000000E+00  0.00000000000E+00  0.16917803115E+04  0.16917803115E+04  0.00000000000E+00 0.  1.
         21   -1    0    0  501  502 -0.00000000000E+00 -0.00000000000E+00 -0.49199442318E+02  0.49199442318E+02  0.00000000000E+00 0.  1.
         25    1    1    2    0    0  0.73351485381E+02  0.73010458110E+02  0.60664311235E+03  0.62797438894E+03  0.12500000000E+03 0.  0.
         25    1    1    2    0    0 -0.23954876346E+02  0.11689452982E+03  0.48915237371E+03  0.51878050456E+03  0.12500000000E+03 0.  0.
         25    1    1    2    0    0 -0.49396609036E+02 -0.18990498793E+03  0.54678538311E+03  0.59422486031E+03  0.12500000000E+03 0.  0.
</event>
<event>
 5    0  0.5489207E-005  0.2904991E+03  0.7546771E-02  0.1090089E+00
         21   -1    0    0  502  501  0.00000000000E+00  0.00000000000E+00  0.12338544099E+04  0.12338544099E+04  0.00000000000E+00 0. -1.
         21   -1    0    0  501  502 -0.00000000000E+00 -0.00000000000E+00 -0.68395187133E+02  0.68395187133E+02  0.00000000000E+00 0. -1.
         25    1    1    2    0    0  0.85450833596E+01 -0.27249305113E+02  0.39280606192E+03  0.41320351567E+03  0.12500000000E+03 0.  0.
         25    1    1    2    0    0 -0.53522754809E+02 -0.77788426493E+02  0.67628761539E+03  0.69419425474E+03  0.12500000000E+03 0.  0.
         25    1    1    2    0    0  0.44977671449E+02  0.10503773161E+03  0.96365545457E+02  0.19485182663E+03  0.12500000000E+03 0.  0.
</event>
<event>
 5    0  0.5853740E-005  0.2932547E+03  0.7546771E-02  0.1088662E+00
         21   -1    0    0  502  501  0.00000000000E+00  0.00000000000E+00  0.86914037487E+03  0.86914037487E+03  0.00000000000E+00 0.  1.
         21   -1    0    0  501  502 -0.00000000000E+00 -0.00000000000E+00 -0.98946389560E+02  0.98946389560E+02  0.00000000000E+00 0.  1.
         25    1    1    2    0    0  0.64921992645E+02 -0.69952391227E+02  0.19842949455E+03  0.25319452300E+03  0.12500000000E+03 0.  0.
         25    1    1    2    0    0 -0.19010013227E+03  0.74980450529E+02  0.41143514887E+03  0.47609243848E+03  0.12500000000E+03 0.  0.
         25    1    1    2    0    0  0.12517813963E+03 -0.50280593011E+01  0.16032934188E+03  0.23879980295E+03  0.12500000000E+03 0.  0.
</event>
<event>
 5    0  0.5489207E-005  0.2373023E+03  0.7546771E-02  0.1121603E+00
         21   -1    0    0  502  501  0.00000000000E+00  0.00000000000E+00  0.32533351697E+03  0.32533351697E+03  0.00000000000E+00 0. -1.
         21   -1    0    0  501  502 -0.00000000000E+00 -0.00000000000E+00 -0.17309118513E+03  0.17309118513E+03  0.00000000000E+00 0. -1.
         25    1    1    2    0    0  0.53784340955E+02  0.53217792990E+01  0.22925816808E+01  0.13620327675E+03  0.12500000000E+03 0.  0.
         25    1    1    2    0    0 -0.86943811433E+02  0.81418335999E+02  0.62507874001E+02  0.18363116864E+03  0.12500000000E+03 0.  0.
         25    1    1    2    0    0  0.33159470478E+02 -0.86740115298E+02  0.87441876163E+02  0.17859025671E+03  0.12500000000E+03 0.  0.
</event>
<event>
 5    0  0.5489207E-005  0.2276731E+03  0.7546771E-02  0.1128288E+00
         21   -1    0    0  502  501  0.00000000000E+00  0.00000000000E+00  0.39211134837E+03  0.39211134837E+03  0.00000000000E+00 0. -1.
         21   -1    0    0  501  502 -0.00000000000E+00 -0.00000000000E+00 -0.13219470004E+03  0.13219470004E+03  0.00000000000E+00 0. -1.
         25    1    1    2    0    0  0.95013123198E+01 -0.61040521141E+02 -0.31437976270E+01  0.13946721342E+03  0.12500000000E+03 0.  0.
         25    1    1    2    0    0  0.46450466797E+02  0.38976596157E+02  0.16078691849E+03  0.21249530364E+03  0.12500000000E+03 0.  0.
         25    1    1    2    0    0 -0.55951779117E+02  0.22063924984E+02  0.10227352747E+03  0.17234353134E+03  0.12500000000E+03 0.  0.
</event>
<event>
 5    0  0.5489207E-005  0.3064915E+03  0.7546771E-02  0.1082040E+00
         21   -1    0    0  502  501  0.00000000000E+00  0.00000000000E+00  0.19120408633E+03  0.19120408633E+03  0.00000000000E+00 0. -1.
         21   -1    0    0  501  502 -0.00000000000E+00 -0.00000000000E+00 -0.49129196766E+03  0.49129196766E+03  0.00000000000E+00 0. -1.
         25    1    1    2    0    0 -0.84522303188E+02 -0.60752203159E+02  0.56855043823E+02  0.17231467126E+03  0.12500000000E+03 0.  0.
         25    1    1    2    0    0 -0.71491382406E+02 -0.12001220532E+01 -0.85690169778E+02  0.16757166601E+03  0.12500000000E+03 0.  0.
         25    1    1    2    0    0  0.15601368559E+03  0.61952325212E+02 -0.27125275538E+03  0.34260971672E+03  0.12500000000E+03 0.  0.
</event>
<event>
 5    0  0.5489207E-005  0.2826205E+03  0.7546771E-02  0.1094266E+00
         21   -1    0    0  502  501  0.00000000000E+00  0.00000000000E+00  0.11475786903E+03  0.11475786903E+03  0.00000000000E+00 0. -1.
         21   -1    0    0  501  502 -0.00000000000E+00 -0.00000000000E+00 -0.69602504889E+03  0.69602504889E+03  0.00000000000E+00 0. -1.
         25    1    1    2    0    0  0.95704956520E+01 -0.33383899388E+02 -0.96347351870E+02  0.16159793111E+03  0.12500000000E+03 0.  0.
         25    1    1    2    0    0  0.54791193812E+02  0.16973272658E+03 -0.16171955296E+03  0.27127382328E+03  0.12500000000E+03 0.  0.
         25    1    1    2    0    0 -0.64361689464E+02 -0.13634882719E+03 -0.32320027503E+03  0.37791116354E+03  0.12500000000E+03 0.  0.
</event>
<event>
 5    0  0.5489207E-005  0.2705682E+03  0.7546771E-02  0.1100955E+00
         21   -1    0    0  502  501  0.00000000000E+00  0.00000000000E+00  0.58050779876E+03  0.58050779876E+03  0.00000000000E+00 0.  1.
         21   -1    0    0  501  502 -0.00000000000E+00 -0.00000000000E+00 -0.12610879953E+03  0.12610879953E+03  0.00000000000E+00 0.  1.
         25    1    1    2    0    0 -0.87605609652E+02 -0.43965046591E+01  0.98229019213E+01  0.15302144130E+03  0.12500000000E+03 0.  0.
         25    1    1    2    0    0  0.20868915340E+02 -0.29591945767E+02  0.61893286408E+02  0.14410750773E+03  0.12500000000E+03 0.  0.
         25    1    1    2    0    0  0.66736694312E+02  0.33988450426E+02  0.38268281091E+03  0.40948764926E+03  0.12500000000E+03 0.  0.
</event>
<event>
 5    0  0.5489207E-005  0.6172178E+03  0.7546771E-02  0.9870315E-01
         21   -1    0    0  502  501  0.00000000000E+00  0.00000000000E+00  0.28661368261E+03  0.28661368261E+03  0.00000000000E+00 0.  1.
         21   -1    0    0  501  502 -0.00000000000E+00 -0.00000000000E+00 -0.13291681197E+04  0.13291681197E+04  0.00000000000E+00 0.  1.
         25    1    1    2    0    0 -0.38641782100E+03  0.14980409089E+03 -0.11146449397E+03  0.44700037075E+03  0.12500000000E+03 0.  0.
         25    1    1    2    0    0  0.39581498539E+03 -0.16152001999E+03 -0.32917485394E+03  0.55384050410E+03  0.12500000000E+03 0.  0.
         25    1    1    2    0    0 -0.93971643950E+01  0.11715929100E+02 -0.60191508922E+03  0.61494092751E+03  0.12500000000E+03 0.  0.
</event>
<event>
 5    0  0.5489207E-005  0.2554179E+03  0.7546771E-02  0.1109928E+00
         21   -1    0    0  502  501  0.00000000000E+00  0.00000000000E+00  0.12279604860E+03  0.12279604860E+03  0.00000000000E+00 0. -1.
         21   -1    0    0  501  502 -0.00000000000E+00 -0.00000000000E+00 -0.53127365277E+03  0.53127365277E+03  0.00000000000E+00 0. -1.
         25    1    1    2    0    0 -0.24405280522E+02 -0.11127667081E+03 -0.20467653732E+02  0.17035856314E+03  0.12500000000E+03 0.  0.
         25    1    1    2    0    0 -0.15251697846E+02  0.84527707031E+02 -0.16930484809E+03  0.22730305570E+03  0.12500000000E+03 0.  0.
         25    1    1    2    0    0  0.39656978368E+02  0.26748963783E+02 -0.21870510234E+03  0.25640808253E+03  0.12500000000E+03 0.  0.
</event>
<event>
 5    0  0.5489207E-005  0.2605956E+03  0.7546771E-02  0.1106786E+00
         21   -1    0    0  502  501  0.00000000000E+00  0.00000000000E+00  0.51236283636E+03  0.51236283636E+03  0.00000000000E+00 0. -1.
         21   -1    0    0  501  502 -0.00000000000E+00 -0.00000000000E+00 -0.13254295830E+03  0.13254295830E+03  0.00000000000E+00 0. -1.
         25    1    1    2    0    0 -0.87835429993E+01  0.14453214917E+03  0.25364189500E+03  0.31768837510E+03  0.12500000000E+03 0.  0.
         25    1    1    2    0    0  0.24055590880E+02 -0.85036587305E+02  0.25101204780E+02  0.15512885971E+03  0.12500000000E+03 0.  0.
         25    1    1    2    0    0 -0.15272047881E+02 -0.59495561867E+02  0.10107677828E+03  0.17208855986E+03  0.12500000000E+03 0.  0.
</event>
<event>
 5    0  0.5489207E-005  0.2515980E+03  0.7546771E-02  0.1112299E+00
         21   -1    0    0  502  501  0.00000000000E+00  0.00000000000E+00  0.20300646026E+02  0.20300646026E+02  0.00000000000E+00 0.  1.
         21   -1    0    0  501  502 -0.00000000000E+00 -0.00000000000E+00 -0.31182045303E+04  0.31182045303E+04  0.00000000000E+00 0.  1.
         25    1    1    2    0    0 -0.24080831470E+02  0.67889965642E+02 -0.53146535469E+03  0.55069897142E+03  0.12500000000E+03 0.  0.
         25    1    1    2    0    0  0.99636619182E+02 -0.86813630752E+02 -0.15792085373E+04  0.15896504857E+04  0.12500000000E+03 0.  0.
         25    1    1    2    0    0 -0.75555787713E+02  0.18923665110E+02 -0.98722999230E+03  0.99815571924E+03  0.12500000000E+03 0.  0.
</event>
<event>
 5    0  0.5489207E-005  0.3808946E+03  0.7546771E-02  0.1050604E+00
         21   -1    0    0  502  501  0.00000000000E+00  0.00000000000E+00  0.71862051368E+03  0.71862051368E+03  0.00000000000E+00 0. -1.
         21   -1    0    0  501  502 -0.00000000000E+00 -0.00000000000E+00 -0.20188778345E+03  0.20188778345E+03  0.00000000000E+00 0. -1.
         25    1    1    2    0    0 -0.19892928093E+02  0.63735743242E+02  0.46751475218E+03  0.48852125549E+03  0.12500000000E+03 0.  0.
         25    1    1    2    0    0  0.12432275434E+03  0.24974121821E+02 -0.90538097998E+02  0.19975485275E+03  0.12500000000E+03 0.  0.
         25    1    1    2    0    0 -0.10442982625E+03 -0.88709865062E+02  0.13975607604E+03  0.23223218890E+03  0.12500000000E+03 0.  0.
</event>
<event>
 5    0  0.5489207E-005  0.6909002E+03  0.7546771E-02  0.9732922E-01
         21   -1    0    0  502  501  0.00000000000E+00  0.00000000000E+00  0.38606724224E+03  0.38606724224E+03  0.00000000000E+00 0. -1.
         21   -1    0    0  501  502 -0.00000000000E+00 -0.00000000000E+00 -0.12364247391E+04  0.12364247391E+04  0.00000000000E+00 0. -1.
         25    1    1    2    0    0 -0.27494679369E+03  0.14176966523E+03 -0.61702732821E+02  0.33930311608E+03  0.12500000000E+03 0.  0.
         25    1    1    2    0    0 -0.29313162907E+03  0.52658783958E+02 -0.56155312781E+02  0.32783764067E+03  0.12500000000E+03 0.  0.
         25    1    1    2    0    0  0.56807842276E+03 -0.19442844919E+03 -0.73249945130E+03  0.95535122463E+03  0.12500000000E+03 0.  0.
</event>
<event>
 5    0  0.5489207E-005  0.2202440E+03  0.7546771E-02  0.1133701E+00
         21   -1    0    0  502  501  0.00000000000E+00  0.00000000000E+00  0.11669295444E+03  0.11669295444E+03  0.00000000000E+00 0.  1.
         21   -1    0    0  501  502 -0.00000000000E+00 -0.00000000000E+00 -0.41568407001E+03  0.41568407001E+03  0.00000000000E+00 0.  1.
         25    1    1    2    0    0  0.35589008844E+02  0.81274101251E+02 -0.68076487735E+02  0.16772437291E+03  0.12500000000E+03 0.  0.
         25    1    1    2    0    0 -0.16350233463E+02 -0.67370942055E+02 -0.68977171776E+02  0.15871050436E+03  0.12500000000E+03 0.  0.
         25    1    1    2    0    0 -0.19238775382E+02 -0.13903159196E+02 -0.16193745605E+03  0.20594214718E+03  0.12500000000E+03 0.  0.
</event>
<event>
 5    0  0.5489207E-005  0.3677039E+03  0.7546771E-02  0.1055574E+00
         21   -1    0    0  502  501  0.00000000000E+00  0.00000000000E+00  0.50672409074E+03  0.50672409074E+03  0.00000000000E+00 0. -1.
         21   -1    0    0  501  502 -0.00000000000E+00 -0.00000000000E+00 -0.26682397790E+03  0.26682397790E+03  0.00000000000E+00 0. -1.
         25    1    1    2    0    0  0.22191724608E+02  0.10597979934E+03  0.11527382605E+02  0.16577717291E+03  0.12500000000E+03 0.  0.
         25    1    1    2    0    0  0.78240357397E+02  0.62346151060E+01  0.34826723175E+03  0.37825320708E+03  0.12500000000E+03 0.  0.
         25    1    1    2    0    0 -0.10043208201E+03 -0.11221441445E+03 -0.11989450152E+03  0.22951768865E+03  0.12500000000E+03 0.  0.
</event>
<event>
 5    0  0.5489207E-005  0.2715814E+03  0.7546771E-02  0.1100378E+00
         21   -1    0    0  502  501  0.00000000000E+00  0.00000000000E+00  0.89681988120E+03  0.89681988120E+03  0.00000000000E+00 0. -1.
         21   -1    0    0  501  502 -0.00000000000E+00 -0.00000000000E+00 -0.82242242331E+02  0.82242242331E+02  0.00000000000E+00 0. -1.
         25    1    1    2    0    0 -0.60836988866E+02 -0.21267144115E+02  0.93186739775E+02  0.16870743642E+03  0.12500000000E+03 0.  0.
         25    1    1    2    0    0  0.10482299659E+03 -0.92472076026E+02  0.29459558419E+03  0.34921412297E+03  0.12500000000E+03 0.  0.
         25    1    1    2    0    0 -0.43986007720E+02  0.11373922014E+03  0.42679531490E+03  0.46114056414E+03  0.12500000000E+03 0.  0.
</event>
<event>
 5    0  0.5489207E-005  0.2848496E+03  0.7546771E-02  0.1093069E+00
         21   -1    0    0  502  501  0.00000000000E+00  0.00000000000E+00  0.51049529879E+03  0.51049529879E+03  0.00000000000E+00 0. -1.
         21   -1    0    0  501  502 -0.00000000000E+00 -0.00000000000E+00 -0.15894228024E+03  0.15894228024E+03  0.00000000000E+00 0. -1.
         25    1    1    2    0    0 -0.58933430306E+02 -0.15103325934E+03  0.11552434180E+03  0.23506396615E+03  0.12500000000E+03 0.  0.
         25    1    1    2    0    0 -0.13733412584E+02  0.12860168570E+03  0.31044396484E+02  0.18252603852E+03  0.12500000000E+03 0.  0.
         25    1    1    2    0    0  0.72666842891E+02  0.22431573641E+02  0.20498428027E+03  0.25184757436E+03  0.12500000000E+03 0.  0.
</event>
<event>
 5    0  0.5489207E-005  0.2842560E+03  0.7546771E-02  0.1093387E+00
         21   -1    0    0  502  501  0.00000000000E+00  0.00000000000E+00  0.12882153831E+03  0.12882153831E+03  0.00000000000E+00 0. -1.
         21   -1    0    0  501  502 -0.00000000000E+00 -0.00000000000E+00 -0.62723574257E+03  0.62723574257E+03  0.00000000000E+00 0. -1.
         25    1    1    2    0    0  0.16820946524E+03 -0.50374639594E+02 -0.22865901710E+03  0.31423235768E+03  0.12500000000E+03 0.  0.
         25    1    1    2    0    0 -0.87927576006E+02  0.40405138279E+02 -0.24398171776E+03  0.29071620599E+03  0.12500000000E+03 0.  0.
         25    1    1    2    0    0 -0.80281889236E+02  0.99695013147E+01 -0.25773469402E+02  0.15110871722E+03  0.12500000000E+03 0.  0.
</event>
<event>
 5    0  0.5489207E-005  0.2496718E+03  0.7546771E-02  0.1113512E+00
         21   -1    0    0  502  501  0.00000000000E+00  0.00000000000E+00  0.51356414685E+03  0.51356414685E+03  0.00000000000E+00 0. -1.
         21   -1    0    0  501  502 -0.00000000000E+00 -0.00000000000E+00 -0.12137919020E+03  0.12137919020E+03  0.00000000000E+00 0. -1.
         25    1    1    2    0    0 -0.16449908485E+02 -0.77540832419E+01  0.20110536001E+03  0.23748492820E+03  0.12500000000E+03 0.  0.
         25    1    1    2    0    0  0.84447985542E+02 -0.86450785666E+02  0.66427188862E+02  0.18612568878E+03  0.12500000000E+03 0.  0.
         25    1    1    2    0    0 -0.67998077057E+02  0.94204868908E+02  0.12465240777E+03  0.21133272007E+03  0.12500000000E+03 0.  0.
</event>
<event>
 5    0  0.5489207E-005  0.4196702E+03  0.7546771E-02  0.1037174E+00
         21   -1    0    0  502  501  0.00000000000E+00  0.00000000000E+00  0.82872689277E+03  0.82872689277E+03  0.00000000000E+00 0.  1.
         21   -1    0    0  501  502 -0.00000000000E+00 -0.00000000000E+00 -0.21252250394E+03  0.21252250394E+03  0.00000000000E+00 0.  1.
         25    1    1    2    0    0 -0.12450512984E+03 -0.10253192624E+03  0.18252483851E+02  0.20487185366E+03  0.12500000000E+03 0.  0.
         25    1    1    2    0    0 -0.10656532924E+02 -0.46634544652E+01 -0.64054650684E+02  0.14093724765E+03  0.12500000000E+03 0.  0.
         25    1    1    2    0    0  0.13516166277E+03  0.10719538071E+03  0.66200655566E+03  0.69544029540E+03  0.12500000000E+03 0.  0.
</event>
<event>
 5    0  0.5489207E-005  0.2728652E+03  0.7546771E-02  0.1099651E+00
         21   -1    0    0  502  501  0.00000000000E+00  0.00000000000E+00  0.22638504836E+03  0.22638504836E+03  0.00000000000E+00 0.  1.
         21   -1    0    0  501  502 -0.00000000000E+00 -0.00000000000E+00 -0.32888831149E+03  0.32888831149E+03  0.00000000000E+00 0.  1.
         25    1    1    2    0    0 -0.81552507078E+02  0.70602705323E+02 -0.59947781346E+02  0.17565389235E+03  0.12500000000E+03 0.  0.
         25    1    1    2    0    0  0.49084394855E+02 -0.46552806702E+02  0.10895450810E+03  0.17908804110E+03  0.12500000000E+03 0.  0.
         25    1    1    2    0    0  0.32468112223E+02 -0.24049898621E+02 -0.15150998989E+03  0.20053142639E+03  0.12500000000E+03 0.  0.
</event>
<event>
 5    0  0.5489207E-005  0.3298764E+03  0.7546771E-02  0.1071192E+00
         21   -1    0    0  502  501  0.00000000000E+00  0.00000000000E+00  0.43164504771E+03  0.43164504771E+03  0.00000000000E+00 0.  1.
         21   -1    0    0  501  502 -0.00000000000E+00 -0.00000000000E+00 -0.25210167498E+03  0.25210167498E+03  0.00000000000E+00 0.  1.
         25    1    1    2    0    0 -0.14673917550E+03  0.52669310952E+02 -0.93475528378E+02  0.22061078022E+03  0.12500000000E+03 0.  0.
         25    1    1    2    0    0  0.95169925721E+02  0.31451132575E+02  0.16320911165E+02  0.16105235373E+03  0.12500000000E+03 0.  0.
         25    1    1    2    0    0  0.51569249781E+02 -0.84120443527E+02  0.25669798994E+03  0.30208358874E+03  0.12500000000E+03 0.  0.
</event>
<event>
 5    0  0.5489207E-005  0.2380171E+03  0.7546771E-02  0.1121121E+00
         21   -1    0    0  502  501  0.00000000000E+00  0.00000000000E+00  0.29225926120E+03  0.29225926120E+03  0.00000000000E+00 0.  1.
         21   -1    0    0  501  502 -0.00000000000E+00 -0.00000000000E+00 -0.19384201617E+03  0.19384201617E+03  0.00000000000E+00 0.  1.
         25    1    1    2    0    0 -0.54287704033E+02  0.13550014879E+02 -0.41693070095E+02  0.14315750000E+03  0.12500000000E+03 0.  0.
         25    1    1    2    0    0  0.10604679661E+03  0.37724175193E+02  0.80168215572E+02  0.18633566286E+03  0.12500000000E+03 0.  0.
         25    1    1    2    0    0 -0.51759092581E+02 -0.51274190072E+02  0.59942099551E+02  0.15660811451E+03  0.12500000000E+03 0.  0.
</event>
<event>
 5    0  0.5489207E-005  0.2644104E+03  0.7546771E-02  0.1104522E+00
         21   -1    0    0  502  501  0.00000000000E+00  0.00000000000E+00  0.16469312334E+03  0.16469312334E+03  0.00000000000E+00 0.  1.
         21   -1    0    0  501  502 -0.00000000000E+00 -0.00000000000E+00 -0.42450377425E+03  0.42450377425E+03  0.00000000000E+00 0.  1.
         25    1    1    2    0    0 -0.83925387542E+02  0.96350819987E+02 -0.92221148692E+02  0.20113848824E+03  0.12500000000E+03 0.  0.
         25    1    1    2    0    0  0.61962941163E+02  0.57083509075E+02 -0.77679534159E+02  0.16957901731E+03  0.12500000000E+03 0.  0.
         25    1    1    2    0    0  0.21962446379E+02 -0.15343432906E+03 -0.89909968058E+02  0.21847939203E+03  0.12500000000E+03 0.  0.
</event>
<event>
 5    0  0.5489207E-005  0.4586286E+03  0.7546771E-02  0.1025180E+00
         21   -1    0    0  502  501  0.00000000000E+00  0.00000000000E+00  0.53850916932E+03  0.53850916932E+03  0.00000000000E+00 0.  1.
         21   -1    0    0  501  502 -0.00000000000E+00 -0.00000000000E+00 -0.39059729674E+03  0.39059729674E+03  0.00000000000E+00 0.  1.
         25    1    1    2    0    0  0.15112634574E+03 -0.25012833305E+02 -0.14320490760E+03  0.24412590966E+03  0.12500000000E+03 0.  0.
         25    1    1    2    0    0 -0.19453269724E+03 -0.12689364801E+03  0.38180503303E+03  0.46405285415E+03  0.12500000000E+03 0.  0.
         25    1    1    2    0    0  0.43406351503E+02  0.15190648132E+03 -0.90688252851E+02  0.22092770225E+03  0.12500000000E+03 0.  0.
</event>
<event>
 5    0  0.5489207E-005  0.3654433E+03  0.7546771E-02  0.1056449E+00
         21   -1    0    0  502  501  0.00000000000E+00  0.00000000000E+00  0.66839218056E+03  0.66839218056E+03  0.00000000000E+00 0.  1.
         21   -1    0    0  501  502 -0.00000000000E+00 -0.00000000000E+00 -0.19980604100E+03  0.19980604100E+03  0.00000000000E+00 0.  1.
         25    1    1    2    0    0 -0.84150405938E+01 -0.81141869473E+02  0.55282301189E+02  0.15917270091E+03  0.12500000000E+03 0.  0.
         25    1    1    2    0    0  0.16809812587E+03  0.33886992026E+02  0.45006468842E+03  0.49758268852E+03  0.12500000000E+03 0.  0.
         25    1    1    2    0    0 -0.15968308528E+03  0.47254877447E+02 -0.36760850040E+02  0.21144283214E+03  0.12500000000E+03 0.  0.
</event>
<event>
 5    0  0.5489207E-005  0.3035304E+03  0.7546771E-02  0.1083489E+00
         21   -1    0    0  502  501  0.00000000000E+00  0.00000000000E+00  0.63225679054E+03  0.63225679054E+03  0.00000000000E+00 0. -1.
         21   -1    0    0  501  502 -0.00000000000E+00 -0.00000000000E+00 -0.14571721185E+03  0.14571721185E+03  0.00000000000E+00 0. -1.
         25    1    1    2    0    0 -0.29928240272E+02  0.16839291843E+02 -0.73866839083E+02  0.14919976954E+03  0.12500000000E+03 0.  0.
         25    1    1    2    0    0  0.14963503202E+02  0.65720067798E+00  0.13415122297E+03  0.18397252231E+03  0.12500000000E+03 0.  0.
         25    1    1    2    0    0  0.14964737071E+02 -0.17496492521E+02  0.42625519480E+03  0.44480171054E+03  0.12500000000E+03 0.  0.
</event>
<event>
 5    0  0.5489207E-005  0.3309027E+03  0.7546771E-02  0.1070738E+00
         21   -1    0    0  502  501  0.00000000000E+00  0.00000000000E+00  0.11717281881E+03  0.11717281881E+03  0.00000000000E+00 0. -1.
         21   -1    0    0  501  502 -0.00000000000E+00 -0.00000000000E+00 -0.93448790668E+03  0.93448790668E+03  0.00000000000E+00 0. -1.
         25    1    1    2    0    0 -0.12724746889E+02 -0.11970819749E+02 -0.31453629466E+03  0.33891488661E+03  0.12500000000E+03 0.  0.
         25    1    1    2    0    0  0.16601876540E+03  0.17350689294E+02 -0.46729852164E+03  0.51171885368E+03  0.12500000000E+03 0.  0.
         25    1    1    2    0    0 -0.15329401851E+03 -0.53798695448E+01 -0.35480271563E+02  0.20102698520E+03  0.12500000000E+03 0.  0.
</event>
<event>
 5    0  0.5489207E-005  0.4478518E+03  0.7546771E-02  0.1028365E+00
         21   -1    0    0  502  501  0.00000000000E+00  0.00000000000E+00  0.34755528308E+03  0.34755528308E+03  0.00000000000E+00 0. -1.
         21   -1    0    0  501  502 -0.00000000000E+00 -0.00000000000E+00 -0.57709151410E+03  0.57709151410E+03  0.00000000000E+00 0. -1.
         25    1    1    2    0    0  0.21873615030E+03 -0.94348631434E+01  0.11633643314E+03  0.27765749722E+03  0.12500000000E+03 0.  0.
         25    1    1    2    0    0  0.10971522571E+03  0.44841666045E+02 -0.20232246819E+03  0.26572088157E+03  0.12500000000E+03 0.  0.
         25    1    1    2    0    0 -0.32845137601E+03 -0.35406802902E+02 -0.14355019597E+03  0.38126841839E+03  0.12500000000E+03 0.  0.
</event>
<event>
 5    0  0.6195712E-005  0.3511390E+03  0.7546771E-02  0.1062149E+00
         21   -1    0    0  502  501  0.00000000000E+00  0.00000000000E+00  0.94894905733E+03  0.94894905733E+03  0.00000000000E+00 0. -1.
         21   -1    0    0  501  502 -0.00000000000E+00 -0.00000000000E+00 -0.12993171395E+03  0.12993171395E+03  0.00000000000E+00 0. -1.
         25    1    1    2    0    0 -0.12547782426E+03  0.11925595023E+03  0.29800915741E+03  0.36660758850E+03  0.12500000000E+03 0.  0.
         25    1    1    2    0    0  0.10019493130E+03 -0.17240078101E+03  0.52363116297E+03  0.57408679517E+03  0.12500000000E+03 0.  0.
         25    1    1    2    0    0  0.25282892955E+02  0.53144830775E+02 -0.26229769945E+01  0.13818638762E+03  0.12500000000E+03 0.  0.
</event>
<event>
 5    0  0.5489207E-005  0.3647964E+03  0.7546771E-02  0.1056701E+00
         21   -1    0    0  502  501  0.00000000000E+00  0.00000000000E+00  0.14383124598E+03  0.14383124598E+03  0.00000000000E+00 0. -1.
         21   -1    0    0  501  502 -0.00000000000E+00 -0.00000000000E+00 -0.92522591956E+03  0.92522591956E+03  0.00000000000E+00 0. -1.
         25    1    1    2    0    0 -0.20085487886E+03  0.70916067770E+01 -0.34061667510E+02  0.23911957352E+03  0.12500000000E+03 0.  0.
         25    1    1    2    0    0  0.18435044827E+03 -0.25347262070E+02 -0.38066460453E+03  0.44176703432E+03  0.12500000000E+03 0.  0.
         25    1    1    2    0    0  0.16504430582E+02  0.18255655293E+02 -0.36666840154E+03  0.38817055770E+03  0.12500000000E+03 0.  0.
</event>
<event>
 5    0  0.5489207E-005  0.2209154E+03  0.7546771E-02  0.1133202E+00
         21   -1    0    0  502  501  0.00000000000E+00  0.00000000000E+00  0.74089744933E+02  0.74089744933E+02  0.00000000000E+00 0. -1.
         21   -1    0    0  501  502 -0.00000000000E+00 -0.00000000000E+00 -0.65870926832E+03  0.65870926832E+03  0.00000000000E+00 0. -1.
         25    1    1    2    0    0  0.40304791723E+02 -0.63179312136E+02 -0.91588424934E+02  0.17213233659E+03  0.12500000000E+03 0.  0.
         25    1    1    2    0    0 -0.28139446090E+02  0.15461890193E+02 -0.28726131942E+03  0.31492056793E+03  0.12500000000E+03 0.  0.
         25    1    1    2    0    0 -0.12165345632E+02  0.47717421943E+02 -0.20576977903E+03  0.24574610872E+03  0.12500000000E+03 0.  0.
</event>
<event>
 5    0  0.5489207E-005  0.3071238E+03  0.7546771E-02  0.1081733E+00
         21   -1    0    0  502  501  0.00000000000E+00  0.00000000000E+00  0.77264527210E+03  0.77264527210E+03  0.00000000000E+00 0.  1.
         21   -1    0    0  501  502 -0.00000000000E+00 -0.00000000000E+00 -0.12208067598E+03  0.12208067598E+03  0.00000000000E+00 0.  1.
         25    1    1    2    0    0  0.11561116273E+03  0.23448287970E+02  0.67107942139E+02  0.18451081013E+03  0.12500000000E+03 0.  0.
         25    1    1    2    0    0 -0.16856860338E+03 -0.55061205845E+02  0.17535196824E+03  0.27896312158E+03  0.12500000000E+03 0.  0.
         25    1    1    2    0    0  0.52957440646E+02  0.31612917874E+02  0.40810468575E+03  0.43125201637E+03  0.12500000000E+03 0.  0.
</event>
<event>
 5    0  0.5489207E-005  0.3513368E+03  0.7546771E-02  0.1062068E+00
         21   -1    0    0  502  501  0.00000000000E+00  0.00000000000E+00  0.16086495521E+03  0.16086495521E+03  0.00000000000E+00 0.  1.
         21   -1    0    0  501  502 -0.00000000000E+00 -0.00000000000E+00 -0.76733645755E+03  0.76733645755E+03  0.00000000000E+00 0.  1.
         25    1    1    2    0    0  0.62057537956E+02  0.11981844809E+03 -0.17584818947E+03  0.25447039958E+03  0.12500000000E+03 0.  0.
         25    1    1    2    0    0 -0.17275303178E+03 -0.29809458302E+02 -0.43350079378E+03  0.48402494977E+03  0.12500000000E+03 0.  0.
         25    1    1    2    0    0  0.11069549382E+03 -0.90008989789E+02  0.28774809169E+01  0.18970606340E+03  0.12500000000E+03 0.  0.
</event>
<event>
 5    0  0.5489207E-005  0.4623540E+03  0.7546771E-02  0.1024101E+00
         21   -1    0    0  502  501  0.00000000000E+00  0.00000000000E+00  0.62941548179E+02  0.62941548179E+02  0.00000000000E+00 0.  1.
         21   -1    0    0  501  502 -0.00000000000E+00 -0.00000000000E+00 -0.33963449234E+04  0.33963449234E+04  0.00000000000E+00 0.  1.
         25    1    1    2    0    0 -0.30662266571E+03 -0.39794486707E+02 -0.12249189859E+04  0.12695087956E+04  0.12500000000E+03 0.  0.
         25    1    1    2    0    0  0.17799600105E+03  0.22297232559E+03 -0.14514915773E+04  0.14845376497E+04  0.12500000000E+03 0.  0.
         25    1    1    2    0    0  0.12862666466E+03 -0.18317783888E+03 -0.65699281205E+03  0.70524002624E+03  0.12500000000E+03 0.  0.
</event>
<event>
 5    0  0.5489207E-005  0.2847436E+03  0.7546771E-02  0.1093126E+00
         21   -1    0    0  502  501  0.00000000000E+00  0.00000000000E+00  0.37302768144E+03  0.37302768144E+03  0.00000000000E+00 0.  1.
         21   -1    0    0  501  502 -0.00000000000E+00 -0.00000000000E+00 -0.21735361227E+03  0.21735361227E+03  0.00000000000E+00 0.  1.
         25    1    1    2    0    0 -0.56961815179E+02  0.28814752355E+02  0.71788230912E+01  0.14053993682E+03  0.12500000000E+03 0.  0.
         25    1    1    2    0    0 -0.11053731980E+03  0.72765664763E+02  0.16982442252E+02  0.18282982356E+03  0.12500000000E+03 0.  0.
         25    1    1    2    0    0  0.16749913498E+03 -0.10158041712E+03  0.13151280382E+03  0.26701153333E+03  0.12500000000E+03 0.  0.
</event>
<event>
 5    0  0.6142648E-005  0.3323567E+03  0.7546771E-02  0.1070099E+00
         21   -1    0    0  502  501  0.00000000000E+00  0.00000000000E+00  0.56882378578E+03  0.56882378578E+03  0.00000000000E+00 0. -1.
         21   -1    0    0  501  502 -0.00000000000E+00 -0.00000000000E+00 -0.19419196524E+03  0.19419196524E+03  0.00000000000E+00 0. -1.
         25    1    1    2    0    0 -0.12204636810E+03 -0.10525975193E+03  0.26199415514E+03  0.33202540365E+03  0.12500000000E+03 0.  0.
         25    1    1    2    0    0  0.95581635693E+02 -0.57587640694E+02 -0.41845041507E+02  0.17270840437E+03  0.12500000000E+03 0.  0.
         25    1    1    2    0    0  0.26464732407E+02  0.16284739262E+03  0.15448270690E+03  0.25828194299E+03  0.12500000000E+03 0.  0.
</event>
<event>
 5    0  0.5722751E-005  0.4435945E+03  0.7546771E-02  0.1029650E+00
         21   -1    0    0  502  501  0.00000000000E+00  0.00000000000E+00  0.10541384048E+04  0.10541384048E+04  0.00000000000E+00 0.  1.
         21   -1    0    0  501  502 -0.00000000000E+00 -0.00000000000E+00 -0.18667007679E+03  0.18667007679E+03  0.00000000000E+00 0.  1.
         25    1    1    2    0    0  0.12458848904E+03  0.15192954934E+03  0.38623260250E+03  0.45100499199E+03  0.12500000000E+03 0.  0.
         25    1    1    2    0    0 -0.26582503920E+03  0.78189851103E+02  0.13308430851E+03  0.33183284565E+03  0.12500000000E+03 0.  0.
         25    1    1    2    0    0  0.14123655016E+03 -0.23011940045E+03  0.34815141700E+03  0.45797064395E+03  0.12500000000E+03 0.  0.
</event>
<event>
 5    0  0.5489207E-005  0.3623976E+03  0.7546771E-02  0.1057639E+00
         21   -1    0    0  502  501  0.00000000000E+00  0.00000000000E+00  0.72067062523E+02  0.72067062523E+02  0.00000000000E+00 0.  1.
         21   -1    0    0  501  502 -0.00000000000E+00 -0.00000000000E+00 -0.18223586379E+04  0.18223586379E+04  0.00000000000E+00 0.  1.
         25    1    1    2    0    0  0.13026313255E+03  0.38688886732E+02 -0.87213671820E+03  0.89146663925E+03  0.12500000000E+03 0.  0.
         25    1    1    2    0    0  0.32242858442E+00 -0.17610976793E+03 -0.22687213707E+03  0.31322630940E+03  0.12500000000E+03 0.  0.
         25    1    1    2    0    0 -0.13058556114E+03  0.13742088120E+03 -0.65128272015E+03  0.68973275182E+03  0.12500000000E+03 0.  0.
</event>
<event>
 5    0  0.5489207E-005  0.2795794E+03  0.7546771E-02  0.1095919E+00
         21   -1    0    0  502  501  0.00000000000E+00  0.00000000000E+00  0.19062091621E+03  0.19062091621E+03  0.00000000000E+00 0.  1.
         21   -1    0    0  501  502 -0.00000000000E+00 -0.00000000000E+00 -0.41005271169E+03  0.41005271169E+03  0.00000000000E+00 0.  1.
         25    1    1    2    0    0  0.14918146085E+02  0.12699506616E+03 -0.19478093388E+03  0.26441427744E+03  0.12500000000E+03 0.  0.
         25    1    1    2    0    0  0.70644989774E+02 -0.75062449866E+02  0.34316164389E+02  0.16561305836E+03  0.12500000000E+03 0.  0.
         25    1    1    2    0    0 -0.85563135860E+02 -0.51932616299E+02 -0.58967025990E+02  0.17064629210E+03  0.12500000000E+03 0.  0.
</event>
<event>
 5    0  0.5489207E-005  0.3301013E+03  0.7546771E-02  0.1071092E+00
         21   -1    0    0  502  501  0.00000000000E+00  0.00000000000E+00  0.60756825665E+02  0.60756825665E+02  0.00000000000E+00 0. -1.
         21   -1    0    0  501  502 -0.00000000000E+00 -0.00000000000E+00 -0.17934915697E+04  0.17934915697E+04  0.00000000000E+00 0. -1.
         25    1    1    2    0    0 -0.91682497205E+02 -0.17225502340E+03 -0.87608024629E+03  0.90621138335E+03  0.12500000000E+03 0.  0.
         25    1    1    2    0    0  0.11795606389E+03  0.11689919528E+03 -0.24762048328E+03  0.32329546642E+03  0.12500000000E+03 0.  0.
         25    1    1    2    0    0 -0.26273566688E+02  0.55355828126E+02 -0.60903401442E+03  0.62474154554E+03  0.12500000000E+03 0.  0.
</event>
<event>
 5    0  0.5489207E-005  0.2363088E+03  0.7546771E-02  0.1122276E+00
         21   -1    0    0  502  501  0.00000000000E+00  0.00000000000E+00  0.23339203090E+03  0.23339203090E+03  0.00000000000E+00 0. -1.
         21   -1    0    0  501  502 -0.00000000000E+00 -0.00000000000E+00 -0.23926207409E+03  0.23926207409E+03  0.00000000000E+00 0. -1.
         25    1    1    2    0    0 -0.25014527532E+02 -0.65688864200E+02 -0.85705918606E+02  0.16706662728E+03  0.12500000000E+03 0.  0.
         25    1    1    2    0    0  0.52522536433E+02  0.88581522825E+02  0.22606861905E+02  0.16352789739E+03  0.12500000000E+03 0.  0.
         25    1    1    2    0    0 -0.27508008901E+02 -0.22892658625E+02  0.57229013513E+02  0.14205958032E+03  0.12500000000E+03 0.  0.
</event>
<event>
 5    0  0.5489207E-005  0.3499026E+03  0.7546771E-02  0.1062655E+00
         21   -1    0    0  502  501  0.00000000000E+00  0.00000000000E+00  0.73206213933E+02  0.73206213933E+02  0.00000000000E+00 0. -1.
         21   -1    0    0  501  502 -0.00000000000E+00 -0.00000000000E+00 -0.16724239047E+04  0.16724239047E+04  0.00000000000E+00 0. -1.
         25    1    1    2    0    0 -0.13766286743E+03  0.17324029341E+03 -0.79528834644E+03  0.83490826941E+03  0.12500000000E+03 0.  0.
         25    1    1    2    0    0 -0.17085932011E+02 -0.11938743154E+03 -0.58417307056E+03  0.60944931229E+03  0.12500000000E+03 0.  0.
         25    1    1    2    0    0  0.15474879944E+03 -0.53852861871E+02 -0.21975627379E+03  0.30127253696E+03  0.12500000000E+03 0.  0.
</event>
<event>
 5    0  0.5489207E-005  0.2095870E+03  0.7546771E-02  0.1141893E+00
         21   -1    0    0  502  501  0.00000000000E+00  0.00000000000E+00  0.46499643885E+02  0.46499643885E+02  0.00000000000E+00 0. -1.
         21   -1    0    0  501  502 -0.00000000000E+00 -0.00000000000E+00 -0.94466808384E+03  0.94466808384E+03  0.00000000000E+00 0. -1.
         25    1    1    2    0    0 -0.39967800868E+02 -0.16991786317E+02 -0.28628514770E+03  0.31538917499E+03  0.12500000000E+03 0.  0.
         25    1    1    2    0    0  0.47628254396E+02  0.69733484535E+02 -0.33072085160E+03  0.36350033173E+03  0.12500000000E+03 0.  0.
         25    1    1    2    0    0 -0.76604535284E+01 -0.52741698218E+02 -0.28116244065E+03  0.31227822100E+03  0.12500000000E+03 0.  0.
</event>
<event>
 5    0  0.5489207E-005  0.4084651E+03  0.7546771E-02  0.1040887E+00
         21   -1    0    0  502  501  0.00000000000E+00  0.00000000000E+00  0.64883064403E+03  0.64883064403E+03  0.00000000000E+00 0.  1.
         21   -1    0    0  501  502 -0.00000000000E+00 -0.00000000000E+00 -0.25714531068E+03  0.25714531068E+03  0.00000000000E+00 0.  1.
         25    1    1    2    0    0  0.27301578782E+02  0.12617385453E+02 -0.10910789150E+02  0.12902953127E+03  0.12500000000E+03 0.  0.
         25    1    1    2    0    0 -0.23977365775E+03 -0.57553279552E+02 -0.28906118691E+02  0.27796465717E+03  0.12500000000E+03 0.  0.
         25    1    1    2    0    0  0.21247207897E+03  0.44935894099E+02  0.43150224119E+03  0.49898176627E+03  0.12500000000E+03 0.  0.
</event>
<event>
 5    0  0.5489207E-005  0.2494517E+03  0.7546771E-02  0.1113652E+00
         21   -1    0    0  502  501  0.00000000000E+00  0.00000000000E+00  0.87675289392E+02  0.87675289392E+02  0.00000000000E+00 0.  1.
         21   -1    0    0  501  502 -0.00000000000E+00 -0.00000000000E+00 -0.70973414409E+03  0.70973414409E+03  0.00000000000E+00 0.  1.
         25    1    1    2    0    0 -0.69206893641E+02 -0.99269011092E+02 -0.24191148553E+03  0.29797667278E+03  0.12500000000E+03 0.  0.
         25    1    1    2    0    0  0.89783495850E+02  0.86328965258E+02 -0.30272753491E+03  0.35040366260E+03  0.12500000000E+03 0.  0.
         25    1    1    2    0    0 -0.20576602208E+02  0.12940045834E+02 -0.77419834259E+02  0.14902909810E+03  0.12500000000E+03 0.  0.
</event>
<event>
 5    0  0.5489207E-005  0.3109980E+03  0.7546771E-02  0.1079869E+00
         21   -1    0    0  502  501  0.00000000000E+00  0.00000000000E+00  0.24413955370E+04  0.24413955370E+04  0.00000000000E+00 0.  1.
         21   -1    0    0  501  502 -0.00000000000E+00 -0.00000000000E+00 -0.39616574338E+02  0.39616574338E+02  0.00000000000E+00 0.  1.
         25    1    1    2    0    0  0.10493581587E+03  0.62516535674E+01  0.95091232579E+03  0.96483670119E+03  0.12500000000E+03 0.  0.
         25    1    1    2    0    0  0.12256473894E+02  0.13068028497E+02  0.12275899520E+04  0.12340676986E+04  0.12500000000E+03 0.  0.
         25    1    1    2    0    0 -0.11719228976E+03 -0.19319682065E+02  0.22327668486E+03  0.28210771151E+03  0.12500000000E+03 0.  0.
</event>
<event>
 5    0  0.6309624E-005  0.2877097E+03  0.7546771E-02  0.1091551E+00
         21   -1    0    0  502  501  0.00000000000E+00  0.00000000000E+00  0.46146273476E+03  0.46146273476E+03  0.00000000000E+00 0.  1.
         21   -1    0    0  501  502 -0.00000000000E+00 -0.00000000000E+00 -0.17937928879E+03  0.17937928879E+03  0.00000000000E+00 0.  1.
         25    1    1    2    0    0  0.48027080800E+02  0.71254161457E+02  0.17616585440E+03  0.23247185694E+03  0.12500000000E+03 0.  0.
         25    1    1    2    0    0  0.85654299510E+02  0.66074584007E+02  0.51935140983E+02  0.17327656664E+03  0.12500000000E+03 0.  0.
         25    1    1    2    0    0 -0.13368138031E+03 -0.13732874546E+03  0.53982450591E+02  0.23509359996E+03  0.12500000000E+03 0.  0.
</event>
<event>
 5    0  0.5489207E-005  0.3115691E+03  0.7546771E-02  0.1079596E+00
         21   -1    0    0  502  501  0.00000000000E+00  0.00000000000E+00  0.27027152880E+03  0.27027152880E+03  0.00000000000E+00 0. -1.
         21   -1    0    0  501  502 -0.00000000000E+00 -0.00000000000E+00 -0.35917687948E+03  0.35917687948E+03  0.00000000000E+00 0. -1.
         25    1    1    2    0    0  0.20644677495E+03  0.44434764445E+02 -0.10810011950E+03  0.26815173879E+03  0.12500000000E+03 0.  0.
         25    1    1    2    0    0 -0.53713470142E+02 -0.22880807958E+02  0.72328312627E+02  0.15577243997E+03  0.12500000000E+03 0.  0.
         25    1    1    2    0    0 -0.15273330481E+03 -0.21553956487E+02 -0.53133543807E+02  0.20552422951E+03  0.12500000000E+03 0.  0.
</event>
<event>
 5    0  0.5489207E-005  0.4076883E+03  0.7546771E-02  0.1041150E+00
         21   -1    0    0  502  501  0.00000000000E+00  0.00000000000E+00  0.38365066912E+03  0.38365066912E+03  0.00000000000E+00 0.  1.
         21   -1    0    0  501  502 -0.00000000000E+00 -0.00000000000E+00 -0.43323192558E+03  0.43323192558E+03  0.00000000000E+00 0.  1.
         25    1    1    2    0    0 -0.66266599055E+02 -0.75461638435E+02 -0.86394615865E+02  0.18213937157E+03  0.12500000000E+03 0.  0.
         25    1    1    2    0    0 -0.16717014727E+02  0.21623041830E+03 -0.20046173873E+03  0.32069449804E+03  0.12500000000E+03 0.  0.
         25    1    1    2    0    0  0.82983613781E+02 -0.14076877986E+03  0.23727509813E+03  0.31404872509E+03  0.12500000000E+03 0.  0.
</event>
<event>
 5    0  0.5489207E-005  0.3755520E+03  0.7546771E-02  0.1052590E+00
         21   -1    0    0  502  501  0.00000000000E+00  0.00000000000E+00  0.92682124278E+03  0.92682124278E+03  0.00000000000E+00 0.  1.
         21   -1    0    0  501  502 -0.00000000000E+00 -0.00000000000E+00 -0.15217528781E+03  0.15217528781E+03  0.00000000000E+00 0.  1.
         25    1    1    2    0    0  0.45254006478E+02 -0.14887228558E+03  0.45293622719E+03  0.49496172419E+03  0.12500000000E+03 0.  0.
         25    1    1    2    0    0 -0.20997725869E+03  0.71794856503E+02  0.23621592425E+03  0.34737287381E+03  0.12500000000E+03 0.  0.
         25    1    1    2    0    0  0.16472325221E+03  0.77077429077E+02  0.85493803525E+02  0.23666193258E+03  0.12500000000E+03 0.  0.
</event>
<event>
 5    0  0.5489207E-005  0.4560147E+03  0.7546771E-02  0.1025943E+00
         21   -1    0    0  502  501  0.00000000000E+00  0.00000000000E+00  0.12223179423E+04  0.12223179423E+04  0.00000000000E+00 0.  1.
         21   -1    0    0  501  502 -0.00000000000E+00 -0.00000000000E+00 -0.17012707719E+03  0.17012707719E+03  0.00000000000E+00 0.  1.
         25    1    1    2    0    0 -0.21858654446E+03  0.25830448062E+03  0.56379199351E+03  0.66931882841E+03  0.12500000000E+03 0.  0.
         25    1    1    2    0    0 -0.19806037516E+02 -0.29117120026E+02  0.28995583312E+03  0.31770972752E+03  0.12500000000E+03 0.  0.
         25    1    1    2    0    0  0.23839258198E+03 -0.22918736059E+03  0.19844303847E+03  0.40541646355E+03  0.12500000000E+03 0.  0.
</event>
<event>
 5    0  0.5489207E-005  0.2833723E+03  0.7546771E-02  0.1093861E+00
         21   -1    0    0  502  501  0.00000000000E+00  0.00000000000E+00  0.45843405773E+03  0.45843405773E+03  0.00000000000E+00 0. -1.
         21   -1    0    0  501  502 -0.00000000000E+00 -0.00000000000E+00 -0.17516119102E+03  0.17516119102E+03  0.00000000000E+00 0. -1.
         25    1    1    2    0    0 -0.14690029870E+02  0.46405184251E+02  0.25903096547E+03  0.29170409523E+03  0.12500000000E+03 0.  0.
         25    1    1    2    0    0  0.56770986079E+02  0.47158205105E+02  0.86076063603E+02  0.16876293993E+03  0.12500000000E+03 0.  0.
         25    1    1    2    0    0 -0.42080956209E+02 -0.93563389356E+02 -0.61834162364E+02  0.17312821358E+03  0.12500000000E+03 0.  0.
</event>
<event>
 5    0  0.6173569E-005  0.3321945E+03  0.7546771E-02  0.1070170E+00
         21   -1    0    0  502  501  0.00000000000E+00  0.00000000000E+00  0.27942339966E+03  0.27942339966E+03  0.00000000000E+00 0.  1.
         21   -1    0    0  501  502 -0.00000000000E+00 -0.00000000000E+00 -0.39493178067E+03  0.39493178067E+03  0.00000000000E+00 0.  1.
         25    1    1    2    0    0  0.18971139076E+03 -0.60330302389E+01 -0.21300849041E+02  0.22826636942E+03  0.12500000000E+03 0.  0.
         25    1    1    2    0    0 -0.17030744143E+03  0.32940300600E+02 -0.18929698557E+03  0.28556616879E+03  0.12500000000E+03 0.  0.
         25    1    1    2    0    0 -0.19403949330E+02 -0.26907270361E+02  0.95089453608E+02  0.16052264213E+03  0.12500000000E+03 0.  0.
</event>
<event>
 5    0  0.6969043E-005  0.5802703E+03  0.7546771E-02  0.9947206E-01
         21   -1    0    0  502  501  0.00000000000E+00  0.00000000000E+00  0.66754612374E+03  0.66754612374E+03  0.00000000000E+00 0.  1.
         21   -1    0    0  501  502 -0.00000000000E+00 -0.00000000000E+00 -0.50440502517E+03  0.50440502517E+03  0.00000000000E+00 0.  1.
         25    1    1    2    0    0 -0.48009366512E+02 -0.12986735808E+03  0.37546745206E+03  0.41925080503E+03  0.12500000000E+03 0.  0.
         25    1    1    2    0    0  0.32752467701E+03  0.31325947813E+02  0.25172272907E+02  0.35286310714E+03  0.12500000000E+03 0.  0.
         25    1    1    2    0    0 -0.27951531050E+03  0.98541410263E+02 -0.23749862639E+03  0.39983723674E+03  0.12500000000E+03 0.  0.
</event>
<event>
 5    0  0.5489207E-005  0.2248914E+03  0.7546771E-02  0.1130288E+00
         21   -1    0    0  502  501  0.00000000000E+00  0.00000000000E+00  0.40477658409E+03  0.40477658409E+03  0.00000000000E+00 0.  1.
         21   -1    0    0  501  502 -0.00000000000E+00 -0.00000000000E+00 -0.12494826811E+03  0.12494826811E+03  0.00000000000E+00 0.  1.
         25    1    1    2    0    0  0.10998385573E+01  0.25437134613E+02  0.77424015721E+02  0.14922377717E+03  0.12500000000E+03 0.  0.
         25    1    1    2    0    0 -0.48287891058E+02  0.71923112248E+02  0.12978498320E+03  0.19993448017E+03  0.12500000000E+03 0.  0.
         25    1    1    2    0    0  0.47188052501E+02 -0.97360246861E+02  0.72619317056E+02  0.18056659485E+03  0.12500000000E+03 0.  0.
</event>
<event>
 5    0  0.5489207E-005  0.4062370E+03  0.7546771E-02  0.1041641E+00
         21   -1    0    0  502  501  0.00000000000E+00  0.00000000000E+00  0.53785915937E+03  0.53785915937E+03  0.00000000000E+00 0.  1.
         21   -1    0    0  501  502 -0.00000000000E+00 -0.00000000000E+00 -0.30682469147E+03  0.30682469147E+03  0.00000000000E+00 0.  1.
         25    1    1    2    0    0  0.17728267731E+03 -0.13219235282E+03  0.37065764844E+03  0.44935070731E+03  0.12500000000E+03 0.  0.
         25    1    1    2    0    0 -0.67171025944E+02 -0.18531199663E+02 -0.34002641754E+02  0.14709361554E+03  0.12500000000E+03 0.  0.
         25    1    1    2    0    0 -0.11011165137E+03  0.15072355249E+03 -0.10562053878E+03  0.24823952798E+03  0.12500000000E+03 0.  0.
</event>
<event>
 5    0  0.5489207E-005  0.2834954E+03  0.7546771E-02  0.1093795E+00
         21   -1    0    0  502  501  0.00000000000E+00  0.00000000000E+00  0.53238633249E+03  0.53238633249E+03  0.00000000000E+00 0. -1.
         21   -1    0    0  501  502 -0.00000000000E+00 -0.00000000000E+00 -0.15096110651E+03  0.15096110651E+03  0.00000000000E+00 0. -1.
         25    1    1    2    0    0  0.59048204173E+02 -0.24069074587E+00  0.19423145992E+03  0.23840639331E+03  0.12500000000E+03 0.  0.
         25    1    1    2    0    0 -0.45180784655E+02  0.12944812240E+03  0.18868743319E+03  0.26462438878E+03  0.12500000000E+03 0.  0.
         25    1    1    2    0    0 -0.13867419518E+02 -0.12920743165E+03 -0.14936671261E+01  0.18031665691E+03  0.12500000000E+03 0.  0.
</event>
<event>
 5    0  0.5489207E-005  0.4006667E+03  0.7546771E-02  0.1043549E+00
         21   -1    0    0  502  501  0.00000000000E+00  0.00000000000E+00  0.25971159719E+04  0.25971159719E+04  0.00000000000E+00 0.  1.
         21   -1    0    0  501  502 -0.00000000000E+00 -0.00000000000E+00 -0.61812342857E+02  0.61812342857E+02  0.00000000000E+00 0.  1.
         25    1    1    2    0    0  0.19575442691E+03  0.15680400269E+03  0.10349213922E+04  0.10721914843E+04  0.12500000000E+03 0.  0.
         25    1    1    2    0    0 -0.10056254934E+03 -0.63171170346E+02  0.16420801329E+03  0.23810227786E+03  0.12500000000E+03 0.  0.
         25    1    1    2    0    0 -0.95191877576E+02 -0.93632832341E+02  0.13361742235E+04  0.13486345526E+04  0.12500000000E+03 0.  0.
</event>
<event>
 5    0  0.5489207E-005  0.3070182E+03  0.7546771E-02  0.1081784E+00
         21   -1    0    0  502  501  0.00000000000E+00  0.00000000000E+00  0.72195929412E+02  0.72195929412E+02  0.00000000000E+00 0.  1.
         21   -1    0    0  501  502 -0.00000000000E+00 -0.00000000000E+00 -0.13056159567E+04  0.13056159567E+04  0.00000000000E+00 0.  1.
         25    1    1    2    0    0  0.93961272857E+02  0.22720702885E+02 -0.25164935018E+03  0.29714869439E+03  0.12500000000E+03 0.  0.
         25    1    1    2    0    0 -0.10940333509E+03 -0.98119826686E+02 -0.88276662469E+03  0.90360306760E+03  0.12500000000E+03 0.  0.
         25    1    1    2    0    0  0.15442062233E+02  0.75399123801E+02 -0.99004052431E+02  0.17706012412E+03  0.12500000000E+03 0.  0.
</event>
<event>
 5    0  0.5489207E-005  0.3044726E+03  0.7546771E-02  0.1083026E+00
         21   -1    0    0  502  501  0.00000000000E+00  0.00000000000E+00  0.82074319938E+02  0.82074319938E+02  0.00000000000E+00 0. -1.
         21   -1    0    0  501  502 -0.00000000000E+00 -0.00000000000E+00 -0.11295073958E+04  0.11295073958E+04  0.00000000000E+00 0. -1.
         25    1    1    2    0    0 -0.13881408062E+02 -0.41937783259E+02 -0.18126546102E+03  0.22457434963E+03  0.12500000000E+03 0.  0.
         25    1    1    2    0    0  0.75605747923E+02  0.14548537792E+03 -0.16331439837E+03  0.26301866288E+03  0.12500000000E+03 0.  0.
         25    1    1    2    0    0 -0.61724339861E+02 -0.10354759466E+03 -0.70285321651E+03  0.72398870326E+03  0.12500000000E+03 0.  0.
</event>
<event>
 5    0  0.5489207E-005  0.3911224E+03  0.7546771E-02  0.1046898E+00
         21   -1    0    0  502  501  0.00000000000E+00  0.00000000000E+00  0.30283703310E+03  0.30283703310E+03  0.00000000000E+00 0.  1.
         21   -1    0    0  501  502 -0.00000000000E+00 -0.00000000000E+00 -0.50514530514E+03  0.50514530514E+03  0.00000000000E+00 0.  1.
         25    1    1    2    0    0  0.11613293276E+03 -0.16252166985E+03  0.10808794785E+03  0.25924535813E+03  0.12500000000E+03 0.  0.
         25    1    1    2    0    0  0.10188030737E+02  0.49952040809E+02  0.39336711731E+02  0.14061073658E+03  0.12500000000E+03 0.  0.
         25    1    1    2    0    0 -0.12632096349E+03  0.11256962904E+03 -0.34973293162E+03  0.40812624353E+03  0.12500000000E+03 0.  0.
</event>
<event>
 5    0  0.5489207E-005  0.2249225E+03  0.7546771E-02  0.1130265E+00
         21   -1    0    0  502  501  0.00000000000E+00  0.00000000000E+00  0.18929003078E+03  0.18929003078E+03  0.00000000000E+00 0. -1.
         21   -1    0    0  501  502 -0.00000000000E+00 -0.00000000000E+00 -0.26726259638E+03  0.26726259638E+03  0.00000000000E+00 0. -1.
         25    1    1    2    0    0 -0.92884653502E+02 -0.17194913102E+02 -0.57086478013E+02  0.16675457974E+03  0.12500000000E+03 0.  0.
         25    1    1    2    0    0  0.89635046155E+02 -0.11190516127E+02 -0.42019279220E+02  0.15984457756E+03  0.12500000000E+03 0.  0.
         25    1    1    2    0    0  0.32496073464E+01  0.28385429229E+02  0.21133191635E+02  0.12995346986E+03  0.12500000000E+03 0.  0.
</event>
<event>
 5    0  0.5489207E-005  0.2467186E+03  0.7546771E-02  0.1115396E+00
         21   -1    0    0  502  501  0.00000000000E+00  0.00000000000E+00  0.15947389652E+03  0.15947389652E+03  0.00000000000E+00 0.  1.
         21   -1    0    0  501  502 -0.00000000000E+00 -0.00000000000E+00 -0.38169295794E+03  0.38169295794E+03  0.00000000000E+00 0.  1.
         25    1    1    2    0    0  0.54354341500E+02 -0.75055493597E+01 -0.63390118130E+02  0.15051257352E+03  0.12500000000E+03 0.  0.
         25    1    1    2    0    0  0.59002469933E+02 -0.51689127667E+02 -0.15177001030E+03  0.21168890714E+03  0.12500000000E+03 0.  0.
         25    1    1    2    0    0 -0.11335681143E+03  0.59194677027E+02 -0.70589329900E+01  0.17896537381E+03  0.12500000000E+03 0.  0.
</event>
<event>
 5    0  0.5489207E-005  0.3334011E+03  0.7546771E-02  0.1069642E+00
         21   -1    0    0  502  501  0.00000000000E+00  0.00000000000E+00  0.13877342994E+03  0.13877342994E+03  0.00000000000E+00 0. -1.
         21   -1    0    0  501  502 -0.00000000000E+00 -0.00000000000E+00 -0.80099109292E+03  0.80099109292E+03  0.00000000000E+00 0. -1.
         25    1    1    2    0    0  0.47990752841E+02 -0.11622457772E+03 -0.44527871400E+03  0.47928008301E+03  0.12500000000E+03 0.  0.
         25    1    1    2    0    0  0.49485292249E+02 -0.16058682226E+02 -0.21492347789E+03  0.25401530814E+03  0.12500000000E+03 0.  0.
         25    1    1    2    0    0 -0.97476045090E+02  0.13228325995E+03 -0.20154710962E+01  0.20646913172E+03  0.12500000000E+03 0.  0.
</event>
<event>
 5    0  0.5544325E-005  0.3316977E+03  0.7546771E-02  0.1070388E+00
         21   -1    0    0  502  501  0.00000000000E+00  0.00000000000E+00  0.11876068049E+03  0.11876068049E+03  0.00000000000E+00 0.  1.
         21   -1    0    0  501  502 -0.00000000000E+00 -0.00000000000E+00 -0.92642944201E+03  0.92642944201E+03  0.00000000000E+00 0.  1.
         25    1    1    2    0    0  0.12483722264E+03 -0.16979164225E+03 -0.35280228644E+03  0.42954392936E+03  0.12500000000E+03 0.  0.
         25    1    1    2    0    0 -0.10280190125E+03  0.72835555325E+01 -0.64908074029E+02  0.17452604149E+03  0.12500000000E+03 0.  0.
         25    1    1    2    0    0 -0.22035321387E+02  0.16250808671E+03 -0.38995840106E+03  0.44112015165E+03  0.12500000000E+03 0.  0.
</event>
<event>
 5    0  0.5489207E-005  0.4589585E+03  0.7546771E-02  0.1025084E+00
         21   -1    0    0  502  501  0.00000000000E+00  0.00000000000E+00  0.59944677623E+02  0.59944677623E+02  0.00000000000E+00 0. -1.
         21   -1    0    0  501  502 -0.00000000000E+00 -0.00000000000E+00 -0.35139549862E+04  0.35139549862E+04  0.00000000000E+00 0. -1.
         25    1    1    2    0    0  0.93867533257E+02 -0.16473379075E+03 -0.11708382024E+04  0.11926589755E+04  0.12500000000E+03 0.  0.
         25    1    1    2    0    0  0.10563095304E+02 -0.68131358317E+02 -0.87885992145E+02  0.16763773019E+03  0.12500000000E+03 0.  0.
         25    1    1    2    0    0 -0.10443062856E+03  0.23286514907E+03 -0.21952861141E+04  0.22136029582E+04  0.12500000000E+03 0.  0.
</event>
<event>
 5    0  0.5489207E-005  0.4757972E+03  0.7546771E-02  0.1020297E+00
         21   -1    0    0  502  501  0.00000000000E+00  0.00000000000E+00  0.51403341789E+03  0.51403341789E+03  0.00000000000E+00 0.  1.
         21   -1    0    0  501  502 -0.00000000000E+00 -0.00000000000E+00 -0.44040508958E+03  0.44040508958E+03  0.00000000000E+00 0.  1.
         25    1    1    2    0    0  0.15063482454E+03  0.35692644583E+02 -0.35452117649E+03  0.40654037908E+03  0.12500000000E+03 0.  0.
         25    1    1    2    0    0 -0.14673811837E+03 -0.79840148137E+02  0.24562396374E+03  0.32227729706E+03  0.12500000000E+03 0.  0.
         25    1    1    2    0    0 -0.38967061731E+01  0.44147503553E+02  0.18252554107E+03  0.22562083133E+03  0.12500000000E+03 0.  0.
</event>
<event>
 5    0  0.5489207E-005  0.2614990E+03  0.7546771E-02  0.1106246E+00
         21   -1    0    0  502  501  0.00000000000E+00  0.00000000000E+00  0.12023682427E+03  0.12023682427E+03  0.00000000000E+00 0.  1.
         21   -1    0    0  501  502 -0.00000000000E+00 -0.00000000000E+00 -0.56872519677E+03  0.56872519677E+03  0.00000000000E+00 0.  1.
         25    1    1    2    0    0 -0.80698776672E+02 -0.85794501821E+02 -0.18614425252E+03  0.25327390676E+03  0.12500000000E+03 0.  0.
         25    1    1    2    0    0  0.59894914814E+02  0.10885718115E+03 -0.43146474848E+02  0.18144945577E+03  0.12500000000E+03 0.  0.
         25    1    1    2    0    0  0.20803861858E+02 -0.23062679328E+02 -0.21919764514E+03  0.25423865851E+03  0.12500000000E+03 0.  0.
</event>
<event>
 5    0  0.5489207E-005  0.2892784E+03  0.7546771E-02  0.1090726E+00
         21   -1    0    0  502  501  0.00000000000E+00  0.00000000000E+00  0.55620006166E+02  0.55620006166E+02  0.00000000000E+00 0.  1.
         21   -1    0    0  501  502 -0.00000000000E+00 -0.00000000000E+00 -0.15045309619E+04  0.15045309619E+04  0.00000000000E+00 0.  1.
         25    1    1    2    0    0  0.14421849269E+02 -0.21850669562E+02 -0.22648762037E+03  0.26001362210E+03  0.12500000000E+03 0.  0.
         25    1    1    2    0    0  0.12778382534E+03  0.93352803094E+02 -0.87613344219E+03  0.89904296915E+03  0.12500000000E+03 0.  0.
         25    1    1    2    0    0 -0.14220567461E+03 -0.71502133532E+02 -0.34628989316E+03  0.40109437679E+03  0.12500000000E+03 0.  0.
</event>
<event>
 5    0  0.5846050E-005  0.3478902E+03  0.7546771E-02  0.1063484E+00
         21   -1    0    0  502  501  0.00000000000E+00  0.00000000000E+00  0.52949008775E+03  0.52949008775E+03  0.00000000000E+00 0. -1.
         21   -1    0    0  501  502 -0.00000000000E+00 -0.00000000000E+00 -0.22857380152E+03  0.22857380152E+03  0.00000000000E+00 0. -1.
         25    1    1    2    0    0  0.16258495098E+03  0.16196951298E+03  0.25152444192E+03  0.36270860798E+03  0.12500000000E+03 0.  0.
         25    1    1    2    0    0 -0.20146025921E+02 -0.42881986685E+02 -0.59653831438E+02  0.14638410688E+03  0.12500000000E+03 0.  0.
         25    1    1    2    0    0 -0.14243892505E+03 -0.11908752629E+03  0.10904567575E+03  0.24897117441E+03  0.12500000000E+03 0.  0.
</event>
<event>
 5    0  0.5489207E-005  0.2948859E+03  0.7546771E-02  0.1087825E+00
         21   -1    0    0  502  501  0.00000000000E+00  0.00000000000E+00  0.25215999113E+02  0.25215999113E+02  0.00000000000E+00 0. -1.
         21   -1    0    0  501  502 -0.00000000000E+00 -0.00000000000E+00 -0.34485124993E+04  0.34485124993E+04  0.00000000000E+00 0. -1.
         25    1    1    2    0    0 -0.35415159545E+02  0.34544220457E+02 -0.47406760367E+03  0.49276021506E+03  0.12500000000E+03 0.  0.
         25    1    1    2    0    0  0.21634328570E+02 -0.58621697667E+02 -0.32693625042E+03  0.35555148636E+03  0.12500000000E+03 0.  0.
         25    1    1    2    0    0  0.13780830975E+02  0.24077477210E+02 -0.26222926461E+04  0.26254167970E+04  0.12500000000E+03 0.  0.
</event>
<event>
 5    0  0.5489207E-005  0.3353517E+03  0.7546771E-02  0.1068793E+00
         21   -1    0    0  502  501  0.00000000000E+00  0.00000000000E+00  0.40619114111E+03  0.40619114111E+03  0.00000000000E+00 0. -1.
         21   -1    0    0  501  502 -0.00000000000E+00 -0.00000000000E+00 -0.27686667737E+03  0.27686667737E+03  0.00000000000E+00 0. -1.
         25    1    1    2    0    0  0.27173541188E+02 -0.38421772841E+02  0.49714850509E+01  0.13365758352E+03  0.12500000000E+03 0.  0.
         25    1    1    2    0    0 -0.20674996067E+03  0.15514563065E+03  0.69667644326E+02  0.29545607730E+03  0.12500000000E+03 0.  0.
         25    1    1    2    0    0  0.17957641948E+03 -0.11672385781E+03  0.54685334363E+02  0.25394415766E+03  0.12500000000E+03 0.  0.
</event>
<event>
 5    0  0.5994643E-005  0.6100755E+03  0.7546771E-02  0.9884720E-01
         21   -1    0    0  502  501  0.00000000000E+00  0.00000000000E+00  0.46702852419E+03  0.46702852419E+03  0.00000000000E+00 0. -1.
         21   -1    0    0  501  502 -0.00000000000E+00 -0.00000000000E+00 -0.79693665418E+03  0.79693665418E+03  0.00000000000E+00 0. -1.
         25    1    1    2    0    0  0.35394790376E+02  0.44388220141E+03 -0.61689311443E+02  0.46659915458E+03  0.12500000000E+03 0.  0.
         25    1    1    2    0    0 -0.18961836659E+03 -0.18240382560E+03 -0.35361358566E+03  0.45814173408E+03  0.12500000000E+03 0.  0.
         25    1    1    2    0    0  0.15422357621E+03 -0.26147837580E+03  0.85394767119E+02  0.33922428970E+03  0.12500000000E+03 0.  0.
</event>
<event>
 5    0  0.5489207E-005  0.2440192E+03  0.7546771E-02  0.1117144E+00
         21   -1    0    0  502  501  0.00000000000E+00  0.00000000000E+00  0.47934516366E+03  0.47934516366E+03  0.00000000000E+00 0. -1.
         21   -1    0    0  501  502 -0.00000000000E+00 -0.00000000000E+00 -0.12422237203E+03  0.12422237203E+03  0.00000000000E+00 0. -1.
         25    1    1    2    0    0 -0.84314397838E+02  0.14983350129E+02  0.15122873996E+03  0.21407603849E+03  0.12500000000E+03 0.  0.
         25    1    1    2    0    0  0.10918614635E+03  0.62453191538E+02  0.75621356387E+02  0.19278383031E+03  0.12500000000E+03 0.  0.
         25    1    1    2    0    0 -0.24871748507E+02 -0.77436541667E+02  0.12827269528E+03  0.19670766689E+03  0.12500000000E+03 0.  0.
</event>
<event>
 5    0  0.5489207E-005  0.2674294E+03  0.7546771E-02  0.1102760E+00
         21   -1    0    0  502  501  0.00000000000E+00  0.00000000000E+00  0.25095331741E+03  0.25095331741E+03  0.00000000000E+00 0. -1.
         21   -1    0    0  501  502 -0.00000000000E+00 -0.00000000000E+00 -0.28498716490E+03  0.28498716490E+03  0.00000000000E+00 0. -1.
         25    1    1    2    0    0  0.42255225639E+02  0.72798024775E+02 -0.69356760806E+01  0.15085807936E+03  0.12500000000E+03 0.  0.
         25    1    1    2    0    0 -0.84295201790E+02 -0.88952034612E+02  0.99674130898E+02  0.20144001061E+03  0.12500000000E+03 0.  0.
         25    1    1    2    0    0  0.42039976151E+02  0.16154009837E+02 -0.12677230232E+03  0.18364239234E+03  0.12500000000E+03 0.  0.
</event>
<event>
 5    0  0.5497161E-005  0.6849716E+03  0.7546771E-02  0.9743284E-01
         21   -1    0    0  502  501  0.00000000000E+00  0.00000000000E+00  0.62760639223E+03  0.62760639223E+03  0.00000000000E+00 0. -1.
         21   -1    0    0  501  502 -0.00000000000E+00 -0.00000000000E+00 -0.74758026905E+03  0.74758026905E+03  0.00000000000E+00 0. -1.
         25    1    1    2    0    0  0.24863582146E+03  0.22881987432E+03 -0.23613536447E+03  0.43077049220E+03  0.12500000000E+03 0.  0.
         25    1    1    2    0    0 -0.22560147456E+03  0.41891798331E+02  0.43488820766E+03  0.50734968341E+03  0.12500000000E+03 0.  0.
         25    1    1    2    0    0 -0.23034346895E+02 -0.27071167265E+03 -0.31872672002E+03  0.43706648567E+03  0.12500000000E+03 0.  0.
</event>
<event>
 5    0  0.5489207E-005  0.2736995E+03  0.7546771E-02  0.1099181E+00
         21   -1    0    0  502  501  0.00000000000E+00  0.00000000000E+00  0.15228529367E+03  0.15228529367E+03  0.00000000000E+00 0. -1.
         21   -1    0    0  501  502 -0.00000000000E+00 -0.00000000000E+00 -0.49191490699E+03  0.49191490699E+03  0.00000000000E+00 0. -1.
         25    1    1    2    0    0 -0.65764993808E+02  0.39416400957E+02 -0.20747345921E+03  0.25406480148E+03  0.12500000000E+03 0.  0.
         25    1    1    2    0    0  0.14862222567E+03  0.31470165774E+01 -0.13093814404E+03  0.23423976443E+03  0.12500000000E+03 0.  0.
         25    1    1    2    0    0 -0.82857231864E+02 -0.42563417535E+02 -0.12180100725E+01  0.15589563475E+03  0.12500000000E+03 0.  0.
</event>
<event>
 5    0  0.5489207E-005  0.2669747E+03  0.7546771E-02  0.1103024E+00
         21   -1    0    0  502  501  0.00000000000E+00  0.00000000000E+00  0.45739799236E+03  0.45739799236E+03  0.00000000000E+00 0. -1.
         21   -1    0    0  501  502 -0.00000000000E+00 -0.00000000000E+00 -0.15582814516E+03  0.15582814516E+03  0.00000000000E+00 0. -1.
         25    1    1    2    0    0 -0.13699649737E+02  0.11502493554E+03  0.16299260453E+02  0.17119895470E+03  0.12500000000E+03 0.  0.
         25    1    1    2    0    0 -0.23512553481E+02  0.26734204958E+01  0.22092374028E+03  0.25493584756E+03  0.12500000000E+03 0.  0.
         25    1    1    2    0    0  0.37212203218E+02 -0.11769835603E+03  0.64346846465E+02  0.18709133526E+03  0.12500000000E+03 0.  0.
</event>
<event>
 5    0  0.5489207E-005  0.2414112E+03  0.7546771E-02  0.1118856E+00
         21   -1    0    0  502  501  0.00000000000E+00  0.00000000000E+00  0.84739372320E+02  0.84739372320E+02  0.00000000000E+00 0. -1.
         21   -1    0    0  501  502 -0.00000000000E+00 -0.00000000000E+00 -0.68774826751E+03  0.68774826751E+03  0.00000000000E+00 0. -1.
         25    1    1    2    0    0 -0.55978502457E+02  0.43183864930E+02 -0.37266623786E+03  0.39937897262E+03  0.12500000000E+03 0.  0.
         25    1    1    2    0    0  0.79518876274E+02 -0.67965942777E+02 -0.14299976133E+03  0.21683300671E+03  0.12500000000E+03 0.  0.
         25    1    1    2    0    0 -0.23540373817E+02  0.24782077847E+02 -0.87342896004E+02  0.15627566050E+03  0.12500000000E+03 0.  0.
</event>
<event>
 5    0  0.5489207E-005  0.2184675E+03  0.7546771E-02  0.1135031E+00
         21   -1    0    0  502  501  0.00000000000E+00  0.00000000000E+00  0.37176901044E+03  0.37176901044E+03  0.00000000000E+00 0.  1.
         21   -1    0    0  501  502 -0.00000000000E+00 -0.00000000000E+00 -0.12838095241E+03  0.12838095241E+03  0.00000000000E+00 0.  1.
         25    1    1    2    0    0  0.66315680597E+02  0.40432281660E+02  0.16918442464E+03  0.22423404834E+03  0.12500000000E+03 0.  0.
         25    1    1    2    0    0 -0.13140029366E+02 -0.28051149393E+02  0.27043392039E+02  0.13158978838E+03  0.12500000000E+03 0.  0.
         25    1    1    2    0    0 -0.53175651231E+02 -0.12381132268E+02  0.47160241353E+02  0.14432612613E+03  0.12500000000E+03 0.  0.
</event>
<event>
 5    0  0.5489207E-005  0.2219392E+03  0.7546771E-02  0.1132446E+00
         21   -1    0    0  502  501  0.00000000000E+00  0.00000000000E+00  0.37684915180E+03  0.37684915180E+03  0.00000000000E+00 0.  1.
         21   -1    0    0  501  502 -0.00000000000E+00 -0.00000000000E+00 -0.13070750757E+03  0.13070750757E+03  0.00000000000E+00 0.  1.
         25    1    1    2    0    0  0.53053601543E+02  0.25845343751E+02  0.12311379880E+03  0.18510719566E+03  0.12500000000E+03 0.  0.
         25    1    1    2    0    0 -0.82827722344E+02 -0.63437746565E+02  0.52173154879E+02  0.17097314809E+03  0.12500000000E+03 0.  0.
         25    1    1    2    0    0  0.29774120801E+02  0.37592402814E+02  0.70854690559E+02  0.15147631562E+03  0.12500000000E+03 0.  0.
</event>
<event>
 5    0  0.5489207E-005  0.9206918E+03  0.7546771E-02  0.9400079E-01
         21   -1    0    0  502  501  0.00000000000E+00  0.00000000000E+00  0.12624760640E+04  0.12624760640E+04  0.00000000000E+00 0.  1.
         21   -1    0    0  501  502 -0.00000000000E+00 -0.00000000000E+00 -0.67143712709E+03  0.67143712709E+03  0.00000000000E+00 0.  1.
         25    1    1    2    0    0  0.29455933824E+02  0.16415386917E+03  0.38551006493E+03  0.43824326004E+03  0.12500000000E+03 0.  0.
         25    1    1    2    0    0  0.10511464902E+02 -0.73167919179E+01 -0.62644943613E+03  0.63892716515E+03  0.12500000000E+03 0.  0.
         25    1    1    2    0    0 -0.39967398727E+02 -0.15683707725E+03  0.83197830814E+03  0.85674276593E+03  0.12500000000E+03 0.  0.
</event>
<event>
 5    0  0.5489207E-005  0.3347068E+03  0.7546771E-02  0.1069073E+00
         21   -1    0    0  502  501  0.00000000000E+00  0.00000000000E+00  0.12031767163E+04  0.12031767163E+04  0.00000000000E+00 0.  1.
         21   -1    0    0  501  502 -0.00000000000E+00 -0.00000000000E+00 -0.93110727426E+02  0.93110727426E+02  0.00000000000E+00 0.  1.
         25    1    1    2    0    0 -0.85967136036E+02 -0.12730988123E+03  0.70938477789E+03  0.73651199409E+03  0.12500000000E+03 0.  0.
         25    1    1    2    0    0  0.13895742153E+03  0.66401083151E+02  0.95275792093E+02  0.22004714359E+03  0.12500000000E+03 0.  0.
         25    1    1    2    0    0 -0.52990285495E+02  0.60908798084E+02  0.30540541888E+03  0.33972830604E+03  0.12500000000E+03 0.  0.
</event>
<event>
 5    0  0.5489207E-005  0.4699427E+03  0.7546771E-02  0.1021936E+00
         21   -1    0    0  502  501  0.00000000000E+00  0.00000000000E+00  0.17157089568E+04  0.17157089568E+04  0.00000000000E+00 0. -1.
         21   -1    0    0  501  502 -0.00000000000E+00 -0.00000000000E+00 -0.12872003924E+03  0.12872003924E+03  0.00000000000E+00 0. -1.
         25    1    1    2    0    0 -0.26268128212E+01  0.20977185851E+03  0.99335126841E+03  0.10229285778E+04  0.12500000000E+03 0.  0.
         25    1    1    2    0    0  0.57986833985E+02 -0.25917237195E+03  0.10506751599E+03  0.31176429271E+03  0.12500000000E+03 0.  0.
         25    1    1    2    0    0 -0.55360021164E+02  0.49400513435E+02  0.48857013315E+03  0.50973612553E+03  0.12500000000E+03 0.  0.
</event>
<event>
 5    0  0.5489207E-005  0.2843661E+03  0.7546771E-02  0.1093328E+00
         21   -1    0    0  502  501  0.00000000000E+00  0.00000000000E+00  0.10279711132E+04  0.10279711132E+04  0.00000000000E+00 0.  1.
         21   -1    0    0  501  502 -0.00000000000E+00 -0.00000000000E+00 -0.78663770426E+02  0.78663770426E+02  0.00000000000E+00 0.  1.
         25    1    1    2    0    0 -0.58836298963E+02  0.14299029501E+02  0.18136102982E+03  0.22843597672E+03  0.12500000000E+03 0.  0.
         25    1    1    2    0    0  0.16001727825E+02  0.89717701403E+02  0.88435084685E+02  0.17818834261E+03  0.12500000000E+03 0.  0.
         25    1    1    2    0    0  0.42834571138E+02 -0.10401673090E+03  0.67951122826E+03  0.70001056429E+03  0.12500000000E+03 0.  0.
</event>
<event>
 5    0  0.5489207E-005  0.4548218E+03  0.7546771E-02  0.1026294E+00
         21   -1    0    0  502  501  0.00000000000E+00  0.00000000000E+00  0.12929167614E+04  0.12929167614E+04  0.00000000000E+00 0. -1.
         21   -1    0    0  501  502 -0.00000000000E+00 -0.00000000000E+00 -0.15999704005E+03  0.15999704005E+03  0.00000000000E+00 0. -1.
         25    1    1    2    0    0 -0.35635059993E+02  0.31698317167E+03  0.23648572062E+03  0.41629158613E+03  0.12500000000E+03 0.  0.
         25    1    1    2    0    0 -0.52468732959E+00 -0.32972872095E+03  0.45156366394E+03  0.57293633792E+03  0.12500000000E+03 0.  0.
         25    1    1    2    0    0  0.36159747322E+02  0.12745549280E+02  0.44487033677E+03  0.46368587739E+03  0.12500000000E+03 0.  0.
</event>
<event>
 5    0  0.5489207E-005  0.3177080E+03  0.7546771E-02  0.1076709E+00
         21   -1    0    0  502  501  0.00000000000E+00  0.00000000000E+00  0.13805987704E+03  0.13805987704E+03  0.00000000000E+00 0.  1.
         21   -1    0    0  501  502 -0.00000000000E+00 -0.00000000000E+00 -0.73112027264E+03  0.73112027264E+03  0.00000000000E+00 0.  1.
         25    1    1    2    0    0  0.13756921325E+03  0.39314801950E+02 -0.18625909572E+03  0.26606088180E+03  0.12500000000E+03 0.  0.
         25    1    1    2    0    0  0.24032466776E+02  0.81871214913E+02 -0.31310819847E+03  0.34776744994E+03  0.12500000000E+03 0.  0.
         25    1    1    2    0    0 -0.16160168003E+03 -0.12118601686E+03 -0.93693101403E+02  0.25535181793E+03  0.12500000000E+03 0.  0.
</event>
<event>
 5    0  0.5489207E-005  0.2605084E+03  0.7546771E-02  0.1106838E+00
         21   -1    0    0  502  501  0.00000000000E+00  0.00000000000E+00  0.31395165637E+03  0.31395165637E+03  0.00000000000E+00 0. -1.
         21   -1    0    0  501  502 -0.00000000000E+00 -0.00000000000E+00 -0.21616269287E+03  0.21616269287E+03  0.00000000000E+00 0. -1.
         25    1    1    2    0    0  0.60592777511E+02  0.85733062239E+02  0.10898031075E+03  0.19627366298E+03  0.12500000000E+03 0.  0.
         25    1    1    2    0    0 -0.91813499329E+02  0.15068415495E+02 -0.53702594202E+02  0.16482033985E+03  0.12500000000E+03 0.  0.
         25    1    1    2    0    0  0.31220721817E+02 -0.10080147773E+03  0.42511246955E+02  0.16902034641E+03  0.12500000000E+03 0.  0.
</event>
<event>
 5    0  0.5489207E-005  0.2353294E+03  0.7546771E-02  0.1122944E+00
         21   -1    0    0  502  501  0.00000000000E+00  0.00000000000E+00  0.44863273012E+03  0.44863273012E+03  0.00000000000E+00 0.  1.
         21   -1    0    0  501  502 -0.00000000000E+00 -0.00000000000E+00 -0.12344156355E+03  0.12344156355E+03  0.00000000000E+00 0.  1.
         25    1    1    2    0    0 -0.23300728337E+02  0.19054575699E+02  0.10050133163E+03  0.16319166172E+03  0.12500000000E+03 0.  0.
         25    1    1    2    0    0  0.11398692581E+03  0.16393311522E+02  0.17224463109E+03  0.24198134816E+03  0.12500000000E+03 0.  0.
         25    1    1    2    0    0 -0.90686197474E+02 -0.35447887221E+02  0.52445203852E+02  0.16690128378E+03  0.12500000000E+03 0.  0.
</event>
<event>
 5    0  0.5489207E-005  0.3015574E+03  0.7546771E-02  0.1084465E+00
         21   -1    0    0  502  501  0.00000000000E+00  0.00000000000E+00  0.18087617476E+03  0.18087617476E+03  0.00000000000E+00 0.  1.
         21   -1    0    0  501  502 -0.00000000000E+00 -0.00000000000E+00 -0.50275749497E+03  0.50275749497E+03  0.00000000000E+00 0.  1.
         25    1    1    2    0    0 -0.11038608689E+02  0.15814140318E+03 -0.41866971633E+02  0.20617564743E+03  0.12500000000E+03 0.  0.
         25    1    1    2    0    0  0.40527370875E+02 -0.83268907392E+02  0.53856897191E+01  0.15566047791E+03  0.12500000000E+03 0.  0.
         25    1    1    2    0    0 -0.29488762186E+02 -0.74872495786E+02 -0.28540003829E+03  0.32179754439E+03  0.12500000000E+03 0.  0.
</event>
<event>
 5    0  0.5489207E-005  0.2649469E+03  0.7546771E-02  0.1104207E+00
         21   -1    0    0  502  501  0.00000000000E+00  0.00000000000E+00  0.29412610034E+03  0.29412610034E+03  0.00000000000E+00 0. -1.
         21   -1    0    0  501  502 -0.00000000000E+00 -0.00000000000E+00 -0.23866251677E+03  0.23866251677E+03  0.00000000000E+00 0. -1.
         25    1    1    2    0    0  0.36111339999E+02  0.13430516512E+02 -0.95429685708E+01  0.13115058482E+03  0.12500000000E+03 0.  0.
         25    1    1    2    0    0 -0.11116029733E+03  0.52533711800E+02  0.14051564740E+03  0.22469100948E+03  0.12500000000E+03 0.  0.
         25    1    1    2    0    0  0.75048957331E+02 -0.65964228311E+02 -0.75509095255E+02  0.17694702280E+03  0.12500000000E+03 0.  0.
</event>
<event>
 5    0  0.5682938E-005  0.2648064E+03  0.7546771E-02  0.1104289E+00
         21   -1    0    0  502  501  0.00000000000E+00  0.00000000000E+00  0.16298595731E+03  0.16298595731E+03  0.00000000000E+00 0. -1.
         21   -1    0    0  501  502 -0.00000000000E+00 -0.00000000000E+00 -0.43023587890E+03  0.43023587890E+03  0.00000000000E+00 0. -1.
         25    1    1    2    0    0 -0.78303385853E+02 -0.28030403235E+02 -0.16737949459E+03  0.22485110396E+03  0.12500000000E+03 0.  0.
         25    1    1    2    0    0 -0.71536441450E+02  0.71367967199E+01 -0.93810654380E+02  0.17202858832E+03  0.12500000000E+03 0.  0.
         25    1    1    2    0    0  0.14983982730E+03  0.20893606515E+02 -0.60597726152E+01  0.19634214393E+03  0.12500000000E+03 0.  0.
</event>
<event>
 5    0  0.5489207E-005  0.2894805E+03  0.7546771E-02  0.1090621E+00
         21   -1    0    0  502  501  0.00000000000E+00  0.00000000000E+00  0.25387931654E+03  0.25387931654E+03  0.00000000000E+00 0.  1.
         21   -1    0    0  501  502 -0.00000000000E+00 -0.00000000000E+00 -0.33007408444E+03  0.33007408444E+03  0.00000000000E+00 0.  1.
         25    1    1    2    0    0 -0.20361138569E+02 -0.16781651462E+02  0.35351848308E+02  0.13255547129E+03  0.12500000000E+03 0.  0.
         25    1    1    2    0    0  0.33214668993E+02  0.28270086207E+02  0.12577818176E+03  0.18261315127E+03  0.12500000000E+03 0.  0.
         25    1    1    2    0    0 -0.12853530424E+02 -0.11488434745E+02 -0.23732479797E+03  0.26878477842E+03  0.12500000000E+03 0.  0.
</event>
<event>
 5    0  0.5489207E-005  0.3163842E+03  0.7546771E-02  0.1077326E+00
         21   -1    0    0  502  501  0.00000000000E+00  0.00000000000E+00  0.13769068849E+03  0.13769068849E+03  0.00000000000E+00 0.  1.
         21   -1    0    0  501  502 -0.00000000000E+00 -0.00000000000E+00 -0.72698444897E+03  0.72698444897E+03  0.00000000000E+00 0.  1.
         25    1    1    2    0    0 -0.43052746611E+01 -0.19315119453E+03 -0.97629112399E+02  0.24996472336E+03  0.12500000000E+03 0.  0.
         25    1    1    2    0    0  0.77597042786E+01  0.37298492444E+02 -0.70342278783E+02  0.14840628940E+03  0.12500000000E+03 0.  0.
         25    1    1    2    0    0 -0.34544296175E+01  0.15585270209E+03 -0.42132236931E+03  0.46630412470E+03  0.12500000000E+03 0.  0.
</event>
<event>
 5    0  0.5489207E-005  0.3454452E+03  0.7546771E-02  0.1064500E+00
         21   -1    0    0  502  501  0.00000000000E+00  0.00000000000E+00  0.34468413232E+03  0.34468413232E+03  0.00000000000E+00 0. -1.
         21   -1    0    0  501  502 -0.00000000000E+00 -0.00000000000E+00 -0.34620797919E+03  0.34620797919E+03  0.00000000000E+00 0. -1.
         25    1    1    2    0    0 -0.18394065263E+03 -0.41631823181E+02  0.43461255244E+02  0.23039369153E+03  0.12500000000E+03 0.  0.
         25    1    1    2    0    0  0.60107023520E+02 -0.57527565199E+02 -0.16696202442E+03  0.22455198203E+03  0.12500000000E+03 0.  0.
         25    1    1    2    0    0  0.12383362911E+03  0.99159388380E+02  0.12197692231E+03  0.23594643794E+03  0.12500000000E+03 0.  0.
</event>
<event>
 5    0  0.5489207E-005  0.3786004E+03  0.7546771E-02  0.1051452E+00
         21   -1    0    0  502  501  0.00000000000E+00  0.00000000000E+00  0.47164483204E+03  0.47164483204E+03  0.00000000000E+00 0. -1.
         21   -1    0    0  501  502 -0.00000000000E+00 -0.00000000000E+00 -0.30391136970E+03  0.30391136970E+03  0.00000000000E+00 0. -1.
         25    1    1    2    0    0  0.25629347071E+02 -0.66180619910E+01 -0.48416426698E+02  0.13663752248E+03  0.12500000000E+03 0.  0.
         25    1    1    2    0    0  0.14592858510E+03 -0.11556524213E+03  0.30485157605E+03  0.37843091913E+03  0.12500000000E+03 0.  0.
         25    1    1    2    0    0 -0.17155793217E+03  0.12218330412E+03 -0.88701687017E+02  0.26048776013E+03  0.12500000000E+03 0.  0.
</event>
<event>
 5    0  0.5712294E-005  0.5405220E+03  0.7546771E-02  0.1003712E+00
         21   -1    0    0  502  501  0.00000000000E+00  0.00000000000E+00  0.44748457988E+03  0.44748457988E+03  0.00000000000E+00 0.  1.
         21   -1    0    0  501  502 -0.00000000000E+00 -0.00000000000E+00 -0.65290298640E+03  0.65290298640E+03  0.00000000000E+00 0.  1.
         25    1    1    2    0    0 -0.69646560433E+02  0.28013347795E+03 -0.10571611194E+03  0.33185283662E+03  0.12500000000E+03 0.  0.
         25    1    1    2    0    0  0.26671929193E+03 -0.25862480660E+03 -0.27246645268E+03  0.47737714557E+03  0.12500000000E+03 0.  0.
         25    1    1    2    0    0 -0.19707273150E+03 -0.21508671352E+02  0.17276415810E+03  0.29115758408E+03  0.12500000000E+03 0.  0.
</event>
<event>
 5    0  0.7265811E-005  0.2814248E+03  0.7546771E-02  0.1094913E+00
         21   -1    0    0  502  501  0.00000000000E+00  0.00000000000E+00  0.54337535826E+03  0.54337535826E+03  0.00000000000E+00 0.  1.
         21   -1    0    0  501  502 -0.00000000000E+00 -0.00000000000E+00 -0.14575547230E+03  0.14575547230E+03  0.00000000000E+00 0.  1.
         25    1    1    2    0    0  0.77483861326E+02 -0.82226445301E+02  0.14698192444E+03  0.22359253830E+03  0.12500000000E+03 0.  0.
         25    1    1    2    0    0 -0.12888843816E+03  0.13371817295E+03  0.22729904956E+03  0.31903391230E+03  0.12500000000E+03 0.  0.
         25    1    1    2    0    0  0.51404576838E+02 -0.51491727648E+02  0.23338911964E+02  0.14650437996E+03  0.12500000000E+03 0.  0.
</event>
<event>
 5    0  0.5706415E-005  0.3279393E+03  0.7546771E-02  0.1072052E+00
         21   -1    0    0  502  501  0.00000000000E+00  0.00000000000E+00  0.60703521478E+03  0.60703521478E+03  0.00000000000E+00 0. -1.
         21   -1    0    0  501  502 -0.00000000000E+00 -0.00000000000E+00 -0.17716301666E+03  0.17716301666E+03  0.00000000000E+00 0. -1.
         25    1    1    2    0    0  0.21854251507E+02  0.53724285823E+02 -0.79602781863E+02  0.15913990724E+03  0.12500000000E+03 0.  0.
         25    1    1    2    0    0 -0.13874702487E+03 -0.22417015357E+02  0.26995231523E+03  0.32901749495E+03  0.12500000000E+03 0.  0.
         25    1    1    2    0    0  0.11689277337E+03 -0.31307270466E+02  0.23952266475E+03  0.29604082924E+03  0.12500000000E+03 0.  0.
</event>
<event>
 5    0  0.5489207E-005  0.3077510E+03  0.7546771E-02  0.1081429E+00
         21   -1    0    0  502  501  0.00000000000E+00  0.00000000000E+00  0.49488766160E+03  0.49488766160E+03  0.00000000000E+00 0.  1.
         21   -1    0    0  501  502 -0.00000000000E+00 -0.00000000000E+00 -0.19137809105E+03  0.19137809105E+03  0.00000000000E+00 0.  1.
         25    1    1    2    0    0 -0.55552435777E+00 -0.99349876669E+02  0.99349687709E+02  0.18805867980E+03  0.12500000000E+03 0.  0.
         25    1    1    2    0    0 -0.11211396489E+03  0.10513209391E+03  0.25444666931E+03  0.32247543444E+03  0.12500000000E+03 0.  0.
         25    1    1    2    0    0  0.11266948924E+03 -0.57822172449E+01 -0.50286786472E+02  0.17573163841E+03  0.12500000000E+03 0.  0.
</event>
<event>
 5    0  0.5489207E-005  0.3336782E+03  0.7546771E-02  0.1069521E+00
         21   -1    0    0  502  501  0.00000000000E+00  0.00000000000E+00  0.41519848047E+03  0.41519848047E+03  0.00000000000E+00 0. -1.
         21   -1    0    0  501  502 -0.00000000000E+00 -0.00000000000E+00 -0.26816361715E+03  0.26816361715E+03  0.00000000000E+00 0. -1.
         25    1    1    2    0    0  0.66994414703E+01 -0.68773173299E+02  0.26116880990E+03  0.29767226801E+03  0.12500000000E+03 0.  0.
         25    1    1    2    0    0  0.10519738934E+03 -0.40212319391E+02 -0.56726764630E+02  0.17755688435E+03  0.12500000000E+03 0.  0.
         25    1    1    2    0    0 -0.11189683081E+03  0.10898549269E+03 -0.57407181947E+02  0.20813294526E+03  0.12500000000E+03 0.  0.
</event>
<event>
 5    0  0.5567495E-005  0.2895302E+03  0.7546771E-02  0.1090595E+00
         21   -1    0    0  502  501  0.00000000000E+00  0.00000000000E+00  0.14689323061E+03  0.14689323061E+03  0.00000000000E+00 0.  1.
         21   -1    0    0  501  502 -0.00000000000E+00 -0.00000000000E+00 -0.57067134577E+03  0.57067134577E+03  0.00000000000E+00 0.  1.
         25    1    1    2    0    0  0.13117055476E+03 -0.42485835932E+02 -0.25832504533E+02  0.18789113599E+03  0.12500000000E+03 0.  0.
         25    1    1    2    0    0 -0.13947665661E+03 -0.44113387847E+02 -0.17782424559E+03  0.26200418135E+03  0.12500000000E+03 0.  0.
         25    1    1    2    0    0  0.83061018415E+01  0.86599223779E+02 -0.22012136504E+03  0.26766925904E+03  0.12500000000E+03 0.  0.
</event>
<event>
 5    0  0.5489207E-005  0.6611171E+03  0.7546771E-02  0.9786139E-01
         21   -1    0    0  502  501  0.00000000000E+00  0.00000000000E+00  0.83411746926E+03  0.83411746926E+03  0.00000000000E+00 0. -1.
         21   -1    0    0  501  502 -0.00000000000E+00 -0.00000000000E+00 -0.52399797029E+03  0.52399797029E+03  0.00000000000E+00 0. -1.
         25    1    1    2    0    0  0.39250021615E+02 -0.15481204700E+03  0.12265510173E+02  0.20318163508E+03  0.12500000000E+03 0.  0.
         25    1    1    2    0    0  0.26734101914E+03  0.27389603021E+01 -0.32145976927E+03  0.43639443818E+03  0.12500000000E+03 0.  0.
         25    1    1    2    0    0 -0.30659104075E+03  0.15207308670E+03  0.61931375807E+03  0.71853936628E+03  0.12500000000E+03 0.  0.
</event>
<event>
 5    0  0.5489207E-005  0.3274377E+03  0.7546771E-02  0.1072276E+00
         21   -1    0    0  502  501  0.00000000000E+00  0.00000000000E+00  0.72865307357E+03  0.72865307357E+03  0.00000000000E+00 0.  1.
         21   -1    0    0  501  502 -0.00000000000E+00 -0.00000000000E+00 -0.14714199289E+03  0.14714199289E+03  0.00000000000E+00 0.  1.
         25    1    1    2    0    0  0.33505295925E+02 -0.74492004997E+02 -0.14686251035E+02  0.15004115980E+03  0.12500000000E+03 0.  0.
         25    1    1    2    0    0  0.13608824766E+03  0.70952646022E+02  0.34630356879E+03  0.39888024629E+03  0.12500000000E+03 0.  0.
         25    1    1    2    0    0 -0.16959354359E+03  0.35393589746E+01  0.24989376294E+03  0.32687366037E+03  0.12500000000E+03 0.  0.
</event>
<event>
 5    0  0.5489207E-005  0.3100935E+03  0.7546771E-02  0.1080301E+00
         21   -1    0    0  502  501  0.00000000000E+00  0.00000000000E+00  0.11049967822E+03  0.11049967822E+03  0.00000000000E+00 0. -1.
         21   -1    0    0  501  502 -0.00000000000E+00 -0.00000000000E+00 -0.87021022706E+03  0.87021022706E+03  0.00000000000E+00 0. -1.
         25    1    1    2    0    0  0.10352103025E+03 -0.77812002270E+02 -0.21356730981E+03  0.27929788259E+03  0.12500000000E+03 0.  0.
         25    1    1    2    0    0 -0.17957379443E+03  0.80130926230E+02 -0.49376807445E+03  0.54598500376E+03  0.12500000000E+03 0.  0.
         25    1    1    2    0    0  0.76052764177E+02 -0.23189239595E+01 -0.52375164582E+02  0.15542701893E+03  0.12500000000E+03 0.  0.
</event>
<event>
 5    0  0.5489207E-005  0.5161853E+03  0.7546771E-02  0.1009639E+00
         21   -1    0    0  502  501  0.00000000000E+00  0.00000000000E+00  0.94839051536E+03  0.94839051536E+03  0.00000000000E+00 0.  1.
         21   -1    0    0  501  502 -0.00000000000E+00 -0.00000000000E+00 -0.28094677616E+03  0.28094677616E+03  0.00000000000E+00 0.  1.
         25    1    1    2    0    0  0.15684558461E+03  0.28236769395E+03  0.18009201272E+02  0.34681606556E+03  0.12500000000E+03 0.  0.
         25    1    1    2    0    0 -0.28338545901E+03 -0.90766462989E+02  0.26496277041E+03  0.41758369087E+03  0.12500000000E+03 0.  0.
         25    1    1    2    0    0  0.12653987440E+03 -0.19160123096E+03  0.38447176752E+03  0.46493753510E+03  0.12500000000E+03 0.  0.
</event>
<event>
 5    0  0.5489207E-005  0.2982828E+03  0.7546771E-02  0.1086102E+00
         21   -1    0    0  502  501  0.00000000000E+00  0.00000000000E+00  0.12245587900E+03  0.12245587900E+03  0.00000000000E+00 0.  1.
         21   -1    0    0  501  502 -0.00000000000E+00 -0.00000000000E+00 -0.72656880733E+03  0.72656880733E+03  0.00000000000E+00 0.  1.
         25    1    1    2    0    0 -0.10710710289E+03  0.43591169278E+02 -0.46951195138E+03  0.49943827849E+03  0.12500000000E+03 0.  0.
         25    1    1    2    0    0  0.19036368802E+02  0.98514197189E+01 -0.13819101065E+03  0.18756649283E+03  0.12500000000E+03 0.  0.
         25    1    1    2    0    0  0.88070734090E+02 -0.53442588997E+02  0.35900336986E+01  0.16201991502E+03  0.12500000000E+03 0.  0.
</event>
<event>
 5    0  0.5489207E-005  0.2955244E+03  0.7546771E-02  0.1087500E+00
         21   -1    0    0  502  501  0.00000000000E+00  0.00000000000E+00  0.34567489122E+03  0.34567489122E+03  0.00000000000E+00 0. -1.
         21   -1    0    0  501  502 -0.00000000000E+00 -0.00000000000E+00 -0.25264967441E+03  0.25264967441E+03  0.00000000000E+00 0. -1.
         25    1    1    2    0    0  0.68250526968E+02  0.20677102110E+02  0.12687144669E+03  0.19185161185E+03  0.12500000000E+03 0.  0.
         25    1    1    2    0    0 -0.82778049537E+02 -0.15441820557E+03 -0.53531856469E+02  0.22178333425E+03  0.12500000000E+03 0.  0.
         25    1    1    2    0    0  0.14527522569E+02  0.13374110346E+03  0.19685626585E+02  0.18468961953E+03  0.12500000000E+03 0.  0.
</event>
<event>
 5    0  0.5489207E-005  0.2360596E+03  0.7546771E-02  0.1122446E+00
         21   -1    0    0  502  501  0.00000000000E+00  0.00000000000E+00  0.46731419298E+03  0.46731419298E+03  0.00000000000E+00 0. -1.
         21   -1    0    0  501  502 -0.00000000000E+00 -0.00000000000E+00 -0.11924337626E+03  0.11924337626E+03  0.00000000000E+00 0. -1.
         25    1    1    2    0    0  0.46253925111E+02 -0.15451583717E+02  0.10757055107E+03  0.17197267366E+03  0.12500000000E+03 0.  0.
         25    1    1    2    0    0  0.33087155082E+02 -0.77843922998E+02  0.57859872549E+02  0.16163910737E+03  0.12500000000E+03 0.  0.
         25    1    1    2    0    0 -0.79341080194E+02  0.93295506715E+02  0.18264039311E+03  0.25294578821E+03  0.12500000000E+03 0.  0.
</event>
<event>
 5    0  0.5489207E-005  0.4355604E+03  0.7546771E-02  0.1032118E+00
         21   -1    0    0  502  501  0.00000000000E+00  0.00000000000E+00  0.62101979993E+03  0.62101979993E+03  0.00000000000E+00 0. -1.
         21   -1    0    0  501  502 -0.00000000000E+00 -0.00000000000E+00 -0.30548604717E+03  0.30548604717E+03  0.00000000000E+00 0. -1.
         25    1    1    2    0    0 -0.16918511029E+03 -0.11244897450E+03 -0.10038186264E+03  0.25878541643E+03  0.12500000000E+03 0.  0.
         25    1    1    2    0    0 -0.76325200221E+02  0.18645343140E+03  0.18907033566E+03  0.30325403559E+03  0.12500000000E+03 0.  0.
         25    1    1    2    0    0  0.24551031051E+03 -0.74004456905E+02  0.22684527973E+03  0.36446639508E+03  0.12500000000E+03 0.  0.
</event>
<event>
 5    0  0.5966928E-005  0.4405927E+03  0.7546771E-02  0.1030565E+00
         21   -1    0    0  502  501  0.00000000000E+00  0.00000000000E+00  0.66490954172E+03  0.66490954172E+03  0.00000000000E+00 0. -1.
         21   -1    0    0  501  502 -0.00000000000E+00 -0.00000000000E+00 -0.29195244569E+03  0.29195244569E+03  0.00000000000E+00 0. -1.
         25    1    1    2    0    0 -0.66912872692E+02  0.69422515256E+01  0.45397453755E+03  0.47565051049E+03  0.12500000000E+03 0.  0.
         25    1    1    2    0    0  0.54767887172E+02 -0.19994561574E+03 -0.63552933386E+02  0.25028333157E+03  0.12500000000E+03 0.  0.
         25    1    1    2    0    0  0.12144985521E+02  0.19300336422E+03 -0.17464508136E+02  0.23092814535E+03  0.12500000000E+03 0.  0.
</event>
<event>
 5    0  0.5489207E-005  0.2995462E+03  0.7546771E-02  0.1085468E+00
         21   -1    0    0  502  501  0.00000000000E+00  0.00000000000E+00  0.36655816924E+03  0.36655816924E+03  0.00000000000E+00 0.  1.
         21   -1    0    0  501  502 -0.00000000000E+00 -0.00000000000E+00 -0.24478499084E+03  0.24478499084E+03  0.00000000000E+00 0.  1.
         25    1    1    2    0    0  0.10927179285E+03  0.15079781245E+03  0.12873724755E+03  0.25860894002E+03  0.12500000000E+03 0.  0.
         25    1    1    2    0    0 -0.84868099857E+02 -0.35995441791E+02 -0.69585486151E+02  0.17019226212E+03  0.12500000000E+03 0.  0.
         25    1    1    2    0    0 -0.24403692998E+02 -0.11480237066E+03  0.62621416998E+02  0.18254195794E+03  0.12500000000E+03 0.  0.
</event>
<event>
 5    0  0.5489207E-005  0.2940304E+03  0.7546771E-02  0.1088263E+00
         21   -1    0    0  502  501  0.00000000000E+00  0.00000000000E+00  0.19465421125E+03  0.19465421125E+03  0.00000000000E+00 0.  1.
         21   -1    0    0  501  502 -0.00000000000E+00 -0.00000000000E+00 -0.44414086646E+03  0.44414086646E+03  0.00000000000E+00 0.  1.
         25    1    1    2    0    0 -0.12801262631E+02 -0.25899661876E+02  0.69357820810E+02  0.14584297075E+03  0.12500000000E+03 0.  0.
         25    1    1    2    0    0 -0.60191677018E+02  0.13158791076E+03 -0.20644425567E+03  0.28139411319E+03  0.12500000000E+03 0.  0.
         25    1    1    2    0    0  0.72992939648E+02 -0.10568824888E+03 -0.11240022035E+03  0.21155799376E+03  0.12500000000E+03 0.  0.
</event>
<event>
 5    0  0.5489207E-005  0.3086260E+03  0.7546771E-02  0.1081006E+00
         21   -1    0    0  502  501  0.00000000000E+00  0.00000000000E+00  0.65683844457E+02  0.65683844457E+02  0.00000000000E+00 0.  1.
         21   -1    0    0  501  502 -0.00000000000E+00 -0.00000000000E+00 -0.14501286074E+04  0.14501286074E+04  0.00000000000E+00 0. -1.
         25    1    1    2    0    0 -0.29416473034E+02 -0.22207654316E+03 -0.58868333051E+03  0.64214981393E+03  0.12500000000E+03 0.  0.
         25    1    1    2    0    0  0.49127125167E+02  0.18472432777E+03 -0.52118656782E+03  0.56903162494E+03  0.12500000000E+03 0.  0.
         25    1    1    2    0    0 -0.19710652132E+02  0.37352215389E+02 -0.27457486463E+03  0.30463101301E+03  0.12500000000E+03 0.  0.
</event>
<event>
 5    0  0.5489207E-005  0.3969441E+03  0.7546771E-02  0.1044843E+00
         21   -1    0    0  502  501  0.00000000000E+00  0.00000000000E+00  0.50124880845E+03  0.50124880845E+03  0.00000000000E+00 0.  1.
         21   -1    0    0  501  502 -0.00000000000E+00 -0.00000000000E+00 -0.31434420265E+03  0.31434420265E+03  0.00000000000E+00 0.  1.
         25    1    1    2    0    0  0.17997250545E+03 -0.65556882387E+01 -0.13628761011E+03  0.25813250945E+03  0.12500000000E+03 0.  0.
         25    1    1    2    0    0 -0.12731390615E+03  0.16483590241E+03  0.14266289057E+03  0.28170446530E+03  0.12500000000E+03 0.  0.
         25    1    1    2    0    0 -0.52658599297E+02 -0.15828021418E+03  0.18052932534E+03  0.27575603635E+03  0.12500000000E+03 0.  0.
</event>
<event>
 5    0  0.5489207E-005  0.2251433E+03  0.7546771E-02  0.1130106E+00
         21   -1    0    0  502  501  0.00000000000E+00  0.00000000000E+00  0.12687462836E+02  0.12687462836E+02  0.00000000000E+00 0. -1.
         21   -1    0    0  501  502 -0.00000000000E+00 -0.00000000000E+00 -0.39952441056E+04  0.39952441056E+04  0.00000000000E+00 0. -1.
         25    1    1    2    0    0  0.68842168422E+02  0.73904531256E+01 -0.11298488401E+04  0.11388490965E+04  0.12500000000E+03 0.  0.
         25    1    1    2    0    0 -0.11661600553E+03  0.19501206607E+01 -0.14831538145E+04  0.14929746593E+04  0.12500000000E+03 0.  0.
         25    1    1    2    0    0  0.47773837110E+02 -0.93405737863E+01 -0.13695539881E+04  0.13761078127E+04  0.12500000000E+03 0.  0.
</event>
<event>
 5    0  0.5780662E-005  0.3291010E+03  0.7546771E-02  0.1071535E+00
         21   -1    0    0  502  501  0.00000000000E+00  0.00000000000E+00  0.62475476917E+03  0.62475476917E+03  0.00000000000E+00 0.  1.
         21   -1    0    0  501  502 -0.00000000000E+00 -0.00000000000E+00 -0.17335993309E+03  0.17335993309E+03  0.00000000000E+00 0.  1.
         25    1    1    2    0    0  0.14022482935E+03 -0.12021945949E+03  0.15884201819E+03  0.27380925468E+03  0.12500000000E+03 0.  0.
         25    1    1    2    0    0  0.57967303596E+02 -0.29042879489E+02  0.16975209771E+03  0.22055491791E+03  0.12500000000E+03 0.  0.
         25    1    1    2    0    0 -0.19819213295E+03  0.14926233898E+03  0.12280072018E+03  0.30375052968E+03  0.12500000000E+03 0.  0.
</event>
<event>
 5    0  0.5489207E-005  0.4484014E+03  0.7546771E-02  0.1028200E+00
         21   -1    0    0  502  501  0.00000000000E+00  0.00000000000E+00  0.26408670805E+04  0.26408670805E+04  0.00000000000E+00 0. -1.
         21   -1    0    0  501  502 -0.00000000000E+00 -0.00000000000E+00 -0.76135515321E+02  0.76135515321E+02  0.00000000000E+00 0. -1.
         25    1    1    2    0    0  0.89434906631E+02  0.15327808103E+03  0.42449681814E+03  0.47677596548E+03  0.12500000000E+03 0.  0.
         25    1    1    2    0    0 -0.19856619792E+03  0.14398180027E+03  0.13808348832E+04  0.14080089731E+04  0.12500000000E+03 0.  0.
         25    1    1    2    0    0  0.10913129129E+03 -0.29725988130E+03  0.75939986382E+03  0.83221765718E+03  0.12500000000E+03 0.  0.
</event>
<event>
 5    0  0.5489207E-005  0.4534064E+03  0.7546771E-02  0.1026711E+00
         21   -1    0    0  502  501  0.00000000000E+00  0.00000000000E+00  0.72368399349E+03  0.72368399349E+03  0.00000000000E+00 0. -1.
         21   -1    0    0  501  502 -0.00000000000E+00 -0.00000000000E+00 -0.28407061194E+03  0.28407061194E+03  0.00000000000E+00 0. -1.
         25    1    1    2    0    0 -0.12682427781E+02  0.50851002765E+01  0.12222933031E+03  0.17536165889E+03  0.12500000000E+03 0.  0.
         25    1    1    2    0    0  0.49292105944E+02 -0.33246611185E+03  0.61446266475E+00  0.35859281197E+03  0.12500000000E+03 0.  0.
         25    1    1    2    0    0 -0.36609678162E+02  0.32738101157E+03  0.31676958857E+03  0.47380013457E+03  0.12500000000E+03 0.  0.
</event>
<event>
 5    0  0.5489207E-005  0.4840839E+03  0.7546771E-02  0.1018019E+00
         21   -1    0    0  502  501  0.00000000000E+00  0.00000000000E+00  0.47177413248E+03  0.47177413248E+03  0.00000000000E+00 0. -1.
         21   -1    0    0  501  502 -0.00000000000E+00 -0.00000000000E+00 -0.49671491124E+03  0.49671491124E+03  0.00000000000E+00 0. -1.
         25    1    1    2    0    0 -0.27733935264E+03 -0.12979001144E+03  0.45951252387E+02  0.33391478132E+03  0.12500000000E+03 0.  0.
         25    1    1    2    0    0 -0.86891501805E+02  0.17386692575E+03 -0.86267867933E+02  0.24667181840E+03  0.12500000000E+03 0.  0.
         25    1    1    2    0    0  0.36423085444E+03 -0.44076914308E+02  0.15375836782E+02  0.38790244400E+03  0.12500000000E+03 0.  0.
</event>
<event>
 5    0  0.5489207E-005  0.3326709E+03  0.7546771E-02  0.1069961E+00
         21   -1    0    0  502  501  0.00000000000E+00  0.00000000000E+00  0.15869405182E+03  0.15869405182E+03  0.00000000000E+00 0.  1.
         21   -1    0    0  501  502 -0.00000000000E+00 -0.00000000000E+00 -0.69737916060E+03  0.69737916060E+03  0.00000000000E+00 0.  1.
         25    1    1    2    0    0 -0.20531428870E+03 -0.13072025406E+03 -0.28387695765E+03  0.39427511848E+03  0.12500000000E+03 0.  0.
         25    1    1    2    0    0  0.40220380608E+02  0.19466052247E+02 -0.16107903669E+03  0.20872963917E+03  0.12500000000E+03 0.  0.
         25    1    1    2    0    0  0.16509390809E+03  0.11125420182E+03 -0.93729114432E+02  0.25306845477E+03  0.12500000000E+03 0.  0.
</event>
<event>
 5    0  0.5489207E-005  0.4144697E+03  0.7546771E-02  0.1038881E+00
         21   -1    0    0  502  501  0.00000000000E+00  0.00000000000E+00  0.36418778861E+03  0.36418778861E+03  0.00000000000E+00 0.  1.
         21   -1    0    0  501  502 -0.00000000000E+00 -0.00000000000E+00 -0.47169384654E+03  0.47169384654E+03  0.00000000000E+00 0.  1.
         25    1    1    2    0    0 -0.88419128218E+02 -0.13495478716E+03 -0.54885427982E+02  0.21134840197E+03  0.12500000000E+03 0.  0.
         25    1    1    2    0    0 -0.19985590038E+03 -0.58185164086E+02  0.35355086284E+02  0.24536274445E+03  0.12500000000E+03 0.  0.
         25    1    1    2    0    0  0.28827502860E+03  0.19313995124E+03 -0.87975716225E+02  0.37917048873E+03  0.12500000000E+03 0.  0.
</event>
<event>
 5    0  0.5489207E-005  0.3658605E+03  0.7546771E-02  0.1056287E+00
         21   -1    0    0  502  501  0.00000000000E+00  0.00000000000E+00  0.26761787558E+03  0.26761787558E+03  0.00000000000E+00 0. -1.
         21   -1    0    0  501  502 -0.00000000000E+00 -0.00000000000E+00 -0.50016810004E+03  0.50016810004E+03  0.00000000000E+00 0. -1.
         25    1    1    2    0    0  0.13818072331E+03  0.75175464678E+02 -0.21899647708E+03  0.29720316243E+03  0.12500000000E+03 0.  0.
         25    1    1    2    0    0  0.48155714870E+02 -0.64928523122E+02 -0.14708946832E+03  0.20927254402E+03  0.12500000000E+03 0.  0.
         25    1    1    2    0    0 -0.18633643818E+03 -0.10246941556E+02  0.13353572094E+03  0.26131026917E+03  0.12500000000E+03 0.  0.
</event>
<event>
 5    0  0.5489207E-005  0.2474102E+03  0.7546771E-02  0.1114953E+00
         21   -1    0    0  502  501  0.00000000000E+00  0.00000000000E+00  0.36512442150E+02  0.36512442150E+02  0.00000000000E+00 0. -1.
         21   -1    0    0  501  502 -0.00000000000E+00 -0.00000000000E+00 -0.16764646374E+04  0.16764646374E+04  0.00000000000E+00 0. -1.
         25    1    1    2    0    0 -0.41483227978E+02 -0.72020142251E+02 -0.42621839164E+03  0.45187927201E+03  0.12500000000E+03 0.  0.
         25    1    1    2    0    0 -0.46559936480E+02 -0.17330819435E+02 -0.79741566413E+03  0.80868097937E+03  0.12500000000E+03 0.  0.
         25    1    1    2    0    0  0.88043164457E+02  0.89350961685E+02 -0.41631813947E+03  0.45241682817E+03  0.12500000000E+03 0.  0.
</event>
<event>
 5    0  0.5489207E-005  0.3326823E+03  0.7546771E-02  0.1069956E+00
         21   -1    0    0  502  501  0.00000000000E+00  0.00000000000E+00  0.15932918759E+04  0.15932918759E+04  0.00000000000E+00 0. -1.
         21   -1    0    0  501  502 -0.00000000000E+00 -0.00000000000E+00 -0.69464694891E+02  0.69464694891E+02  0.00000000000E+00 0. -1.
         25    1    1    2    0    0  0.47997963200E+02  0.64078685798E+02  0.11093924138E+03  0.18531701952E+03  0.12500000000E+03 0.  0.
         25    1    1    2    0    0  0.55936149738E+01 -0.17406112357E+03  0.10833960609E+04  0.11044005559E+04  0.12500000000E+03 0.  0.
         25    1    1    2    0    0 -0.53591578174E+02  0.10998243778E+03  0.32949187879E+03  0.37303899536E+03  0.12500000000E+03 0.  0.
</event>
<event>
 5    0  0.5489207E-005  0.2742394E+03  0.7546771E-02  0.1098877E+00
         21   -1    0    0  502  501  0.00000000000E+00  0.00000000000E+00  0.10305836533E+03  0.10305836533E+03  0.00000000000E+00 0.  1.
         21   -1    0    0  501  502 -0.00000000000E+00 -0.00000000000E+00 -0.72975412118E+03  0.72975412118E+03  0.00000000000E+00 0.  1.
         25    1    1    2    0    0 -0.85545109215E+02  0.25406590726E+02 -0.80575434001E+02  0.17343834964E+03  0.12500000000E+03 0.  0.
         25    1    1    2    0    0  0.11595853641E+03  0.93321869010E+02 -0.28127272216E+03  0.34189866574E+03  0.12500000000E+03 0.  0.
         25    1    1    2    0    0 -0.30413427193E+02 -0.11872845974E+03 -0.26484759969E+03  0.31747547112E+03  0.12500000000E+03 0.  0.
</event>
<event>
 5    0  0.5968651E-005  0.2933700E+03  0.7546771E-02  0.1088603E+00
         21   -1    0    0  502  501  0.00000000000E+00  0.00000000000E+00  0.47760001886E+03  0.47760001886E+03  0.00000000000E+00 0.  1.
         21   -1    0    0  501  502 -0.00000000000E+00 -0.00000000000E+00 -0.18020511011E+03  0.18020511011E+03  0.00000000000E+00 0.  1.
         25    1    1    2    0    0  0.10988238924E+03  0.14205276383E+03  0.21900688039E+02  0.21990399567E+03  0.12500000000E+03 0.  0.
         25    1    1    2    0    0 -0.11044482887E+03 -0.64057291511E+02  0.21256292963E+03  0.27768578623E+03  0.12500000000E+03 0.  0.
         25    1    1    2    0    0  0.56243963106E+00 -0.77995472317E+02  0.62931291084E+02  0.16021534707E+03  0.12500000000E+03 0.  0.
</event>
<event>
 5    0  0.5489207E-005  0.2411441E+03  0.7546771E-02  0.1119033E+00
         21   -1    0    0  502  501  0.00000000000E+00  0.00000000000E+00  0.26957819847E+03  0.26957819847E+03  0.00000000000E+00 0. -1.
         21   -1    0    0  501  502 -0.00000000000E+00 -0.00000000000E+00 -0.21570907896E+03  0.21570907896E+03  0.00000000000E+00 0. -1.
         25    1    1    2    0    0 -0.59632392645E+01  0.94096989553E+02 -0.32379024473E+02  0.15988497394E+03  0.12500000000E+03 0.  0.
         25    1    1    2    0    0  0.77062061300E+02 -0.10224606907E+02  0.36670650009E+02  0.15169983669E+03  0.12500000000E+03 0.  0.
         25    1    1    2    0    0 -0.71098822036E+02 -0.83872382646E+02  0.49577493971E+02  0.17370246680E+03  0.12500000000E+03 0.  0.
</event>
<event>
 5    0  0.5513053E-005  0.2851813E+03  0.7546771E-02  0.1092892E+00
         21   -1    0    0  502  501  0.00000000000E+00  0.00000000000E+00  0.45824111313E+03  0.45824111313E+03  0.00000000000E+00 0.  1.
         21   -1    0    0  501  502 -0.00000000000E+00 -0.00000000000E+00 -0.17747947471E+03  0.17747947471E+03  0.00000000000E+00 0.  1.
         25    1    1    2    0    0  0.44982416030E+02 -0.17287100110E+02 -0.22253079684E+02  0.13580302330E+03  0.12500000000E+03 0.  0.
         25    1    1    2    0    0  0.87359626825E+02  0.10337663527E+03  0.20608325474E+03  0.27643035471E+03  0.12500000000E+03 0.  0.
         25    1    1    2    0    0 -0.13234204286E+03 -0.86089535164E+02  0.96931463361E+02  0.22348720984E+03  0.12500000000E+03 0.  0.
</event>
<event>
 5    0  0.5489207E-005  0.2388744E+03  0.7546771E-02  0.1120545E+00
         21   -1    0    0  502  501  0.00000000000E+00  0.00000000000E+00  0.10894247190E+03  0.10894247190E+03  0.00000000000E+00 0.  1.
         21   -1    0    0  501  502 -0.00000000000E+00 -0.00000000000E+00 -0.52377153850E+03  0.52377153850E+03  0.00000000000E+00 0.  1.
         25    1    1    2    0    0  0.11076053291E+03 -0.24435304702E+01 -0.11007744577E+03  0.20003977244E+03  0.12500000000E+03 0.  0.
         25    1    1    2    0    0  0.78285183745E+01 -0.10836420449E+02 -0.79398635515E+02  0.14868711118E+03  0.12500000000E+03 0.  0.
         25    1    1    2    0    0 -0.11858905129E+03  0.13279950919E+02 -0.22535298532E+03  0.28398712677E+03  0.12500000000E+03 0.  0.
</event>
<event>
 5    0  0.5489207E-005  0.5142325E+03  0.7546771E-02  0.1010129E+00
         21   -1    0    0  502  501  0.00000000000E+00  0.00000000000E+00  0.15085108810E+03  0.15085108810E+03  0.00000000000E+00 0. -1.
         21   -1    0    0  501  502 -0.00000000000E+00 -0.00000000000E+00 -0.17529545336E+04  0.17529545336E+04  0.00000000000E+00 0. -1.
         25    1    1    2    0    0 -0.15049533384E+03 -0.25658648560E+03 -0.45605734911E+03  0.55865801326E+03  0.12500000000E+03 0.  0.
         25    1    1    2    0    0  0.71403875040E+02 -0.14062695193E+03 -0.70617775772E+03  0.73429318292E+03  0.12500000000E+03 0.  0.
         25    1    1    2    0    0  0.79091458800E+02  0.39721343753E+03 -0.43986833864E+03  0.61085442549E+03  0.12500000000E+03 0.  0.
</event>
<event>
 5    0  0.5489207E-005  0.3223654E+03  0.7546771E-02  0.1074566E+00
         21   -1    0    0  502  501  0.00000000000E+00  0.00000000000E+00  0.10855283645E+03  0.10855283645E+03  0.00000000000E+00 0.  1.
         21   -1    0    0  501  502 -0.00000000000E+00 -0.00000000000E+00 -0.95731698741E+03  0.95731698741E+03  0.00000000000E+00 0.  1.
         25    1    1    2    0    0 -0.74224451637E+02  0.14155326644E+03 -0.20481457881E+03  0.28830644834E+03  0.12500000000E+03 0.  0.
         25    1    1    2    0    0  0.52027356892E+02  0.21945421515E+02 -0.51666006833E+03  0.53455689463E+03  0.12500000000E+03 0.  0.
         25    1    1    2    0    0  0.22197094745E+02 -0.16349868795E+03 -0.12728950382E+03  0.24300648090E+03  0.12500000000E+03 0.  0.
</event>
<event>
 5    0  0.5489207E-005  0.2586306E+03  0.7546771E-02  0.1107969E+00
         21   -1    0    0  502  501  0.00000000000E+00  0.00000000000E+00  0.17384756965E+03  0.17384756965E+03  0.00000000000E+00 0. -1.
         21   -1    0    0  501  502 -0.00000000000E+00 -0.00000000000E+00 -0.38476124185E+03  0.38476124185E+03  0.00000000000E+00 0. -1.
         25    1    1    2    0    0 -0.68596247653E+02  0.65518637704E+02 -0.14826660473E+03  0.21588451347E+03  0.12500000000E+03 0.  0.
         25    1    1    2    0    0  0.13788463563E+03 -0.38376068652E+02 -0.51189690373E+02  0.19680010109E+03  0.12500000000E+03 0.  0.
         25    1    1    2    0    0 -0.69288387973E+02 -0.27142569052E+02 -0.11457377104E+02  0.14592419694E+03  0.12500000000E+03 0.  0.
</event>
<event>
 5    0  0.5489207E-005  0.2445636E+03  0.7546771E-02  0.1116789E+00
         21   -1    0    0  502  501  0.00000000000E+00  0.00000000000E+00  0.95033722694E+03  0.95033722694E+03  0.00000000000E+00 0. -1.
         21   -1    0    0  501  502 -0.00000000000E+00 -0.00000000000E+00 -0.62936976696E+02  0.62936976696E+02  0.00000000000E+00 0. -1.
         25    1    1    2    0    0 -0.47238374369E+01  0.13300985005E+02  0.24797754731E+03  0.27805951667E+03  0.12500000000E+03 0.  0.
         25    1    1    2    0    0  0.11214809981E+03  0.64792244212E+02  0.33676657455E+03  0.38185331861E+03  0.12500000000E+03 0.  0.
         25    1    1    2    0    0 -0.10742426237E+03 -0.78093229217E+02  0.30265612838E+03  0.35336136835E+03  0.12500000000E+03 0.  0.
</event>
<event>
 5    0  0.5489207E-005  0.2805360E+03  0.7546771E-02  0.1095397E+00
         21   -1    0    0  502  501  0.00000000000E+00  0.00000000000E+00  0.98558062908E+02  0.98558062908E+02  0.00000000000E+00 0. -1.
         21   -1    0    0  501  502 -0.00000000000E+00 -0.00000000000E+00 -0.79851875947E+03  0.79851875947E+03  0.00000000000E+00 0. -1.
         25    1    1    2    0    0 -0.12573212199E+03 -0.71239808145E+02 -0.14081484308E+03  0.23735521228E+03  0.12500000000E+03 0.  0.
         25    1    1    2    0    0  0.11978365114E+03  0.26152044876E+02 -0.46468380575E+03  0.49657637062E+03  0.12500000000E+03 0.  0.
         25    1    1    2    0    0  0.59484708503E+01  0.45087763269E+02 -0.94462047739E+02  0.16314523948E+03  0.12500000000E+03 0.  0.
</event>
<event>
 5    0  0.5489207E-005  0.3704475E+03  0.7546771E-02  0.1054522E+00
         21   -1    0    0  502  501  0.00000000000E+00  0.00000000000E+00  0.84220954751E+03  0.84220954751E+03  0.00000000000E+00 0.  1.
         21   -1    0    0  501  502 -0.00000000000E+00 -0.00000000000E+00 -0.16294207847E+03  0.16294207847E+03  0.00000000000E+00 0.  1.
         25    1    1    2    0    0  0.34958407970E+02 -0.92905435220E+02  0.47946594958E+03  0.50533761684E+03  0.12500000000E+03 0.  0.
         25    1    1    2    0    0 -0.16078122505E+03  0.77683843916E+02  0.23264177732E+03  0.31879864881E+03  0.12500000000E+03 0.  0.
         25    1    1    2    0    0  0.12582281708E+03  0.15221591305E+02 -0.32840257857E+02  0.18101536033E+03  0.12500000000E+03 0.  0.
</event>
<event>
 5    0  0.5489207E-005  0.2664964E+03  0.7546771E-02  0.1103302E+00
         21   -1    0    0  502  501  0.00000000000E+00  0.00000000000E+00  0.45199843370E+02  0.45199843370E+02  0.00000000000E+00 0. -1.
         21   -1    0    0  501  502 -0.00000000000E+00 -0.00000000000E+00 -0.15712522172E+04  0.15712522172E+04  0.00000000000E+00 0. -1.
         25    1    1    2    0    0 -0.14260394939E+03 -0.22125383469E+01 -0.66873279190E+03  0.69510382582E+03  0.12500000000E+03 0.  0.
         25    1    1    2    0    0  0.84959798327E+02 -0.72727266207E+02 -0.56872150542E+03  0.59293892882E+03  0.12500000000E+03 0.  0.
         25    1    1    2    0    0  0.57644151065E+02  0.74939804554E+02 -0.28859807653E+03  0.32840930596E+03  0.12500000000E+03 0.  0.
</event>
<event>
 5    0  0.5489207E-005  0.3459571E+03  0.7546771E-02  0.1064287E+00
         21   -1    0    0  502  501  0.00000000000E+00  0.00000000000E+00  0.22607416530E+04  0.22607416530E+04  0.00000000000E+00 0.  1.
         21   -1    0    0  501  502 -0.00000000000E+00 -0.00000000000E+00 -0.52941179371E+02  0.52941179371E+02  0.00000000000E+00 0.  1.
         25    1    1    2    0    0 -0.67682491393E+02  0.10820956191E+03  0.79380901200E+03  0.81366330657E+03  0.12500000000E+03 0.  0.
         25    1    1    2    0    0 -0.23265178829E+02  0.10789346426E+02  0.12138227414E+04  0.12205115018E+04  0.12500000000E+03 0.  0.
         25    1    1    2    0    0  0.90947670223E+02 -0.11899890833E+03  0.20016872020E+03  0.27950802394E+03  0.12500000000E+03 0.  0.
</event>
<event>
 5    0  0.5794611E-005  0.2634711E+03  0.7546771E-02  0.1105075E+00
         21   -1    0    0  502  501  0.00000000000E+00  0.00000000000E+00  0.43813731874E+03  0.43813731874E+03  0.00000000000E+00 0.  1.
         21   -1    0    0  501  502 -0.00000000000E+00 -0.00000000000E+00 -0.15843665463E+03  0.15843665463E+03  0.00000000000E+00 0.  1.
         25    1    1    2    0    0 -0.10851649584E+03  0.12142156840E+03  0.82251136377E+02  0.22115441795E+03  0.12500000000E+03 0.  0.
         25    1    1    2    0    0  0.59530770595E+02 -0.68172924140E+02  0.35373059082E+02  0.15832786723E+03  0.12500000000E+03 0.  0.
         25    1    1    2    0    0  0.48985725247E+02 -0.53248644257E+02  0.16207646865E+03  0.21709168819E+03  0.12500000000E+03 0.  0.
</event>
<event>
 5    0  0.5489207E-005  0.3866263E+03  0.7546771E-02  0.1048511E+00
         21   -1    0    0  502  501  0.00000000000E+00  0.00000000000E+00  0.40512245822E+03  0.40512245822E+03  0.00000000000E+00 0. -1.
         21   -1    0    0  501  502 -0.00000000000E+00 -0.00000000000E+00 -0.36897453581E+03  0.36897453581E+03  0.00000000000E+00 0. -1.
         25    1    1    2    0    0  0.89538674448E+01  0.65105425809E+02 -0.23965283590E+03  0.27816788090E+03  0.12500000000E+03 0.  0.
         25    1    1    2    0    0  0.60318104711E+02  0.81401727672E+02  0.23879439753E+03  0.28794492410E+03  0.12500000000E+03 0.  0.
         25    1    1    2    0    0 -0.69271972156E+02 -0.14650715348E+03  0.37006360781E+02  0.20798418903E+03  0.12500000000E+03 0.  0.
</event>
<event>
 5    0  0.5489207E-005  0.2655581E+03  0.7546771E-02  0.1103849E+00
         21   -1    0    0  502  501  0.00000000000E+00  0.00000000000E+00  0.32693310592E+03  0.32693310592E+03  0.00000000000E+00 0.  1.
         21   -1    0    0  501  502 -0.00000000000E+00 -0.00000000000E+00 -0.21570492020E+03  0.21570492020E+03  0.00000000000E+00 0.  1.
         25    1    1    2    0    0  0.11069124435E+03 -0.68915780501E+02 -0.21496871813E+02  0.18190396333E+03  0.12500000000E+03 0.  0.
         25    1    1    2    0    0 -0.34987464374E+02  0.12319957161E+03  0.81446604434E+02  0.19662351457E+03  0.12500000000E+03 0.  0.
         25    1    1    2    0    0 -0.75703779980E+02 -0.54283791111E+02  0.51278453101E+02  0.16411054821E+03  0.12500000000E+03 0.  0.
</event>
<event>
 5    0  0.5489207E-005  0.2768707E+03  0.7546771E-02  0.1097410E+00
         21   -1    0    0  502  501  0.00000000000E+00  0.00000000000E+00  0.75667979931E+03  0.75667979931E+03  0.00000000000E+00 0.  1.
         21   -1    0    0  501  502 -0.00000000000E+00 -0.00000000000E+00 -0.10130756858E+03  0.10130756858E+03  0.00000000000E+00 0.  1.
         25    1    1    2    0    0 -0.17870403036E+02  0.24101660428E+02  0.41488088364E+03  0.43434017654E+03  0.12500000000E+03 0.  0.
         25    1    1    2    0    0  0.99030774966E+02 -0.83576725214E+01  0.22079400998E+03  0.27249209149E+03  0.12500000000E+03 0.  0.
         25    1    1    2    0    0 -0.81160371930E+02 -0.15743987907E+02  0.19697337107E+02  0.15115509987E+03  0.12500000000E+03 0.  0.
</event>
<event>
 5    0  0.5489207E-005  0.2483257E+03  0.7546771E-02  0.1114368E+00
         21   -1    0    0  502  501  0.00000000000E+00  0.00000000000E+00  0.23397568015E+03  0.23397568015E+03  0.00000000000E+00 0. -1.
         21   -1    0    0  501  502 -0.00000000000E+00 -0.00000000000E+00 -0.26355574592E+03  0.26355574592E+03  0.00000000000E+00 0. -1.
         25    1    1    2    0    0  0.82822412930E+01 -0.13985543223E+01  0.72900271897E+02  0.14494827049E+03  0.12500000000E+03 0.  0.
         25    1    1    2    0    0 -0.91920437685E+02 -0.22900685299E+02  0.18652228924E+02  0.15794528766E+03  0.12500000000E+03 0.  0.
         25    1    1    2    0    0  0.83638196392E+02  0.24299239621E+02 -0.12113256659E+03  0.19463786793E+03  0.12500000000E+03 0.  0.
</event>
<event>
 5    0  0.5489207E-005  0.5536239E+03  0.7546771E-02  0.1000659E+00
         21   -1    0    0  502  501  0.00000000000E+00  0.00000000000E+00  0.32924818727E+03  0.32924818727E+03  0.00000000000E+00 0. -1.
         21   -1    0    0  501  502 -0.00000000000E+00 -0.00000000000E+00 -0.93090686911E+03  0.93090686911E+03  0.00000000000E+00 0. -1.
         25    1    1    2    0    0  0.33450455556E+03  0.49489292594E+02 -0.21256767312E+03  0.41851225003E+03  0.12500000000E+03 0.  0.
         25    1    1    2    0    0 -0.69101725480E+02  0.26047077355E+03 -0.60830886589E+02  0.30322511292E+03  0.12500000000E+03 0.  0.
         25    1    1    2    0    0 -0.26540283008E+03 -0.30996006615E+03 -0.32826012213E+03  0.53841769344E+03  0.12500000000E+03 0.  0.
</event>
<event>
 5    0  0.5489207E-005  0.4005791E+03  0.7546771E-02  0.1043579E+00
         21   -1    0    0  502  501  0.00000000000E+00  0.00000000000E+00  0.86538193732E+02  0.86538193732E+02  0.00000000000E+00 0. -1.
         21   -1    0    0  501  502 -0.00000000000E+00 -0.00000000000E+00 -0.18542518001E+04  0.18542518001E+04  0.00000000000E+00 0. -1.
         25    1    1    2    0    0  0.23026801614E+03 -0.11164466571E+03 -0.81116895931E+03  0.85971388915E+03  0.12500000000E+03 0.  0.
         25    1    1    2    0    0 -0.44724883268E+02  0.20241963781E+03 -0.63048288108E+03  0.67535745224E+03  0.12500000000E+03 0.  0.
         25    1    1    2    0    0 -0.18554313288E+03 -0.90774972100E+02 -0.32606176599E+03  0.40571865246E+03  0.12500000000E+03 0.  0.
</event>
<event>
 5    0  0.5489207E-005  0.2482524E+03  0.7546771E-02  0.1114414E+00
         21   -1    0    0  502  501  0.00000000000E+00  0.00000000000E+00  0.11913338473E+03  0.11913338473E+03  0.00000000000E+00 0.  1.
         21   -1    0    0  501  502 -0.00000000000E+00 -0.00000000000E+00 -0.51731294174E+03  0.51731294174E+03  0.00000000000E+00 0.  1.
         25    1    1    2    0    0  0.24565253662E+01 -0.70309346103E+02 -0.25071116911E+02  0.14561249799E+03  0.12500000000E+03 0.  0.
         25    1    1    2    0    0 -0.53145731920E+02 -0.36730936081E+00 -0.28295260975E+03  0.31386586801E+03  0.12500000000E+03 0.  0.
         25    1    1    2    0    0  0.50689206554E+02  0.70676655464E+02 -0.90155830356E+02  0.17696796048E+03  0.12500000000E+03 0.  0.
</event>
<event>
 5    0  0.5864433E-005  0.3095539E+03  0.7546771E-02  0.1080560E+00
         21   -1    0    0  502  501  0.00000000000E+00  0.00000000000E+00  0.53573870129E+03  0.53573870129E+03  0.00000000000E+00 0.  1.
         21   -1    0    0  501  502 -0.00000000000E+00 -0.00000000000E+00 -0.17886265004E+03  0.17886265004E+03  0.00000000000E+00 0.  1.
         25    1    1    2    0    0  0.97942365651E+02  0.61395921588E+02  0.23502870055E+03  0.29021656786E+03  0.12500000000E+03 0.  0.
         25    1    1    2    0    0 -0.19578118151E+03 -0.25501607603E+02  0.25020629958E+02  0.23501411649E+03  0.12500000000E+03 0.  0.
         25    1    1    2    0    0  0.97838815860E+02 -0.35894313985E+02  0.96826720738E+02  0.18937066698E+03  0.12500000000E+03 0.  0.
</event>
<event>
 5    0  0.5489207E-005  0.4090698E+03  0.7546771E-02  0.1040684E+00
         21   -1    0    0  502  501  0.00000000000E+00  0.00000000000E+00  0.46066099138E+03  0.46066099138E+03  0.00000000000E+00 0. -1.
         21   -1    0    0  501  502 -0.00000000000E+00 -0.00000000000E+00 -0.36325646440E+03  0.36325646440E+03  0.00000000000E+00 0. -1.
         25    1    1    2    0    0  0.13665343072E+03  0.20447203224E+03  0.22687207586E+03  0.35718190169E+03  0.12500000000E+03 0.  0.
         25    1    1    2    0    0 -0.86195087804E+02 -0.12499519328E+03 -0.21253639629E+03  0.28956883681E+03  0.12500000000E+03 0.  0.
         25    1    1    2    0    0 -0.50458342920E+02 -0.79476838957E+02  0.83068847416E+02  0.17716671728E+03  0.12500000000E+03 0.  0.
</event>
<event>
 5    0  0.5489207E-005  0.2880645E+03  0.7546771E-02  0.1091364E+00
         21   -1    0    0  502  501  0.00000000000E+00  0.00000000000E+00  0.59270407567E+03  0.59270407567E+03  0.00000000000E+00 0.  1.
         21   -1    0    0  501  502 -0.00000000000E+00 -0.00000000000E+00 -0.14000439078E+03  0.14000439078E+03  0.00000000000E+00 0.  1.
         25    1    1    2    0    0 -0.11522492891E+03  0.52317545880E+02  0.39529670199E+03  0.43347248177E+03  0.12500000000E+03 0.  0.
         25    1    1    2    0    0  0.83078421289E+02  0.94171708325E+01  0.23608833086E+02  0.15222708100E+03  0.12500000000E+03 0.  0.
         25    1    1    2    0    0  0.32146507618E+02 -0.61734716712E+02  0.33794149821E+02  0.14700890368E+03  0.12500000000E+03 0.  0.
</event>
<event>
 5    0  0.5489207E-005  0.3077546E+03  0.7546771E-02  0.1081427E+00
         21   -1    0    0  502  501  0.00000000000E+00  0.00000000000E+00  0.17071332743E+04  0.17071332743E+04  0.00000000000E+00 0. -1.
         21   -1    0    0  501  502 -0.00000000000E+00 -0.00000000000E+00 -0.55480660666E+02  0.55480660666E+02  0.00000000000E+00 0. -1.
         25    1    1    2    0    0 -0.78698406193E+02 -0.64383061759E+02  0.68200083887E+03  0.70077725562E+03  0.12500000000E+03 0.  0.
         25    1    1    2    0    0 -0.86668440870E+02  0.12994466017E+03  0.60578340913E+03  0.63796204600E+03  0.12500000000E+03 0.  0.
         25    1    1    2    0    0  0.16536684706E+03 -0.65561598411E+02  0.36386836568E+03  0.42387463339E+03  0.12500000000E+03 0.  0.
</event>
<event>
 5    0  0.5489207E-005  0.2307980E+03  0.7546771E-02  0.1126079E+00
         21   -1    0    0  502  501  0.00000000000E+00  0.00000000000E+00  0.19040719078E+03  0.19040719078E+03  0.00000000000E+00 0. -1.
         21   -1    0    0  501  502 -0.00000000000E+00 -0.00000000000E+00 -0.27975678834E+03  0.27975678834E+03  0.00000000000E+00 0. -1.
         25    1    1    2    0    0  0.74842125572E+02 -0.48007726189E+02  0.50529647529E+02  0.16150644202E+03  0.12500000000E+03 0.  0.
         25    1    1    2    0    0 -0.30037669877E+02  0.46770251361E+02 -0.10176912854E+03  0.17050417458E+03  0.12500000000E+03 0.  0.
         25    1    1    2    0    0 -0.44804455695E+02  0.12374748281E+01 -0.38110116551E+02  0.13815336253E+03  0.12500000000E+03 0.  0.
</event>
<event>
 5    0  0.5489207E-005  0.2856101E+03  0.7546771E-02  0.1092664E+00
         21   -1    0    0  502  501  0.00000000000E+00  0.00000000000E+00  0.85614560799E+03  0.85614560799E+03  0.00000000000E+00 0.  1.
         21   -1    0    0  501  502 -0.00000000000E+00 -0.00000000000E+00 -0.95279488800E+02  0.95279488800E+02  0.00000000000E+00 0.  1.
         25    1    1    2    0    0 -0.74110213920E+02  0.56287942883E+02  0.70215352030E+02  0.17092645197E+03  0.12500000000E+03 0.  0.
         25    1    1    2    0    0  0.37198962391E+02 -0.13749967923E+03  0.50605919543E+03  0.54038026784E+03  0.12500000000E+03 0.  0.
         25    1    1    2    0    0  0.36911251529E+02  0.81211736351E+02  0.18459157173E+03  0.24011837698E+03  0.12500000000E+03 0.  0.
</event>
<event>
 5    0  0.5489207E-005  0.3195478E+03  0.7546771E-02  0.1075858E+00
         21   -1    0    0  502  501  0.00000000000E+00  0.00000000000E+00  0.17194215813E+03  0.17194215813E+03  0.00000000000E+00 0.  1.
         21   -1    0    0  501  502 -0.00000000000E+00 -0.00000000000E+00 -0.59386728609E+03  0.59386728609E+03  0.00000000000E+00 0.  1.
         25    1    1    2    0    0  0.99570653391E+02  0.72300249879E+02 -0.31211678320E+03  0.35802727202E+03  0.12500000000E+03 0.  0.
         25    1    1    2    0    0  0.63441228881E+02 -0.96489161538E+01  0.39810385810E+02  0.14604026131E+03  0.12500000000E+03 0.  0.
         25    1    1    2    0    0 -0.16301188227E+03 -0.62651333725E+02 -0.14961873057E+03  0.26174191089E+03  0.12500000000E+03 0.  0.
</event>
<event>
 5    0  0.5489207E-005  0.3269821E+03  0.7546771E-02  0.1072480E+00
         21   -1    0    0  502  501  0.00000000000E+00  0.00000000000E+00  0.25112676091E+03  0.25112676091E+03  0.00000000000E+00 0. -1.
         21   -1    0    0  501  502 -0.00000000000E+00 -0.00000000000E+00 -0.42575017968E+03  0.42575017968E+03  0.00000000000E+00 0. -1.
         25    1    1    2    0    0 -0.14159104176E+03  0.77182983520E+00 -0.15077827741E+03  0.24167686643E+03  0.12500000000E+03 0.  0.
         25    1    1    2    0    0  0.34270380777E+02  0.32698740019E+02 -0.16733664894E+03  0.21417334259E+03  0.12500000000E+03 0.  0.
         25    1    1    2    0    0  0.10732066098E+03 -0.33470569855E+02  0.14349150758E+03  0.22102673157E+03  0.12500000000E+03 0.  0.
</event>
<event>
 5    0  0.5489207E-005  0.3161950E+03  0.7546771E-02  0.1077414E+00
         21   -1    0    0  502  501  0.00000000000E+00  0.00000000000E+00  0.36067654864E+03  0.36067654864E+03  0.00000000000E+00 0.  1.
         21   -1    0    0  501  502 -0.00000000000E+00 -0.00000000000E+00 -0.27719936072E+03  0.27719936072E+03  0.00000000000E+00 0.  1.
         25    1    1    2    0    0 -0.13165409415E+03  0.16966865303E+03  0.12896528823E+03  0.27995945760E+03  0.12500000000E+03 0.  0.
         25    1    1    2    0    0  0.67962331495E+02 -0.15268505614E+03 -0.56374886077E+02  0.21618217468E+03  0.12500000000E+03 0.  0.
         25    1    1    2    0    0  0.63691762659E+02 -0.16983596894E+02  0.10886785768E+02  0.14173427708E+03  0.12500000000E+03 0.  0.
</event>
<event>
 5    0  0.6310849E-005  0.2787803E+03  0.7546771E-02  0.1096357E+00
         21   -1    0    0  502  501  0.00000000000E+00  0.00000000000E+00  0.15502379725E+03  0.15502379725E+03  0.00000000000E+00 0.  1.
         21   -1    0    0  501  502 -0.00000000000E+00 -0.00000000000E+00 -0.50133239065E+03  0.50133239065E+03  0.00000000000E+00 0.  1.
         25    1    1    2    0    0  0.75432232970E+01 -0.43256051608E+02  0.19207583572E+02  0.13387276603E+03  0.12500000000E+03 0.  0.
         25    1    1    2    0    0  0.10936161702E+03 -0.47637387430E+02 -0.12320058909E+03  0.21220902222E+03  0.12500000000E+03 0.  0.
         25    1    1    2    0    0 -0.11690484032E+03  0.90893439039E+02 -0.24231558788E+03  0.31027439965E+03  0.12500000000E+03 0.  0.
</event>
<event>
 5    0  0.5489207E-005  0.2396823E+03  0.7546771E-02  0.1120005E+00
         21   -1    0    0  502  501  0.00000000000E+00  0.00000000000E+00  0.19805076125E+03  0.19805076125E+03  0.00000000000E+00 0.  1.
         21   -1    0    0  501  502 -0.00000000000E+00 -0.00000000000E+00 -0.29006511595E+03  0.29006511595E+03  0.00000000000E+00 0.  1.
         25    1    1    2    0    0 -0.96291605770E+02  0.34727666673E+02 -0.39571021189E+02  0.16633986261E+03  0.12500000000E+03 0.  0.
         25    1    1    2    0    0  0.99431685326E+02  0.42936048966E+02  0.36486738404E+00  0.16539436954E+03  0.12500000000E+03 0.  0.
         25    1    1    2    0    0 -0.31400795562E+01 -0.77663715638E+02 -0.52808200903E+02  0.15638164505E+03  0.12500000000E+03 0.  0.
</event>
<event>
 5    0  0.5489207E-005  0.2725889E+03  0.7546771E-02  0.1099807E+00
         21   -1    0    0  502  501  0.00000000000E+00  0.00000000000E+00  0.10502592709E+03  0.10502592709E+03  0.00000000000E+00 0.  1.
         21   -1    0    0  501  502 -0.00000000000E+00 -0.00000000000E+00 -0.70748928901E+03  0.70748928901E+03  0.00000000000E+00 0.  1.
         25    1    1    2    0    0 -0.46508999055E+02  0.12436924308E+03 -0.86129713817E+02  0.20167826660E+03  0.12500000000E+03 0.  0.
         25    1    1    2    0    0 -0.70985070103E+01  0.93949390746E+01 -0.28188869300E+03  0.30858530251E+03  0.12500000000E+03 0.  0.
         25    1    1    2    0    0  0.53607506065E+02 -0.13376418215E+03 -0.23444495510E+03  0.30225164698E+03  0.12500000000E+03 0.  0.
</event>
<event>
 5    0  0.5489207E-005  0.3081593E+03  0.7546771E-02  0.1081232E+00
         21   -1    0    0  502  501  0.00000000000E+00  0.00000000000E+00  0.80364063053E+03  0.80364063053E+03  0.00000000000E+00 0. -1.
         21   -1    0    0  501  502 -0.00000000000E+00 -0.00000000000E+00 -0.11816496518E+03  0.11816496518E+03  0.00000000000E+00 0. -1.
         25    1    1    2    0    0 -0.72451391748E+02 -0.30458717610E+02  0.72985046258E+02  0.16470808912E+03  0.12500000000E+03 0.  0.
         25    1    1    2    0    0 -0.92131367525E+02  0.62722731414E+02  0.48270367772E+03  0.51093069041E+03  0.12500000000E+03 0.  0.
         25    1    1    2    0    0  0.16458275927E+03 -0.32264013804E+02  0.12978694137E+03  0.24616681618E+03  0.12500000000E+03 0.  0.
</event>
<event>
 5    0  0.5489207E-005  0.4093966E+03  0.7546771E-02  0.1040574E+00
         21   -1    0    0  502  501  0.00000000000E+00  0.00000000000E+00  0.13023089559E+03  0.13023089559E+03  0.00000000000E+00 0. -1.
         21   -1    0    0  501  502 -0.00000000000E+00 -0.00000000000E+00 -0.12869876324E+04  0.12869876324E+04  0.00000000000E+00 0. -1.
         25    1    1    2    0    0  0.64500329490E+02  0.51439647378E+02 -0.12361846860E+02  0.15028022187E+03  0.12500000000E+03 0.  0.
         25    1    1    2    0    0  0.24636672025E+02 -0.45896088979E+02 -0.25814884447E+02  0.13785798798E+03  0.12500000000E+03 0.  0.
         25    1    1    2    0    0 -0.89137001515E+02 -0.55435583995E+01 -0.11185800055E+04  0.11290803182E+04  0.12500000000E+03 0.  0.
</event>
<event>
 5    0  0.5676077E-005  0.3207381E+03  0.7546771E-02  0.1075310E+00
         21   -1    0    0  502  501  0.00000000000E+00  0.00000000000E+00  0.60179833490E+03  0.60179833490E+03  0.00000000000E+00 0.  1.
         21   -1    0    0  501  502 -0.00000000000E+00 -0.00000000000E+00 -0.17094257471E+03  0.17094257471E+03  0.00000000000E+00 0.  1.
         25    1    1    2    0    0 -0.26360976778E+02 -0.41491761722E+02 -0.12709085824E+02  0.13491845037E+03  0.12500000000E+03 0.  0.
         25    1    1    2    0    0 -0.59845872466E+02  0.16866958460E+03  0.97502960806E+02  0.23908739947E+03  0.12500000000E+03 0.  0.
         25    1    1    2    0    0  0.86206849244E+02 -0.12717782288E+03  0.34606188521E+03  0.39873505976E+03  0.12500000000E+03 0.  0.
</event>
<event>
 5    0  0.5489207E-005  0.2618605E+03  0.7546771E-02  0.1106031E+00
         21   -1    0    0  502  501  0.00000000000E+00  0.00000000000E+00  0.23291774309E+03  0.23291774309E+03  0.00000000000E+00 0. -1.
         21   -1    0    0  501  502 -0.00000000000E+00 -0.00000000000E+00 -0.29439978810E+03  0.29439978810E+03  0.00000000000E+00 0. -1.
         25    1    1    2    0    0 -0.85645072971E+02 -0.36072526180E+02 -0.13098664846E+03  0.20351611176E+03  0.12500000000E+03 0.  0.
         25    1    1    2    0    0 -0.21655308761E+02  0.22211519008E+02 -0.28096832719E+02  0.13182084806E+03  0.12500000000E+03 0.  0.
         25    1    1    2    0    0  0.10730038173E+03  0.13861007172E+02  0.97601436177E+02  0.19198057137E+03  0.12500000000E+03 0.  0.
</event>
<event>
 5    0  0.5489207E-005  0.2671512E+03  0.7546771E-02  0.1102921E+00
         21   -1    0    0  502  501  0.00000000000E+00  0.00000000000E+00  0.21253027714E+04  0.21253027714E+04  0.00000000000E+00 0. -1.
         21   -1    0    0  501  502 -0.00000000000E+00 -0.00000000000E+00 -0.33580992702E+02  0.33580992702E+02  0.00000000000E+00 0. -1.
         25    1    1    2    0    0  0.14241205589E+03 -0.32979337262E+01  0.50569655408E+03  0.54004266020E+03  0.12500000000E+03 0.  0.
         25    1    1    2    0    0  0.12029361127E+02  0.57095694455E+00  0.60688513229E+03  0.61974155526E+03  0.12500000000E+03 0.  0.
         25    1    1    2    0    0 -0.15444141701E+03  0.27269767817E+01  0.97914009228E+03  0.99909954860E+03  0.12500000000E+03 0.  0.
</event>
<event>
 5    0  0.5489207E-005  0.4024500E+03  0.7546771E-02  0.1042935E+00
         21   -1    0    0  502  501  0.00000000000E+00  0.00000000000E+00  0.36654456698E+03  0.36654456698E+03  0.00000000000E+00 0. -1.
         21   -1    0    0  501  502 -0.00000000000E+00 -0.00000000000E+00 -0.44187249662E+03  0.44187249662E+03  0.00000000000E+00 0. -1.
         25    1    1    2    0    0 -0.41056555319E+02  0.24829516073E+03  0.12166166993E+02  0.28126347647E+03  0.12500000000E+03 0.  0.
         25    1    1    2    0    0  0.39289296442E+01 -0.17377305416E+03  0.13909161874E+03  0.25531155329E+03  0.12500000000E+03 0.  0.
         25    1    1    2    0    0  0.37127625675E+02 -0.74522106565E+02 -0.22658571537E+03  0.27184203384E+03  0.12500000000E+03 0.  0.
</event>
<event>
 5    0  0.5489207E-005  0.3058749E+03  0.7546771E-02  0.1082340E+00
         21   -1    0    0  502  501  0.00000000000E+00  0.00000000000E+00  0.55236356519E+03  0.55236356519E+03  0.00000000000E+00 0.  1.
         21   -1    0    0  501  502 -0.00000000000E+00 -0.00000000000E+00 -0.16938016206E+03  0.16938016206E+03  0.00000000000E+00 0.  1.
         25    1    1    2    0    0  0.17238672808E+03  0.10163610411E+03  0.23240461162E+03  0.33118572611E+03  0.12500000000E+03 0.  0.
         25    1    1    2    0    0 -0.11734339096E+03  0.26014400963E+02  0.71440779677E+02  0.18755000789E+03  0.12500000000E+03 0.  0.
         25    1    1    2    0    0 -0.55043337128E+02 -0.12765050507E+03  0.79138011837E+02  0.20300799325E+03  0.12500000000E+03 0.  0.
</event>
<event>
 5    0  0.5489207E-005  0.4033998E+03  0.7546771E-02  0.1042609E+00
         21   -1    0    0  502  501  0.00000000000E+00  0.00000000000E+00  0.19034729620E+03  0.19034729620E+03  0.00000000000E+00 0.  1.
         21   -1    0    0  501  502 -0.00000000000E+00 -0.00000000000E+00 -0.85491832781E+03  0.85491832781E+03  0.00000000000E+00 0.  1.
         25    1    1    2    0    0 -0.84553517061E+02  0.89372819723E+02 -0.24553546265E+03  0.30174403320E+03  0.12500000000E+03 0.  0.
         25    1    1    2    0    0 -0.18969828606E+03 -0.13066184504E+03 -0.52659820482E+02  0.26731257766E+03  0.12500000000E+03 0.  0.
         25    1    1    2    0    0  0.27425180312E+03  0.41289025319E+02 -0.36637574848E+03  0.47620901314E+03  0.12500000000E+03 0.  0.
</event>
<event>
 5    0  0.5489207E-005  0.2476746E+03  0.7546771E-02  0.1114783E+00
         21   -1    0    0  502  501  0.00000000000E+00  0.00000000000E+00  0.55382684862E+03  0.55382684862E+03  0.00000000000E+00 0. -1.
         21   -1    0    0  501  502 -0.00000000000E+00 -0.00000000000E+00 -0.11076152407E+03  0.11076152407E+03  0.00000000000E+00 0. -1.
         25    1    1    2    0    0 -0.30178295005E+02  0.68664078396E+01  0.15103587764E+02  0.12965722274E+03  0.12500000000E+03 0.  0.
         25    1    1    2    0    0 -0.71947405019E+02 -0.51965057350E+02  0.20039858373E+03  0.25231208579E+03  0.12500000000E+03 0.  0.
         25    1    1    2    0    0  0.10212570002E+03  0.45098649510E+02  0.22756315305E+03  0.28261906415E+03  0.12500000000E+03 0.  0.
</event>
<event>
 5    0  0.5489207E-005  0.2774543E+03  0.7546771E-02  0.1097088E+00
         21   -1    0    0  502  501  0.00000000000E+00  0.00000000000E+00  0.88066952754E+03  0.88066952754E+03  0.00000000000E+00 0.  1.
         21   -1    0    0  501  502 -0.00000000000E+00 -0.00000000000E+00 -0.87411764381E+02  0.87411764381E+02  0.00000000000E+00 0.  1.
         25    1    1    2    0    0  0.35669339490E+02  0.45669803786E+01  0.58544595360E+03  0.59972087147E+03  0.12500000000E+03 0.  0.
         25    1    1    2    0    0 -0.22943848449E+02  0.80223486815E+02  0.12594927333E+03  0.19608785651E+03  0.12500000000E+03 0.  0.
         25    1    1    2    0    0 -0.12725491041E+02 -0.84790467194E+02  0.81862536228E+02  0.17227256394E+03  0.12500000000E+03 0.  0.
</event>
<event>
 5    0  0.5489207E-005  0.2805976E+03  0.7546771E-02  0.1095363E+00
         21   -1    0    0  502  501  0.00000000000E+00  0.00000000000E+00  0.63380616276E+03  0.63380616276E+03  0.00000000000E+00 0.  1.
         21   -1    0    0  501  502 -0.00000000000E+00 -0.00000000000E+00 -0.12422568723E+03  0.12422568723E+03  0.00000000000E+00 0.  1.
         25    1    1    2    0    0  0.67465781371E+02 -0.14138467551E+03  0.35520565898E+03  0.40784472327E+03  0.12500000000E+03 0.  0.
         25    1    1    2    0    0 -0.15194502609E+02  0.12491080816E+03  0.77708420439E+02  0.19364188987E+03  0.12500000000E+03 0.  0.
         25    1    1    2    0    0 -0.52271278763E+02  0.16473867348E+02  0.76666396102E+02  0.15654523685E+03  0.12500000000E+03 0.  0.
</event>
<event>
 5    0  0.5489207E-005  0.3155386E+03  0.7546771E-02  0.1077721E+00
         21   -1    0    0  502  501  0.00000000000E+00  0.00000000000E+00  0.14644739421E+04  0.14644739421E+04  0.00000000000E+00 0. -1.
         21   -1    0    0  501  502 -0.00000000000E+00 -0.00000000000E+00 -0.67986600544E+02  0.67986600544E+02  0.00000000000E+00 0. -1.
         25    1    1    2    0    0 -0.17374227051E+03 -0.15712662620E+02  0.47770176375E+03  0.52369575082E+03  0.12500000000E+03 0.  0.
         25    1    1    2    0    0  0.79488875034E+02 -0.11040292933E+03  0.25289617187E+03  0.31319125436E+03  0.12500000000E+03 0.  0.
         25    1    1    2    0    0  0.94253395478E+02  0.12611559195E+03  0.66588940590E+03  0.69557353744E+03  0.12500000000E+03 0.  0.
</event>
<event>
 5    0  0.5489207E-005  0.3641654E+03  0.7546771E-02  0.1056947E+00
         21   -1    0    0  502  501  0.00000000000E+00  0.00000000000E+00  0.37149197942E+03  0.37149197942E+03  0.00000000000E+00 0.  1.
         21   -1    0    0  501  502 -0.00000000000E+00 -0.00000000000E+00 -0.35698337570E+03  0.35698337570E+03  0.00000000000E+00 0.  1.
         25    1    1    2    0    0  0.12549170672E+03 -0.76489127900E+01  0.10209460308E+03  0.20458490243E+03  0.12500000000E+03 0.  0.
         25    1    1    2    0    0  0.11650991627E+03  0.95489625813E+02 -0.12940973872E+03  0.23465870898E+03  0.12500000000E+03 0.  0.
         25    1    1    2    0    0 -0.24200162299E+03 -0.87840713023E+02  0.41823739352E+02  0.28923174371E+03  0.12500000000E+03 0.  0.
</event>
<event>
 5    0  0.5489207E-005  0.3058305E+03  0.7546771E-02  0.1082362E+00
         21   -1    0    0  502  501  0.00000000000E+00  0.00000000000E+00  0.34657122837E+03  0.34657122837E+03  0.00000000000E+00 0. -1.
         21   -1    0    0  501  502 -0.00000000000E+00 -0.00000000000E+00 -0.26987897503E+03  0.26987897503E+03  0.00000000000E+00 0. -1.
         25    1    1    2    0    0  0.15920867215E+03  0.44180628239E+02  0.17856747474E+02  0.20794997627E+03  0.12500000000E+03 0.  0.
         25    1    1    2    0    0  0.56166171675E+02  0.37616974191E+02  0.18646792537E+02  0.14332612623E+03  0.12500000000E+03 0.  0.
         25    1    1    2    0    0 -0.21537484382E+03 -0.81797602430E+02  0.40188713322E+02  0.26517410091E+03  0.12500000000E+03 0.  0.
</event>
<event>
 5    0  0.5489207E-005  0.3425070E+03  0.7546771E-02  0.1065733E+00
         21   -1    0    0  502  501  0.00000000000E+00  0.00000000000E+00  0.10487184758E+03  0.10487184758E+03  0.00000000000E+00 0.  1.
         21   -1    0    0  501  502 -0.00000000000E+00 -0.00000000000E+00 -0.11186134652E+04  0.11186134652E+04  0.00000000000E+00 0.  1.
         25    1    1    2    0    0  0.17804856706E+03 -0.47926368707E+02 -0.57806622254E+03  0.61950285446E+03  0.12500000000E+03 0.  0.
         25    1    1    2    0    0 -0.12695050674E+02 -0.29655042552E+02 -0.16740066896E+02  0.13017609496E+03  0.12500000000E+03 0.  0.
         25    1    1    2    0    0 -0.16535351638E+03  0.77581411259E+02 -0.41893532824E+03  0.47380636340E+03  0.12500000000E+03 0.  0.
</event>
<event>
 5    0  0.5489207E-005  0.3357460E+03  0.7546771E-02  0.1068622E+00
         21   -1    0    0  502  501  0.00000000000E+00  0.00000000000E+00  0.12746086201E+04  0.12746086201E+04  0.00000000000E+00 0. -1.
         21   -1    0    0  501  502 -0.00000000000E+00 -0.00000000000E+00 -0.88439209054E+02  0.88439209054E+02  0.00000000000E+00 0. -1.
         25    1    1    2    0    0  0.59508291863E+02  0.66910311423E+02  0.79423778004E+03  0.80898509123E+03  0.12500000000E+03 0.  0.
         25    1    1    2    0    0 -0.14790477655E+03 -0.10593595541E+03  0.29594341226E+03  0.36919608995E+03  0.12500000000E+03 0.  0.
         25    1    1    2    0    0  0.88396484687E+02  0.39025643983E+02  0.95988218717E+02  0.18486664795E+03  0.12500000000E+03 0.  0.
</event>
<event>
 5    0  0.5489207E-005  0.3443276E+03  0.7546771E-02  0.1064968E+00
         21   -1    0    0  502  501  0.00000000000E+00  0.00000000000E+00  0.27923528824E+03  0.27923528824E+03  0.00000000000E+00 0.  1.
         21   -1    0    0  501  502 -0.00000000000E+00 -0.00000000000E+00 -0.42459353295E+03  0.42459353295E+03  0.00000000000E+00 0. -1.
         25    1    1    2    0    0  0.89434736865E+02 -0.47383329494E+02 -0.20423660224E+03  0.25996411631E+03  0.12500000000E+03 0.  0.
         25    1    1    2    0    0 -0.15194485990E+03 -0.10865294790E+03  0.66054341273E+02  0.23426668465E+03  0.12500000000E+03 0.  0.
         25    1    1    2    0    0  0.62510123038E+02  0.15603627739E+03 -0.71759837451E+01  0.20959802024E+03  0.12500000000E+03 0.  0.
</event>
<event>
 5    0  0.5489207E-005  0.3716567E+03  0.7546771E-02  0.1054061E+00
         21   -1    0    0  502  501  0.00000000000E+00  0.00000000000E+00  0.76225179857E+03  0.76225179857E+03  0.00000000000E+00 0. -1.
         21   -1    0    0  501  502 -0.00000000000E+00 -0.00000000000E+00 -0.18121133599E+03  0.18121133599E+03  0.00000000000E+00 0. -1.
         25    1    1    2    0    0  0.14018795208E+03 -0.98372551770E+02  0.12023386293E+03  0.24374372330E+03  0.12500000000E+03 0.  0.
         25    1    1    2    0    0  0.12549032584E+03 -0.27965470316E+01  0.48735617878E+02  0.18372752381E+03  0.12500000000E+03 0.  0.
         25    1    1    2    0    0 -0.26567827792E+03  0.10116909880E+03  0.41207098177E+03  0.51599188746E+03  0.12500000000E+03 0.  0.
</event>
<event>
 5    0  0.5489207E-005  0.3828581E+03  0.7546771E-02  0.1049882E+00
         21   -1    0    0  502  501  0.00000000000E+00  0.00000000000E+00  0.15002590374E+04  0.15002590374E+04  0.00000000000E+00 0. -1.
         21   -1    0    0  501  502 -0.00000000000E+00 -0.00000000000E+00 -0.97703346103E+02  0.97703346103E+02  0.00000000000E+00 0. -1.
         25    1    1    2    0    0 -0.16244974115E+03  0.72575637072E+02  0.32858405164E+03  0.39401728450E+03  0.12500000000E+03 0.  0.
         25    1    1    2    0    0  0.15726656340E+03 -0.17270018210E+03  0.24905404342E+03  0.36360836267E+03  0.12500000000E+03 0.  0.
         25    1    1    2    0    0  0.51831777496E+01  0.10012454502E+03  0.82491759629E+03  0.84033673638E+03  0.12500000000E+03 0.  0.
</event>
<event>
 5    0  0.5489207E-005  0.3102001E+03  0.7546771E-02  0.1080250E+00
         21   -1    0    0  502  501  0.00000000000E+00  0.00000000000E+00  0.26428666808E+03  0.26428666808E+03  0.00000000000E+00 0. -1.
         21   -1    0    0  501  502 -0.00000000000E+00 -0.00000000000E+00 -0.36408989431E+03  0.36408989431E+03  0.00000000000E+00 0. -1.
         25    1    1    2    0    0 -0.58866505752E+02 -0.67596306280E+02  0.33560010311E+02  0.15743506730E+03  0.12500000000E+03 0.  0.
         25    1    1    2    0    0  0.11946806295E+03  0.15258197598E+03 -0.18971782406E+03  0.29861635961E+03  0.12500000000E+03 0.  0.
         25    1    1    2    0    0 -0.60601557194E+02 -0.84985669698E+02  0.56354587522E+02  0.17232513549E+03  0.12500000000E+03 0.  0.
</event>
<event>
 5    0  0.5489207E-005  0.3717142E+03  0.7546771E-02  0.1054039E+00
         21   -1    0    0  502  501  0.00000000000E+00  0.00000000000E+00  0.72447918699E+02  0.72447918699E+02  0.00000000000E+00 0.  1.
         21   -1    0    0  501  502 -0.00000000000E+00 -0.00000000000E+00 -0.19071831951E+04  0.19071831951E+04  0.00000000000E+00 0.  1.
         25    1    1    2    0    0  0.14097861640E+03 -0.49939383653E+02 -0.23319950474E+03  0.30393407399E+03  0.12500000000E+03 0.  0.
         25    1    1    2    0    0 -0.15263793452E+01 -0.80869929064E+02 -0.16970738725E+03  0.22576065323E+03  0.12500000000E+03 0.  0.
         25    1    1    2    0    0 -0.13945223705E+03  0.13080931272E+03 -0.14318283844E+04  0.14499363866E+04  0.12500000000E+03 0.  0.
</event>
<event>
 5    0  0.5489207E-005  0.3271388E+03  0.7546771E-02  0.1072410E+00
         21   -1    0    0  502  501  0.00000000000E+00  0.00000000000E+00  0.90625394189E+03  0.90625394189E+03  0.00000000000E+00 0.  1.
         21   -1    0    0  501  502 -0.00000000000E+00 -0.00000000000E+00 -0.11809027499E+03  0.11809027499E+03  0.00000000000E+00 0.  1.
         25    1    1    2    0    0 -0.14755736837E+03  0.13653978649E+02  0.42152814764E+02  0.19839724768E+03  0.12500000000E+03 0.  0.
         25    1    1    2    0    0 -0.18626734154E+02 -0.27636568718E+02  0.41583786855E+03  0.43549611718E+03  0.12500000000E+03 0.  0.
         25    1    1    2    0    0  0.16618410253E+03  0.13982590070E+02  0.33017298358E+03  0.39045085202E+03  0.12500000000E+03 0.  0.
</event>
<event>
 5    0  0.5489207E-005  0.3471091E+03  0.7546771E-02  0.1063808E+00
         21   -1    0    0  502  501  0.00000000000E+00  0.00000000000E+00  0.88581000919E+03  0.88581000919E+03  0.00000000000E+00 0. -1.
         21   -1    0    0  501  502 -0.00000000000E+00 -0.00000000000E+00 -0.13601642541E+03  0.13601642541E+03  0.00000000000E+00 0. -1.
         25    1    1    2    0    0 -0.24393842331E+03 -0.13396262048E+02  0.37574339498E+03  0.46528863415E+03  0.12500000000E+03 0.  0.
         25    1    1    2    0    0  0.22207134734E+03  0.20539474662E+02  0.33918037052E+03  0.42474213009E+03  0.12500000000E+03 0.  0.
         25    1    1    2    0    0  0.21867075970E+02 -0.71432126135E+01  0.34869818279E+02  0.13179567036E+03  0.12500000000E+03 0.  0.
</event>
<event>
 5    0  0.5489207E-005  0.4049883E+03  0.7546771E-02  0.1042066E+00
         21   -1    0    0  502  501  0.00000000000E+00  0.00000000000E+00  0.20542603886E+04  0.20542603886E+04  0.00000000000E+00 0. -1.
         21   -1    0    0  501  502 -0.00000000000E+00 -0.00000000000E+00 -0.79841643875E+02  0.79841643875E+02  0.00000000000E+00 0. -1.
         25    1    1    2    0    0 -0.77847472018E+02  0.26369996171E+03  0.41822310615E+03  0.51588125108E+03  0.12500000000E+03 0.  0.
         25    1    1    2    0    0 -0.81236718723E+02 -0.14654694762E+03  0.68363069262E+03  0.71487854648E+03  0.12500000000E+03 0.  0.
         25    1    1    2    0    0  0.15908419074E+03 -0.11715301410E+03  0.87256494595E+03  0.90334223490E+03  0.12500000000E+03 0.  0.
</event>
<event>
 5    0  0.5489207E-005  0.3473157E+03  0.7546771E-02  0.1063722E+00
         21   -1    0    0  502  501  0.00000000000E+00  0.00000000000E+00  0.34233727047E+04  0.34233727047E+04  0.00000000000E+00 0. -1.
         21   -1    0    0  501  502 -0.00000000000E+00 -0.00000000000E+00 -0.35236657552E+02  0.35236657552E+02  0.00000000000E+00 0. -1.
         25    1    1    2    0    0 -0.12375196711E+03 -0.90446766809E+02  0.50683174155E+03  0.54405751647E+03  0.12500000000E+03 0.  0.
         25    1    1    2    0    0  0.88603549131E+02  0.21137825663E+03  0.17807425470E+04  0.17997778682E+04  0.12500000000E+03 0.  0.
         25    1    1    2    0    0  0.35148417975E+02 -0.12093148982E+03  0.11005617586E+04  0.11147739775E+04  0.12500000000E+03 0.  0.
</event>
<event>
 5    0  0.5973015E-005  0.3035308E+03  0.7546771E-02  0.1083489E+00
         21   -1    0    0  502  501  0.00000000000E+00  0.00000000000E+00  0.68040918271E+03  0.68040918271E+03  0.00000000000E+00 0.  1.
         21   -1    0    0  501  502 -0.00000000000E+00 -0.00000000000E+00 -0.13540518596E+03  0.13540518596E+03  0.00000000000E+00 0.  1.
         25    1    1    2    0    0 -0.43424528729E+02 -0.67279963951E+02  0.22167697771E+03  0.26679198956E+03  0.12500000000E+03 0.  0.
         25    1    1    2    0    0  0.16416488792E+03  0.14484981165E+03  0.16334147942E+03  0.30039476903E+03  0.12500000000E+03 0.  0.
         25    1    1    2    0    0 -0.12074035919E+03 -0.77569847697E+02  0.15998553961E+03  0.24862761008E+03  0.12500000000E+03 0.  0.
</event>
<event>
 5    0  0.5489207E-005  0.4362955E+03  0.7546771E-02  0.1031890E+00
         21   -1    0    0  502  501  0.00000000000E+00  0.00000000000E+00  0.16239034506E+04  0.16239034506E+04  0.00000000000E+00 0. -1.
         21   -1    0    0  501  502 -0.00000000000E+00 -0.00000000000E+00 -0.11721987764E+03  0.11721987764E+03  0.00000000000E+00 0. -1.
         25    1    1    2    0    0 -0.33489263703E+02  0.92680783641E+01  0.55274938567E+03  0.56777135487E+03  0.12500000000E+03 0.  0.
         25    1    1    2    0    0  0.73329913392E+02 -0.10312905194E+03 -0.26413622810E+02  0.17982090263E+03  0.12500000000E+03 0.  0.
         25    1    1    2    0    0 -0.39840649688E+02  0.93860973580E+02  0.98034781006E+03  0.99353107069E+03  0.12500000000E+03 0.  0.
</event>
<event>
 5    0  0.5489207E-005  0.2273266E+03  0.7546771E-02  0.1128536E+00
         21   -1    0    0  502  501  0.00000000000E+00  0.00000000000E+00  0.31944013345E+03  0.31944013345E+03  0.00000000000E+00 0. -1.
         21   -1    0    0  501  502 -0.00000000000E+00 -0.00000000000E+00 -0.16177485838E+03  0.16177485838E+03  0.00000000000E+00 0. -1.
         25    1    1    2    0    0 -0.77981140407E+02 -0.84748553677E+02  0.66944172167E+02  0.18267429430E+03  0.12500000000E+03 0.  0.
         25    1    1    2    0    0  0.29030956188E+02  0.19478874484E+02  0.71079657613E+02  0.14798493401E+03  0.12500000000E+03 0.  0.
         25    1    1    2    0    0  0.48950184218E+02  0.65269679193E+02  0.19641445294E+02  0.15055576352E+03  0.12500000000E+03 0.  0.
</event>
<event>
 5    0  0.5489207E-005  0.3300733E+03  0.7546771E-02  0.1071104E+00
         21   -1    0    0  502  501  0.00000000000E+00  0.00000000000E+00  0.35900123369E+03  0.35900123369E+03  0.00000000000E+00 0. -1.
         21   -1    0    0  501  502 -0.00000000000E+00 -0.00000000000E+00 -0.30347642789E+03  0.30347642789E+03  0.00000000000E+00 0. -1.
         25    1    1    2    0    0  0.12651134176E+03  0.69757738167E+01 -0.10165067349E+02  0.17827537577E+03  0.12500000000E+03 0.  0.
         25    1    1    2    0    0  0.58091951602E+02 -0.11716426072E+03  0.13535985436E+03  0.22594120696E+03  0.12500000000E+03 0.  0.
         25    1    1    2    0    0 -0.18460329336E+03  0.11018848691E+03 -0.69669981206E+02  0.25826107885E+03  0.12500000000E+03 0.  0.
</event>
<event>
 5    0  0.5489207E-005  0.4171006E+03  0.7546771E-02  0.1038014E+00
         21   -1    0    0  502  501  0.00000000000E+00  0.00000000000E+00  0.77450024122E+03  0.77450024122E+03  0.00000000000E+00 0.  1.
         21   -1    0    0  501  502 -0.00000000000E+00 -0.00000000000E+00 -0.22462603478E+03  0.22462603478E+03  0.00000000000E+00 0.  1.
         25    1    1    2    0    0 -0.19866410194E+03 -0.18296907172E+03  0.62591482302E+02  0.30411806961E+03  0.12500000000E+03 0.  0.
         25    1    1    2    0    0  0.46792761779E+02  0.23611401733E+03  0.17722342575E+03  0.32399465176E+03  0.12500000000E+03 0.  0.
         25    1    1    2    0    0  0.15187134016E+03 -0.53144945614E+02  0.31005929838E+03  0.37101355463E+03  0.12500000000E+03 0.  0.
</event>
<event>
 5    0  0.5489207E-005  0.2368962E+03  0.7546771E-02  0.1121878E+00
         21   -1    0    0  502  501  0.00000000000E+00  0.00000000000E+00  0.19840075800E+03  0.19840075800E+03  0.00000000000E+00 0. -1.
         21   -1    0    0  501  502 -0.00000000000E+00 -0.00000000000E+00 -0.28286089107E+03  0.28286089107E+03  0.00000000000E+00 0. -1.
         25    1    1    2    0    0 -0.38807757495E+02  0.74259248872E+02  0.58055509172E+02  0.16129451395E+03  0.12500000000E+03 0.  0.
         25    1    1    2    0    0 -0.16821527254E+02 -0.47298703948E+02 -0.11653560550E+03  0.17811703603E+03  0.12500000000E+03 0.  0.
         25    1    1    2    0    0  0.55629284749E+02 -0.26960544923E+02 -0.25980036736E+02  0.14185009909E+03  0.12500000000E+03 0.  0.
</event>
<event>
 5    0  0.5489207E-005  0.3455128E+03  0.7546771E-02  0.1064472E+00
         21   -1    0    0  502  501  0.00000000000E+00  0.00000000000E+00  0.28517896252E+03  0.28517896252E+03  0.00000000000E+00 0.  1.
         21   -1    0    0  501  502 -0.00000000000E+00 -0.00000000000E+00 -0.41861117546E+03  0.41861117546E+03  0.00000000000E+00 0.  1.
         25    1    1    2    0    0 -0.95155102096E+02  0.91075642076E+01  0.18610345650E+02  0.15845752158E+03  0.12500000000E+03 0.  0.
         25    1    1    2    0    0 -0.12406922287E+03  0.74112072524E+02 -0.19856025426E+03  0.27556659073E+03  0.12500000000E+03 0.  0.
         25    1    1    2    0    0  0.21922432496E+03 -0.83219636731E+02  0.46517695674E+02  0.26976602567E+03  0.12500000000E+03 0.  0.
</event>
<event>
 5    0  0.5489207E-005  0.7469403E+03  0.7546771E-02  0.9640163E-01
         21   -1    0    0  502  501  0.00000000000E+00  0.00000000000E+00  0.20242590760E+04  0.20242590760E+04  0.00000000000E+00 0.  1.
         21   -1    0    0  501  502 -0.00000000000E+00 -0.00000000000E+00 -0.27561683020E+03  0.27561683020E+03  0.00000000000E+00 0.  1.
         25    1    1    2    0    0  0.51658302500E+03 -0.11186512650E+03  0.14915290160E+04  0.15873423178E+04  0.12500000000E+03 0.  0.
         25    1    1    2    0    0 -0.35440690470E+03  0.69610327512E+02  0.13617227674E+01  0.38219982481E+03  0.12500000000E+03 0.  0.
         25    1    1    2    0    0 -0.16217612031E+03  0.42254798990E+02  0.25575150706E+03  0.33033376363E+03  0.12500000000E+03 0.  0.
</event>
<event>
 5    0  0.5489207E-005  0.4137112E+03  0.7546771E-02  0.1039133E+00
         21   -1    0    0  502  501  0.00000000000E+00  0.00000000000E+00  0.16668470589E+03  0.16668470589E+03  0.00000000000E+00 0.  1.
         21   -1    0    0  501  502 -0.00000000000E+00 -0.00000000000E+00 -0.10268305208E+04  0.10268305208E+04  0.00000000000E+00 0.  1.
         25    1    1    2    0    0 -0.23620004294E+03 -0.94023647411E+02 -0.22641789118E+03  0.36265819721E+03  0.12500000000E+03 0.  0.
         25    1    1    2    0    0  0.12549742010E+03 -0.15642038413E+03 -0.28102693080E+03  0.36717580919E+03  0.12500000000E+03 0.  0.
         25    1    1    2    0    0  0.11070262285E+03  0.25044403154E+03 -0.35270099292E+03  0.46368122029E+03  0.12500000000E+03 0.  0.
</event>
<event>
 5    0  0.5489207E-005  0.3340820E+03  0.7546771E-02  0.1069345E+00
         21   -1    0    0  502  501  0.00000000000E+00  0.00000000000E+00  0.11546559089E+04  0.11546559089E+04  0.00000000000E+00 0.  1.
         21   -1    0    0  501  502 -0.00000000000E+00 -0.00000000000E+00 -0.96661521209E+02  0.96661521209E+02  0.00000000000E+00 0.  1.
         25    1    1    2    0    0  0.33667522415E+02  0.11759355733E+03  0.17079732931E+03  0.24445546525E+03  0.12500000000E+03 0.  0.
         25    1    1    2    0    0 -0.12271014006E+03 -0.22744023960E+03  0.55186699245E+03  0.62206833902E+03  0.12500000000E+03 0.  0.
         25    1    1    2    0    0  0.89042617644E+02  0.10984668227E+03  0.33533006589E+03  0.38479362580E+03  0.12500000000E+03 0.  0.
</event>
<event>
 5    0  0.5489207E-005  0.3065036E+03  0.7546771E-02  0.1082034E+00
         21   -1    0    0  502  501  0.00000000000E+00  0.00000000000E+00  0.19093375730E+03  0.19093375730E+03  0.00000000000E+00 0. -1.
         21   -1    0    0  501  502 -0.00000000000E+00 -0.00000000000E+00 -0.49202657054E+03  0.49202657054E+03  0.00000000000E+00 0. -1.
         25    1    1    2    0    0 -0.30816345622E+02 -0.65320785577E+02 -0.63940725468E+02  0.15789195217E+03  0.12500000000E+03 0.  0.
         25    1    1    2    0    0 -0.68576350390E+02  0.20393000798E+03 -0.17653296982E+03  0.30508859929E+03  0.12500000000E+03 0.  0.
         25    1    1    2    0    0  0.99392696013E+02 -0.13860922240E+03 -0.60619117946E+02  0.21997977638E+03  0.12500000000E+03 0.  0.
</event>
<event>
 5    0  0.5489207E-005  0.2767004E+03  0.7546771E-02  0.1097505E+00
         21   -1    0    0  502  501  0.00000000000E+00  0.00000000000E+00  0.12119276387E+03  0.12119276387E+03  0.00000000000E+00 0.  1.
         21   -1    0    0  501  502 -0.00000000000E+00 -0.00000000000E+00 -0.63174653773E+03  0.63174653773E+03  0.00000000000E+00 0.  1.
         25    1    1    2    0    0  0.15034466438E+02  0.92264034988E+02 -0.99877405573E+02  0.18530834703E+03  0.12500000000E+03 0.  0.
         25    1    1    2    0    0 -0.22342899911E+02  0.10039775961E+03 -0.17875373328E+03  0.24115723599E+03  0.12500000000E+03 0.  0.
         25    1    1    2    0    0  0.73084334735E+01 -0.19266179460E+03 -0.23192263501E+03  0.32647371859E+03  0.12500000000E+03 0.  0.
</event>
<event>
 5    0  0.5489207E-005  0.3459524E+03  0.7546771E-02  0.1064289E+00
         21   -1    0    0  502  501  0.00000000000E+00  0.00000000000E+00  0.59269213512E+03  0.59269213512E+03  0.00000000000E+00 0. -1.
         21   -1    0    0  501  502 -0.00000000000E+00 -0.00000000000E+00 -0.20193119759E+03  0.20193119759E+03  0.00000000000E+00 0. -1.
         25    1    1    2    0    0  0.16235440978E+02 -0.16190165893E+03  0.40445137191E+02  0.20913284254E+03  0.12500000000E+03 0.  0.
         25    1    1    2    0    0 -0.11144390729E+02  0.10104307325E+03 -0.44277091888E+02  0.16709087636E+03  0.12500000000E+03 0.  0.
         25    1    1    2    0    0 -0.50910502498E+01  0.60858585675E+02  0.39459289222E+03  0.41839961381E+03  0.12500000000E+03 0.  0.
</event>
<event>
 5    0  0.5489207E-005  0.2890005E+03  0.7546771E-02  0.1090872E+00
         21   -1    0    0  502  501  0.00000000000E+00  0.00000000000E+00  0.18766062583E+03  0.18766062583E+03  0.00000000000E+00 0. -1.
         21   -1    0    0  501  502 -0.00000000000E+00 -0.00000000000E+00 -0.44506548483E+03  0.44506548483E+03  0.00000000000E+00 0. -1.
         25    1    1    2    0    0  0.96131941768E+01  0.12654274824E+03 -0.13295303780E+03  0.22227683392E+03  0.12500000000E+03 0.  0.
         25    1    1    2    0    0 -0.10519185740E+03  0.24565379458E+02 -0.13670157830E+02  0.16577291077E+03  0.12500000000E+03 0.  0.
         25    1    1    2    0    0  0.95578663224E+02 -0.15110812770E+03 -0.11078166337E+03  0.24467636596E+03  0.12500000000E+03 0.  0.
</event>
<event>
 5    0  0.5489207E-005  0.2371216E+03  0.7546771E-02  0.1121725E+00
         21   -1    0    0  502  501  0.00000000000E+00  0.00000000000E+00  0.12595749690E+03  0.12595749690E+03  0.00000000000E+00 0. -1.
         21   -1    0    0  501  502 -0.00000000000E+00 -0.00000000000E+00 -0.44639398090E+03  0.44639398090E+03  0.00000000000E+00 0. -1.
         25    1    1    2    0    0 -0.48264675333E+00 -0.13720459233E+03 -0.12643497030E+03  0.22457990743E+03  0.12500000000E+03 0.  0.
         25    1    1    2    0    0 -0.86798282943E+01  0.88409892795E+02 -0.90554703880E+02  0.17809211930E+03  0.12500000000E+03 0.  0.
         25    1    1    2    0    0  0.91624750477E+01  0.48794699538E+02 -0.10344680983E+03  0.16967945107E+03  0.12500000000E+03 0.  0.
</event>
<event>
 5    0  0.5489207E-005  0.2379590E+03  0.7546771E-02  0.1121160E+00
         21   -1    0    0  502  501  0.00000000000E+00  0.00000000000E+00  0.91342236026E+02  0.91342236026E+02  0.00000000000E+00 0. -1.
         21   -1    0    0  501  502 -0.00000000000E+00 -0.00000000000E+00 -0.61991580632E+03  0.61991580632E+03  0.00000000000E+00 0. -1.
         25    1    1    2    0    0 -0.84142288738E+02  0.29109530615E+02 -0.78922859858E+02  0.17257203520E+03  0.12500000000E+03 0.  0.
         25    1    1    2    0    0  0.62730038562E+01 -0.44068613464E+02 -0.12687650850E+03  0.18358660539E+03  0.12500000000E+03 0.  0.
         25    1    1    2    0    0  0.77869284881E+02  0.14959082850E+02 -0.32277420193E+03  0.35509940175E+03  0.12500000000E+03 0.  0.
</event>
<event>
 5    0  0.5489207E-005  0.3224442E+03  0.7546771E-02  0.1074530E+00
         21   -1    0    0  502  501  0.00000000000E+00  0.00000000000E+00  0.43781547102E+03  0.43781547102E+03  0.00000000000E+00 0. -1.
         21   -1    0    0  501  502 -0.00000000000E+00 -0.00000000000E+00 -0.23747511344E+03  0.23747511344E+03  0.00000000000E+00 0. -1.
         25    1    1    2    0    0  0.26238158728E+02  0.16269706728E+03  0.16831448208E+03  0.26667122371E+03  0.12500000000E+03 0.  0.
         25    1    1    2    0    0  0.10885029181E+02 -0.14615163914E+03  0.14031872853E+03  0.23831309460E+03  0.12500000000E+03 0.  0.
         25    1    1    2    0    0 -0.37123187910E+02 -0.16545428143E+02 -0.10829285303E+03  0.17030626615E+03  0.12500000000E+03 0.  0.
</event>
<event>
 5    0  0.5489207E-005  0.2398520E+03  0.7546771E-02  0.1119891E+00
         21   -1    0    0  502  501  0.00000000000E+00  0.00000000000E+00  0.63280856345E+02  0.63280856345E+02  0.00000000000E+00 0. -1.
         21   -1    0    0  501  502 -0.00000000000E+00 -0.00000000000E+00 -0.90910557782E+03  0.90910557782E+03  0.00000000000E+00 0. -1.
         25    1    1    2    0    0  0.44849415314E+02  0.87977928413E+02 -0.21629190223E+03  0.26862385023E+03  0.12500000000E+03 0.  0.
         25    1    1    2    0    0  0.48797563579E+02 -0.81843226179E+02 -0.28609916676E+03  0.32643107864E+03  0.12500000000E+03 0.  0.
         25    1    1    2    0    0 -0.93646978893E+02 -0.61347022339E+01 -0.34343365248E+03  0.37733150529E+03  0.12500000000E+03 0.  0.
</event>
<event>
 5    0  0.5489207E-005  0.3378255E+03  0.7546771E-02  0.1067726E+00
         21   -1    0    0  502  501  0.00000000000E+00  0.00000000000E+00  0.13482910600E+03  0.13482910600E+03  0.00000000000E+00 0.  1.
         21   -1    0    0  501  502 -0.00000000000E+00 -0.00000000000E+00 -0.84644972835E+03  0.84644972835E+03  0.00000000000E+00 0.  1.
         25    1    1    2    0    0  0.31421514507E+02  0.43180999314E+02 -0.59670175043E+03  0.61198847149E+03  0.12500000000E+03 0.  0.
         25    1    1    2    0    0 -0.93123050820E+02  0.54542465861E+02 -0.11104679113E+03  0.19900545971E+03  0.12500000000E+03 0.  0.
         25    1    1    2    0    0  0.61701536314E+02 -0.97723465175E+02 -0.38720807928E+01  0.17028490314E+03  0.12500000000E+03 0.  0.
</event>
<event>
 5    0  0.5489207E-005  0.2528271E+03  0.7546771E-02  0.1111531E+00
         21   -1    0    0  502  501  0.00000000000E+00  0.00000000000E+00  0.86439074463E+03  0.86439074463E+03  0.00000000000E+00 0. -1.
         21   -1    0    0  501  502 -0.00000000000E+00 -0.00000000000E+00 -0.73949808246E+02  0.73949808246E+02  0.00000000000E+00 0. -1.
         25    1    1    2    0    0 -0.94050883651E+02  0.10626047394E+03  0.36750065100E+03  0.41330205120E+03  0.12500000000E+03 0.  0.
         25    1    1    2    0    0 -0.12221450124E+02 -0.48820197818E+02  0.15202854574E+03  0.20315130882E+03  0.12500000000E+03 0.  0.
         25    1    1    2    0    0  0.10627233378E+03 -0.57440276117E+02  0.27091173964E+03  0.32188719285E+03  0.12500000000E+03 0.  0.
</event>
<event>
 5    0  0.5489207E-005  0.2513783E+03  0.7546771E-02  0.1112437E+00
         21   -1    0    0  502  501  0.00000000000E+00  0.00000000000E+00  0.14612526416E+04  0.14612526416E+04  0.00000000000E+00 0.  1.
         21   -1    0    0  501  502 -0.00000000000E+00 -0.00000000000E+00 -0.43244441423E+02  0.43244441423E+02  0.00000000000E+00 0.  1.
         25    1    1    2    0    0 -0.30696354085E+02  0.10122904374E+03  0.68084174293E+03  0.70025714161E+03  0.12500000000E+03 0.  0.
         25    1    1    2    0    0 -0.30975383241E+02 -0.52864888175E+02  0.54194244850E+03  0.55953622604E+03  0.12500000000E+03 0.  0.
         25    1    1    2    0    0  0.61671737326E+02 -0.48364155570E+02  0.19522400876E+03  0.24470371539E+03  0.12500000000E+03 0.  0.
</event>
<event>
 5    0  0.5489207E-005  0.3177448E+03  0.7546771E-02  0.1076692E+00
         21   -1    0    0  502  501  0.00000000000E+00  0.00000000000E+00  0.91890096420E+02  0.91890096420E+02  0.00000000000E+00 0. -1.
         21   -1    0    0  501  502 -0.00000000000E+00 -0.00000000000E+00 -0.10987228367E+04  0.10987228367E+04  0.00000000000E+00 0. -1.
         25    1    1    2    0    0 -0.55136747462E+02 -0.23220205641E+01 -0.28645190398E+03  0.31737225145E+03  0.12500000000E+03 0.  0.
         25    1    1    2    0    0 -0.13109632589E+03  0.70462815001E+02 -0.55032271681E+03  0.58363631449E+03  0.12500000000E+03 0.  0.
         25    1    1    2    0    0  0.18623307335E+03 -0.68140794436E+02 -0.17005811947E+03  0.28960436715E+03  0.12500000000E+03 0.  0.
</event>
<event>
 5    0  0.5489207E-005  0.2727745E+03  0.7546771E-02  0.1099702E+00
         21   -1    0    0  502  501  0.00000000000E+00  0.00000000000E+00  0.10362177599E+03  0.10362177599E+03  0.00000000000E+00 0. -1.
         21   -1    0    0  501  502 -0.00000000000E+00 -0.00000000000E+00 -0.71805276170E+03  0.71805276170E+03  0.00000000000E+00 0. -1.
         25    1    1    2    0    0 -0.70487545225E+01  0.19928981367E+02 -0.16069447941E+03  0.20468161850E+03  0.12500000000E+03 0.  0.
         25    1    1    2    0    0  0.13095731400E+03  0.54715291876E+02 -0.35401612263E+03  0.40136765732E+03  0.12500000000E+03 0.  0.
         25    1    1    2    0    0 -0.12390855948E+03 -0.74644273243E+02 -0.99720383669E+02  0.21562526187E+03  0.12500000000E+03 0.  0.
</event>
<event>
 5    0  0.5489207E-005  0.2491934E+03  0.7546771E-02  0.1113816E+00
         21   -1    0    0  502  501  0.00000000000E+00  0.00000000000E+00  0.15703975565E+03  0.15703975565E+03  0.00000000000E+00 0.  1.
         21   -1    0    0  501  502 -0.00000000000E+00 -0.00000000000E+00 -0.39542438106E+03  0.39542438106E+03  0.00000000000E+00 0.  1.
         25    1    1    2    0    0 -0.23481356340E+02 -0.72486834418E+02  0.50561149810E+02  0.15487783938E+03  0.12500000000E+03 0.  0.
         25    1    1    2    0    0 -0.55240342695E+01  0.46591554614E+02 -0.96090451748E+02  0.16449821529E+03  0.12500000000E+03 0.  0.
         25    1    1    2    0    0  0.29005390609E+02  0.25895279803E+02 -0.19285532347E+03  0.23308808204E+03  0.12500000000E+03 0.  0.
</event>
<event>
 5    0  0.8757097E-005  0.8030695E+03  0.7546771E-02  0.9555585E-01
         21   -1    0    0  502  501  0.00000000000E+00  0.00000000000E+00  0.18483497982E+04  0.18483497982E+04  0.00000000000E+00 0. -1.
         21   -1    0    0  501  502 -0.00000000000E+00 -0.00000000000E+00 -0.34891695980E+03  0.34891695980E+03  0.00000000000E+00 0. -1.
         25    1    1    2    0    0 -0.11938066991E+03 -0.35100939057E+03  0.70682622997E+02  0.39759322153E+03  0.12500000000E+03 0.  0.
         25    1    1    2    0    0  0.11095712350E+03 -0.34683634550E+03  0.48311074439E+03  0.61776041081E+03  0.12500000000E+03 0.  0.
         25    1    1    2    0    0  0.84235464113E+01  0.69784573607E+03  0.94563947102E+03  0.11819131257E+04  0.12500000000E+03 0.  0.
</event>
<event>
 5    0  0.5489207E-005  0.2466799E+03  0.7546771E-02  0.1115421E+00
         21   -1    0    0  502  501  0.00000000000E+00  0.00000000000E+00  0.13432932611E+03  0.13432932611E+03  0.00000000000E+00 0. -1.
         21   -1    0    0  501  502 -0.00000000000E+00 -0.00000000000E+00 -0.45299828913E+03  0.45299828913E+03  0.00000000000E+00 0. -1.
         25    1    1    2    0    0 -0.10991775491E+03 -0.94544694588E+02 -0.12500970959E+03  0.22863298014E+03  0.12500000000E+03 0.  0.
         25    1    1    2    0    0  0.71534384985E+02  0.43916806012E+02 -0.14825738196E+03  0.21130808170E+03  0.12500000000E+03 0.  0.
         25    1    1    2    0    0  0.38383369924E+02  0.50627888576E+02 -0.45401871475E+02  0.14738655340E+03  0.12500000000E+03 0.  0.
</event>
<event>
 5    0  0.5489207E-005  0.2583795E+03  0.7546771E-02  0.1108121E+00
         21   -1    0    0  502  501  0.00000000000E+00  0.00000000000E+00  0.10988698556E+03  0.10988698556E+03  0.00000000000E+00 0.  1.
         21   -1    0    0  501  502 -0.00000000000E+00 -0.00000000000E+00 -0.60753284682E+03  0.60753284682E+03  0.00000000000E+00 0.  1.
         25    1    1    2    0    0 -0.96281583036E+01  0.98060981737E+02 -0.10959745871E+03  0.19324921870E+03  0.12500000000E+03 0.  0.
         25    1    1    2    0    0 -0.97995807232E+02 -0.97877893760E+02 -0.22420951613E+03  0.29168162000E+03  0.12500000000E+03 0.  0.
         25    1    1    2    0    0  0.10762396554E+03 -0.18308797669E+00 -0.16383888642E+03  0.23248899368E+03  0.12500000000E+03 0.  0.
</event>
<event>
 5    0  0.5489207E-005  0.5394774E+03  0.7546771E-02  0.1003959E+00
         21   -1    0    0  502  501  0.00000000000E+00  0.00000000000E+00  0.16018405127E+03  0.16018405127E+03  0.00000000000E+00 0.  1.
         21   -1    0    0  501  502 -0.00000000000E+00 -0.00000000000E+00 -0.18168840257E+04  0.18168840257E+04  0.00000000000E+00 0.  1.
         25    1    1    2    0    0  0.70136022507E+02  0.24666055155E+03 -0.44459368586E+03  0.52825092035E+03  0.12500000000E+03 0.  0.
         25    1    1    2    0    0  0.26531062645E+03 -0.84553739281E+02 -0.20479610812E+03  0.36756701326E+03  0.12500000000E+03 0.  0.
         25    1    1    2    0    0 -0.33544664895E+03 -0.16210681227E+03 -0.10073101804E+04  0.10812501434E+04  0.12500000000E+03 0.  0.
</event>
<event>
 5    0  0.5489207E-005  0.2366152E+03  0.7546771E-02  0.1122068E+00
         21   -1    0    0  502  501  0.00000000000E+00  0.00000000000E+00  0.16965290817E+03  0.16965290817E+03  0.00000000000E+00 0. -1.
         21   -1    0    0  501  502 -0.00000000000E+00 -0.00000000000E+00 -0.33000760667E+03  0.33000760667E+03  0.00000000000E+00 0. -1.
         25    1    1    2    0    0 -0.83616534780E+02  0.75771706594E+02 -0.22684563687E+02  0.16991958639E+03  0.12500000000E+03 0.  0.
         25    1    1    2    0    0  0.25860428835E+02 -0.89424365308E+02 -0.10388328460E+03  0.18730247118E+03  0.12500000000E+03 0.  0.
         25    1    1    2    0    0  0.57756105945E+02  0.13652658714E+02 -0.33786850217E+02  0.14243845728E+03  0.12500000000E+03 0.  0.
</event>
<event>
 5    0  0.5489207E-005  0.2333087E+03  0.7546771E-02  0.1124332E+00
         21   -1    0    0  502  501  0.00000000000E+00  0.00000000000E+00  0.17524031423E+03  0.17524031423E+03  0.00000000000E+00 0.  1.
         21   -1    0    0  501  502 -0.00000000000E+00 -0.00000000000E+00 -0.31061879838E+03  0.31061879838E+03  0.00000000000E+00 0.  1.
         25    1    1    2    0    0  0.25056903717E+02 -0.50308535648E+01  0.50229647683E+02  0.13711737825E+03  0.12500000000E+03 0.  0.
         25    1    1    2    0    0 -0.64446173581E+02  0.57049276291E+02 -0.73641392267E+02  0.16868901526E+03  0.12500000000E+03 0.  0.
         25    1    1    2    0    0  0.39389269864E+02 -0.52018422726E+02 -0.11196673957E+03  0.18005271909E+03  0.12500000000E+03 0.  0.
</event>
<event>
 5    0  0.5489207E-005  0.2873663E+03  0.7546771E-02  0.1091732E+00
         21   -1    0    0  502  501  0.00000000000E+00  0.00000000000E+00  0.39162672139E+03  0.39162672139E+03  0.00000000000E+00 0. -1.
         21   -1    0    0  501  502 -0.00000000000E+00 -0.00000000000E+00 -0.21086250892E+03  0.21086250892E+03  0.00000000000E+00 0. -1.
         25    1    1    2    0    0 -0.29488185781E+02  0.48720481526E+02  0.45515669436E+02  0.14470630458E+03  0.12500000000E+03 0.  0.
         25    1    1    2    0    0 -0.54954958033E+02 -0.11646593284E+03  0.21005738735E+03  0.27628511886E+03  0.12500000000E+03 0.  0.
         25    1    1    2    0    0  0.84443143814E+02  0.67745451318E+02 -0.74808844317E+02  0.18149780687E+03  0.12500000000E+03 0.  0.
</event>
<event>
 5    0  0.5489207E-005  0.5495374E+03  0.7546771E-02  0.1001601E+00
         21   -1    0    0  502  501  0.00000000000E+00  0.00000000000E+00  0.44410911019E+03  0.44410911019E+03  0.00000000000E+00 0. -1.
         21   -1    0    0  501  502 -0.00000000000E+00 -0.00000000000E+00 -0.67999358093E+03  0.67999358093E+03  0.00000000000E+00 0. -1.
         25    1    1    2    0    0 -0.12333101894E+03 -0.24844794310E+03 -0.17255729304E+00  0.30423995537E+03  0.12500000000E+03 0.  0.
         25    1    1    2    0    0  0.18197906256E+03 -0.17554783332E+03  0.55247550776E+02  0.28742079407E+03  0.12500000000E+03 0.  0.
         25    1    1    2    0    0 -0.58648043617E+02  0.42399577643E+03 -0.29095946422E+03  0.53244194169E+03  0.12500000000E+03 0.  0.
</event>
<event>
 5    0  0.5489207E-005  0.3141730E+03  0.7546771E-02  0.1078363E+00
         21   -1    0    0  502  501  0.00000000000E+00  0.00000000000E+00  0.52239810717E+03  0.52239810717E+03  0.00000000000E+00 0.  1.
         21   -1    0    0  501  502 -0.00000000000E+00 -0.00000000000E+00 -0.18894535689E+03  0.18894535689E+03  0.00000000000E+00 0.  1.
         25    1    1    2    0    0  0.17918091735E+03  0.78651826358E+01  0.32136801875E+03  0.38867732853E+03  0.12500000000E+03 0.  0.
         25    1    1    2    0    0 -0.10592202532E+03  0.30338193103E+02 -0.24518763988E+02  0.16842224080E+03  0.12500000000E+03 0.  0.
         25    1    1    2    0    0 -0.73258892028E+02 -0.38203375739E+02  0.36603495524E+02  0.15424389474E+03  0.12500000000E+03 0.  0.
</event>
<event>
 5    0  0.5489207E-005  0.5023843E+03  0.7546771E-02  0.1013158E+00
         21   -1    0    0  502  501  0.00000000000E+00  0.00000000000E+00  0.22412330494E+03  0.22412330494E+03  0.00000000000E+00 0. -1.
         21   -1    0    0  501  502 -0.00000000000E+00 -0.00000000000E+00 -0.11261211009E+04  0.11261211009E+04  0.00000000000E+00 0. -1.
         25    1    1    2    0    0 -0.14292160368E+03 -0.48652950749E+02  0.38992565830E+02  0.19984772855E+03  0.12500000000E+03 0.  0.
         25    1    1    2    0    0 -0.19995612486E+03  0.15432256290E+03 -0.40451256284E+03  0.49300438009E+03  0.12500000000E+03 0.  0.
         25    1    1    2    0    0  0.34287772854E+03 -0.10566961215E+03 -0.53647779899E+03  0.65739229724E+03  0.12500000000E+03 0.  0.
</event>
<event>
 5    0  0.5489207E-005  0.4093441E+03  0.7546771E-02  0.1040591E+00
         21   -1    0    0  502  501  0.00000000000E+00  0.00000000000E+00  0.11483129791E+03  0.11483129791E+03  0.00000000000E+00 0. -1.
         21   -1    0    0  501  502 -0.00000000000E+00 -0.00000000000E+00 -0.14592065559E+04  0.14592065559E+04  0.00000000000E+00 0. -1.
         25    1    1    2    0    0 -0.22662296189E+03 -0.27597889694E+02 -0.25176626965E+03  0.36211995927E+03  0.12500000000E+03 0.  0.
         25    1    1    2    0    0  0.17139033815E+03  0.19085248544E+03 -0.80502734868E+03  0.85410382937E+03  0.12500000000E+03 0.  0.
         25    1    1    2    0    0  0.55232623734E+02 -0.16325459574E+03 -0.28758163961E+03  0.35781406512E+03  0.12500000000E+03 0.  0.
</event>
<event>
 5    0  0.5489207E-005  0.2420881E+03  0.7546771E-02  0.1118410E+00
         21   -1    0    0  502  501  0.00000000000E+00  0.00000000000E+00  0.39674054945E+03  0.39674054945E+03  0.00000000000E+00 0. -1.
         21   -1    0    0  501  502 -0.00000000000E+00 -0.00000000000E+00 -0.14772029156E+03  0.14772029156E+03  0.00000000000E+00 0. -1.
         25    1    1    2    0    0 -0.36572290078E+02  0.45062373716E+01  0.16807626677E+03  0.21267926563E+03  0.12500000000E+03 0.  0.
         25    1    1    2    0    0 -0.34065132507E+02  0.12644113657E+01  0.12646100808E+03  0.18105087283E+03  0.12500000000E+03 0.  0.
         25    1    1    2    0    0  0.70637422584E+02 -0.57706487373E+01 -0.45517016964E+02  0.15073070254E+03  0.12500000000E+03 0.  0.
</event>
<event>
 5    0  0.5489207E-005  0.3380146E+03  0.7546771E-02  0.1067645E+00
         21   -1    0    0  502  501  0.00000000000E+00  0.00000000000E+00  0.93318385094E+03  0.93318385094E+03  0.00000000000E+00 0. -1.
         21   -1    0    0  501  502 -0.00000000000E+00 -0.00000000000E+00 -0.12243446287E+03  0.12243446287E+03  0.00000000000E+00 0. -1.
         25    1    1    2    0    0 -0.63785762076E+02 -0.24575701716E+03  0.36548532921E+03  0.46224415713E+03  0.12500000000E+03 0.  0.
         25    1    1    2    0    0  0.67729382718E+02  0.16803538101E+03  0.36350770576E+03  0.42495412776E+03  0.12500000000E+03 0.  0.
         25    1    1    2    0    0 -0.39436206419E+01  0.77721636151E+02  0.81756353089E+02  0.16842002892E+03  0.12500000000E+03 0.  0.
</event>
<event>
 5    0  0.5489207E-005  0.2846646E+03  0.7546771E-02  0.1093168E+00
         21   -1    0    0  502  501  0.00000000000E+00  0.00000000000E+00  0.95725236720E+02  0.95725236720E+02  0.00000000000E+00 0.  1.
         21   -1    0    0  501  502 -0.00000000000E+00 -0.00000000000E+00 -0.84652646636E+03  0.84652646636E+03  0.00000000000E+00 0.  1.
         25    1    1    2    0    0 -0.69810512050E+02  0.46462787809E+02 -0.54538365513E+03  0.56577436274E+03  0.12500000000E+03 0.  0.
         25    1    1    2    0    0 -0.43210063537E+02  0.17276497999E+02 -0.66926503147E+02  0.14923050559E+03  0.12500000000E+03 0.  0.
         25    1    1    2    0    0  0.11302057559E+03 -0.63739285807E+02 -0.13849107136E+03  0.22724683476E+03  0.12500000000E+03 0.  0.
</event>
<event>
 5    0  0.5489207E-005  0.2783032E+03  0.7546771E-02  0.1096619E+00
         21   -1    0    0  502  501  0.00000000000E+00  0.00000000000E+00  0.13744967413E+03  0.13744967413E+03  0.00000000000E+00 0. -1.
         21   -1    0    0  501  502 -0.00000000000E+00 -0.00000000000E+00 -0.56349850548E+03  0.56349850548E+03  0.00000000000E+00 0. -1.
         25    1    1    2    0    0  0.28232717855E+02 -0.87172428666E+02 -0.42893585688E+01  0.15504682284E+03  0.12500000000E+03 0.  0.
         25    1    1    2    0    0  0.84611380909E+02 -0.65013733297E+01 -0.15133380921E+03  0.21384170651E+03  0.12500000000E+03 0.  0.
         25    1    1    2    0    0 -0.11284409876E+03  0.93673801996E+02 -0.27042566358E+03  0.33205965026E+03  0.12500000000E+03 0.  0.
</event>
<event>
 5    0  0.5489207E-005  0.2512721E+03  0.7546771E-02  0.1112503E+00
         21   -1    0    0  502  501  0.00000000000E+00  0.00000000000E+00  0.13667100561E+03  0.13667100561E+03  0.00000000000E+00 0.  1.
         21   -1    0    0  501  502 -0.00000000000E+00 -0.00000000000E+00 -0.46196842377E+03  0.46196842377E+03  0.00000000000E+00 0.  1.
         25    1    1    2    0    0  0.88428717269E+02  0.34976816149E+01 -0.72291343579E+02  0.16936029691E+03  0.12500000000E+03 0.  0.
         25    1    1    2    0    0  0.34361518177E+02 -0.42942377166E+02 -0.19970022446E+03  0.24192962062E+03  0.12500000000E+03 0.  0.
         25    1    1    2    0    0 -0.12279023545E+03  0.39444695551E+02 -0.53305850133E+02  0.18734951184E+03  0.12500000000E+03 0.  0.
</event>
<event>
 5    0  0.5489207E-005  0.2711878E+03  0.7546771E-02  0.1100602E+00
         21   -1    0    0  502  501  0.00000000000E+00  0.00000000000E+00  0.57737355805E+02  0.57737355805E+02  0.00000000000E+00 0. -1.
         21   -1    0    0  501  502 -0.00000000000E+00 -0.00000000000E+00 -0.12737480725E+04  0.12737480725E+04  0.00000000000E+00 0. -1.
         25    1    1    2    0    0  0.10789704098E+03  0.75731023257E+02 -0.17711805725E+03  0.25371788573E+03  0.12500000000E+03 0.  0.
         25    1    1    2    0    0 -0.63415946365E+02 -0.47194171389E+02 -0.62198792834E+03  0.63933000482E+03  0.12500000000E+03 0.  0.
         25    1    1    2    0    0 -0.44481094612E+02 -0.28536851868E+02 -0.41690473112E+03  0.43843753776E+03  0.12500000000E+03 0.  0.
</event>
<event>
 5    0  0.5489207E-005  0.2426805E+03  0.7546771E-02  0.1118020E+00
         21   -1    0    0  502  501  0.00000000000E+00  0.00000000000E+00  0.96139905034E+02  0.96139905034E+02  0.00000000000E+00 0.  1.
         21   -1    0    0  501  502 -0.00000000000E+00 -0.00000000000E+00 -0.61258480647E+03  0.61258480647E+03  0.00000000000E+00 0.  1.
         25    1    1    2    0    0  0.76050972442E+02  0.31751751484E+01 -0.23188287171E+03  0.27420521209E+03  0.12500000000E+03 0.  0.
         25    1    1    2    0    0 -0.57319335624E+02  0.92878509253E+02 -0.17780095816E+03  0.24320794486E+03  0.12500000000E+03 0.  0.
         25    1    1    2    0    0 -0.18731636818E+02 -0.96053684401E+02 -0.10676107156E+03  0.19131155456E+03  0.12500000000E+03 0.  0.
</event>
<event>
 5    0  0.5489207E-005  0.2120993E+03  0.7546771E-02  0.1139914E+00
         21   -1    0    0  502  501  0.00000000000E+00  0.00000000000E+00  0.10842369282E+04  0.10842369282E+04  0.00000000000E+00 0.  1.
         21   -1    0    0  501  502 -0.00000000000E+00 -0.00000000000E+00 -0.41491026168E+02  0.41491026168E+02  0.00000000000E+00 0.  1.
         25    1    1    2    0    0  0.56029192169E+02  0.29591911623E+02  0.21678570891E+03  0.25813948787E+03  0.12500000000E+03 0.  0.
         25    1    1    2    0    0 -0.11543886499E+02 -0.40799399105E+02  0.43405834979E+03  0.45368436529E+03  0.12500000000E+03 0.  0.
         25    1    1    2    0    0 -0.44485305670E+02  0.11207487482E+02  0.39190184337E+03  0.41390410125E+03  0.12500000000E+03 0.  0.
</event>
<event>
 5    0  0.5489207E-005  0.2046511E+03  0.7546771E-02  0.1145873E+00
         21   -1    0    0  502  501  0.00000000000E+00  0.00000000000E+00  0.29381786988E+03  0.29381786988E+03  0.00000000000E+00 0.  1.
         21   -1    0    0  501  502 -0.00000000000E+00 -0.00000000000E+00 -0.14254428294E+03  0.14254428294E+03  0.00000000000E+00 0.  1.
         25    1    1    2    0    0  0.45081221693E+02 -0.28325931659E+02  0.66742436310E+02  0.15137446204E+03  0.12500000000E+03 0.  0.
         25    1    1    2    0    0 -0.51731200050E+02 -0.17035623245E+02  0.62668700248E+02  0.15006230542E+03  0.12500000000E+03 0.  0.
         25    1    1    2    0    0  0.66499783568E+01  0.45361554905E+02  0.21862450386E+02  0.13492538535E+03  0.12500000000E+03 0.  0.
</event>
<event>
 5    0  0.5489207E-005  0.2806238E+03  0.7546771E-02  0.1095349E+00
         21   -1    0    0  502  501  0.00000000000E+00  0.00000000000E+00  0.57985652775E+02  0.57985652775E+02  0.00000000000E+00 0. -1.
         21   -1    0    0  501  502 -0.00000000000E+00 -0.00000000000E+00 -0.13580896461E+04  0.13580896461E+04  0.00000000000E+00 0. -1.
         25    1    1    2    0    0 -0.56112201259E+02 -0.63473926451E+02 -0.71563190599E+03  0.73139014441E+03  0.12500000000E+03 0.  0.
         25    1    1    2    0    0  0.35499718253E+02 -0.31721127445E+02 -0.79882152085E+02  0.15579672058E+03  0.12500000000E+03 0.  0.
         25    1    1    2    0    0  0.20612483007E+02  0.95195053895E+02 -0.50458993529E+03  0.52888843392E+03  0.12500000000E+03 0.  0.
</event>
<event>
 5    0  0.5489207E-005  0.2259717E+03  0.7546771E-02  0.1129508E+00
         21   -1    0    0  502  501  0.00000000000E+00  0.00000000000E+00  0.26249389549E+03  0.26249389549E+03  0.00000000000E+00 0. -1.
         21   -1    0    0  501  502 -0.00000000000E+00 -0.00000000000E+00 -0.19453098169E+03  0.19453098169E+03  0.00000000000E+00 0. -1.
         25    1    1    2    0    0 -0.80475622218E+02 -0.55257361572E+02 -0.15687572960E+02  0.15937628972E+03  0.12500000000E+03 0.  0.
         25    1    1    2    0    0  0.19785705352E+02  0.93384033453E+01  0.82386205656E+02  0.15129827096E+03  0.12500000000E+03 0.  0.
         25    1    1    2    0    0  0.60689916866E+02  0.45918958226E+02  0.12642811042E+01  0.14635031650E+03  0.12500000000E+03 0.  0.
</event>
<event>
 5    0  0.5489207E-005  0.2662309E+03  0.7546771E-02  0.1103456E+00
         21   -1    0    0  502  501  0.00000000000E+00  0.00000000000E+00  0.77467281982E+03  0.77467281982E+03  0.00000000000E+00 0. -1.
         21   -1    0    0  501  502 -0.00000000000E+00 -0.00000000000E+00 -0.91495246732E+02  0.91495246732E+02  0.00000000000E+00 0. -1.
         25    1    1    2    0    0  0.16875874357E+02 -0.72345924972E+02  0.21457713213E+03  0.25920469446E+03  0.12500000000E+03 0.  0.
         25    1    1    2    0    0 -0.86956536866E+02 -0.38475610327E+02  0.36715525948E+03  0.39933669561E+03  0.12500000000E+03 0.  0.
         25    1    1    2    0    0  0.70080662510E+02  0.11082153530E+03  0.10144518147E+03  0.20762667648E+03  0.12500000000E+03 0.  0.
</event>
<event>
 5    0  0.5489207E-005  0.2525775E+03  0.7546771E-02  0.1111687E+00
         21   -1    0    0  502  501  0.00000000000E+00  0.00000000000E+00  0.94189526636E+03  0.94189526636E+03  0.00000000000E+00 0.  1.
         21   -1    0    0  501  502 -0.00000000000E+00 -0.00000000000E+00 -0.67730884404E+02  0.67730884404E+02  0.00000000000E+00 0.  1.
         25    1    1    2    0    0 -0.41322092930E+02  0.60393180450E+01  0.20859326816E+03  0.24673901242E+03  0.12500000000E+03 0.  0.
         25    1    1    2    0    0  0.49560407774E+02  0.89467223770E+02  0.53321337552E+03  0.55713743545E+03  0.12500000000E+03 0.  0.
         25    1    1    2    0    0 -0.82383148442E+01 -0.95506541815E+02  0.13235773828E+03  0.20574970290E+03  0.12500000000E+03 0.  0.
</event>
<event>
 5    0  0.5489207E-005  0.3200953E+03  0.7546771E-02  0.1075605E+00
         21   -1    0    0  502  501  0.00000000000E+00  0.00000000000E+00  0.17898622760E+03  0.17898622760E+03  0.00000000000E+00 0. -1.
         21   -1    0    0  501  502 -0.00000000000E+00 -0.00000000000E+00 -0.57245195630E+03  0.57245195630E+03  0.00000000000E+00 0. -1.
         25    1    1    2    0    0  0.16650367839E+03  0.71678663751E+02 -0.28010387716E+03  0.35629269955E+03  0.12500000000E+03 0.  0.
         25    1    1    2    0    0 -0.19061004564E+03 -0.72170919294E+02 -0.25467077632E+02  0.24044625831E+03  0.12500000000E+03 0.  0.
         25    1    1    2    0    0  0.24106367252E+02  0.49225554323E+00 -0.87894773908E+02  0.15469922604E+03  0.12500000000E+03 0.  0.
</event>
<event>
 5    0  0.5489207E-005  0.4820437E+03  0.7546771E-02  0.1018575E+00
         21   -1    0    0  502  501  0.00000000000E+00  0.00000000000E+00  0.11525189098E+04  0.11525189098E+04  0.00000000000E+00 0. -1.
         21   -1    0    0  501  502 -0.00000000000E+00 -0.00000000000E+00 -0.20161585678E+03  0.20161585678E+03  0.00000000000E+00 0. -1.
         25    1    1    2    0    0 -0.64329570543E+02  0.24112121170E+03  0.33310515805E+03  0.43458230371E+03  0.12500000000E+03 0.  0.
         25    1    1    2    0    0  0.30572921283E+03 -0.24158836938E+03  0.36625524098E+03  0.54918411607E+03  0.12500000000E+03 0.  0.
         25    1    1    2    0    0 -0.24139964229E+03  0.46715767571E+00  0.25154265401E+03  0.37036834681E+03  0.12500000000E+03 0.  0.
</event>
<event>
 5    0  0.5689986E-005  0.3053705E+03  0.7546771E-02  0.1082586E+00
         21   -1    0    0  502  501  0.00000000000E+00  0.00000000000E+00  0.12784114535E+03  0.12784114535E+03  0.00000000000E+00 0. -1.
         21   -1    0    0  501  502 -0.00000000000E+00 -0.00000000000E+00 -0.72942980293E+03  0.72942980293E+03  0.00000000000E+00 0. -1.
         25    1    1    2    0    0 -0.69141850268E+02 -0.47162640079E+02 -0.41370921997E+02  0.15601750948E+03  0.12500000000E+03 0.  0.
         25    1    1    2    0    0  0.46579080292E+02  0.13609907514E+03 -0.99173732802E+02  0.21483248882E+03  0.12500000000E+03 0.  0.
         25    1    1    2    0    0  0.22562769977E+02 -0.88936435066E+02 -0.46104400279E+03  0.48642094998E+03  0.12500000000E+03 0.  0.
</event>
<event>
 5    0  0.5489207E-005  0.3443492E+03  0.7546771E-02  0.1064959E+00
         21   -1    0    0  502  501  0.00000000000E+00  0.00000000000E+00  0.40306725070E+03  0.40306725070E+03  0.00000000000E+00 0.  1.
         21   -1    0    0  501  502 -0.00000000000E+00 -0.00000000000E+00 -0.29418515544E+03  0.29418515544E+03  0.00000000000E+00 0.  1.
         25    1    1    2    0    0 -0.63387015625E+02 -0.85787998997E+02  0.30213615518E+02  0.16707889479E+03  0.12500000000E+03 0.  0.
         25    1    1    2    0    0  0.25708382043E+03  0.36948483898E+02  0.53821010516E+02  0.29322172901E+03  0.12500000000E+03 0.  0.
         25    1    1    2    0    0 -0.19369680481E+03  0.48839515098E+02  0.24847469235E+02  0.23695178234E+03  0.12500000000E+03 0.  0.
</event>
<event>
 5    0  0.5489207E-005  0.2822691E+03  0.7546771E-02  0.1094456E+00
         21   -1    0    0  502  501  0.00000000000E+00  0.00000000000E+00  0.44960799823E+03  0.44960799823E+03  0.00000000000E+00 0.  1.
         21   -1    0    0  501  502 -0.00000000000E+00 -0.00000000000E+00 -0.17721177973E+03  0.17721177973E+03  0.00000000000E+00 0.  1.
         25    1    1    2    0    0  0.11686888434E+03  0.90858301234E+02 -0.19211492639E+02  0.19469886615E+03  0.12500000000E+03 0.  0.
         25    1    1    2    0    0 -0.12343756652E+03 -0.25231309206E+02  0.16722066840E+03  0.24384668079E+03  0.12500000000E+03 0.  0.
         25    1    1    2    0    0  0.65686821793E+01 -0.65626992029E+02  0.12438704274E+03  0.18827423103E+03  0.12500000000E+03 0.  0.
</event>
<event>
 5    0  0.5489207E-005  0.1993499E+03  0.7546771E-02  0.1150289E+00
         21   -1    0    0  502  501  0.00000000000E+00  0.00000000000E+00  0.11726874339E+03  0.11726874339E+03  0.00000000000E+00 0.  1.
         21   -1    0    0  501  502 -0.00000000000E+00 -0.00000000000E+00 -0.33888307293E+03  0.33888307293E+03  0.00000000000E+00 0.  1.
         25    1    1    2    0    0 -0.21543130471E+02  0.19223830667E+01 -0.38740117672E+02  0.13264086378E+03  0.12500000000E+03 0.  0.
         25    1    1    2    0    0 -0.20576686314E+01 -0.15169371678E+02 -0.40865150874E+02  0.13239827942E+03  0.12500000000E+03 0.  0.
         25    1    1    2    0    0  0.23600799102E+02  0.13246988612E+02 -0.14200906099E+03  0.19111267313E+03  0.12500000000E+03 0.  0.
</event>
<event>
 5    0  0.5489207E-005  0.2675660E+03  0.7546771E-02  0.1102681E+00
         21   -1    0    0  502  501  0.00000000000E+00  0.00000000000E+00  0.19300596711E+03  0.19300596711E+03  0.00000000000E+00 0. -1.
         21   -1    0    0  501  502 -0.00000000000E+00 -0.00000000000E+00 -0.37092921446E+03  0.37092921446E+03  0.00000000000E+00 0. -1.
         25    1    1    2    0    0 -0.10642756068E+03 -0.50526993999E+02 -0.10874477306E+03  0.20329837300E+03  0.12500000000E+03 0.  0.
         25    1    1    2    0    0 -0.52135126314E+02  0.66115207311E+02 -0.40889328548E+02  0.15616090811E+03  0.12500000000E+03 0.  0.
         25    1    1    2    0    0  0.15856268700E+03 -0.15588213311E+02 -0.28289145736E+02  0.20447590046E+03  0.12500000000E+03 0.  0.
</event>
<event>
 5    0  0.5489207E-005  0.3247587E+03  0.7546771E-02  0.1073480E+00
         21   -1    0    0  502  501  0.00000000000E+00  0.00000000000E+00  0.25368011265E+03  0.25368011265E+03  0.00000000000E+00 0. -1.
         21   -1    0    0  501  502 -0.00000000000E+00 -0.00000000000E+00 -0.41575281561E+03  0.41575281561E+03  0.00000000000E+00 0. -1.
         25    1    1    2    0    0 -0.42844405424E+02  0.28701863982E+02 -0.44496529729E+02  0.14235301623E+03  0.12500000000E+03 0.  0.
         25    1    1    2    0    0  0.29717657244E+02  0.19842479917E+03  0.12516178452E+02  0.23672176664E+03  0.12500000000E+03 0.  0.
         25    1    1    2    0    0  0.13126748180E+02 -0.22712666315E+03 -0.13009235169E+03  0.29035814540E+03  0.12500000000E+03 0.  0.
</event>
<event>
 5    0  0.5489207E-005  0.2580411E+03  0.7546771E-02  0.1108326E+00
         21   -1    0    0  502  501  0.00000000000E+00  0.00000000000E+00  0.17374140877E+03  0.17374140877E+03  0.00000000000E+00 0.  1.
         21   -1    0    0  501  502 -0.00000000000E+00 -0.00000000000E+00 -0.38324322664E+03  0.38324322664E+03  0.00000000000E+00 0.  1.
         25    1    1    2    0    0  0.69631383828E+00  0.47794985454E+02  0.74943844629E+02  0.15338326289E+03  0.12500000000E+03 0.  0.
         25    1    1    2    0    0  0.65200463808E+02 -0.23265062105E+02 -0.14440934808E+03  0.20315369406E+03  0.12500000000E+03 0.  0.
         25    1    1    2    0    0 -0.65896777647E+02 -0.24529923348E+02 -0.14003631441E+03  0.20044767846E+03  0.12500000000E+03 0.  0.
</event>
<event>
 5    0  0.5489207E-005  0.4138504E+03  0.7546771E-02  0.1039087E+00
         21   -1    0    0  502  501  0.00000000000E+00  0.00000000000E+00  0.83478470222E+03  0.83478470222E+03  0.00000000000E+00 0.  1.
         21   -1    0    0  501  502 -0.00000000000E+00 -0.00000000000E+00 -0.20516922920E+03  0.20516922920E+03  0.00000000000E+00 0.  1.
         25    1    1    2    0    0 -0.14681435650E+03  0.22889379033E+03  0.23788276141E+03  0.38230881588E+03  0.12500000000E+03 0.  0.
         25    1    1    2    0    0  0.23959633711E+02  0.45415581276E+02 -0.15808770868E+02  0.13605718028E+03  0.12500000000E+03 0.  0.
         25    1    1    2    0    0  0.12285472279E+03 -0.27430937160E+03  0.40754148248E+03  0.52158793525E+03  0.12500000000E+03 0.  0.
</event>
<event>
 5    0  0.5489207E-005  0.5700117E+03  0.7546771E-02  0.9969653E-01
         21   -1    0    0  502  501  0.00000000000E+00  0.00000000000E+00  0.53527999619E+03  0.53527999619E+03  0.00000000000E+00 0.  1.
         21   -1    0    0  501  502 -0.00000000000E+00 -0.00000000000E+00 -0.60699693893E+03  0.60699693893E+03  0.00000000000E+00 0. -1.
         25    1    1    2    0    0 -0.24897758779E+03 -0.75295266141E+02 -0.31818069578E+03  0.42956160384E+03  0.12500000000E+03 0.  0.
         25    1    1    2    0    0 -0.62101729991E+02 -0.16585135960E+03 -0.25457859520E+02  0.21825764811E+03  0.12500000000E+03 0.  0.
         25    1    1    2    0    0  0.31107931779E+03  0.24114662574E+03  0.27192161257E+03  0.49445768317E+03  0.12500000000E+03 0.  0.
</event>
<event>
 5    0  0.5489207E-005  0.2456225E+03  0.7546771E-02  0.1116103E+00
         21   -1    0    0  502  501  0.00000000000E+00  0.00000000000E+00  0.40492120345E+03  0.40492120345E+03  0.00000000000E+00 0.  1.
         21   -1    0    0  501  502 -0.00000000000E+00 -0.00000000000E+00 -0.14899298271E+03  0.14899298271E+03  0.00000000000E+00 0.  1.
         25    1    1    2    0    0 -0.77561762592E+01 -0.39420425972E+02 -0.53908764269E+02  0.14193408019E+03  0.12500000000E+03 0.  0.
         25    1    1    2    0    0 -0.35155858437E+02  0.45870528130E+02  0.13637210592E+03  0.19381019325E+03  0.12500000000E+03 0.  0.
         25    1    1    2    0    0  0.42912034696E+02 -0.64501021581E+01  0.17346487909E+03  0.21816991272E+03  0.12500000000E+03 0.  0.
</event>
<event>
 5    0  0.5489207E-005  0.2922308E+03  0.7546771E-02  0.1089190E+00
         21   -1    0    0  502  501  0.00000000000E+00  0.00000000000E+00  0.12161486389E+04  0.12161486389E+04  0.00000000000E+00 0. -1.
         21   -1    0    0  501  502 -0.00000000000E+00 -0.00000000000E+00 -0.70220703521E+02  0.70220703521E+02  0.00000000000E+00 0. -1.
         25    1    1    2    0    0 -0.82322800972E+01  0.10035865541E+03  0.39642040305E+03  0.42768418968E+03  0.12500000000E+03 0.  0.
         25    1    1    2    0    0 -0.15889986542E+02 -0.26727105504E+02  0.68685627574E+03  0.69883000319E+03  0.12500000000E+03 0.  0.
         25    1    1    2    0    0  0.24122266640E+02 -0.73631549902E+02  0.62651256616E+02  0.15985514957E+03  0.12500000000E+03 0.  0.
</event>
<event>
 5    0  0.5489207E-005  0.3276861E+03  0.7546771E-02  0.1072165E+00
         21   -1    0    0  502  501  0.00000000000E+00  0.00000000000E+00  0.84841533184E+03  0.84841533184E+03  0.00000000000E+00 0. -1.
         21   -1    0    0  501  502 -0.00000000000E+00 -0.00000000000E+00 -0.12656320395E+03  0.12656320395E+03  0.00000000000E+00 0. -1.
         25    1    1    2    0    0 -0.40306741635E+02 -0.17956481569E+03  0.45525030106E+03  0.50670108849E+03  0.12500000000E+03 0.  0.
         25    1    1    2    0    0 -0.62406418013E+02  0.39005397444E+02  0.28321124509E+02  0.14779400574E+03  0.12500000000E+03 0.  0.
         25    1    1    2    0    0  0.10271315965E+03  0.14055941824E+03  0.23828070231E+03  0.32048344156E+03  0.12500000000E+03 0.  0.
</event>
<event>
 5    0  0.5489207E-005  0.2347066E+03  0.7546771E-02  0.1123370E+00
         21   -1    0    0  502  501  0.00000000000E+00  0.00000000000E+00  0.20026989654E+03  0.20026989654E+03  0.00000000000E+00 0.  1.
         21   -1    0    0  501  502 -0.00000000000E+00 -0.00000000000E+00 -0.27506467990E+03  0.27506467990E+03  0.00000000000E+00 0.  1.
         25    1    1    2    0    0  0.92796946638E+02  0.16460234346E+02 -0.22726963054E+02  0.15818889806E+03  0.12500000000E+03 0.  0.
         25    1    1    2    0    0 -0.13049192950E+03 -0.38310495449E+01 -0.42214008462E+02  0.18560668930E+03  0.12500000000E+03 0.  0.
         25    1    1    2    0    0  0.37694982858E+02 -0.12629184801E+02 -0.98538118434E+01  0.13153898908E+03  0.12500000000E+03 0.  0.
</event>
<event>
 5    0  0.5489207E-005  0.4794038E+03  0.7546771E-02  0.1019299E+00
         21   -1    0    0  502  501  0.00000000000E+00  0.00000000000E+00  0.11611291746E+04  0.11611291746E+04  0.00000000000E+00 0.  1.
         21   -1    0    0  501  502 -0.00000000000E+00 -0.00000000000E+00 -0.19793491520E+03  0.19793491520E+03  0.00000000000E+00 0.  1.
         25    1    1    2    0    0  0.59977628122E+02  0.15894249029E+03  0.24014254696E+03  0.31961457094E+03  0.12500000000E+03 0.  0.
         25    1    1    2    0    0  0.24003168143E+03 -0.27283243082E+03  0.26684698539E+03  0.46785153308E+03  0.12500000000E+03 0.  0.
         25    1    1    2    0    0 -0.30000930955E+03  0.11388994053E+03  0.45620472706E+03  0.57159798579E+03  0.12500000000E+03 0.  0.
</event>
<event>
 5    0  0.5489207E-005  0.3165472E+03  0.7546771E-02  0.1077249E+00
         21   -1    0    0  502  501  0.00000000000E+00  0.00000000000E+00  0.49975070298E+03  0.49975070298E+03  0.00000000000E+00 0. -1.
         21   -1    0    0  501  502 -0.00000000000E+00 -0.00000000000E+00 -0.20050420393E+03  0.20050420393E+03  0.00000000000E+00 0. -1.
         25    1    1    2    0    0 -0.22811019782E+02  0.10068972974E+03  0.10850174384E+03  0.19508047753E+03  0.12500000000E+03 0.  0.
         25    1    1    2    0    0 -0.12014428116E+03 -0.64343849899E+02 -0.54580155165E+02  0.19281797803E+03  0.12500000000E+03 0.  0.
         25    1    1    2    0    0  0.14295530094E+03 -0.36345879844E+02  0.24532491038E+03  0.31235645135E+03  0.12500000000E+03 0.  0.
</event>
<event>
 5    0  0.6884668E-005  0.2617069E+03  0.7546771E-02  0.1106122E+00
         21   -1    0    0  502  501  0.00000000000E+00  0.00000000000E+00  0.33605657927E+03  0.33605657927E+03  0.00000000000E+00 0. -1.
         21   -1    0    0  501  502 -0.00000000000E+00 -0.00000000000E+00 -0.20380645676E+03  0.20380645676E+03  0.00000000000E+00 0. -1.
         25    1    1    2    0    0 -0.45863935630E+02 -0.56903068326E+02  0.62131348770E+02  0.15756511123E+03  0.12500000000E+03 0.  0.
         25    1    1    2    0    0 -0.37882922029E+02 -0.39279952447E+02 -0.71853729973E+02  0.15416221637E+03  0.12500000000E+03 0.  0.
         25    1    1    2    0    0  0.83746857659E+02  0.96183020773E+02  0.14197250371E+03  0.22813570844E+03  0.12500000000E+03 0.  0.
</event>
<event>
 5    0  0.5489207E-005  0.3674396E+03  0.7546771E-02  0.1055676E+00
         21   -1    0    0  502  501  0.00000000000E+00  0.00000000000E+00  0.25388553391E+04  0.25388553391E+04  0.00000000000E+00 0.  1.
         21   -1    0    0  501  502 -0.00000000000E+00 -0.00000000000E+00 -0.53178229118E+02  0.53178229118E+02  0.00000000000E+00 0.  1.
         25    1    1    2    0    0 -0.18272530483E+03 -0.36506403264E+02  0.13886306240E+04  0.14066418394E+04  0.12500000000E+03 0.  0.
         25    1    1    2    0    0  0.25025071315E+03  0.25688572187E+02  0.52011386032E+03  0.59112498667E+03  0.12500000000E+03 0.  0.
         25    1    1    2    0    0 -0.67525408318E+02  0.10817831077E+02  0.57693262570E+03  0.59426674215E+03  0.12500000000E+03 0.  0.
</event>
<event>
 5    0  0.5489207E-005  0.5137390E+03  0.7546771E-02  0.1010254E+00
         21   -1    0    0  502  501  0.00000000000E+00  0.00000000000E+00  0.25906172736E+03  0.25906172736E+03  0.00000000000E+00 0. -1.
         21   -1    0    0  501  502 -0.00000000000E+00 -0.00000000000E+00 -0.10187833525E+04  0.10187833525E+04  0.00000000000E+00 0. -1.
         25    1    1    2    0    0 -0.34182915735E+03 -0.16595161353E+03 -0.28190010327E+03  0.48936671226E+03  0.12500000000E+03 0.  0.
         25    1    1    2    0    0  0.21860652524E+03  0.30839998280E+03 -0.34117962166E+03  0.52433567159E+03  0.12500000000E+03 0.  0.
         25    1    1    2    0    0  0.12322263211E+03 -0.14244836927E+03 -0.13664190024E+03  0.26414269604E+03  0.12500000000E+03 0.  0.
</event>
<event>
 5    0  0.5489207E-005  0.2436904E+03  0.7546771E-02  0.1117359E+00
         21   -1    0    0  502  501  0.00000000000E+00  0.00000000000E+00  0.22607222771E+03  0.22607222771E+03  0.00000000000E+00 0. -1.
         21   -1    0    0  501  502 -0.00000000000E+00 -0.00000000000E+00 -0.26268149521E+03  0.26268149521E+03  0.00000000000E+00 0. -1.
         25    1    1    2    0    0 -0.11091541629E+02 -0.53666536117E+02  0.56392941496E+01  0.13660132149E+03  0.12500000000E+03 0.  0.
         25    1    1    2    0    0  0.99743982417E+02  0.90295629290E+02 -0.60913919617E+02  0.19348816062E+03  0.12500000000E+03 0.  0.
         25    1    1    2    0    0 -0.88652440788E+02 -0.36629093173E+02  0.18665357962E+02  0.15866424081E+03  0.12500000000E+03 0.  0.
</event>
<event>
 5    0  0.5489207E-005  0.3039080E+03  0.7546771E-02  0.1083303E+00
         21   -1    0    0  502  501  0.00000000000E+00  0.00000000000E+00  0.12279069425E+03  0.12279069425E+03  0.00000000000E+00 0.  1.
         21   -1    0    0  501  502 -0.00000000000E+00 -0.00000000000E+00 -0.75217469267E+03  0.75217469267E+03  0.00000000000E+00 0.  1.
         25    1    1    2    0    0  0.89807901918E+02  0.16837872827E+02 -0.82249078564E+02  0.17532508130E+03  0.12500000000E+03 0.  0.
         25    1    1    2    0    0 -0.89150734714E+02  0.10855084625E+03 -0.88109046972E+02  0.20765197779E+03  0.12500000000E+03 0.  0.
         25    1    1    2    0    0 -0.65716720427E+00 -0.12538871907E+03 -0.45902587289E+03  0.49198832783E+03  0.12500000000E+03 0.  0.
</event>
