<event>
 4    0  0.2179527E-002  0.1921660E+03  0.7546771E-02  0.1156522E+00
         21   -1    0    0  502  501  0.00000000000E+00  0.00000000000E+00  0.19505773908E+02  0.19505773908E+02  0.00000000000E+00 0. -1.
         21   -1    0    0  501  502 -0.00000000000E+00 -0.00000000000E+00 -0.18931716155E+04  0.18931716155E+04  0.00000000000E+00 0. -1.
         25    1    1    2    0    0 -0.11876324522E+03  0.84782228808E+02 -0.92106182908E+03  0.94088927495E+03  0.12500000000E+03 0.  0.
         25    1    1    2    0    0  0.11876324522E+03 -0.84782228808E+02 -0.95260401247E+03  0.97178811441E+03  0.12500000000E+03 0.  0.
</event>
<event>
 4    0  0.2179527E-002  0.2717211E+03  0.7546771E-02  0.1100299E+00
         21   -1    0    0  502  501  0.00000000000E+00  0.00000000000E+00  0.23867026978E+03  0.23867026978E+03  0.00000000000E+00 0. -1.
         21   -1    0    0  501  502 -0.00000000000E+00 -0.00000000000E+00 -0.30934880692E+03  0.30934880692E+03  0.00000000000E+00 0. -1.
         25    1    1    2    0    0  0.19186418780E+03  0.11025916399E+03  0.61586888103E+02  0.26150888051E+03  0.12500000000E+03 0.  0.
         25    1    1    2    0    0 -0.19186418780E+03 -0.11025916399E+03 -0.13226542524E+03  0.28651019618E+03  0.12500000000E+03 0.  0.
</event>
<event>
 4    0  0.2179527E-002  0.1901310E+03  0.7546771E-02  0.1158343E+00
         21   -1    0    0  502  501  0.00000000000E+00  0.00000000000E+00  0.54685093152E+02  0.54685093152E+02  0.00000000000E+00 0.  1.
         21   -1    0    0  501  502 -0.00000000000E+00 -0.00000000000E+00 -0.66105414451E+03  0.66105414451E+03  0.00000000000E+00 0.  1.
         25    1    1    2    0    0  0.12094227843E+03 -0.61193254360E+02 -0.21584520201E+03  0.28387638212E+03  0.12500000000E+03 0.  0.
         25    1    1    2    0    0 -0.12094227843E+03  0.61193254360E+02 -0.39052384935E+03  0.43186285554E+03  0.12500000000E+03 0.  0.
</event>
<event>
 4    0  0.2179527E-002  0.2065384E+03  0.7546771E-02  0.1144337E+00
         21   -1    0    0  502  501  0.00000000000E+00  0.00000000000E+00  0.17153830375E+03  0.17153830375E+03  0.00000000000E+00 0.  1.
         21   -1    0    0  501  502 -0.00000000000E+00 -0.00000000000E+00 -0.24867976820E+03  0.24867976820E+03  0.00000000000E+00 0.  1.
         25    1    1    2    0    0 -0.59692447148E+02 -0.15314808532E+03 -0.34555171511E+02  0.20937188007E+03  0.12500000000E+03 0.  0.
         25    1    1    2    0    0  0.59692447148E+02  0.15314808532E+03 -0.42586292941E+02  0.21084619188E+03  0.12500000000E+03 0.  0.
</event>
<event>
 4    0  0.2179527E-002  0.3786203E+03  0.7546771E-02  0.1051445E+00
         21   -1    0    0  502  501  0.00000000000E+00  0.00000000000E+00  0.42558424125E+03  0.42558424125E+03  0.00000000000E+00 0.  1.
         21   -1    0    0  501  502 -0.00000000000E+00 -0.00000000000E+00 -0.33683882640E+03  0.33683882640E+03  0.00000000000E+00 0.  1.
         25    1    1    2    0    0 -0.23149934631E+03  0.91949503495E+02 -0.21366559553E+03  0.35117608866E+03  0.12500000000E+03 0.  0.
         25    1    1    2    0    0  0.23149934631E+03 -0.91949503495E+02  0.30241101038E+03  0.41124697899E+03  0.12500000000E+03 0.  0.
</event>
<event>
 4    0  0.2179527E-002  0.1783816E+03  0.7546771E-02  0.1169379E+00
         21   -1    0    0  502  501  0.00000000000E+00  0.00000000000E+00  0.31777185053E+02  0.31777185053E+02  0.00000000000E+00 0. -1.
         21   -1    0    0  501  502 -0.00000000000E+00 -0.00000000000E+00 -0.10013469300E+04  0.10013469300E+04  0.00000000000E+00 0. -1.
         25    1    1    2    0    0 -0.92133326025E+02 -0.43900680132E+02 -0.26464174262E+03  0.30996140311E+03  0.12500000000E+03 0.  0.
         25    1    1    2    0    0  0.92133326025E+02  0.43900680132E+02 -0.70492800235E+03  0.72316271196E+03  0.12500000000E+03 0.  0.
</event>
<event>
 4    0  0.2179527E-002  0.2517472E+03  0.7546771E-02  0.1112206E+00
         21   -1    0    0  502  501  0.00000000000E+00  0.00000000000E+00  0.37677925394E+02  0.37677925394E+02  0.00000000000E+00 0. -1.
         21   -1    0    0  501  502 -0.00000000000E+00 -0.00000000000E+00 -0.16820634678E+04  0.16820634678E+04  0.00000000000E+00 0. -1.
         25    1    1    2    0    0  0.53138336594E+02 -0.15689315509E+03 -0.33539302995E+03  0.39440160937E+03  0.12500000000E+03 0.  0.
         25    1    1    2    0    0 -0.53138336594E+02  0.15689315509E+03 -0.13089925124E+04  0.13253397838E+04  0.12500000000E+03 0.  0.
</event>
<event>
 4    0  0.2179527E-002  0.2384516E+03  0.7546771E-02  0.1120829E+00
         21   -1    0    0  502  501  0.00000000000E+00  0.00000000000E+00  0.87350014089E+02  0.87350014089E+02  0.00000000000E+00 0.  1.
         21   -1    0    0  501  502 -0.00000000000E+00 -0.00000000000E+00 -0.65093493532E+03  0.65093493532E+03  0.00000000000E+00 0.  1.
         25    1    1    2    0    0  0.52262161808E+02 -0.19616298774E+03 -0.28920459414E+03  0.37480067848E+03  0.12500000000E+03 0.  0.
         25    1    1    2    0    0 -0.52262161808E+02  0.19616298774E+03 -0.27438032709E+03  0.36348427093E+03  0.12500000000E+03 0.  0.
</event>
<event>
 4    0  0.2179527E-002  0.2486247E+03  0.7546771E-02  0.1114177E+00
         21   -1    0    0  502  501  0.00000000000E+00  0.00000000000E+00  0.51349144977E+02  0.51349144977E+02  0.00000000000E+00 0.  1.
         21   -1    0    0  501  502 -0.00000000000E+00 -0.00000000000E+00 -0.12038027875E+04  0.12038027875E+04  0.00000000000E+00 0.  1.
         25    1    1    2    0    0 -0.51682061380E+02  0.19035029078E+03 -0.36078199891E+03  0.42975914115E+03  0.12500000000E+03 0.  0.
         25    1    1    2    0    0  0.51682061380E+02 -0.19035029078E+03 -0.79167164360E+03  0.82539279131E+03  0.12500000000E+03 0.  0.
</event>
<event>
 4    0  0.2179527E-002  0.2272785E+03  0.7546771E-02  0.1128570E+00
         21   -1    0    0  502  501  0.00000000000E+00  0.00000000000E+00  0.62765087415E+03  0.62765087415E+03  0.00000000000E+00 0. -1.
         21   -1    0    0  501  502 -0.00000000000E+00 -0.00000000000E+00 -0.82299752600E+02  0.82299752600E+02  0.00000000000E+00 0. -1.
         25    1    1    2    0    0  0.11966367413E+03 -0.14075132661E+03  0.20459278063E+03  0.30267728149E+03  0.12500000000E+03 0.  0.
         25    1    1    2    0    0 -0.11966367413E+03  0.14075132661E+03  0.34075834092E+03  0.40727334525E+03  0.12500000000E+03 0.  0.
</event>
<event>
 4    0  0.2179527E-002  0.3158270E+03  0.7546771E-02  0.1077586E+00
         21   -1    0    0  502  501  0.00000000000E+00  0.00000000000E+00  0.21607788846E+03  0.21607788846E+03  0.00000000000E+00 0. -1.
         21   -1    0    0  501  502 -0.00000000000E+00 -0.00000000000E+00 -0.46162371499E+03  0.46162371499E+03  0.00000000000E+00 0. -1.
         25    1    1    2    0    0 -0.22539457013E+03 -0.13498032057E+03  0.90641118263E+01  0.29108341985E+03  0.12500000000E+03 0.  0.
         25    1    1    2    0    0  0.22539457013E+03  0.13498032057E+03 -0.25460993835E+03  0.38661818360E+03  0.12500000000E+03 0.  0.
</event>
<event>
 4    0  0.2179527E-002  0.2410497E+03  0.7546771E-02  0.1119095E+00
         21   -1    0    0  502  501  0.00000000000E+00  0.00000000000E+00  0.44493163905E+02  0.44493163905E+02  0.00000000000E+00 0. -1.
         21   -1    0    0  501  502 -0.00000000000E+00 -0.00000000000E+00 -0.13059303257E+04  0.13059303257E+04  0.00000000000E+00 0. -1.
         25    1    1    2    0    0  0.80596640696E+02 -0.15647218079E+03 -0.93111432895E+03  0.95581287678E+03  0.12500000000E+03 0.  0.
         25    1    1    2    0    0 -0.80596640696E+02  0.15647218079E+03 -0.33032283286E+03  0.39461061284E+03  0.12500000000E+03 0.  0.
</event>
<event>
 4    0  0.2179527E-002  0.3426982E+03  0.7546771E-02  0.1065653E+00
         21   -1    0    0  502  501  0.00000000000E+00  0.00000000000E+00  0.16930235774E+03  0.16930235774E+03  0.00000000000E+00 0.  1.
         21   -1    0    0  501  502 -0.00000000000E+00 -0.00000000000E+00 -0.69368239921E+03  0.69368239921E+03  0.00000000000E+00 0.  1.
         25    1    1    2    0    0  0.52100087217E+02  0.14014122216E+03  0.92741032433E+02  0.21582372514E+03  0.12500000000E+03 0.  0.
         25    1    1    2    0    0 -0.52100087217E+02 -0.14014122216E+03 -0.61712107391E+03  0.64716103181E+03  0.12500000000E+03 0.  0.
</event>
<event>
 4    0  0.2179527E-002  0.1509054E+03  0.7546771E-02  0.1199365E+00
         21   -1    0    0  502  501  0.00000000000E+00  0.00000000000E+00  0.15178906241E+02  0.15178906241E+02  0.00000000000E+00 0.  1.
         21   -1    0    0  501  502 -0.00000000000E+00 -0.00000000000E+00 -0.15002694979E+04  0.15002694979E+04  0.00000000000E+00 0.  1.
         25    1    1    2    0    0 -0.79537305308E+02 -0.22103274608E+00 -0.88643694075E+03  0.89873337632E+03  0.12500000000E+03 0.  0.
         25    1    1    2    0    0  0.79537305308E+02  0.22103274608E+00 -0.59865365092E+03  0.61671502783E+03  0.12500000000E+03 0.  0.
</event>
<event>
 4    0  0.2179527E-002  0.2796900E+03  0.7546771E-02  0.1095858E+00
         21   -1    0    0  502  501  0.00000000000E+00  0.00000000000E+00  0.11756377088E+03  0.11756377088E+03  0.00000000000E+00 0. -1.
         21   -1    0    0  501  502 -0.00000000000E+00 -0.00000000000E+00 -0.66539620137E+03  0.66539620137E+03  0.00000000000E+00 0. -1.
         25    1    1    2    0    0 -0.14391288384E+03 -0.10460477682E+03 -0.52015236758E+03  0.56376995571E+03  0.12500000000E+03 0.  0.
         25    1    1    2    0    0  0.14391288384E+03  0.10460477682E+03 -0.27680062920E+02  0.21919001654E+03  0.12500000000E+03 0.  0.
</event>
<event>
 4    0  0.2179527E-002  0.2019665E+03  0.7546771E-02  0.1148090E+00
         21   -1    0    0  502  501  0.00000000000E+00  0.00000000000E+00  0.17950105985E+03  0.17950105985E+03  0.00000000000E+00 0. -1.
         21   -1    0    0  501  502 -0.00000000000E+00 -0.00000000000E+00 -0.22724352707E+03  0.22724352707E+03  0.00000000000E+00 0. -1.
         25    1    1    2    0    0 -0.66614488444E+01  0.15295007845E+03 -0.65721960967E+02  0.20828460709E+03  0.12500000000E+03 0.  0.
         25    1    1    2    0    0  0.66614488444E+01 -0.15295007845E+03  0.17979493741E+02  0.19845997983E+03  0.12500000000E+03 0.  0.
</event>
<event>
 4    0  0.2179527E-002  0.3353468E+03  0.7546771E-02  0.1068795E+00
         21   -1    0    0  502  501  0.00000000000E+00  0.00000000000E+00  0.35114559942E+03  0.35114559942E+03  0.00000000000E+00 0. -1.
         21   -1    0    0  501  502 -0.00000000000E+00 -0.00000000000E+00 -0.32025887881E+03  0.32025887881E+03  0.00000000000E+00 0. -1.
         25    1    1    2    0    0  0.12068239893E+03 -0.18699017535E+03  0.23316622977E+03  0.34571817684E+03  0.12500000000E+03 0.  0.
         25    1    1    2    0    0 -0.12068239893E+03  0.18699017535E+03 -0.20227950916E+03  0.32568630139E+03  0.12500000000E+03 0.  0.
</event>
<event>
 4    0  0.2179527E-002  0.2412048E+03  0.7546771E-02  0.1118993E+00
         21   -1    0    0  502  501  0.00000000000E+00  0.00000000000E+00  0.58541425785E+03  0.58541425785E+03  0.00000000000E+00 0. -1.
         21   -1    0    0  501  502 -0.00000000000E+00 -0.00000000000E+00 -0.99382202114E+02  0.99382202114E+02  0.00000000000E+00 0. -1.
         25    1    1    2    0    0  0.11747798665E+03  0.14590799364E+03  0.36566023107E+03  0.42944455351E+03  0.12500000000E+03 0.  0.
         25    1    1    2    0    0 -0.11747798665E+03 -0.14590799364E+03  0.12037182467E+03  0.25535190645E+03  0.12500000000E+03 0.  0.
</event>
<event>
 4    0  0.2179527E-002  0.1686612E+03  0.7546771E-02  0.1179251E+00
         21   -1    0    0  502  501  0.00000000000E+00  0.00000000000E+00  0.58326064143E+02  0.58326064143E+02  0.00000000000E+00 0.  1.
         21   -1    0    0  501  502 -0.00000000000E+00 -0.00000000000E+00 -0.48771656818E+03  0.48771656818E+03  0.00000000000E+00 0.  1.
         25    1    1    2    0    0 -0.74888670426E+02  0.61544633979E+02 -0.30943790417E+03  0.34752391496E+03  0.12500000000E+03 0.  0.
         25    1    1    2    0    0  0.74888670426E+02 -0.61544633979E+02 -0.11995259987E+03  0.19851871737E+03  0.12500000000E+03 0.  0.
</event>
<event>
 4    0  0.2179527E-002  0.3218283E+03  0.7546771E-02  0.1074811E+00
         21   -1    0    0  502  501  0.00000000000E+00  0.00000000000E+00  0.42529798644E+03  0.42529798644E+03  0.00000000000E+00 0. -1.
         21   -1    0    0  501  502 -0.00000000000E+00 -0.00000000000E+00 -0.24353154616E+03  0.24353154616E+03  0.00000000000E+00 0. -1.
         25    1    1    2    0    0 -0.14614572548E+03 -0.81823718321E+02  0.34518866841E+03  0.40352684019E+03  0.12500000000E+03 0.  0.
         25    1    1    2    0    0  0.14614572548E+03  0.81823718321E+02 -0.16342222813E+03  0.26530269241E+03  0.12500000000E+03 0.  0.
</event>
<event>
 4    0  0.2179527E-002  0.3248842E+03  0.7546771E-02  0.1073423E+00
         21   -1    0    0  502  501  0.00000000000E+00  0.00000000000E+00  0.63089229371E+03  0.63089229371E+03  0.00000000000E+00 0. -1.
         21   -1    0    0  501  502 -0.00000000000E+00 -0.00000000000E+00 -0.16730235407E+03  0.16730235407E+03  0.00000000000E+00 0. -1.
         25    1    1    2    0    0  0.13221260653E+03  0.26596890477E+03  0.18106910381E+03  0.36963583699E+03  0.12500000000E+03 0.  0.
         25    1    1    2    0    0 -0.13221260653E+03 -0.26596890477E+03  0.28252083583E+03  0.42855881079E+03  0.12500000000E+03 0.  0.
</event>
<event>
 4    0  0.2179527E-002  0.3170929E+03  0.7546771E-02  0.1076995E+00
         21   -1    0    0  502  501  0.00000000000E+00  0.00000000000E+00  0.83347592189E+03  0.83347592189E+03  0.00000000000E+00 0. -1.
         21   -1    0    0  501  502 -0.00000000000E+00 -0.00000000000E+00 -0.12063683162E+03  0.12063683162E+03  0.00000000000E+00 0. -1.
         25    1    1    2    0    0  0.16917609815E+03 -0.22170222293E+03  0.22920100530E+03  0.38200854528E+03  0.12500000000E+03 0.  0.
         25    1    1    2    0    0 -0.16917609815E+03  0.22170222293E+03  0.48363808497E+03  0.57210420823E+03  0.12500000000E+03 0.  0.
</event>
<event>
 4    0  0.2179527E-002  0.2328729E+03  0.7546771E-02  0.1124634E+00
         21   -1    0    0  502  501  0.00000000000E+00  0.00000000000E+00  0.93387598230E+03  0.93387598230E+03  0.00000000000E+00 0.  1.
         21   -1    0    0  501  502 -0.00000000000E+00 -0.00000000000E+00 -0.58069591130E+02  0.58069591130E+02  0.00000000000E+00 0.  1.
         25    1    1    2    0    0  0.11538831469E+03 -0.13063173464E+03  0.63106659972E+03  0.66652019215E+03  0.12500000000E+03 0.  0.
         25    1    1    2    0    0 -0.11538831469E+03  0.13063173464E+03  0.24473979145E+03  0.32542538128E+03  0.12500000000E+03 0.  0.
</event>
<event>
 4    0  0.2179527E-002  0.1682848E+03  0.7546771E-02  0.1179648E+00
         21   -1    0    0  502  501  0.00000000000E+00  0.00000000000E+00  0.10135501363E+04  0.10135501363E+04  0.00000000000E+00 0. -1.
         21   -1    0    0  501  502 -0.00000000000E+00 -0.00000000000E+00 -0.27941158859E+02  0.27941158859E+02  0.00000000000E+00 0. -1.
         25    1    1    2    0    0  0.57246988868E+02 -0.93400672219E+02  0.57431570911E+03  0.59788329717E+03  0.12500000000E+03 0.  0.
         25    1    1    2    0    0 -0.57246988868E+02  0.93400672219E+02  0.41129326836E+03  0.44360799801E+03  0.12500000000E+03 0.  0.
</event>
<event>
 4    0  0.2179527E-002  0.2459167E+03  0.7546771E-02  0.1115913E+00
         21   -1    0    0  502  501  0.00000000000E+00  0.00000000000E+00  0.46718759619E+03  0.46718759619E+03  0.00000000000E+00 0.  1.
         21   -1    0    0  501  502 -0.00000000000E+00 -0.00000000000E+00 -0.12944483015E+03  0.12944483015E+03  0.00000000000E+00 0.  1.
         25    1    1    2    0    0  0.44598731209E+01  0.16527992490E+03  0.83380973627E+01  0.20744123966E+03  0.12500000000E+03 0.  0.
         25    1    1    2    0    0 -0.44598731209E+01 -0.16527992490E+03  0.32940466868E+03  0.38919118669E+03  0.12500000000E+03 0.  0.
</event>
<event>
 4    0  0.2179527E-002  0.2412872E+03  0.7546771E-02  0.1118938E+00
         21   -1    0    0  502  501  0.00000000000E+00  0.00000000000E+00  0.83469179311E+02  0.83469179311E+02  0.00000000000E+00 0. -1.
         21   -1    0    0  501  502 -0.00000000000E+00 -0.00000000000E+00 -0.69749712063E+03  0.69749712063E+03  0.00000000000E+00 0. -1.
         25    1    1    2    0    0 -0.64794410600E+01 -0.10897428000E+03 -0.23564651491E+02  0.16762359517E+03  0.12500000000E+03 0.  0.
         25    1    1    2    0    0  0.64794410600E+01  0.10897428000E+03 -0.59046328983E+03  0.61334270477E+03  0.12500000000E+03 0.  0.
</event>
<event>
 4    0  0.2179527E-002  0.1755738E+03  0.7546771E-02  0.1172157E+00
         21   -1    0    0  502  501  0.00000000000E+00  0.00000000000E+00  0.22855836142E+03  0.22855836142E+03  0.00000000000E+00 0.  1.
         21   -1    0    0  501  502 -0.00000000000E+00 -0.00000000000E+00 -0.13487213044E+03  0.13487213044E+03  0.00000000000E+00 0.  1.
         25    1    1    2    0    0  0.67617790935E+02  0.99874894875E+02  0.73310937350E+02  0.18853820253E+03  0.12500000000E+03 0.  0.
         25    1    1    2    0    0 -0.67617790935E+02 -0.99874894875E+02  0.20375293638E+02  0.17489228933E+03  0.12500000000E+03 0.  0.
</event>
<event>
 4    0  0.2179527E-002  0.1784758E+03  0.7546771E-02  0.1169286E+00
         21   -1    0    0  502  501  0.00000000000E+00  0.00000000000E+00  0.15091023502E+03  0.15091023502E+03  0.00000000000E+00 0.  1.
         21   -1    0    0  501  502 -0.00000000000E+00 -0.00000000000E+00 -0.21107648303E+03  0.21107648303E+03  0.00000000000E+00 0.  1.
         25    1    1    2    0    0  0.11888316444E+03 -0.43112599042E+02 -0.45685160264E+02  0.18358659225E+03  0.12500000000E+03 0.  0.
         25    1    1    2    0    0 -0.11888316444E+03  0.43112599042E+02 -0.14481087753E+02  0.17840012580E+03  0.12500000000E+03 0.  0.
</event>
<event>
 4    0  0.2179527E-002  0.2287275E+03  0.7546771E-02  0.1127539E+00
         21   -1    0    0  502  501  0.00000000000E+00  0.00000000000E+00  0.56079645475E+03  0.56079645475E+03  0.00000000000E+00 0. -1.
         21   -1    0    0  501  502 -0.00000000000E+00 -0.00000000000E+00 -0.93289203280E+02  0.93289203280E+02  0.00000000000E+00 0. -1.
         25    1    1    2    0    0 -0.64768652320E+01 -0.11943272424E+03  0.44768087676E+03  0.47994717711E+03  0.12500000000E+03 0.  0.
         25    1    1    2    0    0  0.64768652320E+01  0.11943272424E+03  0.19826374708E+02  0.17413848092E+03  0.12500000000E+03 0.  0.
</event>
<event>
 4    0  0.2179527E-002  0.2326764E+03  0.7546771E-02  0.1124770E+00
         21   -1    0    0  502  501  0.00000000000E+00  0.00000000000E+00  0.32920892037E+03  0.32920892037E+03  0.00000000000E+00 0.  1.
         21   -1    0    0  501  502 -0.00000000000E+00 -0.00000000000E+00 -0.16444970238E+03  0.16444970238E+03  0.00000000000E+00 0.  1.
         25    1    1    2    0    0 -0.73717339543E+02 -0.62030507376E+02 -0.98991578856E+02  0.18629643764E+03  0.12500000000E+03 0.  0.
         25    1    1    2    0    0  0.73717339543E+02  0.62030507376E+02  0.26375079685E+03  0.30736218510E+03  0.12500000000E+03 0.  0.
</event>
<event>
 4    0  0.2179527E-002  0.3499780E+03  0.7546771E-02  0.1062624E+00
         21   -1    0    0  502  501  0.00000000000E+00  0.00000000000E+00  0.17789666404E+03  0.17789666404E+03  0.00000000000E+00 0. -1.
         21   -1    0    0  501  502 -0.00000000000E+00 -0.00000000000E+00 -0.68851533354E+03  0.68851533354E+03  0.00000000000E+00 0. -1.
         25    1    1    2    0    0  0.22811441955E+03  0.36123311484E+01  0.34481745590E+02  0.26241804077E+03  0.12500000000E+03 0.  0.
         25    1    1    2    0    0 -0.22811441955E+03 -0.36123311484E+01 -0.54510041509E+03  0.60399395681E+03  0.12500000000E+03 0.  0.
</event>
<event>
 4    0  0.2179527E-002  0.1764239E+03  0.7546771E-02  0.1171310E+00
         21   -1    0    0  502  501  0.00000000000E+00  0.00000000000E+00  0.26683036575E+03  0.26683036575E+03  0.00000000000E+00 0. -1.
         21   -1    0    0  501  502 -0.00000000000E+00 -0.00000000000E+00 -0.11664859566E+03  0.11664859566E+03  0.00000000000E+00 0. -1.
         25    1    1    2    0    0  0.60087172232E+02  0.43301454117E+01  0.19350430052E+03  0.23811369710E+03  0.12500000000E+03 0.  0.
         25    1    1    2    0    0 -0.60087172232E+02 -0.43301454117E+01 -0.43322530425E+02  0.14536526431E+03  0.12500000000E+03 0.  0.
</event>
<event>
 4    0  0.2179527E-002  0.2001049E+03  0.7546771E-02  0.1149651E+00
         21   -1    0    0  502  501  0.00000000000E+00  0.00000000000E+00  0.39053422902E+02  0.39053422902E+02  0.00000000000E+00 0.  1.
         21   -1    0    0  501  502 -0.00000000000E+00 -0.00000000000E+00 -0.10253131340E+04  0.10253131340E+04  0.00000000000E+00 0.  1.
         25    1    1    2    0    0  0.12292794497E+03 -0.82721731091E+02 -0.36114624317E+03  0.40988507341E+03  0.12500000000E+03 0.  0.
         25    1    1    2    0    0 -0.12292794497E+03  0.82721731091E+02 -0.62511346797E+03  0.65448148354E+03  0.12500000000E+03 0.  0.
</event>
<event>
 4    0  0.2179527E-002  0.4004771E+03  0.7546771E-02  0.1043615E+00
         21   -1    0    0  502  501  0.00000000000E+00  0.00000000000E+00  0.44830618315E+03  0.44830618315E+03  0.00000000000E+00 0.  1.
         21   -1    0    0  501  502 -0.00000000000E+00 -0.00000000000E+00 -0.35775089759E+03  0.35775089759E+03  0.00000000000E+00 0. -1.
         25    1    1    2    0    0 -0.18148997393E+03  0.32652861705E+03  0.11782987310E+03  0.41117931293E+03  0.12500000000E+03 0.  0.
         25    1    1    2    0    0  0.18148997393E+03 -0.32652861705E+03 -0.27274587538E+02  0.39487776781E+03  0.12500000000E+03 0.  0.
</event>
<event>
 4    0  0.2179527E-002  0.2202566E+03  0.7546771E-02  0.1133692E+00
         21   -1    0    0  502  501  0.00000000000E+00  0.00000000000E+00  0.58068524764E+03  0.58068524764E+03  0.00000000000E+00 0.  1.
         21   -1    0    0  501  502 -0.00000000000E+00 -0.00000000000E+00 -0.83544320102E+02  0.83544320102E+02  0.00000000000E+00 0.  1.
         25    1    1    2    0    0  0.49601618216E+02 -0.13391509991E+03  0.80025144043E+02  0.20596746877E+03  0.12500000000E+03 0.  0.
         25    1    1    2    0    0 -0.49601618216E+02  0.13391509991E+03  0.41711578350E+03  0.45826209897E+03  0.12500000000E+03 0.  0.
</event>
<event>
 4    0  0.2179527E-002  0.3507008E+03  0.7546771E-02  0.1062328E+00
         21   -1    0    0  502  501  0.00000000000E+00  0.00000000000E+00  0.85995231040E+03  0.85995231040E+03  0.00000000000E+00 0. -1.
         21   -1    0    0  501  502 -0.00000000000E+00 -0.00000000000E+00 -0.14302081225E+03  0.14302081225E+03  0.00000000000E+00 0.  1.
         25    1    1    2    0    0 -0.26023137472E+03 -0.19329220216E+03  0.29012892762E+03  0.45263897142E+03  0.12500000000E+03 0.  0.
         25    1    1    2    0    0  0.26023137472E+03  0.19329220216E+03  0.42680257053E+03  0.55033415123E+03  0.12500000000E+03 0.  0.
</event>
<event>
 4    0  0.2179527E-002  0.2577440E+03  0.7546771E-02  0.1108506E+00
         21   -1    0    0  502  501  0.00000000000E+00  0.00000000000E+00  0.92697103089E+02  0.92697103089E+02  0.00000000000E+00 0. -1.
         21   -1    0    0  501  502 -0.00000000000E+00 -0.00000000000E+00 -0.71665645166E+03  0.71665645166E+03  0.00000000000E+00 0. -1.
         25    1    1    2    0    0 -0.18501029784E+03 -0.70456151355E+02 -0.48118437592E+03  0.53512268051E+03  0.12500000000E+03 0.  0.
         25    1    1    2    0    0  0.18501029784E+03  0.70456151355E+02 -0.14277497265E+03  0.27423087424E+03  0.12500000000E+03 0.  0.
</event>
<event>
 4    0  0.2179527E-002  0.1926036E+03  0.7546771E-02  0.1156134E+00
         21   -1    0    0  502  501  0.00000000000E+00  0.00000000000E+00  0.50755508348E+03  0.50755508348E+03  0.00000000000E+00 0. -1.
         21   -1    0    0  501  502 -0.00000000000E+00 -0.00000000000E+00 -0.73087931376E+02  0.73087931376E+02  0.00000000000E+00 0. -1.
         25    1    1    2    0    0  0.64439492996E+02 -0.27347994812E+02  0.41127139815E+03  0.43551064742E+03  0.12500000000E+03 0.  0.
         25    1    1    2    0    0 -0.64439492996E+02  0.27347994812E+02  0.23195753960E+02  0.14513236744E+03  0.12500000000E+03 0.  0.
</event>
<event>
 4    0  0.2179527E-002  0.4627170E+03  0.7546771E-02  0.1023996E+00
         21   -1    0    0  502  501  0.00000000000E+00  0.00000000000E+00  0.23137469031E+03  0.23137469031E+03  0.00000000000E+00 0. -1.
         21   -1    0    0  501  502 -0.00000000000E+00 -0.00000000000E+00 -0.92536934697E+03  0.92536934697E+03  0.00000000000E+00 0. -1.
         25    1    1    2    0    0 -0.41224588450E+03  0.78460998079E+02 -0.16000898063E+03  0.46618737798E+03  0.12500000000E+03 0.  0.
         25    1    1    2    0    0  0.41224588450E+03 -0.78460998079E+02 -0.53398567603E+03  0.69055665931E+03  0.12500000000E+03 0.  0.
</event>
<event>
 4    0  0.2179527E-002  0.3751796E+03  0.7546771E-02  0.1052730E+00
         21   -1    0    0  502  501  0.00000000000E+00  0.00000000000E+00  0.20888307881E+03  0.20888307881E+03  0.00000000000E+00 0. -1.
         21   -1    0    0  501  502 -0.00000000000E+00 -0.00000000000E+00 -0.67386838619E+03  0.67386838619E+03  0.00000000000E+00 0.  1.
         25    1    1    2    0    0 -0.60066486996E+02  0.15205769744E+03 -0.60153674262E+03  0.63576802289E+03  0.12500000000E+03 0.  0.
         25    1    1    2    0    0  0.60066486996E+02 -0.15205769744E+03  0.13655143524E+03  0.24698344211E+03  0.12500000000E+03 0.  0.
</event>
<event>
 4    0  0.2179527E-002  0.2063470E+03  0.7546771E-02  0.1144492E+00
         21   -1    0    0  502  501  0.00000000000E+00  0.00000000000E+00  0.46161036657E+03  0.46161036657E+03  0.00000000000E+00 0.  1.
         21   -1    0    0  501  502 -0.00000000000E+00 -0.00000000000E+00 -0.92240345738E+02  0.92240345738E+02  0.00000000000E+00 0.  1.
         25    1    1    2    0    0 -0.83360659417E+02  0.11634226749E+03  0.29262998551E+03  0.34891522059E+03  0.12500000000E+03 0.  0.
         25    1    1    2    0    0  0.83360659417E+02 -0.11634226749E+03  0.76740035327E+02  0.20493549172E+03  0.12500000000E+03 0.  0.
</event>
<event>
 4    0  0.2179527E-002  0.2208664E+03  0.7546771E-02  0.1133239E+00
         21   -1    0    0  502  501  0.00000000000E+00  0.00000000000E+00  0.12454200983E+03  0.12454200983E+03  0.00000000000E+00 0.  1.
         21   -1    0    0  501  502 -0.00000000000E+00 -0.00000000000E+00 -0.39169074337E+03  0.39169074337E+03  0.00000000000E+00 0.  1.
         25    1    1    2    0    0  0.88806995125E+02 -0.33407539562E+02 -0.31520218107E+03  0.35210816667E+03  0.12500000000E+03 0.  0.
         25    1    1    2    0    0 -0.88806995125E+02  0.33407539562E+02  0.48053447530E+02  0.16412458653E+03  0.12500000000E+03 0.  0.
</event>
<event>
 4    0  0.2179527E-002  0.2260735E+03  0.7546771E-02  0.1129434E+00
         21   -1    0    0  502  501  0.00000000000E+00  0.00000000000E+00  0.36980708973E+03  0.36980708973E+03  0.00000000000E+00 0. -1.
         21   -1    0    0  501  502 -0.00000000000E+00 -0.00000000000E+00 -0.13820513313E+03  0.13820513313E+03  0.00000000000E+00 0. -1.
         25    1    1    2    0    0 -0.43265273904E+02  0.17981660647E+03  0.75629480735E+02  0.23569199020E+03  0.12500000000E+03 0.  0.
         25    1    1    2    0    0  0.43265273904E+02 -0.17981660647E+03  0.15597247587E+03  0.27232023266E+03  0.12500000000E+03 0.  0.
</event>
<event>
 4    0  0.2179527E-002  0.1968871E+03  0.7546771E-02  0.1152392E+00
         21   -1    0    0  502  501  0.00000000000E+00  0.00000000000E+00  0.20233910817E+03  0.20233910817E+03  0.00000000000E+00 0.  1.
         21   -1    0    0  501  502 -0.00000000000E+00 -0.00000000000E+00 -0.19158207158E+03  0.19158207158E+03  0.00000000000E+00 0.  1.
         25    1    1    2    0    0 -0.63430596905E+02  0.31426645913E+02 -0.12931372118E+03  0.19328246993E+03  0.12500000000E+03 0.  0.
         25    1    1    2    0    0  0.63430596905E+02 -0.31426645913E+02  0.14007075777E+03  0.20063870982E+03  0.12500000000E+03 0.  0.
</event>
<event>
 4    0  0.2179527E-002  0.2105838E+03  0.7546771E-02  0.1141105E+00
         21   -1    0    0  502  501  0.00000000000E+00  0.00000000000E+00  0.83951043625E+03  0.83951043625E+03  0.00000000000E+00 0. -1.
         21   -1    0    0  501  502 -0.00000000000E+00 -0.00000000000E+00 -0.52823082097E+02  0.52823082097E+02  0.00000000000E+00 0. -1.
         25    1    1    2    0    0 -0.99610505646E+02  0.13666671506E+03  0.37008748939E+03  0.42566394449E+03  0.12500000000E+03 0.  0.
         25    1    1    2    0    0  0.99610505646E+02 -0.13666671506E+03  0.41659986477E+03  0.46666957386E+03  0.12500000000E+03 0.  0.
</event>
<event>
 4    0  0.2179527E-002  0.2379535E+03  0.7546771E-02  0.1121164E+00
         21   -1    0    0  502  501  0.00000000000E+00  0.00000000000E+00  0.12218089774E+03  0.12218089774E+03  0.00000000000E+00 0. -1.
         21   -1    0    0  501  502 -0.00000000000E+00 -0.00000000000E+00 -0.46342667448E+03  0.46342667448E+03  0.00000000000E+00 0. -1.
         25    1    1    2    0    0  0.23234869279E+02  0.18979290290E+03 -0.88669914231E+02  0.24504807453E+03  0.12500000000E+03 0.  0.
         25    1    1    2    0    0 -0.23234869279E+02 -0.18979290290E+03 -0.25257586251E+03  0.34055949769E+03  0.12500000000E+03 0.  0.
</event>
<event>
 4    0  0.2179527E-002  0.2358687E+03  0.7546771E-02  0.1122576E+00
         21   -1    0    0  502  501  0.00000000000E+00  0.00000000000E+00  0.37382936067E+02  0.37382936067E+02  0.00000000000E+00 0.  1.
         21   -1    0    0  501  502 -0.00000000000E+00 -0.00000000000E+00 -0.14882208638E+04  0.14882208638E+04  0.00000000000E+00 0.  1.
         25    1    1    2    0    0  0.27363333393E+02 -0.19808679084E+03 -0.74056597348E+03  0.77720659402E+03  0.12500000000E+03 0.  0.
         25    1    1    2    0    0 -0.27363333393E+02  0.19808679084E+03 -0.71027195429E+03  0.74839720588E+03  0.12500000000E+03 0.  0.
</event>
<event>
 4    0  0.2179527E-002  0.3056672E+03  0.7546771E-02  0.1082441E+00
         21   -1    0    0  502  501  0.00000000000E+00  0.00000000000E+00  0.41497621217E+03  0.41497621217E+03  0.00000000000E+00 0. -1.
         21   -1    0    0  501  502 -0.00000000000E+00 -0.00000000000E+00 -0.22515127972E+03  0.22515127972E+03  0.00000000000E+00 0. -1.
         25    1    1    2    0    0 -0.99187570954E+02  0.25217246442E+03  0.25627279746E+02  0.29951775158E+03  0.12500000000E+03 0.  0.
         25    1    1    2    0    0  0.99187570954E+02 -0.25217246442E+03  0.16419765270E+03  0.34060974031E+03  0.12500000000E+03 0.  0.
</event>
<event>
 4    0  0.2179527E-002  0.2172468E+03  0.7546771E-02  0.1135952E+00
         21   -1    0    0  502  501  0.00000000000E+00  0.00000000000E+00  0.10143478316E+03  0.10143478316E+03  0.00000000000E+00 0. -1.
         21   -1    0    0  501  502 -0.00000000000E+00 -0.00000000000E+00 -0.46528581498E+03  0.46528581498E+03  0.00000000000E+00 0. -1.
         25    1    1    2    0    0  0.68609869691E+02  0.15932908706E+03 -0.23207155140E+03  0.31555550569E+03  0.12500000000E+03 0.  0.
         25    1    1    2    0    0 -0.68609869691E+02 -0.15932908706E+03 -0.13177948042E+03  0.25116509244E+03  0.12500000000E+03 0.  0.
</event>
<event>
 4    0  0.2179527E-002  0.2376568E+03  0.7546771E-02  0.1121364E+00
         21   -1    0    0  502  501  0.00000000000E+00  0.00000000000E+00  0.97499769342E+03  0.97499769342E+03  0.00000000000E+00 0.  1.
         21   -1    0    0  501  502 -0.00000000000E+00 -0.00000000000E+00 -0.57929133436E+02  0.57929133436E+02  0.00000000000E+00 0.  1.
         25    1    1    2    0    0  0.53691045512E+01 -0.62740292347E+02  0.87592915287E+03  0.88704117854E+03  0.12500000000E+03 0.  0.
         25    1    1    2    0    0 -0.53691045512E+01  0.62740292347E+02  0.41139407109E+02  0.14588564832E+03  0.12500000000E+03 0.  0.
</event>
<event>
 4    0  0.2179527E-002  0.1553473E+03  0.7546771E-02  0.1194052E+00
         21   -1    0    0  502  501  0.00000000000E+00  0.00000000000E+00  0.49881250399E+03  0.49881250399E+03  0.00000000000E+00 0.  1.
         21   -1    0    0  501  502 -0.00000000000E+00 -0.00000000000E+00 -0.48380489227E+02  0.48380489227E+02  0.00000000000E+00 0.  1.
         25    1    1    2    0    0 -0.74442896869E+02 -0.49832395213E+02  0.26391338934E+03  0.30545096100E+03  0.12500000000E+03 0.  0.
         25    1    1    2    0    0  0.74442896869E+02  0.49832395213E+02  0.18651862542E+03  0.24174203221E+03  0.12500000000E+03 0.  0.
</event>
<event>
 4    0  0.2179527E-002  0.2238266E+03  0.7546771E-02  0.1131062E+00
         21   -1    0    0  502  501  0.00000000000E+00  0.00000000000E+00  0.11066407486E+03  0.11066407486E+03  0.00000000000E+00 0. -1.
         21   -1    0    0  501  502 -0.00000000000E+00 -0.00000000000E+00 -0.45270636453E+03  0.45270636453E+03  0.00000000000E+00 0. -1.
         25    1    1    2    0    0  0.40452266553E+02 -0.16756228241E+03 -0.25784678603E+03  0.33440016361E+03  0.12500000000E+03 0.  0.
         25    1    1    2    0    0 -0.40452266553E+02  0.16756228241E+03 -0.84195503637E+02  0.22897027577E+03  0.12500000000E+03 0.  0.
</event>
<event>
 4    0  0.2179527E-002  0.3087276E+03  0.7546771E-02  0.1080957E+00
         21   -1    0    0  502  501  0.00000000000E+00  0.00000000000E+00  0.40806244076E+03  0.40806244076E+03  0.00000000000E+00 0.  1.
         21   -1    0    0  501  502 -0.00000000000E+00 -0.00000000000E+00 -0.23357382039E+03  0.23357382039E+03  0.00000000000E+00 0.  1.
         25    1    1    2    0    0  0.10970776996E+03 -0.24695047688E+03  0.17209605995E+03  0.34389298723E+03  0.12500000000E+03 0.  0.
         25    1    1    2    0    0 -0.10970776996E+03  0.24695047688E+03  0.23925604155E+01  0.29774327392E+03  0.12500000000E+03 0.  0.
</event>
<event>
 4    0  0.2179527E-002  0.2003816E+03  0.7546771E-02  0.1149417E+00
         21   -1    0    0  502  501  0.00000000000E+00  0.00000000000E+00  0.33986296977E+02  0.33986296977E+02  0.00000000000E+00 0. -1.
         21   -1    0    0  501  502 -0.00000000000E+00 -0.00000000000E+00 -0.11814402869E+04  0.11814402869E+04  0.00000000000E+00 0. -1.
         25    1    1    2    0    0 -0.54811623129E+02  0.92537320787E+02 -0.22846511613E+03  0.28176014455E+03  0.12500000000E+03 0.  0.
         25    1    1    2    0    0  0.54811623129E+02 -0.92537320787E+02 -0.91898887383E+03  0.93366643936E+03  0.12500000000E+03 0.  0.
</event>
<event>
 4    0  0.2179527E-002  0.2113061E+03  0.7546771E-02  0.1140536E+00
         21   -1    0    0  502  501  0.00000000000E+00  0.00000000000E+00  0.11395722382E+03  0.11395722382E+03  0.00000000000E+00 0. -1.
         21   -1    0    0  501  502 -0.00000000000E+00 -0.00000000000E+00 -0.39181604323E+03  0.39181604323E+03  0.00000000000E+00 0. -1.
         25    1    1    2    0    0  0.13477477120E+03  0.10299608239E+03 -0.11989962812E+03  0.24243216116E+03  0.12500000000E+03 0.  0.
         25    1    1    2    0    0 -0.13477477120E+03 -0.10299608239E+03 -0.15795919129E+03  0.26334110590E+03  0.12500000000E+03 0.  0.
</event>
<event>
 4    0  0.2179527E-002  0.2099962E+03  0.7546771E-02  0.1141569E+00
         21   -1    0    0  502  501  0.00000000000E+00  0.00000000000E+00  0.33988196173E+04  0.33988196173E+04  0.00000000000E+00 0.  1.
         21   -1    0    0  501  502 -0.00000000000E+00 -0.00000000000E+00 -0.12974620878E+02  0.12974620878E+02  0.00000000000E+00 0.  1.
         25    1    1    2    0    0 -0.74455969817E+02 -0.80241018265E+01  0.46455005456E+03  0.48686736474E+03  0.12500000000E+03 0.  0.
         25    1    1    2    0    0  0.74455969817E+02  0.80241018265E+01  0.29212949419E+04  0.29249268735E+04  0.12500000000E+03 0.  0.
</event>
<event>
 4    0  0.2179527E-002  0.1924223E+03  0.7546771E-02  0.1156295E+00
         21   -1    0    0  502  501  0.00000000000E+00  0.00000000000E+00  0.74696210169E+02  0.74696210169E+02  0.00000000000E+00 0.  1.
         21   -1    0    0  501  502 -0.00000000000E+00 -0.00000000000E+00 -0.49569260645E+03  0.49569260645E+03  0.00000000000E+00 0.  1.
         25    1    1    2    0    0  0.13342184909E+02  0.23324467416E+02 -0.42363260767E+03  0.44250608014E+03  0.12500000000E+03 0.  0.
         25    1    1    2    0    0 -0.13342184909E+02 -0.23324467416E+02  0.26362113930E+01  0.12788273648E+03  0.12500000000E+03 0.  0.
</event>
<event>
 4    0  0.2179527E-002  0.1637127E+03  0.7546771E-02  0.1184568E+00
         21   -1    0    0  502  501  0.00000000000E+00  0.00000000000E+00  0.16266710092E+02  0.16266710092E+02  0.00000000000E+00 0.  1.
         21   -1    0    0  501  502 -0.00000000000E+00 -0.00000000000E+00 -0.16476505131E+04  0.16476505131E+04  0.00000000000E+00 0.  1.
         25    1    1    2    0    0 -0.10286488324E+03 -0.14037311001E+02 -0.71423059616E+03  0.73248110883E+03  0.12500000000E+03 0.  0.
         25    1    1    2    0    0  0.10286488324E+03  0.14037311001E+02 -0.91715320682E+03  0.93143611433E+03  0.12500000000E+03 0.  0.
</event>
<event>
 4    0  0.2179527E-002  0.2696803E+03  0.7546771E-02  0.1101463E+00
         21   -1    0    0  502  501  0.00000000000E+00  0.00000000000E+00  0.55669726845E+03  0.55669726845E+03  0.00000000000E+00 0. -1.
         21   -1    0    0  501  502 -0.00000000000E+00 -0.00000000000E+00 -0.13064100249E+03  0.13064100249E+03  0.00000000000E+00 0. -1.
         25    1    1    2    0    0 -0.18257906161E+03 -0.15164165357E+03  0.24844023805E+03  0.36561982539E+03  0.12500000000E+03 0.  0.
         25    1    1    2    0    0  0.18257906161E+03  0.15164165357E+03  0.17761602791E+03  0.32171844555E+03  0.12500000000E+03 0.  0.
</event>
<event>
 4    0  0.2179527E-002  0.2536621E+03  0.7546771E-02  0.1111012E+00
         21   -1    0    0  502  501  0.00000000000E+00  0.00000000000E+00  0.20462910079E+03  0.20462910079E+03  0.00000000000E+00 0. -1.
         21   -1    0    0  501  502 -0.00000000000E+00 -0.00000000000E+00 -0.31444436054E+03  0.31444436054E+03  0.00000000000E+00 0. -1.
         25    1    1    2    0    0 -0.16334502962E+03  0.14746132467E+03 -0.72422065117E+02  0.26324208723E+03  0.12500000000E+03 0.  0.
         25    1    1    2    0    0  0.16334502962E+03 -0.14746132467E+03 -0.37393194634E+02  0.25583137411E+03  0.12500000000E+03 0.  0.
</event>
<event>
 4    0  0.2179527E-002  0.1872224E+03  0.7546771E-02  0.1160991E+00
         21   -1    0    0  502  501  0.00000000000E+00  0.00000000000E+00  0.35103332063E+03  0.35103332063E+03  0.00000000000E+00 0. -1.
         21   -1    0    0  501  502 -0.00000000000E+00 -0.00000000000E+00 -0.99854380506E+02  0.99854380506E+02  0.00000000000E+00 0. -1.
         25    1    1    2    0    0 -0.33114682237E+02 -0.95890708270E+02  0.10496364142E+02  0.16132818654E+03  0.12500000000E+03 0.  0.
         25    1    1    2    0    0  0.33114682237E+02  0.95890708270E+02  0.24068257599E+03  0.28955951460E+03  0.12500000000E+03 0.  0.
</event>
<event>
 4    0  0.2179527E-002  0.1276521E+03  0.7546771E-02  0.1230982E+00
         21   -1    0    0  502  501  0.00000000000E+00  0.00000000000E+00  0.63252606719E+03  0.63252606719E+03  0.00000000000E+00 0. -1.
         21   -1    0    0  501  502 -0.00000000000E+00 -0.00000000000E+00 -0.25761868780E+02  0.25761868780E+02  0.00000000000E+00 0. -1.
         25    1    1    2    0    0 -0.11317794663E+02 -0.22454817644E+02  0.28754149317E+03  0.31454319514E+03  0.12500000000E+03 0.  0.
         25    1    1    2    0    0  0.11317794663E+02  0.22454817644E+02  0.31922270524E+03  0.34374474083E+03  0.12500000000E+03 0.  0.
</event>
<event>
 4    0  0.2179527E-002  0.2734660E+03  0.7546771E-02  0.1099312E+00
         21   -1    0    0  502  501  0.00000000000E+00  0.00000000000E+00  0.11033627041E+04  0.11033627041E+04  0.00000000000E+00 0.  1.
         21   -1    0    0  501  502 -0.00000000000E+00 -0.00000000000E+00 -0.67777961454E+02  0.67777961454E+02  0.00000000000E+00 0.  1.
         25    1    1    2    0    0 -0.91262606807E+02 -0.19529310504E+03  0.27657222919E+03  0.37227067872E+03  0.12500000000E+03 0.  0.
         25    1    1    2    0    0  0.91262606807E+02  0.19529310504E+03  0.75901251343E+03  0.79886998681E+03  0.12500000000E+03 0.  0.
</event>
<event>
 4    0  0.2179527E-002  0.1562505E+03  0.7546771E-02  0.1192996E+00
         21   -1    0    0  502  501  0.00000000000E+00  0.00000000000E+00  0.29577541059E+02  0.29577541059E+02  0.00000000000E+00 0. -1.
         21   -1    0    0  501  502 -0.00000000000E+00 -0.00000000000E+00 -0.82543095792E+03  0.82543095792E+03  0.00000000000E+00 0. -1.
         25    1    1    2    0    0 -0.36197114315E+02  0.45089031417E+02 -0.59983608961E+03  0.61544421863E+03  0.12500000000E+03 0.  0.
         25    1    1    2    0    0  0.36197114315E+02 -0.45089031417E+02 -0.19601732724E+03  0.23956428035E+03  0.12500000000E+03 0.  0.
</event>
<event>
 4    0  0.2179527E-002  0.3166207E+03  0.7546771E-02  0.1077215E+00
         21   -1    0    0  502  501  0.00000000000E+00  0.00000000000E+00  0.14498471545E+03  0.14498471545E+03  0.00000000000E+00 0. -1.
         21   -1    0    0  501  502 -0.00000000000E+00 -0.00000000000E+00 -0.69144317452E+03  0.69144317452E+03  0.00000000000E+00 0. -1.
         25    1    1    2    0    0 -0.18521758335E+02 -0.22472583839E+03 -0.51599202073E+03  0.57681671563E+03  0.12500000000E+03 0.  0.
         25    1    1    2    0    0  0.18521758335E+02  0.22472583839E+03 -0.30466438342E+02  0.25961117433E+03  0.12500000000E+03 0.  0.
</event>
<event>
 4    0  0.2179527E-002  0.3047470E+03  0.7546771E-02  0.1082891E+00
         21   -1    0    0  502  501  0.00000000000E+00  0.00000000000E+00  0.94277993956E+02  0.94277993956E+02  0.00000000000E+00 0. -1.
         21   -1    0    0  501  502 -0.00000000000E+00 -0.00000000000E+00 -0.98507340617E+03  0.98507340617E+03  0.00000000000E+00 0. -1.
         25    1    1    2    0    0  0.11221320355E+03 -0.17629068194E+02  0.38072967338E+01  0.16894402211E+03  0.12500000000E+03 0.  0.
         25    1    1    2    0    0 -0.11221320355E+03  0.17629068194E+02 -0.89460270894E+03  0.91040737802E+03  0.12500000000E+03 0.  0.
</event>
<event>
 4    0  0.2179527E-002  0.2023876E+03  0.7546771E-02  0.1147740E+00
         21   -1    0    0  502  501  0.00000000000E+00  0.00000000000E+00  0.75502766985E+02  0.75502766985E+02  0.00000000000E+00 0.  1.
         21   -1    0    0  501  502 -0.00000000000E+00 -0.00000000000E+00 -0.54250666322E+03  0.54250666322E+03  0.00000000000E+00 0.  1.
         25    1    1    2    0    0  0.85710655620E+02  0.11521167881E+03 -0.12865530510E+03  0.22977648912E+03  0.12500000000E+03 0.  0.
         25    1    1    2    0    0 -0.85710655620E+02 -0.11521167881E+03 -0.33834859113E+03  0.38823294108E+03  0.12500000000E+03 0.  0.
</event>
<event>
 4    0  0.2179527E-002  0.3186533E+03  0.7546771E-02  0.1076271E+00
         21   -1    0    0  502  501  0.00000000000E+00  0.00000000000E+00  0.10424105745E+03  0.10424105745E+03  0.00000000000E+00 0. -1.
         21   -1    0    0  501  502 -0.00000000000E+00 -0.00000000000E+00 -0.97408767564E+03  0.97408767564E+03  0.00000000000E+00 0. -1.
         25    1    1    2    0    0 -0.75762582376E+02 -0.73243319551E+01 -0.91385854156E+03  0.92550313274E+03  0.12500000000E+03 0.  0.
         25    1    1    2    0    0  0.75762582376E+02  0.73243319551E+01  0.44011923367E+02  0.15282560036E+03  0.12500000000E+03 0.  0.
</event>
<event>
 4    0  0.2179527E-002  0.1902630E+03  0.7546771E-02  0.1158224E+00
         21   -1    0    0  502  501  0.00000000000E+00  0.00000000000E+00  0.19573773375E+03  0.19573773375E+03  0.00000000000E+00 0. -1.
         21   -1    0    0  501  502 -0.00000000000E+00 -0.00000000000E+00 -0.18494132098E+03  0.18494132098E+03  0.00000000000E+00 0. -1.
         25    1    1    2    0    0 -0.95633304876E+02 -0.12960574034E+02  0.11156013360E+03  0.19335037856E+03  0.12500000000E+03 0.  0.
         25    1    1    2    0    0  0.95633304876E+02  0.12960574034E+02 -0.10076372082E+03  0.18732867617E+03  0.12500000000E+03 0.  0.
</event>
<event>
 4    0  0.2179527E-002  0.2328811E+03  0.7546771E-02  0.1124628E+00
         21   -1    0    0  502  501  0.00000000000E+00  0.00000000000E+00  0.20860396531E+04  0.20860396531E+04  0.00000000000E+00 0.  1.
         21   -1    0    0  501  502 -0.00000000000E+00 -0.00000000000E+00 -0.25998363497E+02  0.25998363497E+02  0.00000000000E+00 0.  1.
         25    1    1    2    0    0 -0.12915317450E+03  0.28338949058E+02  0.16890967846E+04  0.16988692081E+04  0.12500000000E+03 0.  0.
         25    1    1    2    0    0  0.12915317450E+03 -0.28338949058E+02  0.37094450502E+03  0.41316880850E+03  0.12500000000E+03 0.  0.
</event>
<event>
 4    0  0.2179527E-002  0.1998805E+03  0.7546771E-02  0.1149840E+00
         21   -1    0    0  502  501  0.00000000000E+00  0.00000000000E+00  0.22324123083E+03  0.22324123083E+03  0.00000000000E+00 0. -1.
         21   -1    0    0  501  502 -0.00000000000E+00 -0.00000000000E+00 -0.17896423653E+03  0.17896423653E+03  0.00000000000E+00 0. -1.
         25    1    1    2    0    0  0.12960000481E+03 -0.52837123801E+02  0.91401853374E+02  0.20872762563E+03  0.12500000000E+03 0.  0.
         25    1    1    2    0    0 -0.12960000481E+03  0.52837123801E+02 -0.47124859076E+02  0.19347784173E+03  0.12500000000E+03 0.  0.
</event>
<event>
 4    0  0.2179527E-002  0.2355774E+03  0.7546771E-02  0.1122775E+00
         21   -1    0    0  502  501  0.00000000000E+00  0.00000000000E+00  0.45849370741E+03  0.45849370741E+03  0.00000000000E+00 0. -1.
         21   -1    0    0  501  502 -0.00000000000E+00 -0.00000000000E+00 -0.12104136903E+03  0.12104136903E+03  0.00000000000E+00 0. -1.
         25    1    1    2    0    0  0.24573815181E+01  0.16676390055E+03  0.33671942888E+02  0.21112801091E+03  0.12500000000E+03 0.  0.
         25    1    1    2    0    0 -0.24573815181E+01 -0.16676390055E+03  0.30378039548E+03  0.36840706553E+03  0.12500000000E+03 0.  0.
</event>
<event>
 4    0  0.2179527E-002  0.2001111E+03  0.7546771E-02  0.1149645E+00
         21   -1    0    0  502  501  0.00000000000E+00  0.00000000000E+00  0.51189698930E+03  0.51189698930E+03  0.00000000000E+00 0.  1.
         21   -1    0    0  501  502 -0.00000000000E+00 -0.00000000000E+00 -0.78227528759E+02  0.78227528759E+02  0.00000000000E+00 0.  1.
         25    1    1    2    0    0  0.12070784722E+03 -0.99144755868E+02  0.21034537918E+03  0.29029337839E+03  0.12500000000E+03 0.  0.
         25    1    1    2    0    0 -0.12070784722E+03  0.99144755868E+02  0.22332408136E+03  0.29983113966E+03  0.12500000000E+03 0.  0.
</event>
<event>
 4    0  0.2179527E-002  0.1866512E+03  0.7546771E-02  0.1161517E+00
         21   -1    0    0  502  501  0.00000000000E+00  0.00000000000E+00  0.41590972563E+03  0.41590972563E+03  0.00000000000E+00 0. -1.
         21   -1    0    0  501  502 -0.00000000000E+00 -0.00000000000E+00 -0.83764958313E+02  0.83764958313E+02  0.00000000000E+00 0. -1.
         25    1    1    2    0    0 -0.25229786985E+02  0.82148722329E+02  0.31165021486E+03  0.34660613260E+03  0.12500000000E+03 0.  0.
         25    1    1    2    0    0  0.25229786985E+02 -0.82148722329E+02  0.20494552460E+02  0.15306855135E+03  0.12500000000E+03 0.  0.
</event>
<event>
 4    0  0.2179527E-002  0.2220631E+03  0.7546771E-02  0.1132354E+00
         21   -1    0    0  502  501  0.00000000000E+00  0.00000000000E+00  0.66393271748E+02  0.66393271748E+02  0.00000000000E+00 0.  1.
         21   -1    0    0  501  502 -0.00000000000E+00 -0.00000000000E+00 -0.74272593388E+03  0.74272593388E+03  0.00000000000E+00 0.  1.
         25    1    1    2    0    0 -0.24254896416E+02 -0.12899916209E+03 -0.10444751878E+03  0.20919695983E+03  0.12500000000E+03 0.  0.
         25    1    1    2    0    0  0.24254896416E+02  0.12899916209E+03 -0.57188514335E+03  0.59992224580E+03  0.12500000000E+03 0.  0.
</event>
<event>
 4    0  0.2179527E-002  0.2686949E+03  0.7546771E-02  0.1102029E+00
         21   -1    0    0  502  501  0.00000000000E+00  0.00000000000E+00  0.91131807957E+02  0.91131807957E+02  0.00000000000E+00 0.  1.
         21   -1    0    0  501  502 -0.00000000000E+00 -0.00000000000E+00 -0.79222571864E+03  0.79222571864E+03  0.00000000000E+00 0.  1.
         25    1    1    2    0    0  0.17054804366E+02  0.16201756772E+02 -0.73960390466E+03  0.75046139079E+03  0.12500000000E+03 0.  0.
         25    1    1    2    0    0 -0.17054804366E+02 -0.16201756772E+02  0.38509993985E+02  0.13289613580E+03  0.12500000000E+03 0.  0.
</event>
<event>
 4    0  0.2179527E-002  0.2129623E+03  0.7546771E-02  0.1139241E+00
         21   -1    0    0  502  501  0.00000000000E+00  0.00000000000E+00  0.17001481166E+04  0.17001481166E+04  0.00000000000E+00 0.  1.
         21   -1    0    0  501  502 -0.00000000000E+00 -0.00000000000E+00 -0.26675870710E+02  0.26675870710E+02  0.00000000000E+00 0.  1.
         25    1    1    2    0    0  0.16329792009E+02 -0.13180696887E+03  0.12824909699E+04  0.12953948537E+04  0.12500000000E+03 0.  0.
         25    1    1    2    0    0 -0.16329792009E+02  0.13180696887E+03  0.39098127608E+03  0.43142913368E+03  0.12500000000E+03 0.  0.
</event>
<event>
 4    0  0.2179527E-002  0.2703591E+03  0.7546771E-02  0.1101074E+00
         21   -1    0    0  502  501  0.00000000000E+00  0.00000000000E+00  0.11379909688E+04  0.11379909688E+04  0.00000000000E+00 0.  1.
         21   -1    0    0  501  502 -0.00000000000E+00 -0.00000000000E+00 -0.64230773078E+02  0.64230773078E+02  0.00000000000E+00 0.  1.
         25    1    1    2    0    0 -0.72246787298E+02 -0.12826218124E+03  0.95755298680E+03  0.97683340849E+03  0.12500000000E+03 0.  0.
         25    1    1    2    0    0  0.72246787298E+02  0.12826218124E+03  0.11620720887E+03  0.22538833334E+03  0.12500000000E+03 0.  0.
</event>
<event>
 4    0  0.2179527E-002  0.2128507E+03  0.7546771E-02  0.1139328E+00
         21   -1    0    0  502  501  0.00000000000E+00  0.00000000000E+00  0.19964655768E+02  0.19964655768E+02  0.00000000000E+00 0.  1.
         21   -1    0    0  501  502 -0.00000000000E+00 -0.00000000000E+00 -0.22692813136E+04  0.22692813136E+04  0.00000000000E+00 0.  1.
         25    1    1    2    0    0 -0.13369776325E+03  0.87074422750E+02 -0.14741341343E+04  0.14880031898E+04  0.12500000000E+03 0.  0.
         25    1    1    2    0    0  0.13369776325E+03 -0.87074422750E+02 -0.77518252354E+03  0.80124277956E+03  0.12500000000E+03 0.  0.
</event>
<event>
 4    0  0.2179527E-002  0.2096931E+03  0.7546771E-02  0.1141809E+00
         21   -1    0    0  502  501  0.00000000000E+00  0.00000000000E+00  0.71874521218E+02  0.71874521218E+02  0.00000000000E+00 0.  1.
         21   -1    0    0  501  502 -0.00000000000E+00 -0.00000000000E+00 -0.61177752174E+03  0.61177752174E+03  0.00000000000E+00 0.  1.
         25    1    1    2    0    0 -0.85239517540E+02  0.13894374778E+03 -0.20127164606E+03  0.28758723182E+03  0.12500000000E+03 0.  0.
         25    1    1    2    0    0  0.85239517540E+02 -0.13894374778E+03 -0.33863135447E+03  0.39606481114E+03  0.12500000000E+03 0.  0.
</event>
<event>
 4    0  0.2179527E-002  0.1768766E+03  0.7546771E-02  0.1170861E+00
         21   -1    0    0  502  501  0.00000000000E+00  0.00000000000E+00  0.44015442887E+03  0.44015442887E+03  0.00000000000E+00 0.  1.
         21   -1    0    0  501  502 -0.00000000000E+00 -0.00000000000E+00 -0.71078043000E+02  0.71078043000E+02  0.00000000000E+00 0.  1.
         25    1    1    2    0    0  0.11634492823E+03 -0.73266487688E+01  0.25029717513E+03  0.30308991733E+03  0.12500000000E+03 0.  0.
         25    1    1    2    0    0 -0.11634492823E+03  0.73266487688E+01  0.11877921074E+03  0.20814255454E+03  0.12500000000E+03 0.  0.
</event>
<event>
 4    0  0.2179527E-002  0.1585026E+03  0.7546771E-02  0.1190398E+00
         21   -1    0    0  502  501  0.00000000000E+00  0.00000000000E+00  0.98992472535E+03  0.98992472535E+03  0.00000000000E+00 0.  1.
         21   -1    0    0  501  502 -0.00000000000E+00 -0.00000000000E+00 -0.25378780480E+02  0.25378780480E+02  0.00000000000E+00 0.  1.
         25    1    1    2    0    0  0.59502680370E+02 -0.75004291332E+02  0.42392669266E+03  0.45222234956E+03  0.12500000000E+03 0.  0.
         25    1    1    2    0    0 -0.59502680370E+02  0.75004291332E+02  0.54061925221E+03  0.56308115627E+03  0.12500000000E+03 0.  0.
</event>
<event>
 4    0  0.2179527E-002  0.2149929E+03  0.7546771E-02  0.1137672E+00
         21   -1    0    0  502  501  0.00000000000E+00  0.00000000000E+00  0.24178181620E+03  0.24178181620E+03  0.00000000000E+00 0. -1.
         21   -1    0    0  501  502 -0.00000000000E+00 -0.00000000000E+00 -0.19117209631E+03  0.19117209631E+03  0.00000000000E+00 0. -1.
         25    1    1    2    0    0  0.87233622448E+02 -0.74249060600E+02  0.15840778715E+03  0.23203589144E+03  0.12500000000E+03 0.  0.
         25    1    1    2    0    0 -0.87233622448E+02  0.74249060600E+02 -0.10779806726E+03  0.20091802107E+03  0.12500000000E+03 0.  0.
</event>
<event>
 4    0  0.2179527E-002  0.4430500E+03  0.7546771E-02  0.1029815E+00
         21   -1    0    0  502  501  0.00000000000E+00  0.00000000000E+00  0.50224669163E+03  0.50224669163E+03  0.00000000000E+00 0.  1.
         21   -1    0    0  501  502 -0.00000000000E+00 -0.00000000000E+00 -0.39083046441E+03  0.39083046441E+03  0.00000000000E+00 0.  1.
         25    1    1    2    0    0 -0.20574813824E+03  0.37124258094E+03  0.32836757769E+02  0.44368525212E+03  0.12500000000E+03 0.  0.
         25    1    1    2    0    0  0.20574813824E+03 -0.37124258094E+03  0.78579469450E+02  0.44939190392E+03  0.12500000000E+03 0.  0.
</event>
<event>
 4    0  0.2179527E-002  0.1960472E+03  0.7546771E-02  0.1153117E+00
         21   -1    0    0  502  501  0.00000000000E+00  0.00000000000E+00  0.53194485813E+02  0.53194485813E+02  0.00000000000E+00 0.  1.
         21   -1    0    0  501  502 -0.00000000000E+00 -0.00000000000E+00 -0.72252810150E+03  0.72252810150E+03  0.00000000000E+00 0.  1.
         25    1    1    2    0    0 -0.95779265981E+02  0.11524231782E+03 -0.37194555234E+03  0.42002732472E+03  0.12500000000E+03 0.  0.
         25    1    1    2    0    0  0.95779265981E+02 -0.11524231782E+03 -0.29738806335E+03  0.35569526259E+03  0.12500000000E+03 0.  0.
</event>
<event>
 4    0  0.2179527E-002  0.1912101E+03  0.7546771E-02  0.1157374E+00
         21   -1    0    0  502  501  0.00000000000E+00  0.00000000000E+00  0.31786934992E+03  0.31786934992E+03  0.00000000000E+00 0. -1.
         21   -1    0    0  501  502 -0.00000000000E+00 -0.00000000000E+00 -0.11501994343E+03  0.11501994343E+03  0.00000000000E+00 0. -1.
         25    1    1    2    0    0  0.13084630168E+03  0.46681065799E+01  0.17114695030E+03  0.24911608635E+03  0.12500000000E+03 0.  0.
         25    1    1    2    0    0 -0.13084630168E+03 -0.46681065799E+01  0.31702456198E+02  0.18377320700E+03  0.12500000000E+03 0.  0.
</event>
<event>
 4    0  0.2179527E-002  0.1702707E+03  0.7546771E-02  0.1177566E+00
         21   -1    0    0  502  501  0.00000000000E+00  0.00000000000E+00  0.57790755602E+02  0.57790755602E+02  0.00000000000E+00 0.  1.
         21   -1    0    0  501  502 -0.00000000000E+00 -0.00000000000E+00 -0.50167393596E+03  0.50167393596E+03  0.00000000000E+00 0.  1.
         25    1    1    2    0    0  0.46830652004E+02  0.93952469599E+02 -0.14235247771E+03  0.21658578998E+03  0.12500000000E+03 0.  0.
         25    1    1    2    0    0 -0.46830652004E+02 -0.93952469599E+02 -0.30153070265E+03  0.34287890159E+03  0.12500000000E+03 0.  0.
</event>
<event>
 4    0  0.2179527E-002  0.1635473E+03  0.7546771E-02  0.1184749E+00
         21   -1    0    0  502  501  0.00000000000E+00  0.00000000000E+00  0.44628827370E+02  0.44628827370E+02  0.00000000000E+00 0.  1.
         21   -1    0    0  501  502 -0.00000000000E+00 -0.00000000000E+00 -0.59933752776E+03  0.59933752776E+03  0.00000000000E+00 0.  1.
         25    1    1    2    0    0 -0.82095498860E+02  0.63447333216E+02 -0.31457854604E+03  0.35404787339E+03  0.12500000000E+03 0.  0.
         25    1    1    2    0    0  0.82095498860E+02 -0.63447333216E+02 -0.24013015436E+03  0.28991848174E+03  0.12500000000E+03 0.  0.
</event>
<event>
 4    0  0.2179527E-002  0.1831610E+03  0.7546771E-02  0.1164778E+00
         21   -1    0    0  502  501  0.00000000000E+00  0.00000000000E+00  0.12853525943E+04  0.12853525943E+04  0.00000000000E+00 0.  1.
         21   -1    0    0  501  502 -0.00000000000E+00 -0.00000000000E+00 -0.26100179981E+02  0.26100179981E+02  0.00000000000E+00 0.  1.
         25    1    1    2    0    0  0.94095413795E+02  0.91930369045E+02  0.71861017223E+03  0.74116848239E+03  0.12500000000E+03 0.  0.
         25    1    1    2    0    0 -0.94095413795E+02 -0.91930369045E+02  0.54064224206E+03  0.57028429187E+03  0.12500000000E+03 0.  0.
</event>
<event>
 4    0  0.2179527E-002  0.1574158E+03  0.7546771E-02  0.1191646E+00
         21   -1    0    0  502  501  0.00000000000E+00  0.00000000000E+00  0.83301064555E+02  0.83301064555E+02  0.00000000000E+00 0.  1.
         21   -1    0    0  501  502 -0.00000000000E+00 -0.00000000000E+00 -0.29747218607E+03  0.29747218607E+03  0.00000000000E+00 0.  1.
         25    1    1    2    0    0  0.24562889031E+02  0.55775942097E+02 -0.19629395665E+03  0.24056310742E+03  0.12500000000E+03 0.  0.
         25    1    1    2    0    0 -0.24562889031E+02 -0.55775942097E+02 -0.17877164867E+02  0.14021014321E+03  0.12500000000E+03 0.  0.
</event>
<event>
 4    0  0.2179527E-002  0.2291759E+03  0.7546771E-02  0.1127221E+00
         21   -1    0    0  502  501  0.00000000000E+00  0.00000000000E+00  0.42646061381E+03  0.42646061381E+03  0.00000000000E+00 0. -1.
         21   -1    0    0  501  502 -0.00000000000E+00 -0.00000000000E+00 -0.12315700877E+03  0.12315700877E+03  0.00000000000E+00 0. -1.
         25    1    1    2    0    0  0.14715378194E+03 -0.11146178684E+03  0.87989542484E+02  0.23967712667E+03  0.12500000000E+03 0.  0.
         25    1    1    2    0    0 -0.14715378194E+03  0.11146178684E+03  0.21531406256E+03  0.30994049590E+03  0.12500000000E+03 0.  0.
</event>
<event>
 4    0  0.2179527E-002  0.3104804E+03  0.7546771E-02  0.1080116E+00
         21   -1    0    0  502  501  0.00000000000E+00  0.00000000000E+00  0.10266683627E+03  0.10266683627E+03  0.00000000000E+00 0.  1.
         21   -1    0    0  501  502 -0.00000000000E+00 -0.00000000000E+00 -0.93894061434E+03  0.93894061434E+03  0.00000000000E+00 0.  1.
         25    1    1    2    0    0  0.26251568510E+03 -0.16308776932E+02 -0.59874214198E+03  0.66580598804E+03  0.12500000000E+03 0.  0.
         25    1    1    2    0    0 -0.26251568510E+03  0.16308776932E+02 -0.23753163609E+03  0.37580146258E+03  0.12500000000E+03 0.  0.
</event>
<event>
 4    0  0.2179527E-002  0.1857004E+03  0.7546771E-02  0.1162397E+00
         21   -1    0    0  502  501  0.00000000000E+00  0.00000000000E+00  0.33140341754E+03  0.33140341754E+03  0.00000000000E+00 0.  1.
         21   -1    0    0  501  502 -0.00000000000E+00 -0.00000000000E+00 -0.10405632060E+03  0.10405632060E+03  0.00000000000E+00 0.  1.
         25    1    1    2    0    0 -0.40805577992E+02 -0.94412998308E+02  0.69797697489E+01  0.16202662322E+03  0.12500000000E+03 0.  0.
         25    1    1    2    0    0  0.40805577992E+02  0.94412998308E+02  0.22036732719E+03  0.27343311492E+03  0.12500000000E+03 0.  0.
</event>
<event>
 4    0  0.2179527E-002  0.3902440E+03  0.7546771E-02  0.1047211E+00
         21   -1    0    0  502  501  0.00000000000E+00  0.00000000000E+00  0.59775532407E+03  0.59775532407E+03  0.00000000000E+00 0. -1.
         21   -1    0    0  501  502 -0.00000000000E+00 -0.00000000000E+00 -0.25477046714E+03  0.25477046714E+03  0.00000000000E+00 0. -1.
         25    1    1    2    0    0 -0.35896278658E+03 -0.38658288236E+02  0.25830546273E+03  0.46118917753E+03  0.12500000000E+03 0.  0.
         25    1    1    2    0    0  0.35896278658E+03  0.38658288236E+02  0.84679394197E+02  0.39133661367E+03  0.12500000000E+03 0.  0.
</event>
<event>
 4    0  0.2179527E-002  0.4369463E+03  0.7546771E-02  0.1031688E+00
         21   -1    0    0  502  501  0.00000000000E+00  0.00000000000E+00  0.16386847460E+03  0.16386847460E+03  0.00000000000E+00 0. -1.
         21   -1    0    0  501  502 -0.00000000000E+00 -0.00000000000E+00 -0.11650935769E+04  0.11650935769E+04  0.00000000000E+00 0.  1.
         25    1    1    2    0    0 -0.24784300258E+03  0.31576246710E+03 -0.31961902765E+03  0.52812253539E+03  0.12500000000E+03 0.  0.
         25    1    1    2    0    0  0.24784300258E+03 -0.31576246710E+03 -0.68160607460E+03  0.80083951607E+03  0.12500000000E+03 0.  0.
</event>
<event>
 4    0  0.2179527E-002  0.2482579E+03  0.7546771E-02  0.1114411E+00
         21   -1    0    0  502  501  0.00000000000E+00  0.00000000000E+00  0.60789283137E+02  0.60789283137E+02  0.00000000000E+00 0. -1.
         21   -1    0    0  501  502 -0.00000000000E+00 -0.00000000000E+00 -0.10138627928E+04  0.10138627928E+04  0.00000000000E+00 0. -1.
         25    1    1    2    0    0 -0.21044106313E+03  0.36646289523E+02 -0.43442284749E+03  0.49997660146E+03  0.12500000000E+03 0.  0.
         25    1    1    2    0    0  0.21044106313E+03 -0.36646289523E+02 -0.51865066214E+03  0.57467547444E+03  0.12500000000E+03 0.  0.
</event>
<event>
 4    0  0.2179527E-002  0.3826117E+03  0.7546771E-02  0.1049973E+00
         21   -1    0    0  502  501  0.00000000000E+00  0.00000000000E+00  0.13627139737E+03  0.13627139737E+03  0.00000000000E+00 0.  1.
         21   -1    0    0  501  502 -0.00000000000E+00 -0.00000000000E+00 -0.10742660887E+04  0.10742660887E+04  0.00000000000E+00 0.  1.
         25    1    1    2    0    0  0.23636833719E+03  0.78311756289E+02 -0.88382775494E+03  0.92670341663E+03  0.12500000000E+03 0.  0.
         25    1    1    2    0    0 -0.23636833719E+03 -0.78311756289E+02 -0.54166936432E+02  0.28383406948E+03  0.12500000000E+03 0.  0.
</event>
<event>
 4    0  0.2179527E-002  0.3261684E+03  0.7546771E-02  0.1072845E+00
         21   -1    0    0  502  501  0.00000000000E+00  0.00000000000E+00  0.10007655482E+04  0.10007655482E+04  0.00000000000E+00 0. -1.
         21   -1    0    0  501  502 -0.00000000000E+00 -0.00000000000E+00 -0.10630444512E+03  0.10630444512E+03  0.00000000000E+00 0. -1.
         25    1    1    2    0    0 -0.26074572637E+03 -0.14501027059E+03  0.51811327821E+03  0.61080494550E+03  0.12500000000E+03 0.  0.
         25    1    1    2    0    0  0.26074572637E+03  0.14501027059E+03  0.37634782486E+03  0.49626504780E+03  0.12500000000E+03 0.  0.
</event>
<event>
 4    0  0.2179527E-002  0.2069869E+03  0.7546771E-02  0.1143974E+00
         21   -1    0    0  502  501  0.00000000000E+00  0.00000000000E+00  0.31972244809E+02  0.31972244809E+02  0.00000000000E+00 0. -1.
         21   -1    0    0  501  502 -0.00000000000E+00 -0.00000000000E+00 -0.13400242255E+04  0.13400242255E+04  0.00000000000E+00 0. -1.
         25    1    1    2    0    0 -0.41804635078E+02 -0.13674889381E+03 -0.38131870662E+03  0.42600099001E+03  0.12500000000E+03 0.  0.
         25    1    1    2    0    0  0.41804635078E+02  0.13674889381E+03 -0.92673327410E+03  0.94599548032E+03  0.12500000000E+03 0.  0.
</event>
<event>
 4    0  0.2179527E-002  0.2978941E+03  0.7546771E-02  0.1086298E+00
         21   -1    0    0  502  501  0.00000000000E+00  0.00000000000E+00  0.17589594796E+03  0.17589594796E+03  0.00000000000E+00 0. -1.
         21   -1    0    0  501  502 -0.00000000000E+00 -0.00000000000E+00 -0.50450774525E+03  0.50450774525E+03  0.00000000000E+00 0.  1.
         25    1    1    2    0    0 -0.16223455967E+03 -0.21333997213E+03 -0.12341777614E+03  0.32045427681E+03  0.12500000000E+03 0.  0.
         25    1    1    2    0    0  0.16223455967E+03  0.21333997213E+03 -0.20519402114E+03  0.35994941640E+03  0.12500000000E+03 0.  0.
</event>
<event>
 4    0  0.2179527E-002  0.2239994E+03  0.7546771E-02  0.1130936E+00
         21   -1    0    0  502  501  0.00000000000E+00  0.00000000000E+00  0.44416102473E+02  0.44416102473E+02  0.00000000000E+00 0.  1.
         21   -1    0    0  501  502 -0.00000000000E+00 -0.00000000000E+00 -0.11296739820E+04  0.11296739820E+04  0.00000000000E+00 0.  1.
         25    1    1    2    0    0 -0.17683682439E+02  0.18128920329E+03 -0.63971071210E+03  0.67678156227E+03  0.12500000000E+03 0.  0.
         25    1    1    2    0    0  0.17683682439E+02 -0.18128920329E+03 -0.44554716744E+03  0.49730852221E+03  0.12500000000E+03 0.  0.
</event>
<event>
 4    0  0.2179527E-002  0.1821355E+03  0.7546771E-02  0.1165752E+00
         21   -1    0    0  502  501  0.00000000000E+00  0.00000000000E+00  0.48690861015E+03  0.48690861015E+03  0.00000000000E+00 0.  1.
         21   -1    0    0  501  502 -0.00000000000E+00 -0.00000000000E+00 -0.68130536129E+02  0.68130536129E+02  0.00000000000E+00 0.  1.
         25    1    1    2    0    0  0.10994414921E+03  0.41462124461E+02  0.11618749906E+03  0.20719883843E+03  0.12500000000E+03 0.  0.
         25    1    1    2    0    0 -0.10994414921E+03 -0.41462124461E+02  0.30259057496E+03  0.34784030785E+03  0.12500000000E+03 0.  0.
</event>
<event>
 4    0  0.2179527E-002  0.2109329E+03  0.7546771E-02  0.1140829E+00
         21   -1    0    0  502  501  0.00000000000E+00  0.00000000000E+00  0.62240918525E+03  0.62240918525E+03  0.00000000000E+00 0. -1.
         21   -1    0    0  501  502 -0.00000000000E+00 -0.00000000000E+00 -0.71484620165E+02  0.71484620165E+02  0.00000000000E+00 0. -1.
         25    1    1    2    0    0 -0.11063506151E+03  0.99518818218E+02  0.14059122993E+03  0.23986455751E+03  0.12500000000E+03 0.  0.
         25    1    1    2    0    0  0.11063506151E+03 -0.99518818218E+02  0.41033333515E+03  0.45402924791E+03  0.12500000000E+03 0.  0.
</event>
<event>
 4    0  0.2179527E-002  0.1838662E+03  0.7546771E-02  0.1164113E+00
         21   -1    0    0  502  501  0.00000000000E+00  0.00000000000E+00  0.25508492675E+03  0.25508492675E+03  0.00000000000E+00 0. -1.
         21   -1    0    0  501  502 -0.00000000000E+00 -0.00000000000E+00 -0.13253140272E+03  0.13253140272E+03  0.00000000000E+00 0. -1.
         25    1    1    2    0    0 -0.95626229626E+02 -0.92571707178E+02  0.84076570484E+02  0.20101683130E+03  0.12500000000E+03 0.  0.
         25    1    1    2    0    0  0.95626229626E+02  0.92571707178E+02  0.38476953547E+02  0.18659949817E+03  0.12500000000E+03 0.  0.
</event>
<event>
 4    0  0.2179527E-002  0.3331866E+03  0.7546771E-02  0.1069736E+00
         21   -1    0    0  502  501  0.00000000000E+00  0.00000000000E+00  0.65285533973E+03  0.65285533973E+03  0.00000000000E+00 0.  1.
         21   -1    0    0  501  502 -0.00000000000E+00 -0.00000000000E+00 -0.17004275451E+03  0.17004275451E+03  0.00000000000E+00 0.  1.
         25    1    1    2    0    0  0.15417676856E+03  0.24216476017E+03  0.38206502114E+03  0.49397664662E+03  0.12500000000E+03 0.  0.
         25    1    1    2    0    0 -0.15417676856E+03 -0.24216476017E+03  0.10074756409E+03  0.32892144762E+03  0.12500000000E+03 0.  0.
</event>
<event>
 4    0  0.2179527E-002  0.1856258E+03  0.7546771E-02  0.1162467E+00
         21   -1    0    0  502  501  0.00000000000E+00  0.00000000000E+00  0.11244180712E+03  0.11244180712E+03  0.00000000000E+00 0. -1.
         21   -1    0    0  501  502 -0.00000000000E+00 -0.00000000000E+00 -0.30644237335E+03  0.30644237335E+03  0.00000000000E+00 0. -1.
         25    1    1    2    0    0  0.96556171316E+02  0.99925255652E+01 -0.20644558848E+03  0.26013020929E+03  0.12500000000E+03 0.  0.
         25    1    1    2    0    0 -0.96556171316E+02 -0.99925255652E+01  0.12445022240E+02  0.15875397118E+03  0.12500000000E+03 0.  0.
</event>
<event>
 4    0  0.2179527E-002  0.3069825E+03  0.7546771E-02  0.1081801E+00
         21   -1    0    0  502  501  0.00000000000E+00  0.00000000000E+00  0.66773464010E+02  0.66773464010E+02  0.00000000000E+00 0. -1.
         21   -1    0    0  501  502 -0.00000000000E+00 -0.00000000000E+00 -0.14113127998E+04  0.14113127998E+04  0.00000000000E+00 0. -1.
         25    1    1    2    0    0  0.17638301357E+03 -0.21778370485E+03 -0.65176609167E+03  0.72039207923E+03  0.12500000000E+03 0.  0.
         25    1    1    2    0    0 -0.17638301357E+03  0.21778370485E+03 -0.69277324416E+03  0.75769418461E+03  0.12500000000E+03 0.  0.
</event>
<event>
 4    0  0.2179527E-002  0.1816870E+03  0.7546771E-02  0.1166180E+00
         21   -1    0    0  502  501  0.00000000000E+00  0.00000000000E+00  0.21738129565E+03  0.21738129565E+03  0.00000000000E+00 0.  1.
         21   -1    0    0  501  502 -0.00000000000E+00 -0.00000000000E+00 -0.15185367419E+03  0.15185367419E+03  0.00000000000E+00 0.  1.
         25    1    1    2    0    0  0.62029106921E+02 -0.55501361612E+02  0.13667336804E+03  0.20305817092E+03  0.12500000000E+03 0.  0.
         25    1    1    2    0    0 -0.62029106921E+02  0.55501361612E+02 -0.71145746578E+02  0.16617679893E+03  0.12500000000E+03 0.  0.
</event>
<event>
 4    0  0.2179527E-002  0.2235560E+03  0.7546771E-02  0.1131259E+00
         21   -1    0    0  502  501  0.00000000000E+00  0.00000000000E+00  0.66009971216E+02  0.66009971216E+02  0.00000000000E+00 0.  1.
         21   -1    0    0  501  502 -0.00000000000E+00 -0.00000000000E+00 -0.75711753264E+03  0.75711753264E+03  0.00000000000E+00 0.  1.
         25    1    1    2    0    0 -0.45272531769E+02  0.17944421922E+03 -0.32691733727E+03  0.39591637419E+03  0.12500000000E+03 0.  0.
         25    1    1    2    0    0  0.45272531769E+02 -0.17944421922E+03 -0.36419022416E+03  0.42721112967E+03  0.12500000000E+03 0.  0.
</event>
<event>
 4    0  0.2179527E-002  0.2038917E+03  0.7546771E-02  0.1146497E+00
         21   -1    0    0  502  501  0.00000000000E+00  0.00000000000E+00  0.38864389826E+02  0.38864389826E+02  0.00000000000E+00 0.  1.
         21   -1    0    0  501  502 -0.00000000000E+00 -0.00000000000E+00 -0.10696632390E+04  0.10696632390E+04  0.00000000000E+00 0.  1.
         25    1    1    2    0    0 -0.89593256812E+02 -0.89732656819E+02 -0.78544036025E+03  0.80536976655E+03  0.12500000000E+03 0.  0.
         25    1    1    2    0    0  0.89593256812E+02  0.89732656819E+02 -0.24535848887E+03  0.30315786222E+03  0.12500000000E+03 0.  0.
</event>
<event>
 4    0  0.2179527E-002  0.2328232E+03  0.7546771E-02  0.1124668E+00
         21   -1    0    0  502  501  0.00000000000E+00  0.00000000000E+00  0.59394439038E+02  0.59394439038E+02  0.00000000000E+00 0.  1.
         21   -1    0    0  501  502 -0.00000000000E+00 -0.00000000000E+00 -0.91265499174E+03  0.91265499174E+03  0.00000000000E+00 0.  1.
         25    1    1    2    0    0 -0.17298041246E+03  0.88058188141E+02 -0.36382506169E+03  0.43089458468E+03  0.12500000000E+03 0.  0.
         25    1    1    2    0    0  0.17298041246E+03 -0.88058188141E+02 -0.48943549101E+03  0.54115484610E+03  0.12500000000E+03 0.  0.
</event>
<event>
 4    0  0.2179527E-002  0.2714605E+03  0.7546771E-02  0.1100447E+00
         21   -1    0    0  502  501  0.00000000000E+00  0.00000000000E+00  0.29521028754E+03  0.29521028754E+03  0.00000000000E+00 0. -1.
         21   -1    0    0  501  502 -0.00000000000E+00 -0.00000000000E+00 -0.24962140298E+03  0.24962140298E+03  0.00000000000E+00 0. -1.
         25    1    1    2    0    0 -0.17638590925E+03  0.29822285670E+02  0.18480748588E+03  0.28597231429E+03  0.12500000000E+03 0.  0.
         25    1    1    2    0    0  0.17638590925E+03 -0.29822285670E+02 -0.13921860133E+03  0.25885937622E+03  0.12500000000E+03 0.  0.
</event>
<event>
 4    0  0.2179527E-002  0.1671380E+03  0.7546771E-02  0.1180866E+00
         21   -1    0    0  502  501  0.00000000000E+00  0.00000000000E+00  0.49284505218E+02  0.49284505218E+02  0.00000000000E+00 0.  1.
         21   -1    0    0  501  502 -0.00000000000E+00 -0.00000000000E+00 -0.56681343506E+03  0.56681343506E+03  0.00000000000E+00 0.  1.
         25    1    1    2    0    0  0.42294318390E+02 -0.18324059580E+02 -0.44477455564E+03  0.46429945711E+03  0.12500000000E+03 0.  0.
         25    1    1    2    0    0 -0.42294318390E+02  0.18324059580E+02 -0.72754374206E+02  0.15179848317E+03  0.12500000000E+03 0.  0.
</event>
<event>
 4    0  0.2179527E-002  0.2694159E+03  0.7546771E-02  0.1101614E+00
         21   -1    0    0  502  501  0.00000000000E+00  0.00000000000E+00  0.56007150070E+02  0.56007150070E+02  0.00000000000E+00 0.  1.
         21   -1    0    0  501  502 -0.00000000000E+00 -0.00000000000E+00 -0.12959939641E+04  0.12959939641E+04  0.00000000000E+00 0.  1.
         25    1    1    2    0    0  0.18133745330E+03  0.90523648924E+02 -0.93620525509E+03  0.96601401783E+03  0.12500000000E+03 0.  0.
         25    1    1    2    0    0 -0.18133745330E+03 -0.90523648924E+02 -0.30378155890E+03  0.38598709630E+03  0.12500000000E+03 0.  0.
</event>
<event>
 4    0  0.2179527E-002  0.1934957E+03  0.7546771E-02  0.1155346E+00
         21   -1    0    0  502  501  0.00000000000E+00  0.00000000000E+00  0.71259410439E+02  0.71259410439E+02  0.00000000000E+00 0.  1.
         21   -1    0    0  501  502 -0.00000000000E+00 -0.00000000000E+00 -0.52541246242E+03  0.52541246242E+03  0.00000000000E+00 0.  1.
         25    1    1    2    0    0  0.10777197173E+03 -0.24295232131E+02 -0.37822642254E+03  0.41338273174E+03  0.12500000000E+03 0.  0.
         25    1    1    2    0    0 -0.10777197173E+03  0.24295232131E+02 -0.75926629443E+02  0.18328914112E+03  0.12500000000E+03 0.  0.
</event>
<event>
 4    0  0.2179527E-002  0.2774736E+03  0.7546771E-02  0.1097077E+00
         21   -1    0    0  502  501  0.00000000000E+00  0.00000000000E+00  0.74073266453E+02  0.74073266453E+02  0.00000000000E+00 0.  1.
         21   -1    0    0  501  502 -0.00000000000E+00 -0.00000000000E+00 -0.10393980189E+04  0.10393980189E+04  0.00000000000E+00 0.  1.
         25    1    1    2    0    0  0.24424115102E+03  0.39357074608E+02 -0.45697617440E+03  0.53446697105E+03  0.12500000000E+03 0.  0.
         25    1    1    2    0    0 -0.24424115102E+03 -0.39357074608E+02 -0.50834857803E+03  0.57900431429E+03  0.12500000000E+03 0.  0.
</event>
<event>
 4    0  0.2179527E-002  0.2617731E+03  0.7546771E-02  0.1106083E+00
         21   -1    0    0  502  501  0.00000000000E+00  0.00000000000E+00  0.11766680605E+03  0.11766680605E+03  0.00000000000E+00 0.  1.
         21   -1    0    0  501  502 -0.00000000000E+00 -0.00000000000E+00 -0.58236627464E+03  0.58236627464E+03  0.00000000000E+00 0.  1.
         25    1    1    2    0    0 -0.18230192473E+03  0.13929221244E+02 -0.45767369951E+02  0.22615849999E+03  0.12500000000E+03 0.  0.
         25    1    1    2    0    0  0.18230192473E+03 -0.13929221244E+02 -0.41893209863E+03  0.47387458070E+03  0.12500000000E+03 0.  0.
</event>
<event>
 4    0  0.2179527E-002  0.2025768E+03  0.7546771E-02  0.1147583E+00
         21   -1    0    0  502  501  0.00000000000E+00  0.00000000000E+00  0.21618765569E+03  0.21618765569E+03  0.00000000000E+00 0. -1.
         21   -1    0    0  501  502 -0.00000000000E+00 -0.00000000000E+00 -0.18982288381E+03  0.18982288381E+03  0.00000000000E+00 0. -1.
         25    1    1    2    0    0  0.12796848197E+03  0.89551626789E+02  0.45139299088E+02  0.20508042949E+03  0.12500000000E+03 0.  0.
         25    1    1    2    0    0 -0.12796848197E+03 -0.89551626789E+02 -0.18774527204E+02  0.20093011001E+03  0.12500000000E+03 0.  0.
</event>
<event>
 4    0  0.2179527E-002  0.3128246E+03  0.7546771E-02  0.1079000E+00
         21   -1    0    0  502  501  0.00000000000E+00  0.00000000000E+00  0.29555831736E+04  0.29555831736E+04  0.00000000000E+00 0.  1.
         21   -1    0    0  501  502 -0.00000000000E+00 -0.00000000000E+00 -0.33109953669E+02  0.33109953669E+02  0.00000000000E+00 0.  1.
         25    1    1    2    0    0 -0.27835368720E+03 -0.34160257074E+02  0.11751567420E+04  0.12146053131E+04  0.12500000000E+03 0.  0.
         25    1    1    2    0    0  0.27835368720E+03  0.34160257074E+02  0.17473164779E+04  0.17740878142E+04  0.12500000000E+03 0.  0.
</event>
<event>
 4    0  0.2179527E-002  0.2244415E+03  0.7546771E-02  0.1130614E+00
         21   -1    0    0  502  501  0.00000000000E+00  0.00000000000E+00  0.13986099914E+04  0.13986099914E+04  0.00000000000E+00 0.  1.
         21   -1    0    0  501  502 -0.00000000000E+00 -0.00000000000E+00 -0.36017169892E+02  0.36017169892E+02  0.00000000000E+00 0.  1.
         25    1    1    2    0    0  0.15083953401E+03 -0.90976144105E+02  0.87621928905E+03  0.90244914888E+03  0.12500000000E+03 0.  0.
         25    1    1    2    0    0 -0.15083953401E+03  0.90976144105E+02  0.48637353246E+03  0.53217801241E+03  0.12500000000E+03 0.  0.
</event>
<event>
 4    0  0.2179527E-002  0.2320778E+03  0.7546771E-02  0.1125186E+00
         21   -1    0    0  502  501  0.00000000000E+00  0.00000000000E+00  0.11264090963E+03  0.11264090963E+03  0.00000000000E+00 0. -1.
         21   -1    0    0  501  502 -0.00000000000E+00 -0.00000000000E+00 -0.47815762792E+03  0.47815762792E+03  0.00000000000E+00 0. -1.
         25    1    1    2    0    0  0.30623179983E+02  0.55454595657E+02 -0.41822492219E+03  0.44107831149E+03  0.12500000000E+03 0.  0.
         25    1    1    2    0    0 -0.30623179983E+02 -0.55454595657E+02  0.52708203893E+02  0.14972022605E+03  0.12500000000E+03 0.  0.
</event>
<event>
 4    0  0.2179527E-002  0.1858794E+03  0.7546771E-02  0.1162231E+00
         21   -1    0    0  502  501  0.00000000000E+00  0.00000000000E+00  0.17503039868E+03  0.17503039868E+03  0.00000000000E+00 0. -1.
         21   -1    0    0  501  502 -0.00000000000E+00 -0.00000000000E+00 -0.19740088647E+03  0.19740088647E+03  0.00000000000E+00 0. -1.
         25    1    1    2    0    0 -0.11083197323E+03  0.73364132577E+02  0.24377328614E+02  0.18407953821E+03  0.12500000000E+03 0.  0.
         25    1    1    2    0    0  0.11083197323E+03 -0.73364132577E+02 -0.46747816404E+02  0.18835174695E+03  0.12500000000E+03 0.  0.
</event>
<event>
 4    0  0.2179527E-002  0.1868101E+03  0.7546771E-02  0.1161370E+00
         21   -1    0    0  502  501  0.00000000000E+00  0.00000000000E+00  0.12255622859E+03  0.12255622859E+03  0.00000000000E+00 0. -1.
         21   -1    0    0  501  502 -0.00000000000E+00 -0.00000000000E+00 -0.28475103756E+03  0.28475103756E+03  0.00000000000E+00 0. -1.
         25    1    1    2    0    0 -0.51572489091E+02 -0.38960031731E+02  0.52843809785E+02  0.15031657905E+03  0.12500000000E+03 0.  0.
         25    1    1    2    0    0  0.51572489091E+02  0.38960031731E+02 -0.21503861876E+03  0.25699068711E+03  0.12500000000E+03 0.  0.
</event>
<event>
 4    0  0.2179527E-002  0.2586000E+03  0.7546771E-02  0.1107987E+00
         21   -1    0    0  502  501  0.00000000000E+00  0.00000000000E+00  0.66446616459E+02  0.66446616459E+02  0.00000000000E+00 0.  1.
         21   -1    0    0  501  502 -0.00000000000E+00 -0.00000000000E+00 -0.10064316112E+04  0.10064316112E+04  0.00000000000E+00 0.  1.
         25    1    1    2    0    0  0.91660263721E+02  0.54068692981E+02 -0.88447729443E+03  0.89958329902E+03  0.12500000000E+03 0.  0.
         25    1    1    2    0    0 -0.91660263721E+02 -0.54068692981E+02 -0.55507700337E+02  0.17329492867E+03  0.12500000000E+03 0.  0.
</event>
<event>
 4    0  0.2179527E-002  0.1755360E+03  0.7546771E-02  0.1172195E+00
         21   -1    0    0  502  501  0.00000000000E+00  0.00000000000E+00  0.22996679021E+03  0.22996679021E+03  0.00000000000E+00 0. -1.
         21   -1    0    0  501  502 -0.00000000000E+00 -0.00000000000E+00 -0.13398849098E+03  0.13398849098E+03  0.00000000000E+00 0. -1.
         25    1    1    2    0    0 -0.77005564406E+02 -0.85283114982E+02  0.94175547653E+02  0.19415741146E+03  0.12500000000E+03 0.  0.
         25    1    1    2    0    0  0.77005564406E+02  0.85283114982E+02  0.18027515846E+01  0.16979786973E+03  0.12500000000E+03 0.  0.
</event>
<event>
 4    0  0.2179527E-002  0.1925109E+03  0.7546771E-02  0.1156216E+00
         21   -1    0    0  502  501  0.00000000000E+00  0.00000000000E+00  0.54367985040E+03  0.54367985040E+03  0.00000000000E+00 0. -1.
         21   -1    0    0  501  502 -0.00000000000E+00 -0.00000000000E+00 -0.68165915443E+02  0.68165915443E+02  0.00000000000E+00 0. -1.
         25    1    1    2    0    0  0.12246791428E+02 -0.12944978880E+02  0.46868776233E+03  0.48539754319E+03  0.12500000000E+03 0.  0.
         25    1    1    2    0    0 -0.12246791428E+02  0.12944978880E+02  0.68261726259E+01  0.12644822265E+03  0.12500000000E+03 0.  0.
</event>
<event>
 4    0  0.2179527E-002  0.1973447E+03  0.7546771E-02  0.1151999E+00
         21   -1    0    0  502  501  0.00000000000E+00  0.00000000000E+00  0.29860819868E+03  0.29860819868E+03  0.00000000000E+00 0.  1.
         21   -1    0    0  501  502 -0.00000000000E+00 -0.00000000000E+00 -0.13042156703E+03  0.13042156703E+03  0.00000000000E+00 0.  1.
         25    1    1    2    0    0  0.91815819959E+02 -0.94199969380E+02  0.16840580550E+03  0.24756674726E+03  0.12500000000E+03 0.  0.
         25    1    1    2    0    0 -0.91815819959E+02  0.94199969380E+02 -0.21917385102E+00  0.18146301845E+03  0.12500000000E+03 0.  0.
</event>
<event>
 4    0  0.2179527E-002  0.2300253E+03  0.7546771E-02  0.1126622E+00
         21   -1    0    0  502  501  0.00000000000E+00  0.00000000000E+00  0.14730916021E+04  0.14730916021E+04  0.00000000000E+00 0. -1.
         21   -1    0    0  501  502 -0.00000000000E+00 -0.00000000000E+00 -0.35918766286E+02  0.35918766286E+02  0.00000000000E+00 0. -1.
         25    1    1    2    0    0  0.15662601325E+03 -0.10728715425E+03  0.60287794550E+03  0.64430509750E+03  0.12500000000E+03 0.  0.
         25    1    1    2    0    0 -0.15662601325E+03  0.10728715425E+03  0.83429489027E+03  0.86470527084E+03  0.12500000000E+03 0.  0.
</event>
<event>
 4    0  0.2179527E-002  0.3046353E+03  0.7546771E-02  0.1082946E+00
         21   -1    0    0  502  501  0.00000000000E+00  0.00000000000E+00  0.14748831799E+03  0.14748831799E+03  0.00000000000E+00 0.  1.
         21   -1    0    0  501  502 -0.00000000000E+00 -0.00000000000E+00 -0.62922042568E+03  0.62922042568E+03  0.00000000000E+00 0.  1.
         25    1    1    2    0    0 -0.13153116208E+03 -0.54890719803E+02 -0.54486182443E+03  0.57689933735E+03  0.12500000000E+03 0.  0.
         25    1    1    2    0    0  0.13153116208E+03  0.54890719803E+02  0.63129716735E+02  0.19980940632E+03  0.12500000000E+03 0.  0.
</event>
<event>
 4    0  0.2179527E-002  0.3572131E+03  0.7546771E-02  0.1059693E+00
         21   -1    0    0  502  501  0.00000000000E+00  0.00000000000E+00  0.69036650484E+02  0.69036650484E+02  0.00000000000E+00 0. -1.
         21   -1    0    0  501  502 -0.00000000000E+00 -0.00000000000E+00 -0.18483107075E+04  0.18483107075E+04  0.00000000000E+00 0. -1.
         25    1    1    2    0    0  0.99527991714E+02  0.19647513706E+02 -0.17454334831E+04  0.17528419466E+04  0.12500000000E+03 0.  0.
         25    1    1    2    0    0 -0.99527991714E+02 -0.19647513706E+02 -0.33840573941E+02  0.16450541138E+03  0.12500000000E+03 0.  0.
</event>
<event>
 4    0  0.2179527E-002  0.2624836E+03  0.7546771E-02  0.1105660E+00
         21   -1    0    0  502  501  0.00000000000E+00  0.00000000000E+00  0.34028596863E+02  0.34028596863E+02  0.00000000000E+00 0. -1.
         21   -1    0    0  501  502 -0.00000000000E+00 -0.00000000000E+00 -0.20246986683E+04  0.20246986683E+04  0.00000000000E+00 0. -1.
         25    1    1    2    0    0 -0.19278543286E+02 -0.12031055065E+03 -0.22659190717E+03  0.28603353514E+03  0.12500000000E+03 0.  0.
         25    1    1    2    0    0  0.19278543286E+02  0.12031055065E+03 -0.17640781642E+04  0.17726937300E+04  0.12500000000E+03 0.  0.
</event>
<event>
 4    0  0.2179527E-002  0.1789828E+03  0.7546771E-02  0.1168791E+00
         21   -1    0    0  502  501  0.00000000000E+00  0.00000000000E+00  0.17497161472E+03  0.17497161472E+03  0.00000000000E+00 0. -1.
         21   -1    0    0  501  502 -0.00000000000E+00 -0.00000000000E+00 -0.18308603206E+03  0.18308603206E+03  0.00000000000E+00 0. -1.
         25    1    1    2    0    0  0.76675755077E+02 -0.86356908154E+02  0.51393226791E+02  0.17777218782E+03  0.12500000000E+03 0.  0.
         25    1    1    2    0    0 -0.76675755077E+02  0.86356908154E+02 -0.59507644130E+02  0.18028545896E+03  0.12500000000E+03 0.  0.
</event>
<event>
 4    0  0.2179527E-002  0.2321090E+03  0.7546771E-02  0.1125164E+00
         21   -1    0    0  502  501  0.00000000000E+00  0.00000000000E+00  0.23088718593E+03  0.23088718593E+03  0.00000000000E+00 0. -1.
         21   -1    0    0  501  502 -0.00000000000E+00 -0.00000000000E+00 -0.23333737021E+03  0.23333737021E+03  0.00000000000E+00 0. -1.
         25    1    1    2    0    0  0.91672689777E+02 -0.13452909747E+03 -0.10961317234E+03  0.23268435201E+03  0.12500000000E+03 0.  0.
         25    1    1    2    0    0 -0.91672689777E+02  0.13452909747E+03  0.10716298806E+03  0.23154020413E+03  0.12500000000E+03 0.  0.
</event>
<event>
 4    0  0.2179527E-002  0.2472720E+03  0.7546771E-02  0.1115041E+00
         21   -1    0    0  502  501  0.00000000000E+00  0.00000000000E+00  0.59123844453E+03  0.59123844453E+03  0.00000000000E+00 0.  1.
         21   -1    0    0  501  502 -0.00000000000E+00 -0.00000000000E+00 -0.10341590864E+03  0.10341590864E+03  0.00000000000E+00 0.  1.
         25    1    1    2    0    0 -0.60913949907E+02 -0.19095384763E+03  0.14122306879E+03  0.27521416456E+03  0.12500000000E+03 0.  0.
         25    1    1    2    0    0  0.60913949907E+02  0.19095384763E+03  0.34659946710E+03  0.41944018860E+03  0.12500000000E+03 0.  0.
</event>
<event>
 4    0  0.2179527E-002  0.2450075E+03  0.7546771E-02  0.1116501E+00
         21   -1    0    0  502  501  0.00000000000E+00  0.00000000000E+00  0.68074710060E+02  0.68074710060E+02  0.00000000000E+00 0. -1.
         21   -1    0    0  501  502 -0.00000000000E+00 -0.00000000000E+00 -0.88180595644E+03  0.88180595644E+03  0.00000000000E+00 0. -1.
         25    1    1    2    0    0  0.18210468174E+03 -0.10375643152E+03 -0.36456547900E+03  0.43870320340E+03  0.12500000000E+03 0.  0.
         25    1    1    2    0    0 -0.18210468174E+03  0.10375643152E+03 -0.44916576738E+03  0.51117746310E+03  0.12500000000E+03 0.  0.
</event>
<event>
 4    0  0.2179527E-002  0.2043492E+03  0.7546771E-02  0.1146121E+00
         21   -1    0    0  502  501  0.00000000000E+00  0.00000000000E+00  0.10329673388E+03  0.10329673388E+03  0.00000000000E+00 0.  1.
         21   -1    0    0  501  502 -0.00000000000E+00 -0.00000000000E+00 -0.40425879418E+03  0.40425879418E+03  0.00000000000E+00 0.  1.
         25    1    1    2    0    0 -0.11183244848E+03 -0.89538496977E+02 -0.57464322834E+02  0.19862222275E+03  0.12500000000E+03 0.  0.
         25    1    1    2    0    0  0.11183244848E+03  0.89538496977E+02 -0.24349773747E+03  0.30893330530E+03  0.12500000000E+03 0.  0.
</event>
<event>
 4    0  0.2179527E-002  0.3198404E+03  0.7546771E-02  0.1075723E+00
         21   -1    0    0  502  501  0.00000000000E+00  0.00000000000E+00  0.65404891472E+03  0.65404891472E+03  0.00000000000E+00 0. -1.
         21   -1    0    0  501  502 -0.00000000000E+00 -0.00000000000E+00 -0.15640709396E+03  0.15640709396E+03  0.00000000000E+00 0. -1.
         25    1    1    2    0    0 -0.56224422187E+01 -0.17161329614E+03 -0.54168010716E+02  0.21918464511E+03  0.12500000000E+03 0.  0.
         25    1    1    2    0    0  0.56224422187E+01  0.17161329614E+03  0.55180983148E+03  0.59127136357E+03  0.12500000000E+03 0.  0.
</event>
<event>
 4    0  0.2179527E-002  0.2897475E+03  0.7546771E-02  0.1090481E+00
         21   -1    0    0  502  501  0.00000000000E+00  0.00000000000E+00  0.10477996316E+03  0.10477996316E+03  0.00000000000E+00 0. -1.
         21   -1    0    0  501  502 -0.00000000000E+00 -0.00000000000E+00 -0.80123736234E+03  0.80123736234E+03  0.00000000000E+00 0. -1.
         25    1    1    2    0    0  0.96649782002E+02  0.18893517142E+03 -0.58683412611E+03  0.63642514951E+03  0.12500000000E+03 0.  0.
         25    1    1    2    0    0 -0.96649782002E+02 -0.18893517142E+03 -0.10962327307E+03  0.26959217600E+03  0.12500000000E+03 0.  0.
</event>
<event>
 4    0  0.2179527E-002  0.1995673E+03  0.7546771E-02  0.1150105E+00
         21   -1    0    0  502  501  0.00000000000E+00  0.00000000000E+00  0.82971892647E+02  0.82971892647E+02  0.00000000000E+00 0. -1.
         21   -1    0    0  501  502 -0.00000000000E+00 -0.00000000000E+00 -0.48000698885E+03  0.48000698885E+03  0.00000000000E+00 0. -1.
         25    1    1    2    0    0 -0.20963295939E+02  0.13990669749E+03 -0.28980577426E+03  0.34586952826E+03  0.12500000000E+03 0.  0.
         25    1    1    2    0    0  0.20963295939E+02 -0.13990669749E+03 -0.10722932194E+03  0.21710935324E+03  0.12500000000E+03 0.  0.
</event>
<event>
 4    0  0.2179527E-002  0.3533318E+03  0.7546771E-02  0.1061256E+00
         21   -1    0    0  502  501  0.00000000000E+00  0.00000000000E+00  0.25056727533E+03  0.25056727533E+03  0.00000000000E+00 0. -1.
         21   -1    0    0  501  502 -0.00000000000E+00 -0.00000000000E+00 -0.49824291294E+03  0.49824291294E+03  0.00000000000E+00 0. -1.
         25    1    1    2    0    0 -0.24201502423E+03  0.22411830333E+03 -0.10217123594E+03  0.36723867892E+03  0.12500000000E+03 0.  0.
         25    1    1    2    0    0  0.24201502423E+03 -0.22411830333E+03 -0.14550440168E+03  0.38157150935E+03  0.12500000000E+03 0.  0.
</event>
<event>
 4    0  0.2179527E-002  0.1893238E+03  0.7546771E-02  0.1159073E+00
         21   -1    0    0  502  501  0.00000000000E+00  0.00000000000E+00  0.49986117847E+03  0.49986117847E+03  0.00000000000E+00 0. -1.
         21   -1    0    0  501  502 -0.00000000000E+00 -0.00000000000E+00 -0.71706893454E+02  0.71706893454E+02  0.00000000000E+00 0. -1.
         25    1    1    2    0    0  0.12059247018E+03 -0.81213174144E+01  0.32713843640E+03  0.37047679581E+03  0.12500000000E+03 0.  0.
         25    1    1    2    0    0 -0.12059247018E+03  0.81213174144E+01  0.10101584862E+03  0.20109127612E+03  0.12500000000E+03 0.  0.
</event>
<event>
 4    0  0.2179527E-002  0.2394949E+03  0.7546771E-02  0.1120130E+00
         21   -1    0    0  502  501  0.00000000000E+00  0.00000000000E+00  0.30676214982E+04  0.30676214982E+04  0.00000000000E+00 0. -1.
         21   -1    0    0  501  502 -0.00000000000E+00 -0.00000000000E+00 -0.18697812374E+02  0.18697812374E+02  0.00000000000E+00 0. -1.
         25    1    1    2    0    0 -0.10157633252E+03  0.13155266084E+03  0.22898152767E+04  0.22992396254E+04  0.12500000000E+03 0.  0.
         25    1    1    2    0    0  0.10157633252E+03 -0.13155266084E+03  0.75910840915E+03  0.78707968513E+03  0.12500000000E+03 0.  0.
</event>
<event>
 4    0  0.2179527E-002  0.3095639E+03  0.7546771E-02  0.1080555E+00
         21   -1    0    0  502  501  0.00000000000E+00  0.00000000000E+00  0.35022957282E+03  0.35022957282E+03  0.00000000000E+00 0. -1.
         21   -1    0    0  501  502 -0.00000000000E+00 -0.00000000000E+00 -0.27361993892E+03  0.27361993892E+03  0.00000000000E+00 0. -1.
         25    1    1    2    0    0  0.14157439921E+02  0.37779460989E+02  0.32075866188E+03  0.34661050179E+03  0.12500000000E+03 0.  0.
         25    1    1    2    0    0 -0.14157439921E+02 -0.37779460989E+02 -0.24414902798E+03  0.27723900996E+03  0.12500000000E+03 0.  0.
</event>
<event>
 4    0  0.2179527E-002  0.3580819E+03  0.7546771E-02  0.1059346E+00
         21   -1    0    0  502  501  0.00000000000E+00  0.00000000000E+00  0.19876205365E+03  0.19876205365E+03  0.00000000000E+00 0.  1.
         21   -1    0    0  501  502 -0.00000000000E+00 -0.00000000000E+00 -0.64510644517E+03  0.64510644517E+03  0.00000000000E+00 0.  1.
         25    1    1    2    0    0 -0.30510533402E+03  0.77275604267E+01 -0.38749871665E+03  0.50885089706E+03  0.12500000000E+03 0.  0.
         25    1    1    2    0    0  0.30510533402E+03 -0.77275604267E+01 -0.58845674876E+02  0.33501760176E+03  0.12500000000E+03 0.  0.
</event>
<event>
 4    0  0.2179527E-002  0.2206542E+03  0.7546771E-02  0.1133396E+00
         21   -1    0    0  502  501  0.00000000000E+00  0.00000000000E+00  0.71315775003E+02  0.71315775003E+02  0.00000000000E+00 0. -1.
         21   -1    0    0  501  502 -0.00000000000E+00 -0.00000000000E+00 -0.68271373678E+03  0.68271373678E+03  0.00000000000E+00 0. -1.
         25    1    1    2    0    0 -0.95225622484E+02 -0.15342489302E+03 -0.34219087313E+03  0.40660387434E+03  0.12500000000E+03 0.  0.
         25    1    1    2    0    0  0.95225622484E+02  0.15342489302E+03 -0.26920708865E+03  0.34742563745E+03  0.12500000000E+03 0.  0.
</event>
<event>
 4    0  0.2179527E-002  0.1660798E+03  0.7546771E-02  0.1181999E+00
         21   -1    0    0  502  501  0.00000000000E+00  0.00000000000E+00  0.31539924327E+03  0.31539924327E+03  0.00000000000E+00 0. -1.
         21   -1    0    0  501  502 -0.00000000000E+00 -0.00000000000E+00 -0.87452701838E+02  0.87452701838E+02  0.00000000000E+00 0. -1.
         25    1    1    2    0    0 -0.75608850015E+02  0.75977703930E+02  0.14021649249E+03  0.21627522850E+03  0.12500000000E+03 0.  0.
         25    1    1    2    0    0  0.75608850015E+02 -0.75977703930E+02  0.87730048947E+02  0.18657671662E+03  0.12500000000E+03 0.  0.
</event>
<event>
 4    0  0.2179527E-002  0.1978582E+03  0.7546771E-02  0.1151559E+00
         21   -1    0    0  502  501  0.00000000000E+00  0.00000000000E+00  0.38827170147E+02  0.38827170147E+02  0.00000000000E+00 0.  1.
         21   -1    0    0  501  502 -0.00000000000E+00 -0.00000000000E+00 -0.10082594534E+04  0.10082594534E+04  0.00000000000E+00 0. -1.
         25    1    1    2    0    0  0.93622268264E+01 -0.14390383977E+03 -0.34654008335E+03  0.39561470620E+03  0.12500000000E+03 0.  0.
         25    1    1    2    0    0 -0.93622268264E+01  0.14390383977E+03 -0.62289219989E+03  0.65147191734E+03  0.12500000000E+03 0.  0.
</event>
<event>
 4    0  0.2179527E-002  0.2126263E+03  0.7546771E-02  0.1139503E+00
         21   -1    0    0  502  501  0.00000000000E+00  0.00000000000E+00  0.35785327812E+03  0.35785327812E+03  0.00000000000E+00 0. -1.
         21   -1    0    0  501  502 -0.00000000000E+00 -0.00000000000E+00 -0.12633657355E+03  0.12633657355E+03  0.00000000000E+00 0. -1.
         25    1    1    2    0    0 -0.66738109636E+02  0.15541238336E+03  0.80151627219E+02  0.22506947266E+03  0.12500000000E+03 0.  0.
         25    1    1    2    0    0  0.66738109636E+02 -0.15541238336E+03  0.15136507735E+03  0.25912037902E+03  0.12500000000E+03 0.  0.
</event>
<event>
 4    0  0.2179527E-002  0.2072692E+03  0.7546771E-02  0.1143747E+00
         21   -1    0    0  502  501  0.00000000000E+00  0.00000000000E+00  0.50790563648E+03  0.50790563648E+03  0.00000000000E+00 0. -1.
         21   -1    0    0  501  502 -0.00000000000E+00 -0.00000000000E+00 -0.84583648977E+02  0.84583648977E+02  0.00000000000E+00 0. -1.
         25    1    1    2    0    0 -0.22211214781E+02  0.66315427448E+02 -0.24653735673E+01  0.14325554805E+03  0.12500000000E+03 0.  0.
         25    1    1    2    0    0  0.22211214781E+02 -0.66315427448E+02  0.42578736107E+03  0.44923373741E+03  0.12500000000E+03 0.  0.
</event>
<event>
 4    0  0.2179527E-002  0.2328059E+03  0.7546771E-02  0.1124680E+00
         21   -1    0    0  502  501  0.00000000000E+00  0.00000000000E+00  0.42446049960E+02  0.42446049960E+02  0.00000000000E+00 0. -1.
         21   -1    0    0  501  502 -0.00000000000E+00 -0.00000000000E+00 -0.12768815045E+04  0.12768815045E+04  0.00000000000E+00 0. -1.
         25    1    1    2    0    0  0.20115375934E+02 -0.19039626607E+03 -0.49311631205E+03  0.54354766460E+03  0.12500000000E+03 0.  0.
         25    1    1    2    0    0 -0.20115375934E+02  0.19039626607E+03 -0.74131914247E+03  0.77577988984E+03  0.12500000000E+03 0.  0.
</event>
<event>
 4    0  0.2179527E-002  0.1698006E+03  0.7546771E-02  0.1178056E+00
         21   -1    0    0  502  501  0.00000000000E+00  0.00000000000E+00  0.26597736903E+03  0.26597736903E+03  0.00000000000E+00 0. -1.
         21   -1    0    0  501  502 -0.00000000000E+00 -0.00000000000E+00 -0.10840112127E+03  0.10840112127E+03  0.00000000000E+00 0. -1.
         25    1    1    2    0    0 -0.16075960290E+02  0.10527423360E+03  0.12641085205E+03  0.20723369484E+03  0.12500000000E+03 0.  0.
         25    1    1    2    0    0  0.16075960290E+02 -0.10527423360E+03  0.31165395716E+02  0.16714479546E+03  0.12500000000E+03 0.  0.
</event>
<event>
 4    0  0.2179527E-002  0.1917148E+03  0.7546771E-02  0.1156924E+00
         21   -1    0    0  502  501  0.00000000000E+00  0.00000000000E+00  0.24632779843E+02  0.24632779843E+02  0.00000000000E+00 0.  1.
         21   -1    0    0  501  502 -0.00000000000E+00 -0.00000000000E+00 -0.14920992277E+04  0.14920992277E+04  0.00000000000E+00 0.  1.
         25    1    1    2    0    0  0.29238792189E+02 -0.90058543665E+02 -0.11700112550E+04  0.11804731192E+04  0.12500000000E+03 0.  0.
         25    1    1    2    0    0 -0.29238792189E+02  0.90058543665E+02 -0.29745519291E+03  0.33625888842E+03  0.12500000000E+03 0.  0.
</event>
<event>
 4    0  0.2179527E-002  0.2771297E+03  0.7546771E-02  0.1097267E+00
         21   -1    0    0  502  501  0.00000000000E+00  0.00000000000E+00  0.28520563603E+03  0.28520563603E+03  0.00000000000E+00 0. -1.
         21   -1    0    0  501  502 -0.00000000000E+00 -0.00000000000E+00 -0.26928247473E+03  0.26928247473E+03  0.00000000000E+00 0. -1.
         25    1    1    2    0    0 -0.13894436103E+03  0.15997594007E+03 -0.11967649172E+03  0.27357868984E+03  0.12500000000E+03 0.  0.
         25    1    1    2    0    0  0.13894436103E+03 -0.15997594007E+03  0.13559965302E+03  0.28090942092E+03  0.12500000000E+03 0.  0.
</event>
<event>
 4    0  0.2179527E-002  0.5961286E+03  0.7546771E-02  0.9913471E-01
         21   -1    0    0  502  501  0.00000000000E+00  0.00000000000E+00  0.85484955417E+03  0.85484955417E+03  0.00000000000E+00 0.  1.
         21   -1    0    0  501  502 -0.00000000000E+00 -0.00000000000E+00 -0.41570981961E+03  0.41570981961E+03  0.00000000000E+00 0.  1.
         25    1    1    2    0    0 -0.21030371251E+03 -0.12706235853E+03  0.78283946610E+03  0.82996091723E+03  0.12500000000E+03 0.  0.
         25    1    1    2    0    0  0.21030371251E+03  0.12706235853E+03 -0.34369973154E+03  0.44059845654E+03  0.12500000000E+03 0.  0.
</event>
<event>
 4    0  0.2179527E-002  0.1839707E+03  0.7546771E-02  0.1164015E+00
         21   -1    0    0  502  501  0.00000000000E+00  0.00000000000E+00  0.24595230951E+02  0.24595230951E+02  0.00000000000E+00 0. -1.
         21   -1    0    0  501  502 -0.00000000000E+00 -0.00000000000E+00 -0.13760880777E+04  0.13760880777E+04  0.00000000000E+00 0. -1.
         25    1    1    2    0    0 -0.84243551284E+01 -0.35354466027E+02 -0.18087121654E+03  0.22284592211E+03  0.12500000000E+03 0.  0.
         25    1    1    2    0    0  0.84243551284E+01  0.35354466027E+02 -0.11706216302E+04  0.11778373866E+04  0.12500000000E+03 0.  0.
</event>
<event>
 4    0  0.2179527E-002  0.1532327E+03  0.7546771E-02  0.1196556E+00
         21   -1    0    0  502  501  0.00000000000E+00  0.00000000000E+00  0.15042137886E+03  0.15042137886E+03  0.00000000000E+00 0. -1.
         21   -1    0    0  501  502 -0.00000000000E+00 -0.00000000000E+00 -0.15609662595E+03  0.15609662595E+03  0.00000000000E+00 0. -1.
         25    1    1    2    0    0 -0.43342216553E+02  0.52575763201E+02 -0.59526359347E+02  0.15430860659E+03  0.12500000000E+03 0.  0.
         25    1    1    2    0    0  0.43342216553E+02 -0.52575763201E+02  0.53851112260E+02  0.15220939821E+03  0.12500000000E+03 0.  0.
</event>
<event>
 4    0  0.2179527E-002  0.2160198E+03  0.7546771E-02  0.1136886E+00
         21   -1    0    0  502  501  0.00000000000E+00  0.00000000000E+00  0.14242604948E+03  0.14242604948E+03  0.00000000000E+00 0. -1.
         21   -1    0    0  501  502 -0.00000000000E+00 -0.00000000000E+00 -0.32764052339E+03  0.32764052339E+03  0.00000000000E+00 0. -1.
         25    1    1    2    0    0  0.98830594329E+02  0.89691367875E+02  0.32526676469E+02  0.18572832990E+03  0.12500000000E+03 0.  0.
         25    1    1    2    0    0 -0.98830594329E+02 -0.89691367875E+02 -0.21774115038E+03  0.28433824297E+03  0.12500000000E+03 0.  0.
</event>
<event>
 4    0  0.2179527E-002  0.2039809E+03  0.7546771E-02  0.1146423E+00
         21   -1    0    0  502  501  0.00000000000E+00  0.00000000000E+00  0.68842983564E+03  0.68842983564E+03  0.00000000000E+00 0. -1.
         21   -1    0    0  501  502 -0.00000000000E+00 -0.00000000000E+00 -0.60439312228E+02  0.60439312228E+02  0.00000000000E+00 0. -1.
         25    1    1    2    0    0  0.15981560667E+03 -0.18738999526E+02  0.33151067786E+03  0.38912274127E+03  0.12500000000E+03 0.  0.
         25    1    1    2    0    0 -0.15981560667E+03  0.18738999526E+02  0.29647984555E+03  0.35974640660E+03  0.12500000000E+03 0.  0.
</event>
<event>
 4    0  0.2179527E-002  0.1729839E+03  0.7546771E-02  0.1174771E+00
         21   -1    0    0  502  501  0.00000000000E+00  0.00000000000E+00  0.90437290547E+03  0.90437290547E+03  0.00000000000E+00 0.  1.
         21   -1    0    0  501  502 -0.00000000000E+00 -0.00000000000E+00 -0.33087491836E+02  0.33087491836E+02  0.00000000000E+00 0.  1.
         25    1    1    2    0    0 -0.64150505369E+02 -0.14481240554E+01  0.16223329860E+03  0.21462065971E+03  0.12500000000E+03 0.  0.
         25    1    1    2    0    0  0.64150505369E+02  0.14481240554E+01  0.70905211504E+03  0.72283973759E+03  0.12500000000E+03 0.  0.
</event>
<event>
 4    0  0.2179527E-002  0.1505022E+03  0.7546771E-02  0.1199857E+00
         21   -1    0    0  502  501  0.00000000000E+00  0.00000000000E+00  0.16344330756E+03  0.16344330756E+03  0.00000000000E+00 0.  1.
         21   -1    0    0  501  502 -0.00000000000E+00 -0.00000000000E+00 -0.13858582857E+03  0.13858582857E+03  0.00000000000E+00 0.  1.
         25    1    1    2    0    0 -0.45816123099E+02  0.40689628489E+02  0.69817516298E+02  0.15573775581E+03  0.12500000000E+03 0.  0.
         25    1    1    2    0    0  0.45816123099E+02 -0.40689628489E+02 -0.44960037309E+02  0.14629138032E+03  0.12500000000E+03 0.  0.
</event>
<event>
 4    0  0.2179527E-002  0.1848478E+03  0.7546771E-02  0.1163192E+00
         21   -1    0    0  502  501  0.00000000000E+00  0.00000000000E+00  0.28936830001E+02  0.28936830001E+02  0.00000000000E+00 0.  1.
         21   -1    0    0  501  502 -0.00000000000E+00 -0.00000000000E+00 -0.11808037109E+04  0.11808037109E+04  0.00000000000E+00 0.  1.
         25    1    1    2    0    0 -0.88363611148E+02 -0.18916663379E+02 -0.90928268495E+03  0.92227217733E+03  0.12500000000E+03 0.  0.
         25    1    1    2    0    0  0.88363611148E+02  0.18916663379E+02 -0.24258419594E+03  0.28746836356E+03  0.12500000000E+03 0.  0.
</event>
<event>
 4    0  0.2179527E-002  0.2302496E+03  0.7546771E-02  0.1126464E+00
         21   -1    0    0  502  501  0.00000000000E+00  0.00000000000E+00  0.10918149618E+03  0.10918149618E+03  0.00000000000E+00 0.  1.
         21   -1    0    0  501  502 -0.00000000000E+00 -0.00000000000E+00 -0.48556648583E+03  0.48556648583E+03  0.00000000000E+00 0.  1.
         25    1    1    2    0    0  0.82868131997E+01 -0.25393636785E+02 -0.43553415183E+03  0.45390363016E+03  0.12500000000E+03 0.  0.
         25    1    1    2    0    0 -0.82868131997E+01  0.25393636785E+02  0.59149162175E+02  0.14084435185E+03  0.12500000000E+03 0.  0.
</event>
<event>
 4    0  0.2179527E-002  0.2123164E+03  0.7546771E-02  0.1139745E+00
         21   -1    0    0  502  501  0.00000000000E+00  0.00000000000E+00  0.80904000092E+02  0.80904000092E+02  0.00000000000E+00 0.  1.
         21   -1    0    0  501  502 -0.00000000000E+00 -0.00000000000E+00 -0.55718187477E+03  0.55718187477E+03  0.00000000000E+00 0.  1.
         25    1    1    2    0    0 -0.14706776773E+02 -0.29000230767E+01  0.18764095550E+02  0.12728625495E+03  0.12500000000E+03 0.  0.
         25    1    1    2    0    0  0.14706776773E+02  0.29000230767E+01 -0.49504197023E+03  0.51079961992E+03  0.12500000000E+03 0.  0.
</event>
<event>
 4    0  0.2179527E-002  0.2923037E+03  0.7546771E-02  0.1089152E+00
         21   -1    0    0  502  501  0.00000000000E+00  0.00000000000E+00  0.70771603251E+03  0.70771603251E+03  0.00000000000E+00 0. -1.
         21   -1    0    0  501  502 -0.00000000000E+00 -0.00000000000E+00 -0.12072841679E+03  0.12072841679E+03  0.00000000000E+00 0. -1.
         25    1    1    2    0    0 -0.21820785571E+02 -0.19256710531E+03  0.54801221002E+03  0.59455918046E+03  0.12500000000E+03 0.  0.
         25    1    1    2    0    0  0.21820785571E+02  0.19256710531E+03  0.38975405702E+02  0.23388526884E+03  0.12500000000E+03 0.  0.
</event>
<event>
 4    0  0.2179527E-002  0.2192919E+03  0.7546771E-02  0.1134412E+00
         21   -1    0    0  502  501  0.00000000000E+00  0.00000000000E+00  0.23652982751E+02  0.23652982751E+02  0.00000000000E+00 0. -1.
         21   -1    0    0  501  502 -0.00000000000E+00 -0.00000000000E+00 -0.20331017821E+04  0.20331017821E+04  0.00000000000E+00 0. -1.
         25    1    1    2    0    0  0.66180426786E+02  0.84145848663E+02 -0.32508845962E+03  0.36437326921E+03  0.12500000000E+03 0.  0.
         25    1    1    2    0    0 -0.66180426786E+02 -0.84145848663E+02 -0.16843603398E+04  0.16923814957E+04  0.12500000000E+03 0.  0.
</event>
<event>
 4    0  0.2179527E-002  0.2172752E+03  0.7546771E-02  0.1135931E+00
         21   -1    0    0  502  501  0.00000000000E+00  0.00000000000E+00  0.47494960221E+02  0.47494960221E+02  0.00000000000E+00 0. -1.
         21   -1    0    0  501  502 -0.00000000000E+00 -0.00000000000E+00 -0.99396878319E+03  0.99396878319E+03  0.00000000000E+00 0. -1.
         25    1    1    2    0    0 -0.13845157606E+03 -0.23666829957E+02 -0.21229336496E+03  0.28358848806E+03  0.12500000000E+03 0.  0.
         25    1    1    2    0    0  0.13845157606E+03  0.23666829957E+02 -0.73418045801E+03  0.75787525535E+03  0.12500000000E+03 0.  0.
</event>
<event>
 4    0  0.2179527E-002  0.3045062E+03  0.7546771E-02  0.1083009E+00
         21   -1    0    0  502  501  0.00000000000E+00  0.00000000000E+00  0.20349017120E+04  0.20349017120E+04  0.00000000000E+00 0.  1.
         21   -1    0    0  501  502 -0.00000000000E+00 -0.00000000000E+00 -0.45566840286E+02  0.45566840286E+02  0.00000000000E+00 0.  1.
         25    1    1    2    0    0  0.19557593631E+03 -0.16772826350E+03  0.13483046032E+04  0.13783805789E+04  0.12500000000E+03 0.  0.
         25    1    1    2    0    0 -0.19557593631E+03  0.16772826350E+03  0.64103026848E+03  0.70208797337E+03  0.12500000000E+03 0.  0.
</event>
<event>
 4    0  0.2179527E-002  0.1947303E+03  0.7546771E-02  0.1154263E+00
         21   -1    0    0  502  501  0.00000000000E+00  0.00000000000E+00  0.20427736449E+03  0.20427736449E+03  0.00000000000E+00 0.  1.
         21   -1    0    0  501  502 -0.00000000000E+00 -0.00000000000E+00 -0.18562942348E+03  0.18562942348E+03  0.00000000000E+00 0.  1.
         25    1    1    2    0    0 -0.11859769876E+03  0.60776762117E+01 -0.81292361291E+02  0.19061951711E+03  0.12500000000E+03 0.  0.
         25    1    1    2    0    0  0.11859769876E+03 -0.60776762117E+01  0.99940302303E+02  0.19928727085E+03  0.12500000000E+03 0.  0.
</event>
<event>
 4    0  0.2179527E-002  0.1985303E+03  0.7546771E-02  0.1150985E+00
         21   -1    0    0  502  501  0.00000000000E+00  0.00000000000E+00  0.14512360989E+03  0.14512360989E+03  0.00000000000E+00 0. -1.
         21   -1    0    0  501  502 -0.00000000000E+00 -0.00000000000E+00 -0.27159101345E+03  0.27159101345E+03  0.00000000000E+00 0. -1.
         25    1    1    2    0    0 -0.11902270369E+03  0.97765492983E+02 -0.71680223902E+02  0.21092071997E+03  0.12500000000E+03 0.  0.
         25    1    1    2    0    0  0.11902270369E+03 -0.97765492983E+02 -0.54787179659E+02  0.20579390338E+03  0.12500000000E+03 0.  0.
</event>
<event>
 4    0  0.2179527E-002  0.1732820E+03  0.7546771E-02  0.1174468E+00
         21   -1    0    0  502  501  0.00000000000E+00  0.00000000000E+00  0.36869482653E+03  0.36869482653E+03  0.00000000000E+00 0.  1.
         21   -1    0    0  501  502 -0.00000000000E+00 -0.00000000000E+00 -0.81440347332E+02  0.81440347332E+02  0.00000000000E+00 0.  1.
         25    1    1    2    0    0  0.67849871015E+02 -0.58398833403E+02  0.39819751072E+02  0.15882267255E+03  0.12500000000E+03 0.  0.
         25    1    1    2    0    0 -0.67849871015E+02  0.58398833403E+02  0.24743472813E+03  0.29131250132E+03  0.12500000000E+03 0.  0.
</event>
<event>
 4    0  0.2179527E-002  0.2027654E+03  0.7546771E-02  0.1147427E+00
         21   -1    0    0  502  501  0.00000000000E+00  0.00000000000E+00  0.84256165779E+02  0.84256165779E+02  0.00000000000E+00 0. -1.
         21   -1    0    0  501  502 -0.00000000000E+00 -0.00000000000E+00 -0.48796208621E+03  0.48796208621E+03  0.00000000000E+00 0. -1.
         25    1    1    2    0    0 -0.94753021764E+02  0.82672533264E+02 -0.34065128309E+03  0.38403278448E+03  0.12500000000E+03 0.  0.
         25    1    1    2    0    0  0.94753021764E+02 -0.82672533264E+02 -0.63054637346E+02  0.18818546751E+03  0.12500000000E+03 0.  0.
</event>
<event>
 4    0  0.2179527E-002  0.3036154E+03  0.7546771E-02  0.1083447E+00
         21   -1    0    0  502  501  0.00000000000E+00  0.00000000000E+00  0.18756319609E+03  0.18756319609E+03  0.00000000000E+00 0.  1.
         21   -1    0    0  501  502 -0.00000000000E+00 -0.00000000000E+00 -0.49147340551E+03  0.49147340551E+03  0.00000000000E+00 0.  1.
         25    1    1    2    0    0  0.58269153003E+02 -0.50050221173E+02  0.14529154900E+03  0.20648233106E+03  0.12500000000E+03 0.  0.
         25    1    1    2    0    0 -0.58269153003E+02  0.50050221173E+02 -0.44920175843E+03  0.47255427054E+03  0.12500000000E+03 0.  0.
</event>
<event>
 4    0  0.2179527E-002  0.1593742E+03  0.7546771E-02  0.1189405E+00
         21   -1    0    0  502  501  0.00000000000E+00  0.00000000000E+00  0.42758793570E+03  0.42758793570E+03  0.00000000000E+00 0. -1.
         21   -1    0    0  501  502 -0.00000000000E+00 -0.00000000000E+00 -0.59403276168E+02  0.59403276168E+02  0.00000000000E+00 0. -1.
         25    1    1    2    0    0 -0.41542264625E+02 -0.89205857953E+02  0.16946351777E+03  0.23243564421E+03  0.12500000000E+03 0.  0.
         25    1    1    2    0    0  0.41542264625E+02  0.89205857953E+02  0.19872114176E+03  0.25455556766E+03  0.12500000000E+03 0.  0.
</event>
<event>
 4    0  0.2179527E-002  0.2695497E+03  0.7546771E-02  0.1101538E+00
         21   -1    0    0  502  501  0.00000000000E+00  0.00000000000E+00  0.29061299154E+03  0.29061299154E+03  0.00000000000E+00 0. -1.
         21   -1    0    0  501  502 -0.00000000000E+00 -0.00000000000E+00 -0.25001306266E+03  0.25001306266E+03  0.00000000000E+00 0. -1.
         25    1    1    2    0    0 -0.38666233562E+02  0.22918415621E+03  0.75333316134E+02  0.27444592108E+03  0.12500000000E+03 0.  0.
         25    1    1    2    0    0  0.38666233562E+02 -0.22918415621E+03 -0.34733387256E+02  0.26618013312E+03  0.12500000000E+03 0.  0.
</event>
<event>
 4    0  0.2179527E-002  0.1919354E+03  0.7546771E-02  0.1156727E+00
         21   -1    0    0  502  501  0.00000000000E+00  0.00000000000E+00  0.42127402776E+03  0.42127402776E+03  0.00000000000E+00 0.  1.
         21   -1    0    0  501  502 -0.00000000000E+00 -0.00000000000E+00 -0.87447107336E+02  0.87447107336E+02  0.00000000000E+00 0.  1.
         25    1    1    2    0    0 -0.11155467394E+03 -0.44502573211E+02  0.27610934843E+03  0.32601579194E+03  0.12500000000E+03 0.  0.
         25    1    1    2    0    0  0.11155467394E+03  0.44502573211E+02  0.57717571989E+02  0.18270534316E+03  0.12500000000E+03 0.  0.
</event>
<event>
 4    0  0.2179527E-002  0.2055947E+03  0.7546771E-02  0.1145103E+00
         21   -1    0    0  502  501  0.00000000000E+00  0.00000000000E+00  0.17634034404E+03  0.17634034404E+03  0.00000000000E+00 0.  1.
         21   -1    0    0  501  502 -0.00000000000E+00 -0.00000000000E+00 -0.23970218086E+03  0.23970218086E+03  0.00000000000E+00 0.  1.
         25    1    1    2    0    0 -0.61925872312E+02 -0.98657242821E+02  0.84019520569E+02  0.19040048597E+03  0.12500000000E+03 0.  0.
         25    1    1    2    0    0  0.61925872312E+02  0.98657242821E+02 -0.14738135739E+03  0.22564203893E+03  0.12500000000E+03 0.  0.
</event>
<event>
 4    0  0.2179527E-002  0.5918322E+03  0.7546771E-02  0.9922498E-01
         21   -1    0    0  502  501  0.00000000000E+00  0.00000000000E+00  0.10638323912E+04  0.10638323912E+04  0.00000000000E+00 0.  1.
         21   -1    0    0  501  502 -0.00000000000E+00 -0.00000000000E+00 -0.32924865396E+03  0.32924865396E+03  0.00000000000E+00 0.  1.
         25    1    1    2    0    0  0.54261133739E+03  0.20018689137E+03  0.35343974313E+03  0.68923617647E+03  0.12500000000E+03 0.  0.
         25    1    1    2    0    0 -0.54261133739E+03 -0.20018689137E+03  0.38114399414E+03  0.70384486871E+03  0.12500000000E+03 0.  0.
</event>
<event>
 4    0  0.2179527E-002  0.1861796E+03  0.7546771E-02  0.1161953E+00
         21   -1    0    0  502  501  0.00000000000E+00  0.00000000000E+00  0.25834631800E+03  0.25834631800E+03  0.00000000000E+00 0. -1.
         21   -1    0    0  501  502 -0.00000000000E+00 -0.00000000000E+00 -0.13417204769E+03  0.13417204769E+03  0.00000000000E+00 0. -1.
         25    1    1    2    0    0 -0.63783625585E+02  0.12028638235E+03  0.38499619123E+02  0.18879720693E+03  0.12500000000E+03 0.  0.
         25    1    1    2    0    0  0.63783625585E+02 -0.12028638235E+03  0.85674651191E+02  0.20372115876E+03  0.12500000000E+03 0.  0.
</event>
<event>
 4    0  0.2179527E-002  0.2131684E+03  0.7546771E-02  0.1139081E+00
         21   -1    0    0  502  501  0.00000000000E+00  0.00000000000E+00  0.26572470426E+03  0.26572470426E+03  0.00000000000E+00 0.  1.
         21   -1    0    0  501  502 -0.00000000000E+00 -0.00000000000E+00 -0.17100688475E+03  0.17100688475E+03  0.00000000000E+00 0.  1.
         25    1    1    2    0    0  0.10994699785E+03  0.98750849280E+01  0.18337387650E+03  0.24786455620E+03  0.12500000000E+03 0.  0.
         25    1    1    2    0    0 -0.10994699785E+03 -0.98750849280E+01 -0.88656056997E+02  0.18886703281E+03  0.12500000000E+03 0.  0.
</event>
<event>
 4    0  0.2179527E-002  0.4820669E+03  0.7546771E-02  0.1018569E+00
         21   -1    0    0  502  501  0.00000000000E+00  0.00000000000E+00  0.20410819157E+03  0.20410819157E+03  0.00000000000E+00 0. -1.
         21   -1    0    0  501  502 -0.00000000000E+00 -0.00000000000E+00 -0.11385556864E+04  0.11385556864E+04  0.00000000000E+00 0. -1.
         25    1    1    2    0    0  0.19461292707E+03  0.41693529839E+03 -0.56622958298E+03  0.74023656696E+03  0.12500000000E+03 0.  0.
         25    1    1    2    0    0 -0.19461292707E+03 -0.41693529839E+03 -0.36821791182E+03  0.60242731098E+03  0.12500000000E+03 0.  0.
</event>
<event>
 4    0  0.2179527E-002  0.2059071E+03  0.7546771E-02  0.1144849E+00
         21   -1    0    0  502  501  0.00000000000E+00  0.00000000000E+00  0.49518961231E+03  0.49518961231E+03  0.00000000000E+00 0. -1.
         21   -1    0    0  501  502 -0.00000000000E+00 -0.00000000000E+00 -0.85619206360E+02  0.85619206360E+02  0.00000000000E+00 0. -1.
         25    1    1    2    0    0  0.12472232900E+03 -0.47199459161E+02  0.71065741216E+02  0.19610912236E+03  0.12500000000E+03 0.  0.
         25    1    1    2    0    0 -0.12472232900E+03  0.47199459161E+02  0.33850466473E+03  0.38469969631E+03  0.12500000000E+03 0.  0.
</event>
<event>
 4    0  0.2179527E-002  0.1814511E+03  0.7546771E-02  0.1166406E+00
         21   -1    0    0  502  501  0.00000000000E+00  0.00000000000E+00  0.12975855097E+04  0.12975855097E+04  0.00000000000E+00 0.  1.
         21   -1    0    0  501  502 -0.00000000000E+00 -0.00000000000E+00 -0.25373656348E+02  0.25373656348E+02  0.00000000000E+00 0.  1.
         25    1    1    2    0    0  0.40129327352E+02 -0.61094104041E+02  0.10347280828E+04  0.10448110153E+04  0.12500000000E+03 0.  0.
         25    1    1    2    0    0 -0.40129327352E+02  0.61094104041E+02  0.23748377057E+03  0.27814815071E+03  0.12500000000E+03 0.  0.
</event>
<event>
 4    0  0.2179527E-002  0.3281765E+03  0.7546771E-02  0.1071947E+00
         21   -1    0    0  502  501  0.00000000000E+00  0.00000000000E+00  0.44814924020E+03  0.44814924020E+03  0.00000000000E+00 0. -1.
         21   -1    0    0  501  502 -0.00000000000E+00 -0.00000000000E+00 -0.24032128509E+03  0.24032128509E+03  0.00000000000E+00 0. -1.
         25    1    1    2    0    0  0.15252340759E+03 -0.81765530153E+02  0.36536114185E+03  0.42315807420E+03  0.12500000000E+03 0.  0.
         25    1    1    2    0    0 -0.15252340759E+03  0.81765530153E+02 -0.15753318674E+03  0.26531245110E+03  0.12500000000E+03 0.  0.
</event>
<event>
 4    0  0.2179527E-002  0.2295380E+03  0.7546771E-02  0.1126965E+00
         21   -1    0    0  502  501  0.00000000000E+00  0.00000000000E+00  0.38704925241E+02  0.38704925241E+02  0.00000000000E+00 0.  1.
         21   -1    0    0  501  502 -0.00000000000E+00 -0.00000000000E+00 -0.13612654682E+04  0.13612654682E+04  0.00000000000E+00 0.  1.
         25    1    1    2    0    0 -0.90352442997E+02  0.16030511150E+03 -0.83382564102E+03  0.86298985646E+03  0.12500000000E+03 0.  0.
         25    1    1    2    0    0  0.90352442997E+02 -0.16030511150E+03 -0.48873490195E+03  0.53698053699E+03  0.12500000000E+03 0.  0.
</event>
<event>
 4    0  0.2179527E-002  0.2565081E+03  0.7546771E-02  0.1109260E+00
         21   -1    0    0  502  501  0.00000000000E+00  0.00000000000E+00  0.25217208699E+03  0.25217208699E+03  0.00000000000E+00 0.  1.
         21   -1    0    0  501  502 -0.00000000000E+00 -0.00000000000E+00 -0.26091861793E+03  0.26091861793E+03  0.00000000000E+00 0.  1.
         25    1    1    2    0    0  0.22024460820E+03 -0.96884543333E+01 -0.44000215211E+02  0.25722086332E+03  0.12500000000E+03 0.  0.
         25    1    1    2    0    0 -0.22024460820E+03  0.96884543333E+01  0.35253684276E+02  0.25586984160E+03  0.12500000000E+03 0.  0.
</event>
<event>
 4    0  0.2179527E-002  0.3166607E+03  0.7546771E-02  0.1077197E+00
         21   -1    0    0  502  501  0.00000000000E+00  0.00000000000E+00  0.42521821914E+03  0.42521821914E+03  0.00000000000E+00 0.  1.
         21   -1    0    0  501  502 -0.00000000000E+00 -0.00000000000E+00 -0.23581767847E+03  0.23581767847E+03  0.00000000000E+00 0.  1.
         25    1    1    2    0    0  0.19132842075E+03  0.20589972383E+03  0.16260335497E+02  0.30804327516E+03  0.12500000000E+03 0.  0.
         25    1    1    2    0    0 -0.19132842075E+03 -0.20589972383E+03  0.17314020517E+03  0.35299262246E+03  0.12500000000E+03 0.  0.
</event>
<event>
 4    0  0.2179527E-002  0.2218944E+03  0.7546771E-02  0.1132479E+00
         21   -1    0    0  502  501  0.00000000000E+00  0.00000000000E+00  0.51315505930E+02  0.51315505930E+02  0.00000000000E+00 0. -1.
         21   -1    0    0  501  502 -0.00000000000E+00 -0.00000000000E+00 -0.95949784758E+03  0.95949784758E+03  0.00000000000E+00 0. -1.
         25    1    1    2    0    0  0.14731486967E+03 -0.10731619063E+03 -0.49928377650E+03  0.54601073714E+03  0.12500000000E+03 0.  0.
         25    1    1    2    0    0 -0.14731486967E+03  0.10731619063E+03 -0.40889856515E+03  0.46480261636E+03  0.12500000000E+03 0.  0.
</event>
<event>
 4    0  0.2179527E-002  0.2967083E+03  0.7546771E-02  0.1086898E+00
         21   -1    0    0  502  501  0.00000000000E+00  0.00000000000E+00  0.15942246453E+04  0.15942246453E+04  0.00000000000E+00 0.  1.
         21   -1    0    0  501  502 -0.00000000000E+00 -0.00000000000E+00 -0.55221705830E+02  0.55221705830E+02  0.00000000000E+00 0. -1.
         25    1    1    2    0    0 -0.11776365964E+03 -0.24099634059E+03  0.82932945442E+03  0.88054520593E+03  0.12500000000E+03 0.  0.
         25    1    1    2    0    0  0.11776365964E+03  0.24099634059E+03  0.70967348503E+03  0.76890114518E+03  0.12500000000E+03 0.  0.
</event>
<event>
 4    0  0.2179527E-002  0.2654806E+03  0.7546771E-02  0.1103894E+00
         21   -1    0    0  502  501  0.00000000000E+00  0.00000000000E+00  0.12307965515E+03  0.12307965515E+03  0.00000000000E+00 0.  1.
         21   -1    0    0  501  502 -0.00000000000E+00 -0.00000000000E+00 -0.57263707289E+03  0.57263707289E+03  0.00000000000E+00 0. -1.
         25    1    1    2    0    0  0.21656761936E+03  0.84262939711E+02 -0.26305185515E+03  0.37258966071E+03  0.12500000000E+03 0.  0.
         25    1    1    2    0    0 -0.21656761936E+03 -0.84262939711E+02 -0.18650556259E+03  0.32312706733E+03  0.12500000000E+03 0.  0.
</event>
<event>
 4    0  0.2179527E-002  0.3771683E+03  0.7546771E-02  0.1051985E+00
         21   -1    0    0  502  501  0.00000000000E+00  0.00000000000E+00  0.56233135542E+03  0.56233135542E+03  0.00000000000E+00 0. -1.
         21   -1    0    0  501  502 -0.00000000000E+00 -0.00000000000E+00 -0.25297528195E+03  0.25297528195E+03  0.00000000000E+00 0. -1.
         25    1    1    2    0    0 -0.95920396309E+02  0.20236532782E+03 -0.14422162632E+03  0.29424025189E+03  0.12500000000E+03 0.  0.
         25    1    1    2    0    0  0.95920396309E+02 -0.20236532782E+03  0.45357769979E+03  0.52106638548E+03  0.12500000000E+03 0.  0.
</event>
<event>
 4    0  0.2179527E-002  0.2128839E+03  0.7546771E-02  0.1139302E+00
         21   -1    0    0  502  501  0.00000000000E+00  0.00000000000E+00  0.16823221564E+02  0.16823221564E+02  0.00000000000E+00 0.  1.
         21   -1    0    0  501  502 -0.00000000000E+00 -0.00000000000E+00 -0.26938695932E+04  0.26938695932E+04  0.00000000000E+00 0. -1.
         25    1    1    2    0    0  0.16310444851E+03 -0.34402515116E+02 -0.10604281022E+04  0.10807031758E+04  0.12500000000E+03 0.  0.
         25    1    1    2    0    0 -0.16310444851E+03  0.34402515116E+02 -0.16166182695E+04  0.16299896390E+04  0.12500000000E+03 0.  0.
</event>
<event>
 4    0  0.2179527E-002  0.2606428E+03  0.7546771E-02  0.1106758E+00
         21   -1    0    0  502  501  0.00000000000E+00  0.00000000000E+00  0.11300130191E+04  0.11300130191E+04  0.00000000000E+00 0.  1.
         21   -1    0    0  501  502 -0.00000000000E+00 -0.00000000000E+00 -0.60118460817E+02  0.60118460817E+02  0.00000000000E+00 0.  1.
         25    1    1    2    0    0 -0.27277344249E+02 -0.22476382524E+03  0.46107971078E+03  0.52866088406E+03  0.12500000000E+03 0.  0.
         25    1    1    2    0    0  0.27277344249E+02  0.22476382524E+03  0.60881484753E+03  0.66147059588E+03  0.12500000000E+03 0.  0.
</event>
<event>
 4    0  0.2179527E-002  0.1938011E+03  0.7546771E-02  0.1155077E+00
         21   -1    0    0  502  501  0.00000000000E+00  0.00000000000E+00  0.67576523647E+03  0.67576523647E+03  0.00000000000E+00 0. -1.
         21   -1    0    0  501  502 -0.00000000000E+00 -0.00000000000E+00 -0.55579731359E+02  0.55579731359E+02  0.00000000000E+00 0. -1.
         25    1    1    2    0    0 -0.24726523444E+02 -0.14167075962E+03  0.37685200319E+03  0.42228478235E+03  0.12500000000E+03 0.  0.
         25    1    1    2    0    0  0.24726523444E+02  0.14167075962E+03  0.24333350192E+03  0.30906018548E+03  0.12500000000E+03 0.  0.
</event>
<event>
 4    0  0.2179527E-002  0.2874519E+03  0.7546771E-02  0.1091687E+00
         21   -1    0    0  502  501  0.00000000000E+00  0.00000000000E+00  0.15006062625E+03  0.15006062625E+03  0.00000000000E+00 0. -1.
         21   -1    0    0  501  502 -0.00000000000E+00 -0.00000000000E+00 -0.55063464663E+03  0.55063464663E+03  0.00000000000E+00 0. -1.
         25    1    1    2    0    0  0.58352615785E+02 -0.14524741882E+03  0.50981115335E+02  0.20670247837E+03  0.12500000000E+03 0.  0.
         25    1    1    2    0    0 -0.58352615785E+02  0.14524741882E+03 -0.45155513572E+03  0.49399279452E+03  0.12500000000E+03 0.  0.
</event>
<event>
 4    0  0.2179527E-002  0.1793187E+03  0.7546771E-02  0.1168464E+00
         21   -1    0    0  502  501  0.00000000000E+00  0.00000000000E+00  0.82152191564E+02  0.82152191564E+02  0.00000000000E+00 0. -1.
         21   -1    0    0  501  502 -0.00000000000E+00 -0.00000000000E+00 -0.39140993848E+03  0.39140993848E+03  0.00000000000E+00 0. -1.
         25    1    1    2    0    0 -0.94358868407E+02  0.62427727916E+02 -0.73991006835E+02  0.18412084714E+03  0.12500000000E+03 0.  0.
         25    1    1    2    0    0  0.94358868407E+02 -0.62427727916E+02 -0.23526674008E+03  0.28944128291E+03  0.12500000000E+03 0.  0.
</event>
<event>
 4    0  0.2179527E-002  0.2084925E+03  0.7546771E-02  0.1142765E+00
         21   -1    0    0  502  501  0.00000000000E+00  0.00000000000E+00  0.81961661775E+02  0.81961661775E+02  0.00000000000E+00 0.  1.
         21   -1    0    0  501  502 -0.00000000000E+00 -0.00000000000E+00 -0.53035931440E+03  0.53035931440E+03  0.00000000000E+00 0.  1.
         25    1    1    2    0    0 -0.68829549854E+02  0.13213427752E+03 -0.11384851156E+03  0.22535185336E+03  0.12500000000E+03 0.  0.
         25    1    1    2    0    0  0.68829549854E+02 -0.13213427752E+03 -0.33454914106E+03  0.38696912281E+03  0.12500000000E+03 0.  0.
</event>
<event>
 4    0  0.2179527E-002  0.1396443E+03  0.7546771E-02  0.1213808E+00
         21   -1    0    0  502  501  0.00000000000E+00  0.00000000000E+00  0.89488008989E+02  0.89488008989E+02  0.00000000000E+00 0. -1.
         21   -1    0    0  501  502 -0.00000000000E+00 -0.00000000000E+00 -0.21791219570E+03  0.21791219570E+03  0.00000000000E+00 0. -1.
         25    1    1    2    0    0 -0.12939532109E+02 -0.60551381094E+02 -0.57110758306E+02  0.15073334056E+03  0.12500000000E+03 0.  0.
         25    1    1    2    0    0  0.12939532109E+02  0.60551381094E+02 -0.71313428404E+02  0.15666686412E+03  0.12500000000E+03 0.  0.
</event>
<event>
 4    0  0.2179527E-002  0.1807937E+03  0.7546771E-02  0.1167037E+00
         21   -1    0    0  502  501  0.00000000000E+00  0.00000000000E+00  0.75076386454E+03  0.75076386454E+03  0.00000000000E+00 0. -1.
         21   -1    0    0  501  502 -0.00000000000E+00 -0.00000000000E+00 -0.43537490470E+02  0.43537490470E+02  0.00000000000E+00 0. -1.
         25    1    1    2    0    0 -0.95767366716E+02 -0.87826280628E+02  0.38279967293E+03  0.42313760609E+03  0.12500000000E+03 0.  0.
         25    1    1    2    0    0  0.95767366716E+02  0.87826280628E+02  0.32442670115E+03  0.37116374892E+03  0.12500000000E+03 0.  0.
</event>
<event>
 4    0  0.2179527E-002  0.1860275E+03  0.7546771E-02  0.1162094E+00
         21   -1    0    0  502  501  0.00000000000E+00  0.00000000000E+00  0.19595850520E+03  0.19595850520E+03  0.00000000000E+00 0.  1.
         21   -1    0    0  501  502 -0.00000000000E+00 -0.00000000000E+00 -0.17659986563E+03  0.17659986563E+03  0.00000000000E+00 0.  1.
         25    1    1    2    0    0  0.69421154045E+02 -0.42488354062E+01  0.12876831223E+03  0.19246721140E+03  0.12500000000E+03 0.  0.
         25    1    1    2    0    0 -0.69421154045E+02  0.42488354062E+01 -0.10940967266E+03  0.18009115943E+03  0.12500000000E+03 0.  0.
</event>
<event>
 4    0  0.2179527E-002  0.3723101E+03  0.7546771E-02  0.1053813E+00
         21   -1    0    0  502  501  0.00000000000E+00  0.00000000000E+00  0.41402580692E+02  0.41402580692E+02  0.00000000000E+00 0. -1.
         21   -1    0    0  501  502 -0.00000000000E+00 -0.00000000000E+00 -0.33479756033E+04  0.33479756033E+04  0.00000000000E+00 0. -1.
         25    1    1    2    0    0 -0.31817238953E+01 -0.31545707376E+03 -0.23505705563E+04  0.23749379421E+04  0.12500000000E+03 0.  0.
         25    1    1    2    0    0  0.31817238953E+01  0.31545707376E+03 -0.95600246630E+03  0.10144402419E+04  0.12500000000E+03 0.  0.
</event>
<event>
 4    0  0.2179527E-002  0.1861574E+03  0.7546771E-02  0.1161974E+00
         21   -1    0    0  502  501  0.00000000000E+00  0.00000000000E+00  0.32665569898E+03  0.32665569898E+03  0.00000000000E+00 0.  1.
         21   -1    0    0  501  502 -0.00000000000E+00 -0.00000000000E+00 -0.10608894690E+03  0.10608894690E+03  0.00000000000E+00 0.  1.
         25    1    1    2    0    0 -0.11325331766E+03  0.13024625483E+01  0.18751661146E+02  0.16971928343E+03  0.12500000000E+03 0.  0.
         25    1    1    2    0    0  0.11325331766E+03 -0.13024625483E+01  0.20181509093E+03  0.26302536246E+03  0.12500000000E+03 0.  0.
</event>
<event>
 4    0  0.2179527E-002  0.1829735E+03  0.7546771E-02  0.1164956E+00
         21   -1    0    0  502  501  0.00000000000E+00  0.00000000000E+00  0.18018783389E+03  0.18018783389E+03  0.00000000000E+00 0.  1.
         21   -1    0    0  501  502 -0.00000000000E+00 -0.00000000000E+00 -0.18580219231E+03  0.18580219231E+03  0.00000000000E+00 0.  1.
         25    1    1    2    0    0  0.94543909370E+02 -0.94403682469E+02 -0.47279524281E+01  0.18302447814E+03  0.12500000000E+03 0.  0.
         25    1    1    2    0    0 -0.94543909370E+02  0.94403682469E+02 -0.88640600141E+00  0.18296554806E+03  0.12500000000E+03 0.  0.
</event>
<event>
 4    0  0.2179527E-002  0.2312900E+03  0.7546771E-02  0.1125735E+00
         21   -1    0    0  502  501  0.00000000000E+00  0.00000000000E+00  0.40689004110E+03  0.40689004110E+03  0.00000000000E+00 0.  1.
         21   -1    0    0  501  502 -0.00000000000E+00 -0.00000000000E+00 -0.13147299810E+03  0.13147299810E+03  0.00000000000E+00 0.  1.
         25    1    1    2    0    0  0.42073047015E+02  0.15249688275E+03  0.26960978022E+03  0.33665987899E+03  0.12500000000E+03 0.  0.
         25    1    1    2    0    0 -0.42073047015E+02 -0.15249688275E+03  0.58072627756E+01  0.20170316020E+03  0.12500000000E+03 0.  0.
</event>
<event>
 4    0  0.2179527E-002  0.2049892E+03  0.7546771E-02  0.1145597E+00
         21   -1    0    0  502  501  0.00000000000E+00  0.00000000000E+00  0.17128957701E+03  0.17128957701E+03  0.00000000000E+00 0. -1.
         21   -1    0    0  501  502 -0.00000000000E+00 -0.00000000000E+00 -0.24531902627E+03  0.24531902627E+03  0.00000000000E+00 0. -1.
         25    1    1    2    0    0  0.92184066988E+02  0.82522895106E+02 -0.14401555293E+03  0.22731786096E+03  0.12500000000E+03 0.  0.
         25    1    1    2    0    0 -0.92184066988E+02 -0.82522895106E+02  0.69986103670E+02  0.18929074233E+03  0.12500000000E+03 0.  0.
</event>
<event>
 4    0  0.2179527E-002  0.3193198E+03  0.7546771E-02  0.1075963E+00
         21   -1    0    0  502  501  0.00000000000E+00  0.00000000000E+00  0.25540419007E+03  0.25540419007E+03  0.00000000000E+00 0. -1.
         21   -1    0    0  501  502 -0.00000000000E+00 -0.00000000000E+00 -0.39923050840E+03  0.39923050840E+03  0.00000000000E+00 0. -1.
         25    1    1    2    0    0 -0.15684114985E+03 -0.54675300025E+02  0.17654487315E+03  0.27272995243E+03  0.12500000000E+03 0.  0.
         25    1    1    2    0    0  0.15684114985E+03  0.54675300025E+02 -0.32037119148E+03  0.38190474604E+03  0.12500000000E+03 0.  0.
</event>
<event>
 4    0  0.2179527E-002  0.1946927E+03  0.7546771E-02  0.1154296E+00
         21   -1    0    0  502  501  0.00000000000E+00  0.00000000000E+00  0.51399001798E+02  0.51399001798E+02  0.00000000000E+00 0.  1.
         21   -1    0    0  501  502 -0.00000000000E+00 -0.00000000000E+00 -0.73747030988E+03  0.73747030988E+03  0.00000000000E+00 0. -1.
         25    1    1    2    0    0  0.13770042497E+03 -0.73304799774E+01 -0.22727170015E+03  0.29375596787E+03  0.12500000000E+03 0.  0.
         25    1    1    2    0    0 -0.13770042497E+03  0.73304799774E+01 -0.45879960793E+03  0.49511334380E+03  0.12500000000E+03 0.  0.
</event>
<event>
 4    0  0.2179527E-002  0.1878480E+03  0.7546771E-02  0.1160417E+00
         21   -1    0    0  502  501  0.00000000000E+00  0.00000000000E+00  0.10323935682E+04  0.10323935682E+04  0.00000000000E+00 0. -1.
         21   -1    0    0  501  502 -0.00000000000E+00 -0.00000000000E+00 -0.34179669440E+02  0.34179669440E+02  0.00000000000E+00 0. -1.
         25    1    1    2    0    0  0.11056338154E+03  0.63851670515E+02  0.33453310043E+03  0.37926071831E+03  0.12500000000E+03 0.  0.
         25    1    1    2    0    0 -0.11056338154E+03 -0.63851670515E+02  0.66368079830E+03  0.68731251931E+03  0.12500000000E+03 0.  0.
</event>
<event>
 4    0  0.2223434E-002  0.2127266E+03  0.7546771E-02  0.1139425E+00
         21   -1    0    0  502  501  0.00000000000E+00  0.00000000000E+00  0.23187671861E+03  0.23187671861E+03  0.00000000000E+00 0.  1.
         21   -1    0    0  501  502 -0.00000000000E+00 -0.00000000000E+00 -0.19515804675E+03  0.19515804675E+03  0.00000000000E+00 0.  1.
         25    1    1    2    0    0  0.12900881169E+02 -0.47968677862E+01  0.19057267962E+03  0.22832518235E+03  0.12500000000E+03 0.  0.
         25    1    1    2    0    0 -0.12900881169E+02  0.47968677862E+01 -0.15385400777E+03  0.19870958301E+03  0.12500000000E+03 0.  0.
</event>
<event>
 4    0  0.2179527E-002  0.2260741E+03  0.7546771E-02  0.1129434E+00
         21   -1    0    0  502  501  0.00000000000E+00  0.00000000000E+00  0.10600548043E+03  0.10600548043E+03  0.00000000000E+00 0. -1.
         21   -1    0    0  501  502 -0.00000000000E+00 -0.00000000000E+00 -0.48214003332E+03  0.48214003332E+03  0.00000000000E+00 0. -1.
         25    1    1    2    0    0  0.62667186943E+01 -0.18346560935E+03 -0.13310126615E+03  0.25892054501E+03  0.12500000000E+03 0.  0.
         25    1    1    2    0    0 -0.62667186943E+01  0.18346560935E+03 -0.24303328674E+03  0.32922496874E+03  0.12500000000E+03 0.  0.
</event>
<event>
 4    0  0.2179527E-002  0.3058984E+03  0.7546771E-02  0.1082329E+00
         21   -1    0    0  502  501  0.00000000000E+00  0.00000000000E+00  0.23410043128E+03  0.23410043128E+03  0.00000000000E+00 0.  1.
         21   -1    0    0  501  502 -0.00000000000E+00 -0.00000000000E+00 -0.39971650702E+03  0.39971650702E+03  0.00000000000E+00 0.  1.
         25    1    1    2    0    0  0.15851074367E+03 -0.19711003702E+03  0.39644301931E+02  0.28491172884E+03  0.12500000000E+03 0.  0.
         25    1    1    2    0    0 -0.15851074367E+03  0.19711003702E+03 -0.20526037767E+03  0.34890520947E+03  0.12500000000E+03 0.  0.
</event>
<event>
 4    0  0.2179527E-002  0.2437619E+03  0.7546771E-02  0.1117312E+00
         21   -1    0    0  502  501  0.00000000000E+00  0.00000000000E+00  0.38670823218E+03  0.38670823218E+03  0.00000000000E+00 0. -1.
         21   -1    0    0  501  502 -0.00000000000E+00 -0.00000000000E+00 -0.15365548645E+03  0.15365548645E+03  0.00000000000E+00 0. -1.
         25    1    1    2    0    0  0.53515367463E+02  0.19100053186E+03  0.42590033420E+02  0.23829395433E+03  0.12500000000E+03 0.  0.
         25    1    1    2    0    0 -0.53515367463E+02 -0.19100053186E+03  0.19046271231E+03  0.30206976430E+03  0.12500000000E+03 0.  0.
</event>
<event>
 4    0  0.2179527E-002  0.1698200E+03  0.7546771E-02  0.1178036E+00
         21   -1    0    0  502  501  0.00000000000E+00  0.00000000000E+00  0.83982173411E+02  0.83982173411E+02  0.00000000000E+00 0.  1.
         21   -1    0    0  501  502 -0.00000000000E+00 -0.00000000000E+00 -0.34339216524E+03  0.34339216524E+03  0.00000000000E+00 0.  1.
         25    1    1    2    0    0  0.62214954968E+02  0.59075413448E+01 -0.25110621173E+03  0.28737593712E+03  0.12500000000E+03 0.  0.
         25    1    1    2    0    0 -0.62214954968E+02 -0.59075413448E+01 -0.83037800949E+01  0.13999840153E+03  0.12500000000E+03 0.  0.
</event>
<event>
 4    0  0.2179527E-002  0.2840261E+03  0.7546771E-02  0.1093510E+00
         21   -1    0    0  502  501  0.00000000000E+00  0.00000000000E+00  0.67209314339E+03  0.67209314339E+03  0.00000000000E+00 0. -1.
         21   -1    0    0  501  502 -0.00000000000E+00 -0.00000000000E+00 -0.12002920663E+03  0.12002920663E+03  0.00000000000E+00 0. -1.
         25    1    1    2    0    0  0.10679787938E+02  0.24230962152E+03  0.16607511228E+03  0.31942754025E+03  0.12500000000E+03 0.  0.
         25    1    1    2    0    0 -0.10679787938E+02 -0.24230962152E+03  0.38598882448E+03  0.47269480976E+03  0.12500000000E+03 0.  0.
</event>
<event>
 4    0  0.2179527E-002  0.1862776E+03  0.7546771E-02  0.1161862E+00
         21   -1    0    0  502  501  0.00000000000E+00  0.00000000000E+00  0.32324256023E+03  0.32324256023E+03  0.00000000000E+00 0.  1.
         21   -1    0    0  501  502 -0.00000000000E+00 -0.00000000000E+00 -0.10734768093E+03  0.10734768093E+03  0.00000000000E+00 0.  1.
         25    1    1    2    0    0 -0.10807978489E+03 -0.70280098711E+02  0.16519985182E+03  0.24400107216E+03  0.12500000000E+03 0.  0.
         25    1    1    2    0    0  0.10807978489E+03  0.70280098711E+02  0.50695027482E+02  0.18658916900E+03  0.12500000000E+03 0.  0.
</event>
<event>
 4    0  0.2179527E-002  0.2258027E+03  0.7546771E-02  0.1129629E+00
         21   -1    0    0  502  501  0.00000000000E+00  0.00000000000E+00  0.10303435028E+03  0.10303435028E+03  0.00000000000E+00 0. -1.
         21   -1    0    0  501  502 -0.00000000000E+00 -0.00000000000E+00 -0.49485319133E+03  0.49485319133E+03  0.00000000000E+00 0. -1.
         25    1    1    2    0    0 -0.12586599040E+03  0.13311558864E+03 -0.25207636775E+03  0.33575214468E+03  0.12500000000E+03 0.  0.
         25    1    1    2    0    0  0.12586599040E+03 -0.13311558864E+03 -0.13974247330E+03  0.26213539693E+03  0.12500000000E+03 0.  0.
</event>
<event>
 4    0  0.2179527E-002  0.1456389E+03  0.7546771E-02  0.1205937E+00
         21   -1    0    0  502  501  0.00000000000E+00  0.00000000000E+00  0.17268365970E+03  0.17268365970E+03  0.00000000000E+00 0. -1.
         21   -1    0    0  501  502 -0.00000000000E+00 -0.00000000000E+00 -0.12282980976E+03  0.12282980976E+03  0.00000000000E+00 0. -1.
         25    1    1    2    0    0  0.30774437397E+02  0.31294580587E+02 -0.36444732073E+02  0.13740318507E+03  0.12500000000E+03 0.  0.
         25    1    1    2    0    0 -0.30774437397E+02 -0.31294580587E+02  0.86298582020E+02  0.15811028439E+03  0.12500000000E+03 0.  0.
</event>
<event>
 4    0  0.2179527E-002  0.2024509E+03  0.7546771E-02  0.1147688E+00
         21   -1    0    0  502  501  0.00000000000E+00  0.00000000000E+00  0.75777677031E+02  0.75777677031E+02  0.00000000000E+00 0. -1.
         21   -1    0    0  501  502 -0.00000000000E+00 -0.00000000000E+00 -0.54087644511E+03  0.54087644511E+03  0.00000000000E+00 0. -1.
         25    1    1    2    0    0 -0.10320313139E+03  0.12110946721E+03 -0.22256593346E+03  0.30079724752E+03  0.12500000000E+03 0.  0.
         25    1    1    2    0    0  0.10320313139E+03 -0.12110946721E+03 -0.24253283462E+03  0.31585687462E+03  0.12500000000E+03 0.  0.
</event>
<event>
 4    0  0.2179527E-002  0.3707797E+03  0.7546771E-02  0.1054395E+00
         21   -1    0    0  502  501  0.00000000000E+00  0.00000000000E+00  0.16818859964E+03  0.16818859964E+03  0.00000000000E+00 0. -1.
         21   -1    0    0  501  502 -0.00000000000E+00 -0.00000000000E+00 -0.81740135368E+03  0.81740135368E+03  0.00000000000E+00 0. -1.
         25    1    1    2    0    0  0.11131925818E+03  0.15459253504E+03 -0.71337407499E+03  0.74887809422E+03  0.12500000000E+03 0.  0.
         25    1    1    2    0    0 -0.11131925818E+03 -0.15459253504E+03  0.64161320959E+02  0.23671185910E+03  0.12500000000E+03 0.  0.
</event>
<event>
 4    0  0.2179527E-002  0.2163167E+03  0.7546771E-02  0.1136659E+00
         21   -1    0    0  502  501  0.00000000000E+00  0.00000000000E+00  0.61112724300E+03  0.61112724300E+03  0.00000000000E+00 0. -1.
         21   -1    0    0  501  502 -0.00000000000E+00 -0.00000000000E+00 -0.76568232498E+02  0.76568232498E+02  0.00000000000E+00 0. -1.
         25    1    1    2    0    0  0.22607483355E+02 -0.63210590832E+02  0.77323109277E+01  0.14209667740E+03  0.12500000000E+03 0.  0.
         25    1    1    2    0    0 -0.22607483355E+02  0.63210590832E+02  0.52682669958E+03  0.54559879809E+03  0.12500000000E+03 0.  0.
</event>
<event>
 4    0  0.2179527E-002  0.2151100E+03  0.7546771E-02  0.1137582E+00
         21   -1    0    0  502  501  0.00000000000E+00  0.00000000000E+00  0.52466506729E+02  0.52466506729E+02  0.00000000000E+00 0.  1.
         21   -1    0    0  501  502 -0.00000000000E+00 -0.00000000000E+00 -0.88193964557E+03  0.88193964557E+03  0.00000000000E+00 0.  1.
         25    1    1    2    0    0 -0.14255241068E+03  0.51091080843E+02 -0.60551785896E+03  0.63655978969E+03  0.12500000000E+03 0.  0.
         25    1    1    2    0    0  0.14255241068E+03 -0.51091080843E+02 -0.22395527988E+03  0.29784636260E+03  0.12500000000E+03 0.  0.
</event>
<event>
 4    0  0.2179527E-002  0.1865351E+03  0.7546771E-02  0.1161624E+00
         21   -1    0    0  502  501  0.00000000000E+00  0.00000000000E+00  0.95810538828E+02  0.95810538828E+02  0.00000000000E+00 0. -1.
         21   -1    0    0  501  502 -0.00000000000E+00 -0.00000000000E+00 -0.36316821088E+03  0.36316821088E+03  0.00000000000E+00 0. -1.
         25    1    1    2    0    0 -0.37622090343E+02  0.10957299109E+03 -0.22695831082E+03  0.28382518724E+03  0.12500000000E+03 0.  0.
         25    1    1    2    0    0  0.37622090343E+02 -0.10957299109E+03 -0.40399361231E+02  0.17515356247E+03  0.12500000000E+03 0.  0.
</event>
<event>
 4    0  0.2179527E-002  0.2224013E+03  0.7546771E-02  0.1132105E+00
         21   -1    0    0  502  501  0.00000000000E+00  0.00000000000E+00  0.18469378980E+03  0.18469378980E+03  0.00000000000E+00 0. -1.
         21   -1    0    0  501  502 -0.00000000000E+00 -0.00000000000E+00 -0.26780721418E+03  0.26780721418E+03  0.00000000000E+00 0. -1.
         25    1    1    2    0    0  0.22541775666E+02 -0.16210591476E+03  0.43866052884E+02  0.21056041851E+03  0.12500000000E+03 0.  0.
         25    1    1    2    0    0 -0.22541775666E+02  0.16210591476E+03 -0.12697947727E+03  0.24194058547E+03  0.12500000000E+03 0.  0.
</event>
<event>
 4    0  0.2179527E-002  0.1771964E+03  0.7546771E-02  0.1170544E+00
         21   -1    0    0  502  501  0.00000000000E+00  0.00000000000E+00  0.30143206423E+03  0.30143206423E+03  0.00000000000E+00 0.  1.
         21   -1    0    0  501  502 -0.00000000000E+00 -0.00000000000E+00 -0.10416464471E+03  0.10416464471E+03  0.00000000000E+00 0.  1.
         25    1    1    2    0    0 -0.37852452689E+02  0.10196889008E+03  0.26766878955E+02  0.16784495384E+03  0.12500000000E+03 0.  0.
         25    1    1    2    0    0  0.37852452689E+02 -0.10196889008E+03  0.17050054057E+03  0.23775175510E+03  0.12500000000E+03 0.  0.
</event>
<event>
 4    0  0.2179527E-002  0.1934228E+03  0.7546771E-02  0.1155410E+00
         21   -1    0    0  502  501  0.00000000000E+00  0.00000000000E+00  0.34919557381E+02  0.34919557381E+02  0.00000000000E+00 0.  1.
         21   -1    0    0  501  502 -0.00000000000E+00 -0.00000000000E+00 -0.10713872274E+04  0.10713872274E+04  0.00000000000E+00 0.  1.
         25    1    1    2    0    0 -0.10280903848E+03 -0.79033934045E+02 -0.71987224258E+03  0.74206273775E+03  0.12500000000E+03 0.  0.
         25    1    1    2    0    0  0.10280903848E+03  0.79033934045E+02 -0.31659542748E+03  0.36424404707E+03  0.12500000000E+03 0.  0.
</event>
<event>
 4    0  0.2179527E-002  0.3266997E+03  0.7546771E-02  0.1072607E+00
         21   -1    0    0  502  501  0.00000000000E+00  0.00000000000E+00  0.13102636675E+03  0.13102636675E+03  0.00000000000E+00 0.  1.
         21   -1    0    0  501  502 -0.00000000000E+00 -0.00000000000E+00 -0.81458940814E+03  0.81458940814E+03  0.00000000000E+00 0.  1.
         25    1    1    2    0    0 -0.23933837523E+03 -0.18226734467E+03 -0.37733284797E+03  0.49850709218E+03  0.12500000000E+03 0.  0.
         25    1    1    2    0    0  0.23933837523E+03  0.18226734467E+03 -0.30623019342E+03  0.44710868271E+03  0.12500000000E+03 0.  0.
</event>
<event>
 4    0  0.2179527E-002  0.2893085E+03  0.7546771E-02  0.1090711E+00
         21   -1    0    0  502  501  0.00000000000E+00  0.00000000000E+00  0.15892444950E+04  0.15892444950E+04  0.00000000000E+00 0. -1.
         21   -1    0    0  501  502 -0.00000000000E+00 -0.00000000000E+00 -0.52666147777E+02  0.52666147777E+02  0.00000000000E+00 0. -1.
         25    1    1    2    0    0 -0.22539717893E+03  0.13140868046E+03  0.77255118033E+03  0.82494391070E+03  0.12500000000E+03 0.  0.
         25    1    1    2    0    0  0.22539717893E+03 -0.13140868046E+03  0.76402716688E+03  0.81696673207E+03  0.12500000000E+03 0.  0.
</event>
<event>
 4    0  0.2179527E-002  0.2123807E+03  0.7546771E-02  0.1139694E+00
         21   -1    0    0  502  501  0.00000000000E+00  0.00000000000E+00  0.10334614148E+03  0.10334614148E+03  0.00000000000E+00 0.  1.
         21   -1    0    0  501  502 -0.00000000000E+00 -0.00000000000E+00 -0.43645149865E+03  0.43645149865E+03  0.00000000000E+00 0.  1.
         25    1    1    2    0    0  0.33534817907E+02 -0.10915433727E+03 -0.36027160837E+01  0.16934353522E+03  0.12500000000E+03 0.  0.
         25    1    1    2    0    0 -0.33534817907E+02  0.10915433727E+03 -0.32950264109E+03  0.37045410491E+03  0.12500000000E+03 0.  0.
</event>
<event>
 4    0  0.2179527E-002  0.2098014E+03  0.7546771E-02  0.1141723E+00
         21   -1    0    0  502  501  0.00000000000E+00  0.00000000000E+00  0.13693498208E+03  0.13693498208E+03  0.00000000000E+00 0. -1.
         21   -1    0    0  501  502 -0.00000000000E+00 -0.00000000000E+00 -0.32144184902E+03  0.32144184902E+03  0.00000000000E+00 0. -1.
         25    1    1    2    0    0  0.13343045312E+03  0.10064778712E+03 -0.11563121093E+03  0.23859849080E+03  0.12500000000E+03 0.  0.
         25    1    1    2    0    0 -0.13343045312E+03 -0.10064778712E+03 -0.68875656019E+02  0.21977834030E+03  0.12500000000E+03 0.  0.
</event>
<event>
 4    0  0.2179527E-002  0.2043519E+03  0.7546771E-02  0.1146118E+00
         21   -1    0    0  502  501  0.00000000000E+00  0.00000000000E+00  0.25294142436E+03  0.25294142436E+03  0.00000000000E+00 0. -1.
         21   -1    0    0  501  502 -0.00000000000E+00 -0.00000000000E+00 -0.16509639900E+03  0.16509639900E+03  0.00000000000E+00 0. -1.
         25    1    1    2    0    0 -0.33652730580E+02 -0.13036338327E+03  0.13545136077E+03  0.22825246791E+03  0.12500000000E+03 0.  0.
         25    1    1    2    0    0  0.33652730580E+02  0.13036338327E+03 -0.47606335409E+02  0.18978535545E+03  0.12500000000E+03 0.  0.
</event>
<event>
 4    0  0.2179527E-002  0.2650848E+03  0.7546771E-02  0.1104126E+00
         21   -1    0    0  502  501  0.00000000000E+00  0.00000000000E+00  0.48080247443E+03  0.48080247443E+03  0.00000000000E+00 0.  1.
         21   -1    0    0  501  502 -0.00000000000E+00 -0.00000000000E+00 -0.14615140169E+03  0.14615140169E+03  0.00000000000E+00 0.  1.
         25    1    1    2    0    0 -0.11947214584E+03  0.16755514599E+03  0.29845911026E+03  0.38347250368E+03  0.12500000000E+03 0.  0.
         25    1    1    2    0    0  0.11947214584E+03 -0.16755514599E+03  0.36191962476E+02  0.24348137244E+03  0.12500000000E+03 0.  0.
</event>
<event>
 4    0  0.2179527E-002  0.1973706E+03  0.7546771E-02  0.1151977E+00
         21   -1    0    0  502  501  0.00000000000E+00  0.00000000000E+00  0.42152492820E+02  0.42152492820E+02  0.00000000000E+00 0.  1.
         21   -1    0    0  501  502 -0.00000000000E+00 -0.00000000000E+00 -0.92414810018E+03  0.92414810018E+03  0.00000000000E+00 0.  1.
         25    1    1    2    0    0 -0.14087019618E+03  0.11082654360E+02 -0.29904062042E+03  0.35357818098E+03  0.12500000000E+03 0.  0.
         25    1    1    2    0    0  0.14087019618E+03 -0.11082654360E+02 -0.58295498694E+03  0.61272241202E+03  0.12500000000E+03 0.  0.
</event>
<event>
 4    0  0.2179527E-002  0.1951437E+03  0.7546771E-02  0.1153902E+00
         21   -1    0    0  502  501  0.00000000000E+00  0.00000000000E+00  0.77501033163E+03  0.77501033163E+03  0.00000000000E+00 0.  1.
         21   -1    0    0  501  502 -0.00000000000E+00 -0.00000000000E+00 -0.49136205365E+02  0.49136205365E+02  0.00000000000E+00 0.  1.
         25    1    1    2    0    0  0.13461351201E+03 -0.57459376144E+02  0.43082848404E+03  0.47186921936E+03  0.12500000000E+03 0.  0.
         25    1    1    2    0    0 -0.13461351201E+03  0.57459376144E+02  0.29504564222E+03  0.35227731763E+03  0.12500000000E+03 0.  0.
</event>
<event>
 4    0  0.2179527E-002  0.1941096E+03  0.7546771E-02  0.1154806E+00
         21   -1    0    0  502  501  0.00000000000E+00  0.00000000000E+00  0.36454355405E+03  0.36454355405E+03  0.00000000000E+00 0.  1.
         21   -1    0    0  501  502 -0.00000000000E+00 -0.00000000000E+00 -0.10335811617E+03  0.10335811617E+03  0.00000000000E+00 0.  1.
         25    1    1    2    0    0  0.58673591728E+02  0.57981730888E+02 -0.18240262729E+02  0.15087139778E+03  0.12500000000E+03 0.  0.
         25    1    1    2    0    0 -0.58673591728E+02 -0.57981730888E+02  0.27942570061E+03  0.31703027244E+03  0.12500000000E+03 0.  0.
</event>
<event>
 4    0  0.2179527E-002  0.2060053E+03  0.7546771E-02  0.1144769E+00
         21   -1    0    0  502  501  0.00000000000E+00  0.00000000000E+00  0.37851769067E+03  0.37851769067E+03  0.00000000000E+00 0.  1.
         21   -1    0    0  501  502 -0.00000000000E+00 -0.00000000000E+00 -0.11211681261E+03  0.11211681261E+03  0.00000000000E+00 0.  1.
         25    1    1    2    0    0  0.15853074854E+03 -0.22112973822E+02  0.17431796226E+03  0.26764292221E+03  0.12500000000E+03 0.  0.
         25    1    1    2    0    0 -0.15853074854E+03  0.22112973822E+02  0.92082915805E+02  0.22299158107E+03  0.12500000000E+03 0.  0.
</event>
<event>
 4    0  0.2179527E-002  0.1746675E+03  0.7546771E-02  0.1173066E+00
         21   -1    0    0  502  501  0.00000000000E+00  0.00000000000E+00  0.30135741561E+02  0.30135741561E+02  0.00000000000E+00 0. -1.
         21   -1    0    0  501  502 -0.00000000000E+00 -0.00000000000E+00 -0.10123770612E+04  0.10123770612E+04  0.00000000000E+00 0. -1.
         25    1    1    2    0    0  0.80140058779E+01 -0.39536310682E+02 -0.14752162348E+03  0.19752208370E+03  0.12500000000E+03 0.  0.
         25    1    1    2    0    0 -0.80140058779E+01  0.39536310682E+02 -0.83471969613E+03  0.84499071904E+03  0.12500000000E+03 0.  0.
</event>
<event>
 4    0  0.2179527E-002  0.2623308E+03  0.7546771E-02  0.1105751E+00
         21   -1    0    0  502  501  0.00000000000E+00  0.00000000000E+00  0.13024409009E+03  0.13024409009E+03  0.00000000000E+00 0. -1.
         21   -1    0    0  501  502 -0.00000000000E+00 -0.00000000000E+00 -0.52837273093E+03  0.52837273093E+03  0.00000000000E+00 0. -1.
         25    1    1    2    0    0  0.18980118452E+03  0.12504119932E+03 -0.24820859119E+03  0.35901573213E+03  0.12500000000E+03 0.  0.
         25    1    1    2    0    0 -0.18980118452E+03 -0.12504119932E+03 -0.14992004965E+03  0.29960108889E+03  0.12500000000E+03 0.  0.
</event>
<event>
 4    0  0.2179527E-002  0.2423086E+03  0.7546771E-02  0.1118264E+00
         21   -1    0    0  502  501  0.00000000000E+00  0.00000000000E+00  0.14837445171E+04  0.14837445171E+04  0.00000000000E+00 0. -1.
         21   -1    0    0  501  502 -0.00000000000E+00 -0.00000000000E+00 -0.39571129045E+02  0.39571129045E+02  0.00000000000E+00 0.  1.
         25    1    1    2    0    0 -0.13123428737E+03  0.16039581757E+03  0.75917132957E+03  0.79681576548E+03  0.12500000000E+03 0.  0.
         25    1    1    2    0    0  0.13123428737E+03 -0.16039581757E+03  0.68500205844E+03  0.72649988062E+03  0.12500000000E+03 0.  0.
</event>
<event>
 4    0  0.2179527E-002  0.2232369E+03  0.7546771E-02  0.1131493E+00
         21   -1    0    0  502  501  0.00000000000E+00  0.00000000000E+00  0.63493454121E+03  0.63493454121E+03  0.00000000000E+00 0.  1.
         21   -1    0    0  501  502 -0.00000000000E+00 -0.00000000000E+00 -0.78487949487E+02  0.78487949487E+02  0.00000000000E+00 0.  1.
         25    1    1    2    0    0  0.58593115154E+02 -0.17502154780E+03  0.25904745198E+03  0.34175470402E+03  0.12500000000E+03 0.  0.
         25    1    1    2    0    0 -0.58593115154E+02  0.17502154780E+03  0.29739913974E+03  0.37166778668E+03  0.12500000000E+03 0.  0.
</event>
<event>
 4    0  0.2179527E-002  0.2140243E+03  0.7546771E-02  0.1138418E+00
         21   -1    0    0  502  501  0.00000000000E+00  0.00000000000E+00  0.23011666137E+03  0.23011666137E+03  0.00000000000E+00 0.  1.
         21   -1    0    0  501  502 -0.00000000000E+00 -0.00000000000E+00 -0.19905723681E+03  0.19905723681E+03  0.00000000000E+00 0.  1.
         25    1    1    2    0    0  0.13431874476E+03 -0.14907007172E+02  0.12498467760E+03  0.22250823287E+03  0.12500000000E+03 0.  0.
         25    1    1    2    0    0 -0.13431874476E+03  0.14907007172E+02 -0.93925253046E+02  0.20666566531E+03  0.12500000000E+03 0.  0.
</event>
<event>
 4    0  0.2179527E-002  0.2991901E+03  0.7546771E-02  0.1085646E+00
         21   -1    0    0  502  501  0.00000000000E+00  0.00000000000E+00  0.81237876397E+03  0.81237876397E+03  0.00000000000E+00 0.  1.
         21   -1    0    0  501  502 -0.00000000000E+00 -0.00000000000E+00 -0.11018840002E+03  0.11018840002E+03  0.00000000000E+00 0.  1.
         25    1    1    2    0    0  0.38692308484E+02  0.11831023788E+03  0.72366679208E+03  0.74485772673E+03  0.12500000000E+03 0.  0.
         25    1    1    2    0    0 -0.38692308484E+02 -0.11831023788E+03 -0.21476428130E+02  0.17770943725E+03  0.12500000000E+03 0.  0.
</event>
<event>
 4    0  0.2179527E-002  0.3685207E+03  0.7546771E-02  0.1055260E+00
         21   -1    0    0  502  501  0.00000000000E+00  0.00000000000E+00  0.21745549906E+03  0.21745549906E+03  0.00000000000E+00 0.  1.
         21   -1    0    0  501  502 -0.00000000000E+00 -0.00000000000E+00 -0.62453026440E+03  0.62453026440E+03  0.00000000000E+00 0.  1.
         25    1    1    2    0    0 -0.16960697347E+03  0.25981490049E+03 -0.38019113712E+03  0.50639965315E+03  0.12500000000E+03 0.  0.
         25    1    1    2    0    0  0.16960697347E+03 -0.25981490049E+03 -0.26883628208E+02  0.33558611031E+03  0.12500000000E+03 0.  0.
</event>
<event>
 4    0  0.2179527E-002  0.1812871E+03  0.7546771E-02  0.1166563E+00
         21   -1    0    0  502  501  0.00000000000E+00  0.00000000000E+00  0.48265022750E+02  0.48265022750E+02  0.00000000000E+00 0. -1.
         21   -1    0    0  501  502 -0.00000000000E+00 -0.00000000000E+00 -0.68092815863E+03  0.68092815863E+03  0.00000000000E+00 0. -1.
         25    1    1    2    0    0  0.62545715475E+01 -0.23336295240E+02 -0.56773157589E+02  0.13939832769E+03  0.12500000000E+03 0.  0.
         25    1    1    2    0    0 -0.62545715475E+01  0.23336295240E+02 -0.57588997829E+03  0.58979485369E+03  0.12500000000E+03 0.  0.
</event>
<event>
 4    0  0.2179527E-002  0.2681252E+03  0.7546771E-02  0.1102357E+00
         21   -1    0    0  502  501  0.00000000000E+00  0.00000000000E+00  0.40094018564E+03  0.40094018564E+03  0.00000000000E+00 0.  1.
         21   -1    0    0  501  502 -0.00000000000E+00 -0.00000000000E+00 -0.17930633931E+03  0.17930633931E+03  0.00000000000E+00 0.  1.
         25    1    1    2    0    0  0.22685146016E+03 -0.21141711557E+02  0.39389229738E+02  0.26284038572E+03  0.12500000000E+03 0.  0.
         25    1    1    2    0    0 -0.22685146016E+03  0.21141711557E+02  0.18224461660E+03  0.31740613924E+03  0.12500000000E+03 0.  0.
</event>
<event>
 4    0  0.2179527E-002  0.2494446E+03  0.7546771E-02  0.1113656E+00
         21   -1    0    0  502  501  0.00000000000E+00  0.00000000000E+00  0.10964163086E+03  0.10964163086E+03  0.00000000000E+00 0.  1.
         21   -1    0    0  501  502 -0.00000000000E+00 -0.00000000000E+00 -0.56750910830E+03  0.56750910830E+03  0.00000000000E+00 0.  1.
         25    1    1    2    0    0 -0.34707589267E+01 -0.20651203927E+03 -0.31411394050E+03  0.39617147317E+03  0.12500000000E+03 0.  0.
         25    1    1    2    0    0  0.34707589267E+01  0.20651203927E+03 -0.14375353694E+03  0.28097926599E+03  0.12500000000E+03 0.  0.
</event>
<event>
 4    0  0.2179527E-002  0.2922497E+03  0.7546771E-02  0.1089180E+00
         21   -1    0    0  502  501  0.00000000000E+00  0.00000000000E+00  0.17985810226E+03  0.17985810226E+03  0.00000000000E+00 0.  1.
         21   -1    0    0  501  502 -0.00000000000E+00 -0.00000000000E+00 -0.47487370976E+03  0.47487370976E+03  0.00000000000E+00 0.  1.
         25    1    1    2    0    0  0.22814461360E+03  0.43486450143E+02 -0.28850475328E+03  0.39089772157E+03  0.12500000000E+03 0.  0.
         25    1    1    2    0    0 -0.22814461360E+03 -0.43486450143E+02 -0.65108542143E+01  0.26383409045E+03  0.12500000000E+03 0.  0.
</event>
<event>
 4    0  0.2179527E-002  0.3087317E+03  0.7546771E-02  0.1080955E+00
         21   -1    0    0  502  501  0.00000000000E+00  0.00000000000E+00  0.18731847748E+03  0.18731847748E+03  0.00000000000E+00 0.  1.
         21   -1    0    0  501  502 -0.00000000000E+00 -0.00000000000E+00 -0.50884079028E+03  0.50884079028E+03  0.00000000000E+00 0.  1.
         25    1    1    2    0    0 -0.13658852175E+03  0.44341258496E+02 -0.43477494283E+03  0.47463335575E+03  0.12500000000E+03 0.  0.
         25    1    1    2    0    0  0.13658852175E+03 -0.44341258496E+02  0.11325263003E+03  0.22152591200E+03  0.12500000000E+03 0.  0.
</event>
<event>
 4    0  0.2179527E-002  0.2216051E+03  0.7546771E-02  0.1132692E+00
         21   -1    0    0  502  501  0.00000000000E+00  0.00000000000E+00  0.13926660269E+03  0.13926660269E+03  0.00000000000E+00 0.  1.
         21   -1    0    0  501  502 -0.00000000000E+00 -0.00000000000E+00 -0.35262447642E+03  0.35262447642E+03  0.00000000000E+00 0. -1.
         25    1    1    2    0    0  0.10410977790E+03  0.15037806177E+03 -0.10045933800E+03  0.24324778705E+03  0.12500000000E+03 0.  0.
         25    1    1    2    0    0 -0.10410977790E+03 -0.15037806177E+03 -0.11289853573E+03  0.24864329206E+03  0.12500000000E+03 0.  0.
</event>
<event>
 4    0  0.2179527E-002  0.1821396E+03  0.7546771E-02  0.1165748E+00
         21   -1    0    0  502  501  0.00000000000E+00  0.00000000000E+00  0.14997557617E+04  0.14997557617E+04  0.00000000000E+00 0.  1.
         21   -1    0    0  501  502 -0.00000000000E+00 -0.00000000000E+00 -0.22120145987E+02  0.22120145987E+02  0.00000000000E+00 0.  1.
         25    1    1    2    0    0 -0.10619273722E+02  0.12003848097E+03  0.96870211629E+03  0.98413962221E+03  0.12500000000E+03 0.  0.
         25    1    1    2    0    0  0.10619273722E+02 -0.12003848097E+03  0.50893349941E+03  0.53773628547E+03  0.12500000000E+03 0.  0.
</event>
<event>
 4    0  0.2179527E-002  0.1775329E+03  0.7546771E-02  0.1170212E+00
         21   -1    0    0  502  501  0.00000000000E+00  0.00000000000E+00  0.34598963084E+03  0.34598963084E+03  0.00000000000E+00 0. -1.
         21   -1    0    0  501  502 -0.00000000000E+00 -0.00000000000E+00 -0.91095064702E+02  0.91095064702E+02  0.00000000000E+00 0. -1.
         25    1    1    2    0    0 -0.11731167736E+03  0.18502354829E+02  0.75386469789E+02  0.18818205708E+03  0.12500000000E+03 0.  0.
         25    1    1    2    0    0  0.11731167736E+03 -0.18502354829E+02  0.17950809635E+03  0.24890263847E+03  0.12500000000E+03 0.  0.
</event>
<event>
 4    0  0.2179527E-002  0.1992236E+03  0.7546771E-02  0.1150396E+00
         21   -1    0    0  502  501  0.00000000000E+00  0.00000000000E+00  0.24673148863E+02  0.24673148863E+02  0.00000000000E+00 0. -1.
         21   -1    0    0  501  502 -0.00000000000E+00 -0.00000000000E+00 -0.16086333771E+04  0.16086333771E+04  0.00000000000E+00 0. -1.
         25    1    1    2    0    0 -0.77157431472E+02  0.13449581776E+03 -0.77246847365E+03  0.79773111824E+03  0.12500000000E+03 0.  0.
         25    1    1    2    0    0  0.77157431472E+02 -0.13449581776E+03 -0.81149175462E+03  0.83557540776E+03  0.12500000000E+03 0.  0.
</event>
<event>
 4    0  0.2179527E-002  0.2250498E+03  0.7546771E-02  0.1130173E+00
         21   -1    0    0  502  501  0.00000000000E+00  0.00000000000E+00  0.14453427727E+03  0.14453427727E+03  0.00000000000E+00 0. -1.
         21   -1    0    0  501  502 -0.00000000000E+00 -0.00000000000E+00 -0.35041801455E+03  0.35041801455E+03  0.00000000000E+00 0. -1.
         25    1    1    2    0    0  0.56497123955E+02  0.17350833487E+03 -0.57265354337E+02  0.22847623091E+03  0.12500000000E+03 0.  0.
         25    1    1    2    0    0 -0.56497123955E+02 -0.17350833487E+03 -0.14861838294E+03  0.26647606090E+03  0.12500000000E+03 0.  0.
</event>
<event>
 4    0  0.2179527E-002  0.2543152E+03  0.7546771E-02  0.1110608E+00
         21   -1    0    0  502  501  0.00000000000E+00  0.00000000000E+00  0.54795368006E+03  0.54795368006E+03  0.00000000000E+00 0.  1.
         21   -1    0    0  501  502 -0.00000000000E+00 -0.00000000000E+00 -0.11803230904E+03  0.11803230904E+03  0.00000000000E+00 0.  1.
         25    1    1    2    0    0 -0.75916315999E+02  0.20702734926E+03  0.24203738022E+03  0.35047211559E+03  0.12500000000E+03 0.  0.
         25    1    1    2    0    0  0.75916315999E+02 -0.20702734926E+03  0.18788399080E+03  0.31551387351E+03  0.12500000000E+03 0.  0.
</event>
<event>
 4    0  0.2179527E-002  0.7136101E+03  0.7546771E-02  0.9694236E-01
         21   -1    0    0  502  501  0.00000000000E+00  0.00000000000E+00  0.19301261032E+04  0.19301261032E+04  0.00000000000E+00 0.  1.
         21   -1    0    0  501  502 -0.00000000000E+00 -0.00000000000E+00 -0.26383737069E+03  0.26383737069E+03  0.00000000000E+00 0. -1.
         25    1    1    2    0    0  0.19412545856E+03  0.51208501462E+03  0.15096971513E+04  0.16108153974E+04  0.12500000000E+03 0.  0.
         25    1    1    2    0    0 -0.19412545856E+03 -0.51208501462E+03  0.15659158127E+03  0.58314807655E+03  0.12500000000E+03 0.  0.
</event>
<event>
 4    0  0.2179527E-002  0.1980332E+03  0.7546771E-02  0.1151409E+00
         21   -1    0    0  502  501  0.00000000000E+00  0.00000000000E+00  0.15003285926E+03  0.15003285926E+03  0.00000000000E+00 0. -1.
         21   -1    0    0  501  502 -0.00000000000E+00 -0.00000000000E+00 -0.26139029852E+03  0.26139029852E+03  0.00000000000E+00 0. -1.
         25    1    1    2    0    0  0.50367089876E+02  0.62964477438E+02  0.80121840033E+02  0.16895525565E+03  0.12500000000E+03 0.  0.
         25    1    1    2    0    0 -0.50367089876E+02 -0.62964477438E+02 -0.19147927930E+03  0.24246790213E+03  0.12500000000E+03 0.  0.
</event>
<event>
 4    0  0.2179527E-002  0.2468555E+03  0.7546771E-02  0.1115308E+00
         21   -1    0    0  502  501  0.00000000000E+00  0.00000000000E+00  0.25943242741E+04  0.25943242741E+04  0.00000000000E+00 0.  1.
         21   -1    0    0  501  502 -0.00000000000E+00 -0.00000000000E+00 -0.23488826002E+02  0.23488826002E+02  0.00000000000E+00 0.  1.
         25    1    1    2    0    0 -0.10369109447E+03 -0.11783207947E+03  0.20478533968E+04  0.20576600246E+04  0.12500000000E+03 0.  0.
         25    1    1    2    0    0  0.10369109447E+03  0.11783207947E+03  0.52298205136E+03  0.56015307557E+03  0.12500000000E+03 0.  0.
</event>
<event>
 4    0  0.2179527E-002  0.2207679E+03  0.7546771E-02  0.1133312E+00
         21   -1    0    0  502  501  0.00000000000E+00  0.00000000000E+00  0.15424102877E+04  0.15424102877E+04  0.00000000000E+00 0.  1.
         21   -1    0    0  501  502 -0.00000000000E+00 -0.00000000000E+00 -0.31598897378E+02  0.31598897378E+02  0.00000000000E+00 0.  1.
         25    1    1    2    0    0  0.16067401789E+03  0.65715873701E+02  0.94996779771E+03  0.97375486277E+03  0.12500000000E+03 0.  0.
         25    1    1    2    0    0 -0.16067401789E+03 -0.65715873701E+02  0.56084359264E+03  0.60025432234E+03  0.12500000000E+03 0.  0.
</event>
<event>
 4    0  0.2179527E-002  0.2806356E+03  0.7546771E-02  0.1095342E+00
         21   -1    0    0  502  501  0.00000000000E+00  0.00000000000E+00  0.45666226541E+03  0.45666226541E+03  0.00000000000E+00 0. -1.
         21   -1    0    0  501  502 -0.00000000000E+00 -0.00000000000E+00 -0.17246079830E+03  0.17246079830E+03  0.00000000000E+00 0. -1.
         25    1    1    2    0    0  0.18144283598E+03 -0.13855881795E+03  0.24480522671E+02  0.26142751338E+03  0.12500000000E+03 0.  0.
         25    1    1    2    0    0 -0.18144283598E+03  0.13855881795E+03  0.25972094443E+03  0.36769555034E+03  0.12500000000E+03 0.  0.
</event>
<event>
 4    0  0.2179527E-002  0.2183134E+03  0.7546771E-02  0.1135147E+00
         21   -1    0    0  502  501  0.00000000000E+00  0.00000000000E+00  0.42813872957E+02  0.42813872957E+02  0.00000000000E+00 0. -1.
         21   -1    0    0  501  502 -0.00000000000E+00 -0.00000000000E+00 -0.11132080974E+04  0.11132080974E+04  0.00000000000E+00 0. -1.
         25    1    1    2    0    0  0.17341981580E+03 -0.19523323977E+02 -0.64044316720E+03  0.67546135574E+03  0.12500000000E+03 0.  0.
         25    1    1    2    0    0 -0.17341981580E+03  0.19523323977E+02 -0.42995105722E+03  0.48056061459E+03  0.12500000000E+03 0.  0.
</event>
<event>
 4    0  0.2179527E-002  0.3360312E+03  0.7546771E-02  0.1068499E+00
         21   -1    0    0  502  501  0.00000000000E+00  0.00000000000E+00  0.15751907152E+03  0.15751907152E+03  0.00000000000E+00 0. -1.
         21   -1    0    0  501  502 -0.00000000000E+00 -0.00000000000E+00 -0.71684618342E+03  0.71684618342E+03  0.00000000000E+00 0. -1.
         25    1    1    2    0    0 -0.90582669876E+01 -0.38700410712E+02  0.12283740333E+03  0.17970476245E+03  0.12500000000E+03 0.  0.
         25    1    1    2    0    0  0.90582669876E+01  0.38700410712E+02 -0.68216451523E+03  0.69466049249E+03  0.12500000000E+03 0.  0.
</event>
<event>
 4    0  0.2179527E-002  0.2390510E+03  0.7546771E-02  0.1120427E+00
         21   -1    0    0  502  501  0.00000000000E+00  0.00000000000E+00  0.13320380611E+04  0.13320380611E+04  0.00000000000E+00 0.  1.
         21   -1    0    0  501  502 -0.00000000000E+00 -0.00000000000E+00 -0.42900707654E+02  0.42900707654E+02  0.00000000000E+00 0.  1.
         25    1    1    2    0    0 -0.15458414183E+03  0.89158246509E+02  0.92743850989E+03  0.95268706270E+03  0.12500000000E+03 0.  0.
         25    1    1    2    0    0  0.15458414183E+03 -0.89158246509E+02  0.36169884354E+03  0.42225170603E+03  0.12500000000E+03 0.  0.
</event>
<event>
 4    0  0.2179527E-002  0.2723353E+03  0.7546771E-02  0.1099950E+00
         21   -1    0    0  502  501  0.00000000000E+00  0.00000000000E+00  0.49123618980E+03  0.49123618980E+03  0.00000000000E+00 0.  1.
         21   -1    0    0  501  502 -0.00000000000E+00 -0.00000000000E+00 -0.15097933189E+03  0.15097933189E+03  0.00000000000E+00 0.  1.
         25    1    1    2    0    0  0.15229743608E+03  0.33171604165E+02  0.38832901189E+03  0.43671419239E+03  0.12500000000E+03 0.  0.
         25    1    1    2    0    0 -0.15229743608E+03 -0.33171604165E+02 -0.48072153981E+02  0.20550132931E+03  0.12500000000E+03 0.  0.
</event>
<event>
 4    0  0.2179527E-002  0.2698442E+03  0.7546771E-02  0.1101369E+00
         21   -1    0    0  502  501  0.00000000000E+00  0.00000000000E+00  0.11972864688E+03  0.11972864688E+03  0.00000000000E+00 0.  1.
         21   -1    0    0  501  502 -0.00000000000E+00 -0.00000000000E+00 -0.60817436397E+03  0.60817436397E+03  0.00000000000E+00 0.  1.
         25    1    1    2    0    0 -0.16108506901E+03  0.31531905838E+02 -0.47879716117E+03  0.52135820900E+03  0.12500000000E+03 0.  0.
         25    1    1    2    0    0  0.16108506901E+03 -0.31531905838E+02 -0.96485559248E+01  0.20654480186E+03  0.12500000000E+03 0.  0.
</event>
<event>
 4    0  0.2179527E-002  0.2064574E+03  0.7546771E-02  0.1144402E+00
         21   -1    0    0  502  501  0.00000000000E+00  0.00000000000E+00  0.99180074984E+02  0.99180074984E+02  0.00000000000E+00 0. -1.
         21   -1    0    0  501  502 -0.00000000000E+00 -0.00000000000E+00 -0.42977032934E+03  0.42977032934E+03  0.00000000000E+00 0. -1.
         25    1    1    2    0    0  0.11286639851E+03  0.10297972319E+03 -0.24275164847E+03  0.31288497908E+03  0.12500000000E+03 0.  0.
         25    1    1    2    0    0 -0.11286639851E+03 -0.10297972319E+03 -0.87838605892E+02  0.21606542525E+03  0.12500000000E+03 0.  0.
</event>
<event>
 4    0  0.2179527E-002  0.2636235E+03  0.7546771E-02  0.1104985E+00
         21   -1    0    0  502  501  0.00000000000E+00  0.00000000000E+00  0.84882060723E+02  0.84882060723E+02  0.00000000000E+00 0.  1.
         21   -1    0    0  501  502 -0.00000000000E+00 -0.00000000000E+00 -0.81875197996E+03  0.81875197996E+03  0.00000000000E+00 0.  1.
         25    1    1    2    0    0 -0.17517740996E+02  0.16833395975E+03 -0.94708797053E+02  0.23073350319E+03  0.12500000000E+03 0.  0.
         25    1    1    2    0    0  0.17517740996E+02 -0.16833395975E+03 -0.63916112219E+03  0.67290053750E+03  0.12500000000E+03 0.  0.
</event>
<event>
 4    0  0.2179527E-002  0.2369606E+03  0.7546771E-02  0.1121834E+00
         21   -1    0    0  502  501  0.00000000000E+00  0.00000000000E+00  0.10638282017E+04  0.10638282017E+04  0.00000000000E+00 0.  1.
         21   -1    0    0  501  502 -0.00000000000E+00 -0.00000000000E+00 -0.52781382295E+02  0.52781382295E+02  0.00000000000E+00 0.  1.
         25    1    1    2    0    0  0.17717433997E+03  0.35529962394E+02  0.71457006900E+03  0.74758846198E+03  0.12500000000E+03 0.  0.
         25    1    1    2    0    0 -0.17717433997E+03 -0.35529962394E+02  0.29647675045E+03  0.36902112206E+03  0.12500000000E+03 0.  0.
</event>
<event>
 4    0  0.2179527E-002  0.1742907E+03  0.7546771E-02  0.1173446E+00
         21   -1    0    0  502  501  0.00000000000E+00  0.00000000000E+00  0.17989867142E+02  0.17989867142E+02  0.00000000000E+00 0. -1.
         21   -1    0    0  501  502 -0.00000000000E+00 -0.00000000000E+00 -0.16885758983E+04  0.16885758983E+04  0.00000000000E+00 0. -1.
         25    1    1    2    0    0 -0.51608194654E+02  0.10085137772E+03 -0.10496936531E+04  0.10631632854E+04  0.12500000000E+03 0.  0.
         25    1    1    2    0    0  0.51608194654E+02 -0.10085137772E+03 -0.62089237803E+03  0.64340247997E+03  0.12500000000E+03 0.  0.
</event>
<event>
 4    0  0.2179527E-002  0.2301653E+03  0.7546771E-02  0.1126523E+00
         21   -1    0    0  502  501  0.00000000000E+00  0.00000000000E+00  0.27737900113E+03  0.27737900113E+03  0.00000000000E+00 0. -1.
         21   -1    0    0  501  502 -0.00000000000E+00 -0.00000000000E+00 -0.19098807650E+03  0.19098807650E+03  0.00000000000E+00 0. -1.
         25    1    1    2    0    0  0.13794992096E+03  0.97742694066E+02 -0.52072869869E+02  0.21661116941E+03  0.12500000000E+03 0.  0.
         25    1    1    2    0    0 -0.13794992096E+03 -0.97742694066E+02  0.13846379450E+03  0.25175590822E+03  0.12500000000E+03 0.  0.
</event>
<event>
 4    0  0.2179527E-002  0.1609206E+03  0.7546771E-02  0.1187661E+00
         21   -1    0    0  502  501  0.00000000000E+00  0.00000000000E+00  0.99800367600E+02  0.99800367600E+02  0.00000000000E+00 0.  1.
         21   -1    0    0  501  502 -0.00000000000E+00 -0.00000000000E+00 -0.25947234140E+03  0.25947234140E+03  0.00000000000E+00 0.  1.
         25    1    1    2    0    0 -0.38313354582E+01 -0.95188104108E+02 -0.11842494771E+03  0.19678648972E+03  0.12500000000E+03 0.  0.
         25    1    1    2    0    0  0.38313354582E+01  0.95188104108E+02 -0.41247026085E+02  0.16248621928E+03  0.12500000000E+03 0.  0.
</event>
<event>
 4    0  0.2179527E-002  0.1979570E+03  0.7546771E-02  0.1151474E+00
         21   -1    0    0  502  501  0.00000000000E+00  0.00000000000E+00  0.55744337932E+02  0.55744337932E+02  0.00000000000E+00 0.  1.
         21   -1    0    0  501  502 -0.00000000000E+00 -0.00000000000E+00 -0.70297655472E+03  0.70297655472E+03  0.00000000000E+00 0.  1.
         25    1    1    2    0    0  0.39023639284E+02 -0.15250683490E+02 -0.40623836187E+02  0.13795188957E+03  0.12500000000E+03 0.  0.
         25    1    1    2    0    0 -0.39023639284E+02  0.15250683490E+02 -0.60660838061E+03  0.62076900308E+03  0.12500000000E+03 0.  0.
</event>
<event>
 4    0  0.2179527E-002  0.2128035E+03  0.7546771E-02  0.1139365E+00
         21   -1    0    0  502  501  0.00000000000E+00  0.00000000000E+00  0.17327330088E+03  0.17327330088E+03  0.00000000000E+00 0.  1.
         21   -1    0    0  501  502 -0.00000000000E+00 -0.00000000000E+00 -0.26135213729E+03  0.26135213729E+03  0.00000000000E+00 0.  1.
         25    1    1    2    0    0  0.22820245731E+02 -0.15000419968E+03 -0.12724175341E+03  0.23417405353E+03  0.12500000000E+03 0.  0.
         25    1    1    2    0    0 -0.22820245731E+02  0.15000419968E+03  0.39162916996E+02  0.20045138464E+03  0.12500000000E+03 0.  0.
</event>
<event>
 4    0  0.2179527E-002  0.1927838E+03  0.7546771E-02  0.1155974E+00
         21   -1    0    0  502  501  0.00000000000E+00  0.00000000000E+00  0.33340521171E+03  0.33340521171E+03  0.00000000000E+00 0.  1.
         21   -1    0    0  501  502 -0.00000000000E+00 -0.00000000000E+00 -0.11147273226E+03  0.11147273226E+03  0.00000000000E+00 0.  1.
         25    1    1    2    0    0  0.11709786306E+03 -0.87930659840E+02  0.99609435516E+02  0.21677349957E+03  0.12500000000E+03 0.  0.
         25    1    1    2    0    0 -0.11709786306E+03  0.87930659840E+02  0.12232304394E+03  0.22810444439E+03  0.12500000000E+03 0.  0.
</event>
<event>
 4    0  0.2179527E-002  0.2643359E+03  0.7546771E-02  0.1104566E+00
         21   -1    0    0  502  501  0.00000000000E+00  0.00000000000E+00  0.41884976616E+03  0.41884976616E+03  0.00000000000E+00 0.  1.
         21   -1    0    0  501  502 -0.00000000000E+00 -0.00000000000E+00 -0.16682228560E+03  0.16682228560E+03  0.00000000000E+00 0.  1.
         25    1    1    2    0    0  0.22453345268E+02 -0.36127654336E+02 -0.12767197291E+03  0.18366952057E+03  0.12500000000E+03 0.  0.
         25    1    1    2    0    0 -0.22453345268E+02  0.36127654336E+02  0.37969945346E+03  0.40200253119E+03  0.12500000000E+03 0.  0.
</event>
<event>
 4    0  0.2179527E-002  0.2832287E+03  0.7546771E-02  0.1093938E+00
         21   -1    0    0  502  501  0.00000000000E+00  0.00000000000E+00  0.96211154643E+03  0.96211154643E+03  0.00000000000E+00 0. -1.
         21   -1    0    0  501  502 -0.00000000000E+00 -0.00000000000E+00 -0.83377558660E+02  0.83377558660E+02  0.00000000000E+00 0. -1.
         25    1    1    2    0    0  0.13112935181E+03  0.15636546045E+03  0.71896165404E+03  0.75774397003E+03  0.12500000000E+03 0.  0.
         25    1    1    2    0    0 -0.13112935181E+03 -0.15636546045E+03  0.15977233373E+03  0.28774513507E+03  0.12500000000E+03 0.  0.
</event>
<event>
 4    0  0.2179527E-002  0.2096156E+03  0.7546771E-02  0.1141871E+00
         21   -1    0    0  502  501  0.00000000000E+00  0.00000000000E+00  0.18774319708E+04  0.18774319708E+04  0.00000000000E+00 0. -1.
         21   -1    0    0  501  502 -0.00000000000E+00 -0.00000000000E+00 -0.23403624998E+02  0.23403624998E+02  0.00000000000E+00 0. -1.
         25    1    1    2    0    0 -0.54672125913E+02  0.29998773552E+02  0.21840638859E+03  0.25925917215E+03  0.12500000000E+03 0.  0.
         25    1    1    2    0    0  0.54672125913E+02 -0.29998773552E+02  0.16356219572E+04  0.16415764237E+04  0.12500000000E+03 0.  0.
</event>
<event>
 4    0  0.2179527E-002  0.1843690E+03  0.7546771E-02  0.1163640E+00
         21   -1    0    0  502  501  0.00000000000E+00  0.00000000000E+00  0.62540514836E+02  0.62540514836E+02  0.00000000000E+00 0.  1.
         21   -1    0    0  501  502 -0.00000000000E+00 -0.00000000000E+00 -0.54351881014E+03  0.54351881014E+03  0.00000000000E+00 0.  1.
         25    1    1    2    0    0  0.13345233658E+03 -0.23085631212E+02 -0.23235809172E+03  0.29657672750E+03  0.12500000000E+03 0.  0.
         25    1    1    2    0    0 -0.13345233658E+03  0.23085631212E+02 -0.24862020358E+03  0.30948259747E+03  0.12500000000E+03 0.  0.
</event>
<event>
 4    0  0.2179527E-002  0.1957167E+03  0.7546771E-02  0.1153404E+00
         21   -1    0    0  502  501  0.00000000000E+00  0.00000000000E+00  0.87754262048E+03  0.87754262048E+03  0.00000000000E+00 0. -1.
         21   -1    0    0  501  502 -0.00000000000E+00 -0.00000000000E+00 -0.43650347725E+02  0.43650347725E+02  0.00000000000E+00 0. -1.
         25    1    1    2    0    0 -0.13229752101E+03  0.47198558144E+02  0.28913115275E+03  0.34489442073E+03  0.12500000000E+03 0.  0.
         25    1    1    2    0    0  0.13229752101E+03 -0.47198558144E+02  0.54476112000E+03  0.57629854747E+03  0.12500000000E+03 0.  0.
</event>
<event>
 4    0  0.2179527E-002  0.4157437E+03  0.7546771E-02  0.1038461E+00
         21   -1    0    0  502  501  0.00000000000E+00  0.00000000000E+00  0.15427725282E+04  0.15427725282E+04  0.00000000000E+00 0.  1.
         21   -1    0    0  501  502 -0.00000000000E+00 -0.00000000000E+00 -0.11203389779E+03  0.11203389779E+03  0.00000000000E+00 0.  1.
         25    1    1    2    0    0 -0.61382878995E+01  0.21940892719E+03  0.13725490789E+04  0.13955980545E+04  0.12500000000E+03 0.  0.
         25    1    1    2    0    0  0.61382878995E+01 -0.21940892719E+03  0.58189551504E+02  0.25920837142E+03  0.12500000000E+03 0.  0.
</event>
<event>
 4    0  0.2179527E-002  0.1995940E+03  0.7546771E-02  0.1150082E+00
         21   -1    0    0  502  501  0.00000000000E+00  0.00000000000E+00  0.54737108915E+03  0.54737108915E+03  0.00000000000E+00 0.  1.
         21   -1    0    0  501  502 -0.00000000000E+00 -0.00000000000E+00 -0.72780153174E+02  0.72780153174E+02  0.00000000000E+00 0.  1.
         25    1    1    2    0    0  0.99114833595E+02 -0.11788338064E+03  0.27177233209E+03  0.33646016430E+03  0.12500000000E+03 0.  0.
         25    1    1    2    0    0 -0.99114833595E+02  0.11788338064E+03  0.20281860388E+03  0.28369107802E+03  0.12500000000E+03 0.  0.
</event>
<event>
 4    0  0.2179527E-002  0.2137352E+03  0.7546771E-02  0.1138642E+00
         21   -1    0    0  502  501  0.00000000000E+00  0.00000000000E+00  0.36621583472E+02  0.36621583472E+02  0.00000000000E+00 0.  1.
         21   -1    0    0  501  502 -0.00000000000E+00 -0.00000000000E+00 -0.12474266218E+04  0.12474266218E+04  0.00000000000E+00 0.  1.
         25    1    1    2    0    0  0.62604370086E+02 -0.15981507858E+03 -0.67883196738E+03  0.71126507466E+03  0.12500000000E+03 0.  0.
         25    1    1    2    0    0 -0.62604370086E+02  0.15981507858E+03 -0.53197307093E+03  0.57278313059E+03  0.12500000000E+03 0.  0.
</event>
<event>
 4    0  0.2179527E-002  0.2019854E+03  0.7546771E-02  0.1148075E+00
         21   -1    0    0  502  501  0.00000000000E+00  0.00000000000E+00  0.10410278034E+04  0.10410278034E+04  0.00000000000E+00 0. -1.
         21   -1    0    0  501  502 -0.00000000000E+00 -0.00000000000E+00 -0.39190220756E+02  0.39190220756E+02  0.00000000000E+00 0. -1.
         25    1    1    2    0    0 -0.40572020579E+02 -0.14138482236E+03  0.65995667182E+03  0.68760713022E+03  0.12500000000E+03 0.  0.
         25    1    1    2    0    0  0.40572020579E+02  0.14138482236E+03  0.34188091079E+03  0.39261089390E+03  0.12500000000E+03 0.  0.
</event>
<event>
 4    0  0.2179527E-002  0.2226541E+03  0.7546771E-02  0.1131920E+00
         21   -1    0    0  502  501  0.00000000000E+00  0.00000000000E+00  0.48119709681E+03  0.48119709681E+03  0.00000000000E+00 0.  1.
         21   -1    0    0  501  502 -0.00000000000E+00 -0.00000000000E+00 -0.10302403008E+03  0.10302403008E+03  0.00000000000E+00 0.  1.
         25    1    1    2    0    0  0.99624192846E+02  0.68820919696E+02  0.37129412162E+03  0.41005563468E+03  0.12500000000E+03 0.  0.
         25    1    1    2    0    0 -0.99624192846E+02 -0.68820919696E+02  0.68789451113E+01  0.17416549220E+03  0.12500000000E+03 0.  0.
</event>
<event>
 4    0  0.2179527E-002  0.2285987E+03  0.7546771E-02  0.1127630E+00
         21   -1    0    0  502  501  0.00000000000E+00  0.00000000000E+00  0.22624415228E+03  0.22624415228E+03  0.00000000000E+00 0.  1.
         21   -1    0    0  501  502 -0.00000000000E+00 -0.00000000000E+00 -0.23097776628E+03  0.23097776628E+03  0.00000000000E+00 0.  1.
         25    1    1    2    0    0  0.68560464124E+02  0.17117288689E+03  0.48935791215E+02  0.22807982399E+03  0.12500000000E+03 0.  0.
         25    1    1    2    0    0 -0.68560464124E+02 -0.17117288689E+03 -0.53669405214E+02  0.22914209457E+03  0.12500000000E+03 0.  0.
</event>
<event>
 4    0  0.2179527E-002  0.5044354E+03  0.7546771E-02  0.1012628E+00
         21   -1    0    0  502  501  0.00000000000E+00  0.00000000000E+00  0.31837814269E+03  0.31837814269E+03  0.00000000000E+00 0.  1.
         21   -1    0    0  501  502 -0.00000000000E+00 -0.00000000000E+00 -0.79922269879E+03  0.79922269879E+03  0.00000000000E+00 0. -1.
         25    1    1    2    0    0 -0.29050770973E+03  0.12662276757E+03  0.17169645364E+03  0.38148751863E+03  0.12500000000E+03 0.  0.
         25    1    1    2    0    0  0.29050770973E+03 -0.12662276757E+03 -0.65254100974E+03  0.73611332285E+03  0.12500000000E+03 0.  0.
</event>
<event>
 4    0  0.2179527E-002  0.2294444E+03  0.7546771E-02  0.1127031E+00
         21   -1    0    0  502  501  0.00000000000E+00  0.00000000000E+00  0.13158457579E+04  0.13158457579E+04  0.00000000000E+00 0. -1.
         21   -1    0    0  501  502 -0.00000000000E+00 -0.00000000000E+00 -0.40008301152E+02  0.40008301152E+02  0.00000000000E+00 0. -1.
         25    1    1    2    0    0 -0.10384196069E+03  0.16112614770E+03  0.58892458461E+03  0.63182430678E+03  0.12500000000E+03 0.  0.
         25    1    1    2    0    0  0.10384196069E+03 -0.16112614770E+03  0.68691287216E+03  0.72402975229E+03  0.12500000000E+03 0.  0.
</event>
<event>
 4    0  0.2179527E-002  0.2774659E+03  0.7546771E-02  0.1097081E+00
         21   -1    0    0  502  501  0.00000000000E+00  0.00000000000E+00  0.32184973251E+03  0.32184973251E+03  0.00000000000E+00 0. -1.
         21   -1    0    0  501  502 -0.00000000000E+00 -0.00000000000E+00 -0.23920275908E+03  0.23920275908E+03  0.00000000000E+00 0. -1.
         25    1    1    2    0    0 -0.23710352257E+03 -0.18926569684E+02 -0.28620821962E+02  0.27022295777E+03  0.12500000000E+03 0.  0.
         25    1    1    2    0    0  0.23710352257E+03  0.18926569684E+02  0.11126779539E+03  0.29082953383E+03  0.12500000000E+03 0.  0.
</event>
<event>
 4    0  0.2179527E-002  0.2638307E+03  0.7546771E-02  0.1104863E+00
         21   -1    0    0  502  501  0.00000000000E+00  0.00000000000E+00  0.30281935378E+03  0.30281935378E+03  0.00000000000E+00 0.  1.
         21   -1    0    0  501  502 -0.00000000000E+00 -0.00000000000E+00 -0.22986194917E+03  0.22986194917E+03  0.00000000000E+00 0.  1.
         25    1    1    2    0    0 -0.33156378066E+02 -0.12574192766E+03  0.23084941547E+03  0.29296216548E+03  0.12500000000E+03 0.  0.
         25    1    1    2    0    0  0.33156378066E+02  0.12574192766E+03 -0.15789201086E+03  0.23971913747E+03  0.12500000000E+03 0.  0.
</event>
<event>
 4    0  0.2179527E-002  0.3012211E+03  0.7546771E-02  0.1084632E+00
         21   -1    0    0  502  501  0.00000000000E+00  0.00000000000E+00  0.11933068648E+04  0.11933068648E+04  0.00000000000E+00 0.  1.
         21   -1    0    0  501  502 -0.00000000000E+00 -0.00000000000E+00 -0.76035902243E+02  0.76035902243E+02  0.00000000000E+00 0.  1.
         25    1    1    2    0    0 -0.12359767370E+03  0.11544676413E+03  0.10130084612E+04  0.10346088549E+04  0.12500000000E+03 0.  0.
         25    1    1    2    0    0  0.12359767370E+03 -0.11544676413E+03  0.10426250135E+03  0.23473391208E+03  0.12500000000E+03 0.  0.
</event>
<event>
 4    0  0.2179527E-002  0.3229074E+03  0.7546771E-02  0.1074319E+00
         21   -1    0    0  502  501  0.00000000000E+00  0.00000000000E+00  0.16968048522E+03  0.16968048522E+03  0.00000000000E+00 0.  1.
         21   -1    0    0  501  502 -0.00000000000E+00 -0.00000000000E+00 -0.61450320950E+03  0.61450320950E+03  0.00000000000E+00 0.  1.
         25    1    1    2    0    0  0.98158045204E+01  0.25832688413E+03 -0.43066835226E+02  0.29035991696E+03  0.12500000000E+03 0.  0.
         25    1    1    2    0    0 -0.98158045204E+01 -0.25832688413E+03 -0.40175588906E+03  0.49382377776E+03  0.12500000000E+03 0.  0.
</event>
<event>
 4    0  0.2179527E-002  0.1582680E+03  0.7546771E-02  0.1190666E+00
         21   -1    0    0  502  501  0.00000000000E+00  0.00000000000E+00  0.14732337652E+03  0.14732337652E+03  0.00000000000E+00 0. -1.
         21   -1    0    0  501  502 -0.00000000000E+00 -0.00000000000E+00 -0.17002579148E+03  0.17002579148E+03  0.00000000000E+00 0. -1.
         25    1    1    2    0    0 -0.31765091246E+02  0.70035142588E+02 -0.70747216714E+02  0.16292363515E+03  0.12500000000E+03 0.  0.
         25    1    1    2    0    0  0.31765091246E+02 -0.70035142588E+02  0.48044801757E+02  0.15442553285E+03  0.12500000000E+03 0.  0.
</event>
<event>
 4    0  0.2179527E-002  0.1881304E+03  0.7546771E-02  0.1160158E+00
         21   -1    0    0  502  501  0.00000000000E+00  0.00000000000E+00  0.13431948685E+03  0.13431948685E+03  0.00000000000E+00 0. -1.
         21   -1    0    0  501  502 -0.00000000000E+00 -0.00000000000E+00 -0.26349911107E+03  0.26349911107E+03  0.00000000000E+00 0. -1.
         25    1    1    2    0    0  0.12194766076E+03  0.14307876789E+02 -0.13701347137E+03  0.22242670397E+03  0.12500000000E+03 0.  0.
         25    1    1    2    0    0 -0.12194766076E+03 -0.14307876789E+02  0.78338471573E+01  0.17539189395E+03  0.12500000000E+03 0.  0.
</event>
<event>
 4    0  0.2179527E-002  0.2903954E+03  0.7546771E-02  0.1090143E+00
         21   -1    0    0  502  501  0.00000000000E+00  0.00000000000E+00  0.13034176482E+03  0.13034176482E+03  0.00000000000E+00 0.  1.
         21   -1    0    0  501  502 -0.00000000000E+00 -0.00000000000E+00 -0.64698735481E+03  0.64698735481E+03  0.00000000000E+00 0.  1.
         25    1    1    2    0    0 -0.10895850697E+03  0.18074177313E+03 -0.46637772305E+03  0.52694660579E+03  0.12500000000E+03 0.  0.
         25    1    1    2    0    0  0.10895850697E+03 -0.18074177313E+03 -0.50267866944E+02  0.25038251385E+03  0.12500000000E+03 0.  0.
</event>
<event>
 4    0  0.2179527E-002  0.2566338E+03  0.7546771E-02  0.1109183E+00
         21   -1    0    0  502  501  0.00000000000E+00  0.00000000000E+00  0.90772574017E+03  0.90772574017E+03  0.00000000000E+00 0.  1.
         21   -1    0    0  501  502 -0.00000000000E+00 -0.00000000000E+00 -0.72555934763E+02  0.72555934763E+02  0.00000000000E+00 0.  1.
         25    1    1    2    0    0  0.20159997690E+02  0.14156110403E+03  0.87943506102E+02  0.20929651680E+03  0.12500000000E+03 0.  0.
         25    1    1    2    0    0 -0.20159997690E+02 -0.14156110403E+03  0.74722629931E+03  0.77098515813E+03  0.12500000000E+03 0.  0.
</event>
<event>
 4    0  0.2179527E-002  0.2590964E+03  0.7546771E-02  0.1107687E+00
         21   -1    0    0  502  501  0.00000000000E+00  0.00000000000E+00  0.21490068001E+02  0.21490068001E+02  0.00000000000E+00 0. -1.
         21   -1    0    0  501  502 -0.00000000000E+00 -0.00000000000E+00 -0.31238116886E+04  0.31238116886E+04  0.00000000000E+00 0. -1.
         25    1    1    2    0    0  0.13043591920E+03 -0.10370569610E+03 -0.61599477857E+03  0.65026376775E+03  0.12500000000E+03 0.  0.
         25    1    1    2    0    0 -0.13043591920E+03  0.10370569610E+03 -0.24863268421E+04  0.24950379889E+04  0.12500000000E+03 0.  0.
</event>
<event>
 4    0  0.2179527E-002  0.1798373E+03  0.7546771E-02  0.1167961E+00
         21   -1    0    0  502  501  0.00000000000E+00  0.00000000000E+00  0.24944061391E+02  0.24944061391E+02  0.00000000000E+00 0. -1.
         21   -1    0    0  501  502 -0.00000000000E+00 -0.00000000000E+00 -0.12965592825E+04  0.12965592825E+04  0.00000000000E+00 0. -1.
         25    1    1    2    0    0 -0.14747843123E+02 -0.12454367817E+03 -0.52032965251E+03  0.54963312667E+03  0.12500000000E+03 0.  0.
         25    1    1    2    0    0  0.14747843123E+02  0.12454367817E+03 -0.75128556858E+03  0.77187021720E+03  0.12500000000E+03 0.  0.
</event>
<event>
 4    0  0.2179527E-002  0.2370544E+03  0.7546771E-02  0.1121771E+00
         21   -1    0    0  502  501  0.00000000000E+00  0.00000000000E+00  0.37462065759E+03  0.37462065759E+03  0.00000000000E+00 0. -1.
         21   -1    0    0  501  502 -0.00000000000E+00 -0.00000000000E+00 -0.15000452918E+03  0.15000452918E+03  0.00000000000E+00 0. -1.
         25    1    1    2    0    0 -0.10513413976E+02 -0.17894137914E+03  0.10654426259E+02  0.21879000398E+03  0.12500000000E+03 0.  0.
         25    1    1    2    0    0  0.10513413976E+02  0.17894137914E+03  0.21396170215E+03  0.30583518279E+03  0.12500000000E+03 0.  0.
</event>
<event>
 4    0  0.2179527E-002  0.2171349E+03  0.7546771E-02  0.1136037E+00
         21   -1    0    0  502  501  0.00000000000E+00  0.00000000000E+00  0.46958343000E+03  0.46958343000E+03  0.00000000000E+00 0.  1.
         21   -1    0    0  501  502 -0.00000000000E+00 -0.00000000000E+00 -0.10040298880E+03  0.10040298880E+03  0.00000000000E+00 0.  1.
         25    1    1    2    0    0  0.13904902090E+03  0.36405971610E+02  0.32138540258E+03  0.37359550582E+03  0.12500000000E+03 0.  0.
         25    1    1    2    0    0 -0.13904902090E+03 -0.36405971610E+02  0.47795038629E+02  0.19639091298E+03  0.12500000000E+03 0.  0.
</event>
<event>
 4    0  0.2179527E-002  0.3356175E+03  0.7546771E-02  0.1068678E+00
         21   -1    0    0  502  501  0.00000000000E+00  0.00000000000E+00  0.16202541106E+04  0.16202541106E+04  0.00000000000E+00 0. -1.
         21   -1    0    0  501  502 -0.00000000000E+00 -0.00000000000E+00 -0.69519401007E+02  0.69519401007E+02  0.00000000000E+00 0. -1.
         25    1    1    2    0    0  0.30552825173E+03  0.19463920518E+02  0.63102208538E+03  0.71241857713E+03  0.12500000000E+03 0.  0.
         25    1    1    2    0    0 -0.30552825173E+03 -0.19463920518E+02  0.91971262425E+03  0.97735493451E+03  0.12500000000E+03 0.  0.
</event>
<event>
 4    0  0.2179527E-002  0.2067049E+03  0.7546771E-02  0.1144202E+00
         21   -1    0    0  502  501  0.00000000000E+00  0.00000000000E+00  0.27484375730E+02  0.27484375730E+02  0.00000000000E+00 0. -1.
         21   -1    0    0  501  502 -0.00000000000E+00 -0.00000000000E+00 -0.15545893826E+04  0.15545893826E+04  0.00000000000E+00 0. -1.
         25    1    1    2    0    0 -0.31126951587E+02 -0.13490396746E+03 -0.11044240140E+04  0.11200648955E+04  0.12500000000E+03 0.  0.
         25    1    1    2    0    0  0.31126951587E+02  0.13490396746E+03 -0.42268099288E+03  0.46200886278E+03  0.12500000000E+03 0.  0.
</event>
<event>
 4    0  0.2179527E-002  0.2012586E+03  0.7546771E-02  0.1148681E+00
         21   -1    0    0  502  501  0.00000000000E+00  0.00000000000E+00  0.12575612846E+03  0.12575612846E+03  0.00000000000E+00 0.  1.
         21   -1    0    0  501  502 -0.00000000000E+00 -0.00000000000E+00 -0.32209190270E+03  0.32209190270E+03  0.00000000000E+00 0.  1.
         25    1    1    2    0    0 -0.73983212833E+02  0.10653751606E+03  0.16971037915E+01  0.18014338253E+03  0.12500000000E+03 0.  0.
         25    1    1    2    0    0  0.73983212833E+02 -0.10653751606E+03 -0.19803287803E+03  0.26770464862E+03  0.12500000000E+03 0.  0.
</event>
<event>
 4    0  0.2179527E-002  0.2605668E+03  0.7546771E-02  0.1106803E+00
         21   -1    0    0  502  501  0.00000000000E+00  0.00000000000E+00  0.85589605866E+02  0.85589605866E+02  0.00000000000E+00 0. -1.
         21   -1    0    0  501  502 -0.00000000000E+00 -0.00000000000E+00 -0.79326312475E+03  0.79326312475E+03  0.00000000000E+00 0. -1.
         25    1    1    2    0    0 -0.18039777371E+03  0.13956987129E+03 -0.32733399168E+03  0.41808569438E+03  0.12500000000E+03 0.  0.
         25    1    1    2    0    0  0.18039777371E+03 -0.13956987129E+03 -0.38033952720E+03  0.46076703624E+03  0.12500000000E+03 0.  0.
</event>
<event>
 4    0  0.2179527E-002  0.1920402E+03  0.7546771E-02  0.1156634E+00
         21   -1    0    0  502  501  0.00000000000E+00  0.00000000000E+00  0.26368721620E+03  0.26368721620E+03  0.00000000000E+00 0.  1.
         21   -1    0    0  501  502 -0.00000000000E+00 -0.00000000000E+00 -0.13986049187E+03  0.13986049187E+03  0.00000000000E+00 0.  1.
         25    1    1    2    0    0  0.16991723027E+02 -0.22669709086E+01  0.21402916311E+03  0.24844987517E+03  0.12500000000E+03 0.  0.
         25    1    1    2    0    0 -0.16991723027E+02  0.22669709086E+01 -0.90202438779E+02  0.15509783290E+03  0.12500000000E+03 0.  0.
</event>
<event>
 4    0  0.2179527E-002  0.1637815E+03  0.7546771E-02  0.1184492E+00
         21   -1    0    0  502  501  0.00000000000E+00  0.00000000000E+00  0.59267228345E+02  0.59267228345E+02  0.00000000000E+00 0. -1.
         21   -1    0    0  501  502 -0.00000000000E+00 -0.00000000000E+00 -0.45260071383E+03  0.45260071383E+03  0.00000000000E+00 0. -1.
         25    1    1    2    0    0  0.11528315451E+02 -0.94851826375E+01 -0.36038432708E+03  0.38173909147E+03  0.12500000000E+03 0.  0.
         25    1    1    2    0    0 -0.11528315451E+02  0.94851826375E+01 -0.32949158400E+02  0.13012885071E+03  0.12500000000E+03 0.  0.
</event>
<event>
 4    0  0.2179527E-002  0.2017766E+03  0.7546771E-02  0.1148249E+00
         21   -1    0    0  502  501  0.00000000000E+00  0.00000000000E+00  0.23877167769E+03  0.23877167769E+03  0.00000000000E+00 0. -1.
         21   -1    0    0  501  502 -0.00000000000E+00 -0.00000000000E+00 -0.17051346922E+03  0.17051346922E+03  0.00000000000E+00 0. -1.
         25    1    1    2    0    0 -0.15256716142E+03 -0.18525159143E+01 -0.90027857438E+01  0.19744928643E+03  0.12500000000E+03 0.  0.
         25    1    1    2    0    0  0.15256716142E+03  0.18525159143E+01  0.77260994208E+02  0.21183586048E+03  0.12500000000E+03 0.  0.
</event>
<event>
 4    0  0.2179527E-002  0.2286655E+03  0.7546771E-02  0.1127583E+00
         21   -1    0    0  502  501  0.00000000000E+00  0.00000000000E+00  0.11303259072E+03  0.11303259072E+03  0.00000000000E+00 0. -1.
         21   -1    0    0  501  502 -0.00000000000E+00 -0.00000000000E+00 -0.46259162978E+03  0.46259162978E+03  0.00000000000E+00 0. -1.
         25    1    1    2    0    0  0.78819505587E+02  0.16298293006E+03 -0.96307557118E+02  0.24015847999E+03  0.12500000000E+03 0.  0.
         25    1    1    2    0    0 -0.78819505587E+02 -0.16298293006E+03 -0.25325148194E+03  0.33546574051E+03  0.12500000000E+03 0.  0.
</event>
<event>
 4    0  0.2179527E-002  0.2295811E+03  0.7546771E-02  0.1126935E+00
         21   -1    0    0  502  501  0.00000000000E+00  0.00000000000E+00  0.10846138938E+04  0.10846138938E+04  0.00000000000E+00 0. -1.
         21   -1    0    0  501  502 -0.00000000000E+00 -0.00000000000E+00 -0.48595603352E+02  0.48595603352E+02  0.00000000000E+00 0. -1.
         25    1    1    2    0    0 -0.37715147848E+02  0.16831989607E+03  0.72928511713E+03  0.75976035818E+03  0.12500000000E+03 0.  0.
         25    1    1    2    0    0  0.37715147848E+02 -0.16831989607E+03  0.30673317333E+03  0.37344913899E+03  0.12500000000E+03 0.  0.
</event>
<event>
 4    0  0.2179527E-002  0.3887287E+03  0.7546771E-02  0.1047754E+00
         21   -1    0    0  502  501  0.00000000000E+00  0.00000000000E+00  0.15876886609E+03  0.15876886609E+03  0.00000000000E+00 0. -1.
         21   -1    0    0  501  502 -0.00000000000E+00 -0.00000000000E+00 -0.95176109238E+03  0.95176109238E+03  0.00000000000E+00 0. -1.
         25    1    1    2    0    0  0.23061168649E+03 -0.28594100136E+03 -0.42972085310E+03  0.57898965258E+03  0.12500000000E+03 0.  0.
         25    1    1    2    0    0 -0.23061168649E+03  0.28594100136E+03 -0.36327137319E+03  0.53154030589E+03  0.12500000000E+03 0.  0.
</event>
<event>
 4    0  0.2179527E-002  0.2197685E+03  0.7546771E-02  0.1134056E+00
         21   -1    0    0  502  501  0.00000000000E+00  0.00000000000E+00  0.54925757853E+02  0.54925757853E+02  0.00000000000E+00 0.  1.
         21   -1    0    0  501  502 -0.00000000000E+00 -0.00000000000E+00 -0.87933606098E+03  0.87933606098E+03  0.00000000000E+00 0.  1.
         25    1    1    2    0    0 -0.68895174802E+02  0.93454507227E+02 -0.11773346608E+03  0.20728352339E+03  0.12500000000E+03 0.  0.
         25    1    1    2    0    0  0.68895174802E+02 -0.93454507227E+02 -0.70667683705E+03  0.72697829545E+03  0.12500000000E+03 0.  0.
</event>
<event>
 4    0  0.2179527E-002  0.3059720E+03  0.7546771E-02  0.1082293E+00
         21   -1    0    0  502  501  0.00000000000E+00  0.00000000000E+00  0.36591776912E+03  0.36591776912E+03  0.00000000000E+00 0. -1.
         21   -1    0    0  501  502 -0.00000000000E+00 -0.00000000000E+00 -0.25584675562E+03  0.25584675562E+03  0.00000000000E+00 0. -1.
         25    1    1    2    0    0  0.23703632099E+02 -0.67312073351E+02 -0.21929952403E+03  0.26231671436E+03  0.12500000000E+03 0.  0.
         25    1    1    2    0    0 -0.23703632099E+02  0.67312073351E+02  0.32937053753E+03  0.35944781038E+03  0.12500000000E+03 0.  0.
</event>
<event>
 4    0  0.2179527E-002  0.1531340E+03  0.7546771E-02  0.1196674E+00
         21   -1    0    0  502  501  0.00000000000E+00  0.00000000000E+00  0.17439710214E+04  0.17439710214E+04  0.00000000000E+00 0.  1.
         21   -1    0    0  501  502 -0.00000000000E+00 -0.00000000000E+00 -0.13446333234E+02  0.13446333234E+02  0.00000000000E+00 0.  1.
         25    1    1    2    0    0 -0.13456575406E+01  0.85329694016E+02  0.73166672003E+03  0.74715738414E+03  0.12500000000E+03 0.  0.
         25    1    1    2    0    0  0.13456575406E+01 -0.85329694016E+02  0.99885796810E+03  0.10102599705E+04  0.12500000000E+03 0.  0.
</event>
<event>
 4    0  0.2179527E-002  0.2298831E+03  0.7546771E-02  0.1126722E+00
         21   -1    0    0  502  501  0.00000000000E+00  0.00000000000E+00  0.52700033869E+02  0.52700033869E+02  0.00000000000E+00 0.  1.
         21   -1    0    0  501  502 -0.00000000000E+00 -0.00000000000E+00 -0.10027745660E+04  0.10027745660E+04  0.00000000000E+00 0.  1.
         25    1    1    2    0    0 -0.16368261792E+03  0.33199859068E+02 -0.69674570547E+03  0.72730585598E+03  0.12500000000E+03 0.  0.
         25    1    1    2    0    0  0.16368261792E+03 -0.33199859068E+02 -0.25332882668E+03  0.32816874391E+03  0.12500000000E+03 0.  0.
</event>
<event>
 4    0  0.2179527E-002  0.2531425E+03  0.7546771E-02  0.1111335E+00
         21   -1    0    0  502  501  0.00000000000E+00  0.00000000000E+00  0.37522938910E+03  0.37522938910E+03  0.00000000000E+00 0.  1.
         21   -1    0    0  501  502 -0.00000000000E+00 -0.00000000000E+00 -0.17077848561E+03  0.17077848561E+03  0.00000000000E+00 0.  1.
         25    1    1    2    0    0 -0.10895977453E+03  0.18476205717E+03  0.15557222634E+03  0.29297946659E+03  0.12500000000E+03 0.  0.
         25    1    1    2    0    0  0.10895977453E+03 -0.18476205717E+03  0.48878677145E+02  0.25302840812E+03  0.12500000000E+03 0.  0.
</event>
<event>
 4    0  0.2179527E-002  0.2213259E+03  0.7546771E-02  0.1132898E+00
         21   -1    0    0  502  501  0.00000000000E+00  0.00000000000E+00  0.69256484107E+02  0.69256484107E+02  0.00000000000E+00 0.  1.
         21   -1    0    0  501  502 -0.00000000000E+00 -0.00000000000E+00 -0.70730038684E+03  0.70730038684E+03  0.00000000000E+00 0.  1.
         25    1    1    2    0    0  0.70823237605E+02  0.80548958981E+02 -0.59665436519E+02  0.17518284760E+03  0.12500000000E+03 0.  0.
         25    1    1    2    0    0 -0.70823237605E+02 -0.80548958981E+02 -0.57837846621E+03  0.60137402334E+03  0.12500000000E+03 0.  0.
</event>
<event>
 4    0  0.2179527E-002  0.2014808E+03  0.7546771E-02  0.1148496E+00
         21   -1    0    0  502  501  0.00000000000E+00  0.00000000000E+00  0.48572455153E+03  0.48572455153E+03  0.00000000000E+00 0. -1.
         21   -1    0    0  501  502 -0.00000000000E+00 -0.00000000000E+00 -0.83575145267E+02  0.83575145267E+02  0.00000000000E+00 0. -1.
         25    1    1    2    0    0  0.10631401717E+03 -0.10409396316E+03  0.12590055698E+03  0.23154734648E+03  0.12500000000E+03 0.  0.
         25    1    1    2    0    0 -0.10631401717E+03  0.10409396316E+03  0.27624884929E+03  0.33775235032E+03  0.12500000000E+03 0.  0.
</event>
<event>
 4    0  0.2179527E-002  0.2147223E+03  0.7546771E-02  0.1137880E+00
         21   -1    0    0  502  501  0.00000000000E+00  0.00000000000E+00  0.32093454942E+03  0.32093454942E+03  0.00000000000E+00 0.  1.
         21   -1    0    0  501  502 -0.00000000000E+00 -0.00000000000E+00 -0.14366065737E+03  0.14366065737E+03  0.00000000000E+00 0.  1.
         25    1    1    2    0    0 -0.82318547141E+02 -0.54643243328E+02  0.24435755943E+03  0.29171534772E+03  0.12500000000E+03 0.  0.
         25    1    1    2    0    0  0.82318547141E+02  0.54643243328E+02 -0.67083667380E+02  0.17287985908E+03  0.12500000000E+03 0.  0.
</event>
<event>
 4    0  0.2179527E-002  0.1864524E+03  0.7546771E-02  0.1161701E+00
         21   -1    0    0  502  501  0.00000000000E+00  0.00000000000E+00  0.11774183854E+04  0.11774183854E+04  0.00000000000E+00 0. -1.
         21   -1    0    0  501  502 -0.00000000000E+00 -0.00000000000E+00 -0.29526034573E+02  0.29526034573E+02  0.00000000000E+00 0. -1.
         25    1    1    2    0    0  0.24007285133E+02  0.27483700659E+02  0.14203509151E+03  0.19269320373E+03  0.12500000000E+03 0.  0.
         25    1    1    2    0    0 -0.24007285133E+02 -0.27483700659E+02  0.10058572593E+04  0.10142512163E+04  0.12500000000E+03 0.  0.
</event>
<event>
 4    0  0.2179527E-002  0.2189467E+03  0.7546771E-02  0.1134671E+00
         21   -1    0    0  502  501  0.00000000000E+00  0.00000000000E+00  0.19290041377E+04  0.19290041377E+04  0.00000000000E+00 0.  1.
         21   -1    0    0  501  502 -0.00000000000E+00 -0.00000000000E+00 -0.24850985875E+02  0.24850985875E+02  0.00000000000E+00 0.  1.
         25    1    1    2    0    0 -0.41620602378E+02 -0.74093532105E+02  0.24530532345E+03  0.28813508595E+03  0.12500000000E+03 0.  0.
         25    1    1    2    0    0  0.41620602378E+02  0.74093532105E+02  0.16588478284E+04  0.16657200376E+04  0.12500000000E+03 0.  0.
</event>
<event>
 4    0  0.2179527E-002  0.2108279E+03  0.7546771E-02  0.1140912E+00
         21   -1    0    0  502  501  0.00000000000E+00  0.00000000000E+00  0.37244935748E+03  0.37244935748E+03  0.00000000000E+00 0. -1.
         21   -1    0    0  501  502 -0.00000000000E+00 -0.00000000000E+00 -0.11934081945E+03  0.11934081945E+03  0.00000000000E+00 0. -1.
         25    1    1    2    0    0  0.16877052449E+03  0.14813240035E+02  0.13935681511E+03  0.25248414591E+03  0.12500000000E+03 0.  0.
         25    1    1    2    0    0 -0.16877052449E+03 -0.14813240035E+02  0.11375172293E+03  0.23930603103E+03  0.12500000000E+03 0.  0.
</event>
<event>
 4    0  0.2179527E-002  0.2407699E+03  0.7546771E-02  0.1119281E+00
         21   -1    0    0  502  501  0.00000000000E+00  0.00000000000E+00  0.70163782284E+03  0.70163782284E+03  0.00000000000E+00 0.  1.
         21   -1    0    0  501  502 -0.00000000000E+00 -0.00000000000E+00 -0.82621202375E+02  0.82621202375E+02  0.00000000000E+00 0.  1.
         25    1    1    2    0    0  0.17224725725E+03  0.53908345561E+02  0.47048873731E+03  0.51919156319E+03  0.12500000000E+03 0.  0.
         25    1    1    2    0    0 -0.17224725725E+03 -0.53908345561E+02  0.14852788315E+03  0.26506746203E+03  0.12500000000E+03 0.  0.
</event>
<event>
 4    0  0.2179527E-002  0.2186759E+03  0.7546771E-02  0.1134874E+00
         21   -1    0    0  502  501  0.00000000000E+00  0.00000000000E+00  0.19441540666E+04  0.19441540666E+04  0.00000000000E+00 0.  1.
         21   -1    0    0  501  502 -0.00000000000E+00 -0.00000000000E+00 -0.24596382669E+02  0.24596382669E+02  0.00000000000E+00 0.  1.
         25    1    1    2    0    0  0.61211474393E+02 -0.16349898888E+03  0.77333777247E+03  0.80259272006E+03  0.12500000000E+03 0.  0.
         25    1    1    2    0    0 -0.61211474393E+02  0.16349898888E+03  0.11462199114E+04  0.11661577292E+04  0.12500000000E+03 0.  0.
</event>
<event>
 4    0  0.2179527E-002  0.2371111E+03  0.7546771E-02  0.1121732E+00
         21   -1    0    0  502  501  0.00000000000E+00  0.00000000000E+00  0.59338647425E+03  0.59338647425E+03  0.00000000000E+00 0.  1.
         21   -1    0    0  501  502 -0.00000000000E+00 -0.00000000000E+00 -0.94747126271E+02  0.94747126271E+02  0.00000000000E+00 0.  1.
         25    1    1    2    0    0  0.17268521326E+03 -0.10244689402E+03  0.22499022134E+03  0.32643705162E+03  0.12500000000E+03 0.  0.
         25    1    1    2    0    0 -0.17268521326E+03  0.10244689402E+03  0.27364912664E+03  0.36169654890E+03  0.12500000000E+03 0.  0.
</event>
<event>
 4    0  0.2179527E-002  0.2041320E+03  0.7546771E-02  0.1146299E+00
         21   -1    0    0  502  501  0.00000000000E+00  0.00000000000E+00  0.14900416318E+04  0.14900416318E+04  0.00000000000E+00 0. -1.
         21   -1    0    0  501  502 -0.00000000000E+00 -0.00000000000E+00 -0.27965576453E+02  0.27965576453E+02  0.00000000000E+00 0. -1.
         25    1    1    2    0    0  0.99440015801E+02 -0.44841087497E+01  0.12033584633E+04  0.12139213381E+04  0.12500000000E+03 0.  0.
         25    1    1    2    0    0 -0.99440015801E+02  0.44841087497E+01  0.25871759205E+03  0.30408587012E+03  0.12500000000E+03 0.  0.
</event>
<event>
 4    0  0.2179527E-002  0.2673640E+03  0.7546771E-02  0.1102798E+00
         21   -1    0    0  502  501  0.00000000000E+00  0.00000000000E+00  0.16402825335E+04  0.16402825335E+04  0.00000000000E+00 0. -1.
         21   -1    0    0  501  502 -0.00000000000E+00 -0.00000000000E+00 -0.43580008616E+02  0.43580008616E+02  0.00000000000E+00 0. -1.
         25    1    1    2    0    0  0.20195146056E+03  0.12277676675E+03  0.79837715346E+03  0.84195582190E+03  0.12500000000E+03 0.  0.
         25    1    1    2    0    0 -0.20195146056E+03 -0.12277676675E+03  0.79832537141E+03  0.84190672019E+03  0.12500000000E+03 0.  0.
</event>
<event>
 4    0  0.2179527E-002  0.1532454E+03  0.7546771E-02  0.1196541E+00
         21   -1    0    0  502  501  0.00000000000E+00  0.00000000000E+00  0.70766205291E+02  0.70766205291E+02  0.00000000000E+00 0. -1.
         21   -1    0    0  501  502 -0.00000000000E+00 -0.00000000000E+00 -0.33185548698E+03  0.33185548698E+03  0.00000000000E+00 0. -1.
         25    1    1    2    0    0 -0.47612431002E+02 -0.29896000044E+02 -0.40500279831E+02  0.14291951256E+03  0.12500000000E+03 0.  0.
         25    1    1    2    0    0  0.47612431002E+02  0.29896000044E+02 -0.22058900186E+03  0.25970217971E+03  0.12500000000E+03 0.  0.
</event>
<event>
 4    0  0.2179527E-002  0.2167008E+03  0.7546771E-02  0.1136367E+00
         21   -1    0    0  502  501  0.00000000000E+00  0.00000000000E+00  0.25514344722E+02  0.25514344722E+02  0.00000000000E+00 0. -1.
         21   -1    0    0  501  502 -0.00000000000E+00 -0.00000000000E+00 -0.18405028169E+04  0.18405028169E+04  0.00000000000E+00 0. -1.
         25    1    1    2    0    0  0.10129368913E+03 -0.49204237906E+02 -0.14955204355E+04  0.15049544317E+04  0.12500000000E+03 0.  0.
         25    1    1    2    0    0 -0.10129368913E+03  0.49204237906E+02 -0.31946803672E+03  0.36106272997E+03  0.12500000000E+03 0.  0.
</event>
<event>
 4    0  0.2179527E-002  0.1840119E+03  0.7546771E-02  0.1163976E+00
         21   -1    0    0  502  501  0.00000000000E+00  0.00000000000E+00  0.47254289044E+03  0.47254289044E+03  0.00000000000E+00 0. -1.
         21   -1    0    0  501  502 -0.00000000000E+00 -0.00000000000E+00 -0.71655654393E+02  0.71655654393E+02  0.00000000000E+00 0. -1.
         25    1    1    2    0    0 -0.28316073973E+02  0.13012216371E+03  0.16731955385E+03  0.24769822493E+03  0.12500000000E+03 0.  0.
         25    1    1    2    0    0  0.28316073973E+02 -0.13012216371E+03  0.23356768220E+03  0.29650031990E+03  0.12500000000E+03 0.  0.
</event>
<event>
 4    0  0.2179527E-002  0.1518415E+03  0.7546771E-02  0.1198228E+00
         21   -1    0    0  502  501  0.00000000000E+00  0.00000000000E+00  0.58363503151E+03  0.58363503151E+03  0.00000000000E+00 0. -1.
         21   -1    0    0  501  502 -0.00000000000E+00 -0.00000000000E+00 -0.39503847620E+02  0.39503847620E+02  0.00000000000E+00 0. -1.
         25    1    1    2    0    0 -0.54015972593E+02  0.53279134174E+02  0.18810045444E+03  0.23825023062E+03  0.12500000000E+03 0.  0.
         25    1    1    2    0    0  0.54015972593E+02 -0.53279134174E+02  0.35603072945E+03  0.38488864850E+03  0.12500000000E+03 0.  0.
</event>
<event>
 4    0  0.2179527E-002  0.2687431E+03  0.7546771E-02  0.1102001E+00
         21   -1    0    0  502  501  0.00000000000E+00  0.00000000000E+00  0.90115548475E+02  0.90115548475E+02  0.00000000000E+00 0.  1.
         21   -1    0    0  501  502 -0.00000000000E+00 -0.00000000000E+00 -0.80144738245E+03  0.80144738245E+03  0.00000000000E+00 0.  1.
         25    1    1    2    0    0 -0.58860433348E+02  0.16690830099E+03 -0.91954038640E+02  0.23537943151E+03  0.12500000000E+03 0.  0.
         25    1    1    2    0    0  0.58860433348E+02 -0.16690830099E+03 -0.61937779534E+03  0.65618349942E+03  0.12500000000E+03 0.  0.
</event>
<event>
 4    0  0.2179527E-002  0.1766612E+03  0.7546771E-02  0.1171074E+00
         21   -1    0    0  502  501  0.00000000000E+00  0.00000000000E+00  0.52419793288E+02  0.52419793288E+02  0.00000000000E+00 0.  1.
         21   -1    0    0  501  502 -0.00000000000E+00 -0.00000000000E+00 -0.59537020071E+03  0.59537020071E+03  0.00000000000E+00 0.  1.
         25    1    1    2    0    0 -0.11373682651E+03 -0.27758743937E+02 -0.35091918979E+03  0.39048161459E+03  0.12500000000E+03 0.  0.
         25    1    1    2    0    0  0.11373682651E+03  0.27758743937E+02 -0.19203121763E+03  0.25730837941E+03  0.12500000000E+03 0.  0.
</event>
<event>
 4    0  0.2179527E-002  0.2886826E+03  0.7546771E-02  0.1091039E+00
         21   -1    0    0  502  501  0.00000000000E+00  0.00000000000E+00  0.12023932459E+03  0.12023932459E+03  0.00000000000E+00 0.  1.
         21   -1    0    0  501  502 -0.00000000000E+00 -0.00000000000E+00 -0.69309822738E+03  0.69309822738E+03  0.00000000000E+00 0.  1.
         25    1    1    2    0    0  0.11365665946E+03  0.22442298497E+03 -0.19267748622E+03  0.34063635467E+03  0.12500000000E+03 0.  0.
         25    1    1    2    0    0 -0.11365665946E+03 -0.22442298497E+03 -0.38018141657E+03  0.47270119730E+03  0.12500000000E+03 0.  0.
</event>
<event>
 4    0  0.2179527E-002  0.3535928E+03  0.7546771E-02  0.1061150E+00
         21   -1    0    0  502  501  0.00000000000E+00  0.00000000000E+00  0.14297325758E+04  0.14297325758E+04  0.00000000000E+00 0.  1.
         21   -1    0    0  501  502 -0.00000000000E+00 -0.00000000000E+00 -0.87448436081E+02  0.87448436081E+02  0.00000000000E+00 0.  1.
         25    1    1    2    0    0 -0.18430220677E+03 -0.46143960712E+02  0.12520063231E+04  0.12724941657E+04  0.12500000000E+03 0.  0.
         25    1    1    2    0    0  0.18430220677E+03  0.46143960712E+02  0.90277816569E+02  0.24468684618E+03  0.12500000000E+03 0.  0.
</event>
<event>
 4    0  0.2179527E-002  0.2201644E+03  0.7546771E-02  0.1133761E+00
         21   -1    0    0  502  501  0.00000000000E+00  0.00000000000E+00  0.60673609371E+03  0.60673609371E+03  0.00000000000E+00 0.  1.
         21   -1    0    0  501  502 -0.00000000000E+00 -0.00000000000E+00 -0.79890363087E+02  0.79890363087E+02  0.00000000000E+00 0.  1.
         25    1    1    2    0    0  0.17436762851E+03  0.37941366361E+02  0.31282618503E+03  0.38122019777E+03  0.12500000000E+03 0.  0.
         25    1    1    2    0    0 -0.17436762851E+03 -0.37941366361E+02  0.21401954560E+03  0.30540625902E+03  0.12500000000E+03 0.  0.
</event>
<event>
 4    0  0.2179527E-002  0.1817758E+03  0.7546771E-02  0.1166095E+00
         21   -1    0    0  502  501  0.00000000000E+00  0.00000000000E+00  0.67054969702E+02  0.67054969702E+02  0.00000000000E+00 0.  1.
         21   -1    0    0  501  502 -0.00000000000E+00 -0.00000000000E+00 -0.49276655191E+03  0.49276655191E+03  0.00000000000E+00 0.  1.
         25    1    1    2    0    0  0.98718375490E+02  0.56227748748E+02 -0.10943707175E+03  0.20126686280E+03  0.12500000000E+03 0.  0.
         25    1    1    2    0    0 -0.98718375490E+02 -0.56227748748E+02 -0.31627451046E+03  0.35855465881E+03  0.12500000000E+03 0.  0.
</event>
<event>
 4    0  0.2179527E-002  0.2991009E+03  0.7546771E-02  0.1085691E+00
         21   -1    0    0  502  501  0.00000000000E+00  0.00000000000E+00  0.47863272184E+03  0.47863272184E+03  0.00000000000E+00 0. -1.
         21   -1    0    0  501  502 -0.00000000000E+00 -0.00000000000E+00 -0.18691019386E+03  0.18691019386E+03  0.00000000000E+00 0. -1.
         25    1    1    2    0    0  0.58318618787E+02  0.11585808879E+03  0.41151271598E+03  0.44921250366E+03  0.12500000000E+03 0.  0.
         25    1    1    2    0    0 -0.58318618787E+02 -0.11585808879E+03 -0.11979018799E+03  0.21633041204E+03  0.12500000000E+03 0.  0.
</event>
<event>
 4    0  0.2179527E-002  0.1920413E+03  0.7546771E-02  0.1156633E+00
         21   -1    0    0  502  501  0.00000000000E+00  0.00000000000E+00  0.61809836729E+03  0.61809836729E+03  0.00000000000E+00 0.  1.
         21   -1    0    0  501  502 -0.00000000000E+00 -0.00000000000E+00 -0.59666647420E+02  0.59666647420E+02  0.00000000000E+00 0.  1.
         25    1    1    2    0    0 -0.52908691838E+02 -0.68211970063E+02  0.48653330548E+03  0.50969781231E+03  0.12500000000E+03 0.  0.
         25    1    1    2    0    0  0.52908691838E+02  0.68211970063E+02  0.71898414393E+02  0.16806720240E+03  0.12500000000E+03 0.  0.
</event>
<event>
 4    0  0.2179527E-002  0.2196073E+03  0.7546771E-02  0.1134176E+00
         21   -1    0    0  502  501  0.00000000000E+00  0.00000000000E+00  0.77206558434E+03  0.77206558434E+03  0.00000000000E+00 0.  1.
         21   -1    0    0  501  502 -0.00000000000E+00 -0.00000000000E+00 -0.62465349580E+02  0.62465349580E+02  0.00000000000E+00 0.  1.
         25    1    1    2    0    0  0.17970857543E+03  0.67210430284E+01  0.38555528969E+03  0.44341653770E+03  0.12500000000E+03 0.  0.
         25    1    1    2    0    0 -0.17970857543E+03 -0.67210430284E+01  0.32404494507E+03  0.39111439622E+03  0.12500000000E+03 0.  0.
</event>
<event>
 4    0  0.2179527E-002  0.1902149E+03  0.7546771E-02  0.1158268E+00
         21   -1    0    0  502  501  0.00000000000E+00  0.00000000000E+00  0.29762001516E+03  0.29762001516E+03  0.00000000000E+00 0.  1.
         21   -1    0    0  501  502 -0.00000000000E+00 -0.00000000000E+00 -0.12157019627E+03  0.12157019627E+03  0.00000000000E+00 0.  1.
         25    1    1    2    0    0 -0.12496013404E+03 -0.68297022340E+02  0.10637073564E+03  0.21729991201E+03  0.12500000000E+03 0.  0.
         25    1    1    2    0    0  0.12496013404E+03  0.68297022340E+02  0.69679083248E+02  0.20189029942E+03  0.12500000000E+03 0.  0.
</event>
<event>
 4    0  0.2179527E-002  0.2518499E+03  0.7546771E-02  0.1112141E+00
         21   -1    0    0  502  501  0.00000000000E+00  0.00000000000E+00  0.19165641744E+04  0.19165641744E+04  0.00000000000E+00 0. -1.
         21   -1    0    0  501  502 -0.00000000000E+00 -0.00000000000E+00 -0.33094824034E+02  0.33094824034E+02  0.00000000000E+00 0. -1.
         25    1    1    2    0    0  0.16803426559E+03  0.38035924798E+02  0.42068477439E+03  0.47146890183E+03  0.12500000000E+03 0.  0.
         25    1    1    2    0    0 -0.16803426559E+03 -0.38035924798E+02  0.14627845760E+04  0.14781900966E+04  0.12500000000E+03 0.  0.
</event>
<event>
 4    0  0.2179527E-002  0.1873330E+03  0.7546771E-02  0.1160889E+00
         21   -1    0    0  502  501  0.00000000000E+00  0.00000000000E+00  0.17565007576E+03  0.17565007576E+03  0.00000000000E+00 0. -1.
         21   -1    0    0  501  502 -0.00000000000E+00 -0.00000000000E+00 -0.19979293634E+03  0.19979293634E+03  0.00000000000E+00 0. -1.
         25    1    1    2    0    0 -0.26742085928E+02 -0.31333043691E+02  0.12151576701E+03  0.17913118215E+03  0.12500000000E+03 0.  0.
         25    1    1    2    0    0  0.26742085928E+02  0.31333043691E+02 -0.14565862759E+03  0.19631182995E+03  0.12500000000E+03 0.  0.
</event>
<event>
 4    0  0.2179527E-002  0.1962741E+03  0.7546771E-02  0.1152921E+00
         21   -1    0    0  502  501  0.00000000000E+00  0.00000000000E+00  0.11058839958E+04  0.11058839958E+04  0.00000000000E+00 0. -1.
         21   -1    0    0  501  502 -0.00000000000E+00 -0.00000000000E+00 -0.34835061901E+02  0.34835061901E+02  0.00000000000E+00 0. -1.
         25    1    1    2    0    0 -0.15595510266E+02 -0.73397195621E+02  0.91738851246E+03  0.92890099099E+03  0.12500000000E+03 0.  0.
         25    1    1    2    0    0  0.15595510266E+02  0.73397195621E+02  0.15366042141E+03  0.21181806668E+03  0.12500000000E+03 0.  0.
</event>
<event>
 4    0  0.2179527E-002  0.2419077E+03  0.7546771E-02  0.1118528E+00
         21   -1    0    0  502  501  0.00000000000E+00  0.00000000000E+00  0.98720056497E+02  0.98720056497E+02  0.00000000000E+00 0.  1.
         21   -1    0    0  501  502 -0.00000000000E+00 -0.00000000000E+00 -0.59278081944E+03  0.59278081944E+03  0.00000000000E+00 0.  1.
         25    1    1    2    0    0 -0.10168054548E+03 -0.89768453490E+02 -0.47073236828E+03  0.50558013323E+03  0.12500000000E+03 0.  0.
         25    1    1    2    0    0  0.10168054548E+03  0.89768453490E+02 -0.23328394660E+02  0.18592074270E+03  0.12500000000E+03 0.  0.
</event>
<event>
 4    0  0.2179527E-002  0.4151710E+03  0.7546771E-02  0.1038650E+00
         21   -1    0    0  502  501  0.00000000000E+00  0.00000000000E+00  0.51418820467E+03  0.51418820467E+03  0.00000000000E+00 0.  1.
         21   -1    0    0  501  502 -0.00000000000E+00 -0.00000000000E+00 -0.33522153159E+03  0.33522153159E+03  0.00000000000E+00 0.  1.
         25    1    1    2    0    0  0.25473210567E+03  0.28934375009E+03  0.18174142873E+03  0.44414321822E+03  0.12500000000E+03 0.  0.
         25    1    1    2    0    0 -0.25473210567E+03 -0.28934375009E+03 -0.27747556464E+01  0.40526651804E+03  0.12500000000E+03 0.  0.
</event>
<event>
 4    0  0.2179527E-002  0.2262101E+03  0.7546771E-02  0.1129336E+00
         21   -1    0    0  502  501  0.00000000000E+00  0.00000000000E+00  0.12393816880E+04  0.12393816880E+04  0.00000000000E+00 0. -1.
         21   -1    0    0  501  502 -0.00000000000E+00 -0.00000000000E+00 -0.41287548279E+02  0.41287548279E+02  0.00000000000E+00 0. -1.
         25    1    1    2    0    0  0.18582362740E+03  0.12087517477E+02  0.51557707929E+03  0.56224661250E+03  0.12500000000E+03 0.  0.
         25    1    1    2    0    0 -0.18582362740E+03 -0.12087517477E+02  0.68251706039E+03  0.71842262374E+03  0.12500000000E+03 0.  0.
</event>
<event>
 4    0  0.2179527E-002  0.1599822E+03  0.7546771E-02  0.1188717E+00
         21   -1    0    0  502  501  0.00000000000E+00  0.00000000000E+00  0.67917606260E+03  0.67917606260E+03  0.00000000000E+00 0. -1.
         21   -1    0    0  501  502 -0.00000000000E+00 -0.00000000000E+00 -0.37684345194E+02  0.37684345194E+02  0.00000000000E+00 0. -1.
         25    1    1    2    0    0 -0.66762755277E+02 -0.65009412631E+02  0.40108410264E+03  0.43032191045E+03  0.12500000000E+03 0.  0.
         25    1    1    2    0    0  0.66762755277E+02  0.65009412631E+02  0.24040761477E+03  0.28653849735E+03  0.12500000000E+03 0.  0.
</event>
<event>
 4    0  0.2179527E-002  0.1907869E+03  0.7546771E-02  0.1157754E+00
         21   -1    0    0  502  501  0.00000000000E+00  0.00000000000E+00  0.82587711483E+03  0.82587711483E+03  0.00000000000E+00 0. -1.
         21   -1    0    0  501  502 -0.00000000000E+00 -0.00000000000E+00 -0.44073902744E+02  0.44073902744E+02  0.00000000000E+00 0. -1.
         25    1    1    2    0    0 -0.51528202703E+01  0.14284851512E+03  0.43308768271E+03  0.47288708033E+03  0.12500000000E+03 0.  0.
         25    1    1    2    0    0  0.51528202703E+01 -0.14284851512E+03  0.34871552937E+03  0.39706393724E+03  0.12500000000E+03 0.  0.
</event>
<event>
 4    0  0.2179527E-002  0.2196703E+03  0.7546771E-02  0.1134129E+00
         21   -1    0    0  502  501  0.00000000000E+00  0.00000000000E+00  0.49468416414E+03  0.49468416414E+03  0.00000000000E+00 0.  1.
         21   -1    0    0  501  502 -0.00000000000E+00 -0.00000000000E+00 -0.97547196344E+02  0.97547196344E+02  0.00000000000E+00 0.  1.
         25    1    1    2    0    0  0.14540457067E+03 -0.67756858237E+02  0.86622981050E+02  0.22104755564E+03  0.12500000000E+03 0.  0.
         25    1    1    2    0    0 -0.14540457067E+03  0.67756858237E+02  0.31051398675E+03  0.37118380484E+03  0.12500000000E+03 0.  0.
</event>
<event>
 4    0  0.2179527E-002  0.2053620E+03  0.7546771E-02  0.1145292E+00
         21   -1    0    0  502  501  0.00000000000E+00  0.00000000000E+00  0.12064042024E+03  0.12064042024E+03  0.00000000000E+00 0. -1.
         21   -1    0    0  501  502 -0.00000000000E+00 -0.00000000000E+00 -0.34958067418E+03  0.34958067418E+03  0.00000000000E+00 0. -1.
         25    1    1    2    0    0  0.15860968402E+03 -0.27956565360E+02 -0.86195169509E+02  0.22134409560E+03  0.12500000000E+03 0.  0.
         25    1    1    2    0    0 -0.15860968402E+03  0.27956565360E+02 -0.14274508443E+03  0.24887699882E+03  0.12500000000E+03 0.  0.
</event>
<event>
 4    0  0.2179527E-002  0.1736160E+03  0.7546771E-02  0.1174129E+00
         21   -1    0    0  502  501  0.00000000000E+00  0.00000000000E+00  0.25532692321E+02  0.25532692321E+02  0.00000000000E+00 0.  1.
         21   -1    0    0  501  502 -0.00000000000E+00 -0.00000000000E+00 -0.11805455971E+04  0.11805455971E+04  0.00000000000E+00 0.  1.
         25    1    1    2    0    0 -0.75671708969E+01 -0.42749692330E+02 -0.18711161549E+03  0.22917363487E+03  0.12500000000E+03 0.  0.
         25    1    1    2    0    0  0.75671708969E+01  0.42749692330E+02 -0.96790128925E+03  0.97690465451E+03  0.12500000000E+03 0.  0.
</event>
<event>
 4    0  0.2179527E-002  0.5736869E+03  0.7546771E-02  0.9961553E-01
         21   -1    0    0  502  501  0.00000000000E+00  0.00000000000E+00  0.76920395927E+03  0.76920395927E+03  0.00000000000E+00 0.  1.
         21   -1    0    0  501  502 -0.00000000000E+00 -0.00000000000E+00 -0.42786662476E+03  0.42786662476E+03  0.00000000000E+00 0.  1.
         25    1    1    2    0    0 -0.29966969055E+02  0.54488153023E+03  0.30138630953E+03  0.63580862592E+03  0.12500000000E+03 0.  0.
         25    1    1    2    0    0  0.29966969055E+02 -0.54488153023E+03  0.39951024978E+02  0.56126195810E+03  0.12500000000E+03 0.  0.
</event>
<event>
 4    0  0.2179527E-002  0.1810443E+03  0.7546771E-02  0.1166796E+00
         21   -1    0    0  502  501  0.00000000000E+00  0.00000000000E+00  0.40414946982E+02  0.40414946982E+02  0.00000000000E+00 0.  1.
         21   -1    0    0  501  502 -0.00000000000E+00 -0.00000000000E+00 -0.81101309584E+03  0.81101309584E+03  0.00000000000E+00 0.  1.
         25    1    1    2    0    0 -0.49603090857E+02 -0.41531843918E+02 -0.65306023893E+03  0.66805541414E+03  0.12500000000E+03 0.  0.
         25    1    1    2    0    0  0.49603090857E+02  0.41531843918E+02 -0.11753790993E+03  0.18337262869E+03  0.12500000000E+03 0.  0.
</event>
<event>
 4    0  0.2179527E-002  0.2709828E+03  0.7546771E-02  0.1100718E+00
         21   -1    0    0  502  501  0.00000000000E+00  0.00000000000E+00  0.15599648770E+03  0.15599648770E+03  0.00000000000E+00 0.  1.
         21   -1    0    0  501  502 -0.00000000000E+00 -0.00000000000E+00 -0.47072638981E+03  0.47072638981E+03  0.00000000000E+00 0.  1.
         25    1    1    2    0    0  0.22130714530E+03 -0.69861589041E+02 -0.23003521626E+03  0.34985524850E+03  0.12500000000E+03 0.  0.
         25    1    1    2    0    0 -0.22130714530E+03  0.69861589041E+02 -0.84694685845E+02  0.27686762901E+03  0.12500000000E+03 0.  0.
</event>
<event>
 4    0  0.2179527E-002  0.2370125E+03  0.7546771E-02  0.1121799E+00
         21   -1    0    0  502  501  0.00000000000E+00  0.00000000000E+00  0.27890881874E+03  0.27890881874E+03  0.00000000000E+00 0. -1.
         21   -1    0    0  501  502 -0.00000000000E+00 -0.00000000000E+00 -0.20140960179E+03  0.20140960179E+03  0.00000000000E+00 0. -1.
         25    1    1    2    0    0 -0.18270916885E+03 -0.61927446128E+02 -0.19742572369E+02  0.23072151640E+03  0.12500000000E+03 0.  0.
         25    1    1    2    0    0  0.18270916885E+03  0.61927446128E+02  0.97241789316E+02  0.24959690414E+03  0.12500000000E+03 0.  0.
</event>
<event>
 4    0  0.2179527E-002  0.2070037E+03  0.7546771E-02  0.1143961E+00
         21   -1    0    0  502  501  0.00000000000E+00  0.00000000000E+00  0.37915294993E+02  0.37915294993E+02  0.00000000000E+00 0.  1.
         21   -1    0    0  501  502 -0.00000000000E+00 -0.00000000000E+00 -0.11301650397E+04  0.11301650397E+04  0.00000000000E+00 0.  1.
         25    1    1    2    0    0  0.12704354140E+03  0.25348514120E+02 -0.83444555253E+03  0.85364336155E+03  0.12500000000E+03 0.  0.
         25    1    1    2    0    0 -0.12704354140E+03 -0.25348514120E+02 -0.25780419221E+03  0.31443697317E+03  0.12500000000E+03 0.  0.
</event>
<event>
 4    0  0.2179527E-002  0.2893280E+03  0.7546771E-02  0.1090701E+00
         21   -1    0    0  502  501  0.00000000000E+00  0.00000000000E+00  0.91601578240E+03  0.91601578240E+03  0.00000000000E+00 0.  1.
         21   -1    0    0  501  502 -0.00000000000E+00 -0.00000000000E+00 -0.91385646715E+02  0.91385646715E+02  0.00000000000E+00 0.  1.
         25    1    1    2    0    0  0.33307344571E+02 -0.10261540467E+03 -0.13036615545E+01  0.16512419572E+03  0.12500000000E+03 0.  0.
         25    1    1    2    0    0 -0.33307344571E+02  0.10261540467E+03  0.82593379724E+03  0.84227723340E+03  0.12500000000E+03 0.  0.
</event>
<event>
 4    0  0.2179527E-002  0.3264840E+03  0.7546771E-02  0.1072703E+00
         21   -1    0    0  502  501  0.00000000000E+00  0.00000000000E+00  0.76912367642E+03  0.76912367642E+03  0.00000000000E+00 0. -1.
         21   -1    0    0  501  502 -0.00000000000E+00 -0.00000000000E+00 -0.13858865503E+03  0.13858865503E+03  0.00000000000E+00 0. -1.
         25    1    1    2    0    0  0.15327686869E+03 -0.81473271001E+02 -0.27605662264E+02  0.21568209233E+03  0.12500000000E+03 0.  0.
         25    1    1    2    0    0 -0.15327686869E+03  0.81473271001E+02  0.65814068366E+03  0.69203023912E+03  0.12500000000E+03 0.  0.
</event>
<event>
 4    0  0.2179527E-002  0.2998137E+03  0.7546771E-02  0.1085334E+00
         21   -1    0    0  502  501  0.00000000000E+00  0.00000000000E+00  0.65112616005E+02  0.65112616005E+02  0.00000000000E+00 0. -1.
         21   -1    0    0  501  502 -0.00000000000E+00 -0.00000000000E+00 -0.13805044878E+04  0.13805044878E+04  0.00000000000E+00 0. -1.
         25    1    1    2    0    0 -0.19129859876E+02 -0.35798743425E+02 -0.13073575899E+04  0.13139468670E+04  0.12500000000E+03 0.  0.
         25    1    1    2    0    0  0.19129859876E+02  0.35798743425E+02 -0.80342819324E+01  0.13167023679E+03  0.12500000000E+03 0.  0.
</event>
<event>
 4    0  0.2179527E-002  0.2560054E+03  0.7546771E-02  0.1109567E+00
         21   -1    0    0  502  501  0.00000000000E+00  0.00000000000E+00  0.20990933324E+03  0.20990933324E+03  0.00000000000E+00 0.  1.
         21   -1    0    0  501  502 -0.00000000000E+00 -0.00000000000E+00 -0.31222422884E+03  0.31222422884E+03  0.00000000000E+00 0.  1.
         25    1    1    2    0    0 -0.40317917985E+02  0.11704716822E+03  0.13849849464E+03  0.22390267331E+03  0.12500000000E+03 0.  0.
         25    1    1    2    0    0  0.40317917985E+02 -0.11704716822E+03 -0.24081339024E+03  0.29823088877E+03  0.12500000000E+03 0.  0.
</event>
<event>
 4    0  0.2179527E-002  0.2203961E+03  0.7546771E-02  0.1133588E+00
         21   -1    0    0  502  501  0.00000000000E+00  0.00000000000E+00  0.38365037802E+03  0.38365037802E+03  0.00000000000E+00 0. -1.
         21   -1    0    0  501  502 -0.00000000000E+00 -0.00000000000E+00 -0.12661124143E+03  0.12661124143E+03  0.00000000000E+00 0. -1.
         25    1    1    2    0    0  0.12586332766E+03 -0.10786948800E+03  0.21415113027E+03  0.29826684410E+03  0.12500000000E+03 0.  0.
         25    1    1    2    0    0 -0.12586332766E+03  0.10786948800E+03  0.42888006321E+02  0.21199477535E+03  0.12500000000E+03 0.  0.
</event>
<event>
 4    0  0.2179527E-002  0.2833488E+03  0.7546771E-02  0.1093874E+00
         21   -1    0    0  502  501  0.00000000000E+00  0.00000000000E+00  0.31201451982E+03  0.31201451982E+03  0.00000000000E+00 0. -1.
         21   -1    0    0  501  502 -0.00000000000E+00 -0.00000000000E+00 -0.25731671490E+03  0.25731671490E+03  0.00000000000E+00 0. -1.
         25    1    1    2    0    0 -0.28077336673E+02 -0.25124762231E+03  0.54822776392E+02  0.28730513634E+03  0.12500000000E+03 0.  0.
         25    1    1    2    0    0  0.28077336673E+02  0.25124762231E+03 -0.12497146645E+00  0.28202609839E+03  0.12500000000E+03 0.  0.
</event>
<event>
 4    0  0.2179527E-002  0.1616570E+03  0.7546771E-02  0.1186839E+00
         21   -1    0    0  502  501  0.00000000000E+00  0.00000000000E+00  0.32642301056E+03  0.32642301056E+03  0.00000000000E+00 0.  1.
         21   -1    0    0  501  502 -0.00000000000E+00 -0.00000000000E+00 -0.80058696609E+02  0.80058696609E+02  0.00000000000E+00 0.  1.
         25    1    1    2    0    0  0.82831976491E+02 -0.43783418720E+02  0.17547279516E+03  0.23493366282E+03  0.12500000000E+03 0.  0.
         25    1    1    2    0    0 -0.82831976491E+02  0.43783418720E+02  0.70891518791E+02  0.17154804435E+03  0.12500000000E+03 0.  0.
</event>
<event>
 4    0  0.2179527E-002  0.2031629E+03  0.7546771E-02  0.1147098E+00
         21   -1    0    0  502  501  0.00000000000E+00  0.00000000000E+00  0.78526905329E+02  0.78526905329E+02  0.00000000000E+00 0. -1.
         21   -1    0    0  501  502 -0.00000000000E+00 -0.00000000000E+00 -0.52561800082E+03  0.52561800082E+03  0.00000000000E+00 0. -1.
         25    1    1    2    0    0  0.13113560530E+03  0.84637087949E+02 -0.27695159849E+03  0.34159504027E+03  0.12500000000E+03 0.  0.
         25    1    1    2    0    0 -0.13113560530E+03 -0.84637087949E+02 -0.17013949701E+03  0.26254986588E+03  0.12500000000E+03 0.  0.
</event>
<event>
 4    0  0.2179527E-002  0.4059214E+03  0.7546771E-02  0.1041748E+00
         21   -1    0    0  502  501  0.00000000000E+00  0.00000000000E+00  0.55498944318E+02  0.55498944318E+02  0.00000000000E+00 0. -1.
         21   -1    0    0  501  502 -0.00000000000E+00 -0.00000000000E+00 -0.29689243612E+04  0.29689243612E+04  0.00000000000E+00 0. -1.
         25    1    1    2    0    0  0.17321328468E+02  0.32639852054E+03 -0.22230113269E+04  0.22503867184E+04  0.12500000000E+03 0.  0.
         25    1    1    2    0    0 -0.17321328468E+02 -0.32639852054E+03 -0.69041409003E+03  0.77403658721E+03  0.12500000000E+03 0.  0.
</event>
<event>
 4    0  0.2179527E-002  0.1835729E+03  0.7546771E-02  0.1164389E+00
         21   -1    0    0  502  501  0.00000000000E+00  0.00000000000E+00  0.99542192075E+03  0.99542192075E+03  0.00000000000E+00 0. -1.
         21   -1    0    0  501  502 -0.00000000000E+00 -0.00000000000E+00 -0.33854011289E+02  0.33854011289E+02  0.00000000000E+00 0. -1.
         25    1    1    2    0    0  0.19640409116E+02  0.12976706486E+03  0.56245964396E+03  0.59094084973E+03  0.12500000000E+03 0.  0.
         25    1    1    2    0    0 -0.19640409116E+02 -0.12976706486E+03  0.39910826550E+03  0.43833508231E+03  0.12500000000E+03 0.  0.
</event>
<event>
 4    0  0.2179527E-002  0.3234272E+03  0.7546771E-02  0.1074083E+00
         21   -1    0    0  502  501  0.00000000000E+00  0.00000000000E+00  0.64017008409E+03  0.64017008409E+03  0.00000000000E+00 0. -1.
         21   -1    0    0  501  502 -0.00000000000E+00 -0.00000000000E+00 -0.16340216628E+03  0.16340216628E+03  0.00000000000E+00 0. -1.
         25    1    1    2    0    0 -0.45359277040E+02 -0.13544082461E+03 -0.86937211285E+02  0.20876963307E+03  0.12500000000E+03 0.  0.
         25    1    1    2    0    0  0.45359277040E+02  0.13544082461E+03  0.56370512909E+03  0.59480261730E+03  0.12500000000E+03 0.  0.
</event>
<event>
 4    0  0.2179527E-002  0.2096845E+03  0.7546771E-02  0.1141816E+00
         21   -1    0    0  502  501  0.00000000000E+00  0.00000000000E+00  0.22486579742E+03  0.22486579742E+03  0.00000000000E+00 0.  1.
         21   -1    0    0  501  502 -0.00000000000E+00 -0.00000000000E+00 -0.19552807051E+03  0.19552807051E+03  0.00000000000E+00 0.  1.
         25    1    1    2    0    0 -0.91128871654E+02 -0.10736688415E+03 -0.77808735259E+02  0.20374326576E+03  0.12500000000E+03 0.  0.
         25    1    1    2    0    0  0.91128871654E+02  0.10736688415E+03  0.10714646217E+03  0.21665060216E+03  0.12500000000E+03 0.  0.
</event>
<event>
 4    0  0.2179527E-002  0.3373278E+03  0.7546771E-02  0.1067940E+00
         21   -1    0    0  502  501  0.00000000000E+00  0.00000000000E+00  0.86771441013E+03  0.86771441013E+03  0.00000000000E+00 0.  1.
         21   -1    0    0  501  502 -0.00000000000E+00 -0.00000000000E+00 -0.13113768228E+03  0.13113768228E+03  0.00000000000E+00 0.  1.
         25    1    1    2    0    0  0.14562986590E+03 -0.11798740955E+03  0.74000607246E+03  0.77353931635E+03  0.12500000000E+03 0.  0.
         25    1    1    2    0    0 -0.14562986590E+03  0.11798740955E+03 -0.34293446097E+01  0.22531277607E+03  0.12500000000E+03 0.  0.
</event>
<event>
 4    0  0.2179527E-002  0.2447761E+03  0.7546771E-02  0.1116651E+00
         21   -1    0    0  502  501  0.00000000000E+00  0.00000000000E+00  0.61282926525E+03  0.61282926525E+03  0.00000000000E+00 0.  1.
         21   -1    0    0  501  502 -0.00000000000E+00 -0.00000000000E+00 -0.97768379521E+02  0.97768379521E+02  0.00000000000E+00 0.  1.
         25    1    1    2    0    0 -0.10706115254E+02 -0.20447582283E+03  0.32812507930E+03  0.40646777325E+03  0.12500000000E+03 0.  0.
         25    1    1    2    0    0  0.10706115254E+02  0.20447582283E+03  0.18693580644E+03  0.30412987153E+03  0.12500000000E+03 0.  0.
</event>
<event>
 4    0  0.2179527E-002  0.2658870E+03  0.7546771E-02  0.1103657E+00
         21   -1    0    0  502  501  0.00000000000E+00  0.00000000000E+00  0.26144957996E+03  0.26144957996E+03  0.00000000000E+00 0.  1.
         21   -1    0    0  501  502 -0.00000000000E+00 -0.00000000000E+00 -0.27039979274E+03  0.27039979274E+03  0.00000000000E+00 0.  1.
         25    1    1    2    0    0 -0.19598786036E+03 -0.87740781752E+02 -0.99152266017E+02  0.26751795837E+03  0.12500000000E+03 0.  0.
         25    1    1    2    0    0  0.19598786036E+03  0.87740781752E+02  0.90202053239E+02  0.26433141433E+03  0.12500000000E+03 0.  0.
</event>
<event>
 4    0  0.2179527E-002  0.2269362E+03  0.7546771E-02  0.1128815E+00
         21   -1    0    0  502  501  0.00000000000E+00  0.00000000000E+00  0.22765560367E+04  0.22765560367E+04  0.00000000000E+00 0.  1.
         21   -1    0    0  501  502 -0.00000000000E+00 -0.00000000000E+00 -0.22621910645E+02  0.22621910645E+02  0.00000000000E+00 0.  1.
         25    1    1    2    0    0 -0.82081938107E+02  0.11075504252E+03  0.46899386930E+03  0.50456354749E+03  0.12500000000E+03 0.  0.
         25    1    1    2    0    0  0.82081938107E+02 -0.11075504252E+03  0.17849402568E+04  0.17946143999E+04  0.12500000000E+03 0.  0.
</event>
<event>
 4    0  0.2179527E-002  0.1980019E+03  0.7546771E-02  0.1151436E+00
         21   -1    0    0  502  501  0.00000000000E+00  0.00000000000E+00  0.31496398884E+02  0.31496398884E+02  0.00000000000E+00 0.  1.
         21   -1    0    0  501  502 -0.00000000000E+00 -0.00000000000E+00 -0.12447374752E+04  0.12447374752E+04  0.00000000000E+00 0.  1.
         25    1    1    2    0    0 -0.68440646854E+01  0.12507916744E+03 -0.89285200825E+03  0.91022049415E+03  0.12500000000E+03 0.  0.
         25    1    1    2    0    0  0.68440646854E+01 -0.12507916744E+03 -0.32038906806E+03  0.36601337992E+03  0.12500000000E+03 0.  0.
</event>
<event>
 4    0  0.2179527E-002  0.1894811E+03  0.7546771E-02  0.1158930E+00
         21   -1    0    0  502  501  0.00000000000E+00  0.00000000000E+00  0.89770178527E+02  0.89770178527E+02  0.00000000000E+00 0. -1.
         21   -1    0    0  501  502 -0.00000000000E+00 -0.00000000000E+00 -0.39994448461E+03  0.39994448461E+03  0.00000000000E+00 0. -1.
         25    1    1    2    0    0 -0.12666401881E+03  0.32015610696E+02 -0.81880024769E+02  0.19848957516E+03  0.12500000000E+03 0.  0.
         25    1    1    2    0    0  0.12666401881E+03 -0.32015610696E+02 -0.22829428132E+03  0.29122508798E+03  0.12500000000E+03 0.  0.
</event>
<event>
 4    0  0.2179527E-002  0.1899038E+03  0.7546771E-02  0.1158548E+00
         21   -1    0    0  502  501  0.00000000000E+00  0.00000000000E+00  0.13543068795E+02  0.13543068795E+02  0.00000000000E+00 0. -1.
         21   -1    0    0  501  502 -0.00000000000E+00 -0.00000000000E+00 -0.26628719674E+04  0.26628719674E+04  0.00000000000E+00 0. -1.
         25    1    1    2    0    0 -0.62959821107E+02  0.12806951439E+03 -0.12645729957E+04  0.12787242084E+04  0.12500000000E+03 0.  0.
         25    1    1    2    0    0  0.62959821107E+02 -0.12806951439E+03 -0.13847559028E+04  0.13976908278E+04  0.12500000000E+03 0.  0.
</event>
<event>
 4    0  0.2179527E-002  0.1692800E+03  0.7546771E-02  0.1178601E+00
         21   -1    0    0  502  501  0.00000000000E+00  0.00000000000E+00  0.44812595519E+02  0.44812595519E+02  0.00000000000E+00 0.  1.
         21   -1    0    0  501  502 -0.00000000000E+00 -0.00000000000E+00 -0.63945698368E+03  0.63945698368E+03  0.00000000000E+00 0.  1.
         25    1    1    2    0    0  0.23000484186E+02  0.54068809906E+02 -0.99518212982E+02  0.17023904720E+03  0.12500000000E+03 0.  0.
         25    1    1    2    0    0 -0.23000484186E+02 -0.54068809906E+02 -0.49512617518E+03  0.51403053199E+03  0.12500000000E+03 0.  0.
</event>
<event>
 4    0  0.2179527E-002  0.1734616E+03  0.7546771E-02  0.1174285E+00
         21   -1    0    0  502  501  0.00000000000E+00  0.00000000000E+00  0.46775530821E+03  0.46775530821E+03  0.00000000000E+00 0. -1.
         21   -1    0    0  501  502 -0.00000000000E+00 -0.00000000000E+00 -0.64326184416E+02  0.64326184416E+02  0.00000000000E+00 0. -1.
         25    1    1    2    0    0 -0.10072503380E+02 -0.11967326227E+03  0.21150745333E+03  0.27346580745E+03  0.12500000000E+03 0.  0.
         25    1    1    2    0    0  0.10072503380E+02  0.11967326227E+03  0.19192167046E+03  0.25861568518E+03  0.12500000000E+03 0.  0.
</event>
<event>
 4    0  0.2179527E-002  0.2411811E+03  0.7546771E-02  0.1119008E+00
         21   -1    0    0  502  501  0.00000000000E+00  0.00000000000E+00  0.42982596657E+02  0.42982596657E+02  0.00000000000E+00 0.  1.
         21   -1    0    0  501  502 -0.00000000000E+00 -0.00000000000E+00 -0.13532996758E+04  0.13532996758E+04  0.00000000000E+00 0.  1.
         25    1    1    2    0    0 -0.59154611004E+02 -0.16137554021E+03 -0.32508932840E+03  0.38839336300E+03  0.12500000000E+03 0.  0.
         25    1    1    2    0    0  0.59154611004E+02  0.16137554021E+03 -0.98522775074E+03  0.10078889095E+04  0.12500000000E+03 0.  0.
</event>
<event>
 4    0  0.2179527E-002  0.2720499E+03  0.7546771E-02  0.1100112E+00
         21   -1    0    0  502  501  0.00000000000E+00  0.00000000000E+00  0.18182187915E+03  0.18182187915E+03  0.00000000000E+00 0.  1.
         21   -1    0    0  501  502 -0.00000000000E+00 -0.00000000000E+00 -0.40705298739E+03  0.40705298739E+03  0.00000000000E+00 0.  1.
         25    1    1    2    0    0 -0.14392358749E+03  0.79136781084E+02  0.79196130284E+02  0.22107387048E+03  0.12500000000E+03 0.  0.
         25    1    1    2    0    0  0.14392358749E+03 -0.79136781084E+02 -0.30442723852E+03  0.36780099607E+03  0.12500000000E+03 0.  0.
</event>
<event>
 4    0  0.2179527E-002  0.2566049E+03  0.7546771E-02  0.1109200E+00
         21   -1    0    0  502  501  0.00000000000E+00  0.00000000000E+00  0.56743454621E+02  0.56743454621E+02  0.00000000000E+00 0.  1.
         21   -1    0    0  501  502 -0.00000000000E+00 -0.00000000000E+00 -0.11604166656E+04  0.11604166656E+04  0.00000000000E+00 0.  1.
         25    1    1    2    0    0  0.16947114458E+03 -0.62561548359E+02 -0.86635367406E+03  0.89377184154E+03  0.12500000000E+03 0.  0.
         25    1    1    2    0    0 -0.16947114458E+03  0.62561548359E+02 -0.23731953689E+03  0.32338827864E+03  0.12500000000E+03 0.  0.
</event>
<event>
 4    0  0.2179527E-002  0.3349673E+03  0.7546771E-02  0.1068960E+00
         21   -1    0    0  502  501  0.00000000000E+00  0.00000000000E+00  0.11786656391E+04  0.11786656391E+04  0.00000000000E+00 0.  1.
         21   -1    0    0  501  502 -0.00000000000E+00 -0.00000000000E+00 -0.95194999697E+02  0.95194999697E+02  0.00000000000E+00 0.  1.
         25    1    1    2    0    0 -0.60439688958E+02 -0.30481589736E+03  0.53504282853E+03  0.63123808159E+03  0.12500000000E+03 0.  0.
         25    1    1    2    0    0  0.60439688958E+02  0.30481589736E+03  0.54842781084E+03  0.64262255717E+03  0.12500000000E+03 0.  0.
</event>
<event>
 4    0  0.2179527E-002  0.3578355E+03  0.7546771E-02  0.1059444E+00
         21   -1    0    0  502  501  0.00000000000E+00  0.00000000000E+00  0.10839611888E+03  0.10839611888E+03  0.00000000000E+00 0.  1.
         21   -1    0    0  501  502 -0.00000000000E+00 -0.00000000000E+00 -0.11812809469E+04  0.11812809469E+04  0.00000000000E+00 0.  1.
         25    1    1    2    0    0 -0.19670003709E+03 -0.19047912072E+03 -0.88516673305E+03  0.93494296368E+03  0.12500000000E+03 0.  0.
         25    1    1    2    0    0  0.19670003709E+03  0.19047912072E+03 -0.18771809499E+03  0.35473410212E+03  0.12500000000E+03 0.  0.
</event>
<event>
 4    0  0.2179527E-002  0.1780337E+03  0.7546771E-02  0.1169720E+00
         21   -1    0    0  502  501  0.00000000000E+00  0.00000000000E+00  0.50856138199E+03  0.50856138199E+03  0.00000000000E+00 0.  1.
         21   -1    0    0  501  502 -0.00000000000E+00 -0.00000000000E+00 -0.62324815130E+02  0.62324815130E+02  0.00000000000E+00 0.  1.
         25    1    1    2    0    0 -0.88519029880E+02 -0.76302871595E+02  0.30188056140E+03  0.34700809820E+03  0.12500000000E+03 0.  0.
         25    1    1    2    0    0  0.88519029880E+02  0.76302871595E+02  0.14435600546E+03  0.22387809892E+03  0.12500000000E+03 0.  0.
</event>
<event>
 4    0  0.2179527E-002  0.2283459E+03  0.7546771E-02  0.1127809E+00
         21   -1    0    0  502  501  0.00000000000E+00  0.00000000000E+00  0.13410825375E+04  0.13410825375E+04  0.00000000000E+00 0.  1.
         21   -1    0    0  501  502 -0.00000000000E+00 -0.00000000000E+00 -0.38880414089E+02  0.38880414089E+02  0.00000000000E+00 0.  1.
         25    1    1    2    0    0  0.75865025947E+02 -0.81186100054E+02  0.18133245176E+03  0.24668429838E+03  0.12500000000E+03 0.  0.
         25    1    1    2    0    0 -0.75865025947E+02  0.81186100054E+02  0.11208696716E+04  0.11332786532E+04  0.12500000000E+03 0.  0.
</event>
<event>
 4    0  0.2179527E-002  0.2646325E+03  0.7546771E-02  0.1104391E+00
         21   -1    0    0  502  501  0.00000000000E+00  0.00000000000E+00  0.25138198946E+03  0.25138198946E+03  0.00000000000E+00 0. -1.
         21   -1    0    0  501  502 -0.00000000000E+00 -0.00000000000E+00 -0.27858142186E+03  0.27858142186E+03  0.00000000000E+00 0.  1.
         25    1    1    2    0    0  0.20630642160E+03 -0.27732951212E+02  0.91771733309E+02  0.25957370285E+03  0.12500000000E+03 0.  0.
         25    1    1    2    0    0 -0.20630642160E+03  0.27732951212E+02 -0.11897116571E+03  0.27038970847E+03  0.12500000000E+03 0.  0.
</event>
<event>
 4    0  0.2179527E-002  0.2369666E+03  0.7546771E-02  0.1121830E+00
         21   -1    0    0  502  501  0.00000000000E+00  0.00000000000E+00  0.76827685974E+03  0.76827685974E+03  0.00000000000E+00 0.  1.
         21   -1    0    0  501  502 -0.00000000000E+00 -0.00000000000E+00 -0.73089750016E+02  0.73089750016E+02  0.00000000000E+00 0.  1.
         25    1    1    2    0    0 -0.83611376266E+02  0.86527191127E+02  0.61060377750E+02  0.18393256040E+03  0.12500000000E+03 0.  0.
         25    1    1    2    0    0  0.83611376266E+02 -0.86527191127E+02  0.63412673198E+03  0.65743404936E+03  0.12500000000E+03 0.  0.
</event>
<event>
 4    0  0.2179527E-002  0.2872812E+03  0.7546771E-02  0.1091777E+00
         21   -1    0    0  502  501  0.00000000000E+00  0.00000000000E+00  0.56086375435E+03  0.56086375435E+03  0.00000000000E+00 0.  1.
         21   -1    0    0  501  502 -0.00000000000E+00 -0.00000000000E+00 -0.14714891122E+03  0.14714891122E+03  0.00000000000E+00 0.  1.
         25    1    1    2    0    0  0.13888320956E+03  0.21681459389E+03  0.23725158042E+03  0.37176662899E+03  0.12500000000E+03 0.  0.
         25    1    1    2    0    0 -0.13888320956E+03 -0.21681459389E+03  0.17646326272E+03  0.33624603657E+03  0.12500000000E+03 0.  0.
</event>
<event>
 4    0  0.2179527E-002  0.2608601E+03  0.7546771E-02  0.1106628E+00
         21   -1    0    0  502  501  0.00000000000E+00  0.00000000000E+00  0.58243642820E+02  0.58243642820E+02  0.00000000000E+00 0.  1.
         21   -1    0    0  501  502 -0.00000000000E+00 -0.00000000000E+00 -0.11683336949E+04  0.11683336949E+04  0.00000000000E+00 0.  1.
         25    1    1    2    0    0  0.16418422977E+03 -0.52862773313E+02 -0.20104534384E+03  0.29290811595E+03  0.12500000000E+03 0.  0.
         25    1    1    2    0    0 -0.16418422977E+03  0.52862773313E+02 -0.90904470820E+03  0.93366922174E+03  0.12500000000E+03 0.  0.
</event>
<event>
 4    0  0.2179527E-002  0.1722530E+03  0.7546771E-02  0.1175519E+00
         21   -1    0    0  502  501  0.00000000000E+00  0.00000000000E+00  0.93279124117E+02  0.93279124117E+02  0.00000000000E+00 0. -1.
         21   -1    0    0  501  502 -0.00000000000E+00 -0.00000000000E+00 -0.31808929953E+03  0.31808929953E+03  0.00000000000E+00 0. -1.
         25    1    1    2    0    0 -0.80192258085E+02 -0.87251875038E+02 -0.11055395365E+03  0.20467257907E+03  0.12500000000E+03 0.  0.
         25    1    1    2    0    0  0.80192258085E+02  0.87251875038E+02 -0.11425622176E+03  0.20669584457E+03  0.12500000000E+03 0.  0.
</event>
<event>
 4    0  0.2179527E-002  0.2310024E+03  0.7546771E-02  0.1125936E+00
         21   -1    0    0  502  501  0.00000000000E+00  0.00000000000E+00  0.97920591442E+02  0.97920591442E+02  0.00000000000E+00 0.  1.
         21   -1    0    0  501  502 -0.00000000000E+00 -0.00000000000E+00 -0.54495265730E+03  0.54495265730E+03  0.00000000000E+00 0.  1.
         25    1    1    2    0    0 -0.29706078032E+01 -0.75860399082E+02  0.25297379661E+02  0.14842028863E+03  0.12500000000E+03 0.  0.
         25    1    1    2    0    0  0.29706078032E+01  0.75860399082E+02 -0.47232944552E+03  0.49445296011E+03  0.12500000000E+03 0.  0.
</event>
<event>
 4    0  0.2179527E-002  0.3138435E+03  0.7546771E-02  0.1078518E+00
         21   -1    0    0  502  501  0.00000000000E+00  0.00000000000E+00  0.58733164225E+03  0.58733164225E+03  0.00000000000E+00 0.  1.
         21   -1    0    0  501  502 -0.00000000000E+00 -0.00000000000E+00 -0.16770374348E+03  0.16770374348E+03  0.00000000000E+00 0.  1.
         25    1    1    2    0    0  0.17073111338E+03  0.13947264269E+03 -0.12869284131E+02  0.25375647698E+03  0.12500000000E+03 0.  0.
         25    1    1    2    0    0 -0.17073111338E+03 -0.13947264269E+03  0.43249718291E+03  0.50127890875E+03  0.12500000000E+03 0.  0.
</event>
<event>
 4    0  0.2179527E-002  0.2469920E+03  0.7546771E-02  0.1115221E+00
         21   -1    0    0  502  501  0.00000000000E+00  0.00000000000E+00  0.24661215169E+03  0.24661215169E+03  0.00000000000E+00 0.  1.
         21   -1    0    0  501  502 -0.00000000000E+00 -0.00000000000E+00 -0.24737236145E+03  0.24737236145E+03  0.00000000000E+00 0.  1.
         25    1    1    2    0    0 -0.82912235097E+02  0.10988379324E+03  0.16219666522E+03  0.24674206159E+03  0.12500000000E+03 0.  0.
         25    1    1    2    0    0  0.82912235097E+02 -0.10988379324E+03 -0.16295687499E+03  0.24724245156E+03  0.12500000000E+03 0.  0.
</event>
<event>
 4    0  0.2179527E-002  0.2297751E+03  0.7546771E-02  0.1126798E+00
         21   -1    0    0  502  501  0.00000000000E+00  0.00000000000E+00  0.78964084023E+03  0.78964084023E+03  0.00000000000E+00 0. -1.
         21   -1    0    0  501  502 -0.00000000000E+00 -0.00000000000E+00 -0.66861529091E+02  0.66861529091E+02  0.00000000000E+00 0. -1.
         25    1    1    2    0    0 -0.21059113894E+01 -0.13021229814E+03  0.62636127995E+03  0.65185361123E+03  0.12500000000E+03 0.  0.
         25    1    1    2    0    0  0.21059113894E+01  0.13021229814E+03  0.96418031187E+02  0.20464875809E+03  0.12500000000E+03 0.  0.
</event>
<event>
 4    0  0.2179527E-002  0.2929830E+03  0.7546771E-02  0.1088802E+00
         21   -1    0    0  502  501  0.00000000000E+00  0.00000000000E+00  0.42172305628E+03  0.42172305628E+03  0.00000000000E+00 0.  1.
         21   -1    0    0  501  502 -0.00000000000E+00 -0.00000000000E+00 -0.20354358813E+03  0.20354358813E+03  0.00000000000E+00 0.  1.
         25    1    1    2    0    0  0.84473635670E+02  0.59225868315E+02 -0.15135081094E+03  0.22175564609E+03  0.12500000000E+03 0.  0.
         25    1    1    2    0    0 -0.84473635670E+02 -0.59225868315E+02  0.36953027909E+03  0.40351099832E+03  0.12500000000E+03 0.  0.
</event>
<event>
 4    0  0.2179527E-002  0.2064613E+03  0.7546771E-02  0.1144399E+00
         21   -1    0    0  502  501  0.00000000000E+00  0.00000000000E+00  0.13379090022E+03  0.13379090022E+03  0.00000000000E+00 0.  1.
         21   -1    0    0  501  502 -0.00000000000E+00 -0.00000000000E+00 -0.31860372236E+03  0.31860372236E+03  0.00000000000E+00 0.  1.
         25    1    1    2    0    0 -0.59208831802E+02 -0.95289194372E+02 -0.22394843641E+03  0.27993502549E+03  0.12500000000E+03 0.  0.
         25    1    1    2    0    0  0.59208831802E+02  0.95289194372E+02  0.39135614265E+02  0.17245959710E+03  0.12500000000E+03 0.  0.
</event>
<event>
 4    0  0.2179527E-002  0.2857314E+03  0.7546771E-02  0.1092599E+00
         21   -1    0    0  502  501  0.00000000000E+00  0.00000000000E+00  0.14710282500E+03  0.14710282500E+03  0.00000000000E+00 0.  1.
         21   -1    0    0  501  502 -0.00000000000E+00 -0.00000000000E+00 -0.55500267520E+03  0.55500267520E+03  0.00000000000E+00 0.  1.
         25    1    1    2    0    0 -0.16755285938E+03 -0.10568163955E+03 -0.40498794444E+03  0.46784912607E+03  0.12500000000E+03 0.  0.
         25    1    1    2    0    0  0.16755285938E+03  0.10568163955E+03 -0.29119057570E+01  0.23425637413E+03  0.12500000000E+03 0.  0.
</event>
<event>
 4    0  0.2179527E-002  0.1761594E+03  0.7546771E-02  0.1171573E+00
         21   -1    0    0  502  501  0.00000000000E+00  0.00000000000E+00  0.24576174804E+03  0.24576174804E+03  0.00000000000E+00 0. -1.
         21   -1    0    0  501  502 -0.00000000000E+00 -0.00000000000E+00 -0.12626911438E+03  0.12626911438E+03  0.00000000000E+00 0. -1.
         25    1    1    2    0    0  0.11208909406E+03 -0.11168089031E+01  0.11603850323E+03  0.20409592476E+03  0.12500000000E+03 0.  0.
         25    1    1    2    0    0 -0.11208909406E+03  0.11168089031E+01  0.34541304225E+01  0.16793493766E+03  0.12500000000E+03 0.  0.
</event>
<event>
 4    0  0.2179527E-002  0.2524162E+03  0.7546771E-02  0.1111787E+00
         21   -1    0    0  502  501  0.00000000000E+00  0.00000000000E+00  0.34776276858E+03  0.34776276858E+03  0.00000000000E+00 0.  1.
         21   -1    0    0  501  502 -0.00000000000E+00 -0.00000000000E+00 -0.18321086648E+03  0.18321086648E+03  0.00000000000E+00 0.  1.
         25    1    1    2    0    0 -0.17738561366E+03  0.12386863835E+03  0.44648854950E+02  0.25382595562E+03  0.12500000000E+03 0.  0.
         25    1    1    2    0    0  0.17738561366E+03 -0.12386863835E+03  0.11990304715E+03  0.27714767943E+03  0.12500000000E+03 0.  0.
</event>
<event>
 4    0  0.2179527E-002  0.2158695E+03  0.7546771E-02  0.1137001E+00
         21   -1    0    0  502  501  0.00000000000E+00  0.00000000000E+00  0.75755202102E+03  0.75755202102E+03  0.00000000000E+00 0.  1.
         21   -1    0    0  501  502 -0.00000000000E+00 -0.00000000000E+00 -0.61513435360E+02  0.61513435360E+02  0.00000000000E+00 0.  1.
         25    1    1    2    0    0 -0.53066927554E+02  0.61452180115E+02  0.51786274286E+02  0.15779508055E+03  0.12500000000E+03 0.  0.
         25    1    1    2    0    0  0.53066927554E+02 -0.61452180115E+02  0.64425231138E+03  0.66127037583E+03  0.12500000000E+03 0.  0.
</event>
<event>
 4    0  0.2179527E-002  0.2016405E+03  0.7546771E-02  0.1148362E+00
         21   -1    0    0  502  501  0.00000000000E+00  0.00000000000E+00  0.14017060849E+03  0.14017060849E+03  0.00000000000E+00 0. -1.
         21   -1    0    0  501  502 -0.00000000000E+00 -0.00000000000E+00 -0.29006715654E+03  0.29006715654E+03  0.00000000000E+00 0. -1.
         25    1    1    2    0    0  0.12926321905E+03 -0.84281484246E+02 -0.11223505389E+03  0.22810974488E+03  0.12500000000E+03 0.  0.
         25    1    1    2    0    0 -0.12926321905E+03  0.84281484246E+02 -0.37661494155E+02  0.20212802015E+03  0.12500000000E+03 0.  0.
</event>
<event>
 4    0  0.2179527E-002  0.2354422E+03  0.7546771E-02  0.1122867E+00
         21   -1    0    0  502  501  0.00000000000E+00  0.00000000000E+00  0.49827030646E+02  0.49827030646E+02  0.00000000000E+00 0.  1.
         21   -1    0    0  501  502 -0.00000000000E+00 -0.00000000000E+00 -0.11125095997E+04  0.11125095997E+04  0.00000000000E+00 0.  1.
         25    1    1    2    0    0  0.68047283555E+02  0.16108093983E+03 -0.29418683194E+03  0.36434653019E+03  0.12500000000E+03 0.  0.
         25    1    1    2    0    0 -0.68047283555E+02 -0.16108093983E+03 -0.76849573709E+03  0.79799010013E+03  0.12500000000E+03 0.  0.
</event>
<event>
 4    0  0.2179527E-002  0.3349731E+03  0.7546771E-02  0.1068957E+00
         21   -1    0    0  502  501  0.00000000000E+00  0.00000000000E+00  0.46249809155E+03  0.46249809155E+03  0.00000000000E+00 0.  1.
         21   -1    0    0  501  502 -0.00000000000E+00 -0.00000000000E+00 -0.24261067865E+03  0.24261067865E+03  0.00000000000E+00 0.  1.
         25    1    1    2    0    0 -0.18719117537E+03 -0.24723447499E+03  0.13142457808E+03  0.35925317185E+03  0.12500000000E+03 0.  0.
         25    1    1    2    0    0  0.18719117537E+03  0.24723447499E+03  0.88462834820E+02  0.34585559834E+03  0.12500000000E+03 0.  0.
</event>
<event>
 4    0  0.2179527E-002  0.3233663E+03  0.7546771E-02  0.1074110E+00
         21   -1    0    0  502  501  0.00000000000E+00  0.00000000000E+00  0.23427791735E+03  0.23427791735E+03  0.00000000000E+00 0.  1.
         21   -1    0    0  501  502 -0.00000000000E+00 -0.00000000000E+00 -0.44633218513E+03  0.44633218513E+03  0.00000000000E+00 0.  1.
         25    1    1    2    0    0  0.61683199239E+02  0.70204841951E+02  0.19201687476E+03  0.24744497791E+03  0.12500000000E+03 0.  0.
         25    1    1    2    0    0 -0.61683199239E+02 -0.70204841951E+02 -0.40407114255E+03  0.43316512457E+03  0.12500000000E+03 0.  0.
</event>
<event>
 4    0  0.2179527E-002  0.2569854E+03  0.7546771E-02  0.1108968E+00
         21   -1    0    0  502  501  0.00000000000E+00  0.00000000000E+00  0.21213729202E+03  0.21213729202E+03  0.00000000000E+00 0. -1.
         21   -1    0    0  501  502 -0.00000000000E+00 -0.00000000000E+00 -0.31131491249E+03  0.31131491249E+03  0.00000000000E+00 0. -1.
         25    1    1    2    0    0  0.14462315443E+03  0.94384440250E+02 -0.19573590373E+03  0.28941634952E+03  0.12500000000E+03 0.  0.
         25    1    1    2    0    0 -0.14462315443E+03 -0.94384440250E+02  0.96558283263E+02  0.23403585500E+03  0.12500000000E+03 0.  0.
</event>
<event>
 4    0  0.2179527E-002  0.2757919E+03  0.7546771E-02  0.1098010E+00
         21   -1    0    0  502  501  0.00000000000E+00  0.00000000000E+00  0.10685335691E+03  0.10685335691E+03  0.00000000000E+00 0. -1.
         21   -1    0    0  501  502 -0.00000000000E+00 -0.00000000000E+00 -0.71182745675E+03  0.71182745675E+03  0.00000000000E+00 0. -1.
         25    1    1    2    0    0 -0.50957969516E+01 -0.37744475434E+01  0.62272805708E+02  0.13979669500E+03  0.12500000000E+03 0.  0.
         25    1    1    2    0    0  0.50957969516E+01  0.37744475434E+01 -0.66724690556E+03  0.67888411866E+03  0.12500000000E+03 0.  0.
</event>
<event>
 4    0  0.2179527E-002  0.2176753E+03  0.7546771E-02  0.1135628E+00
         21   -1    0    0  502  501  0.00000000000E+00  0.00000000000E+00  0.21427525008E+03  0.21427525008E+03  0.00000000000E+00 0.  1.
         21   -1    0    0  501  502 -0.00000000000E+00 -0.00000000000E+00 -0.22112921169E+03  0.22112921169E+03  0.00000000000E+00 0.  1.
         25    1    1    2    0    0  0.50956706367E+02  0.16138901782E+03  0.52387785184E+02  0.21682361733E+03  0.12500000000E+03 0.  0.
         25    1    1    2    0    0 -0.50956706367E+02 -0.16138901782E+03 -0.59241746794E+02  0.21858084445E+03  0.12500000000E+03 0.  0.
</event>
<event>
 4    0  0.2179527E-002  0.2967008E+03  0.7546771E-02  0.1086902E+00
         21   -1    0    0  502  501  0.00000000000E+00  0.00000000000E+00  0.69929911654E+03  0.69929911654E+03  0.00000000000E+00 0.  1.
         21   -1    0    0  501  502 -0.00000000000E+00 -0.00000000000E+00 -0.12588512914E+03  0.12588512914E+03  0.00000000000E+00 0.  1.
         25    1    1    2    0    0 -0.18103989489E+02  0.23939706360E+03  0.11771818707E+03  0.29516314144E+03  0.12500000000E+03 0.  0.
         25    1    1    2    0    0  0.18103989489E+02 -0.23939706360E+03  0.45569580034E+03  0.53002110424E+03  0.12500000000E+03 0.  0.
</event>
<event>
 4    0  0.2179527E-002  0.2171757E+03  0.7546771E-02  0.1136006E+00
         21   -1    0    0  502  501  0.00000000000E+00  0.00000000000E+00  0.24728777810E+03  0.24728777810E+03  0.00000000000E+00 0. -1.
         21   -1    0    0  501  502 -0.00000000000E+00 -0.00000000000E+00 -0.19073041076E+03  0.19073041076E+03  0.00000000000E+00 0. -1.
         25    1    1    2    0    0  0.76886869771E+02 -0.15768299915E+03  0.56166805240E+02  0.22261003790E+03  0.12500000000E+03 0.  0.
         25    1    1    2    0    0 -0.76886869771E+02  0.15768299915E+03  0.39056210094E+00  0.21540815096E+03  0.12500000000E+03 0.  0.
</event>
<event>
 4    0  0.2179527E-002  0.1802874E+03  0.7546771E-02  0.1167525E+00
         21   -1    0    0  502  501  0.00000000000E+00  0.00000000000E+00  0.30475108092E+03  0.30475108092E+03  0.00000000000E+00 0. -1.
         21   -1    0    0  501  502 -0.00000000000E+00 -0.00000000000E+00 -0.10665606663E+03  0.10665606663E+03  0.00000000000E+00 0. -1.
         25    1    1    2    0    0 -0.70745853570E+02 -0.10665091722E+03  0.12453900141E+03  0.21797788148E+03  0.12500000000E+03 0.  0.
         25    1    1    2    0    0  0.70745853570E+02  0.10665091722E+03  0.73556012883E+02  0.19342926607E+03  0.12500000000E+03 0.  0.
</event>
<event>
 4    0  0.2179527E-002  0.2088375E+03  0.7546771E-02  0.1142490E+00
         21   -1    0    0  502  501  0.00000000000E+00  0.00000000000E+00  0.24072269935E+03  0.24072269935E+03  0.00000000000E+00 0. -1.
         21   -1    0    0  501  502 -0.00000000000E+00 -0.00000000000E+00 -0.18117569307E+03  0.18117569307E+03  0.00000000000E+00 0. -1.
         25    1    1    2    0    0 -0.10783619674E+03 -0.12101632914E+03 -0.12051763691E+02  0.20504595157E+03  0.12500000000E+03 0.  0.
         25    1    1    2    0    0  0.10783619674E+03  0.12101632914E+03  0.71598769969E+02  0.21685244086E+03  0.12500000000E+03 0.  0.
</event>
<event>
 4    0  0.2179527E-002  0.1789646E+03  0.7546771E-02  0.1168809E+00
         21   -1    0    0  502  501  0.00000000000E+00  0.00000000000E+00  0.22224350051E+03  0.22224350051E+03  0.00000000000E+00 0. -1.
         21   -1    0    0  501  502 -0.00000000000E+00 -0.00000000000E+00 -0.14411373003E+03  0.14411373003E+03  0.00000000000E+00 0. -1.
         25    1    1    2    0    0 -0.12287575636E+03  0.29303227583E+02  0.17443833767E+02  0.17856768461E+03  0.12500000000E+03 0.  0.
         25    1    1    2    0    0  0.12287575636E+03 -0.29303227583E+02  0.60685936708E+02  0.18778954594E+03  0.12500000000E+03 0.  0.
</event>
<event>
 4    0  0.2179527E-002  0.2167159E+03  0.7546771E-02  0.1136355E+00
         21   -1    0    0  502  501  0.00000000000E+00  0.00000000000E+00  0.14079422824E+04  0.14079422824E+04  0.00000000000E+00 0. -1.
         21   -1    0    0  501  502 -0.00000000000E+00 -0.00000000000E+00 -0.33357737905E+02  0.33357737905E+02  0.00000000000E+00 0. -1.
         25    1    1    2    0    0 -0.17480494172E+03 -0.97677995940E+01  0.77455216782E+03  0.80387078454E+03  0.12500000000E+03 0.  0.
         25    1    1    2    0    0  0.17480494172E+03  0.97677995940E+01  0.60003237672E+03  0.63742923581E+03  0.12500000000E+03 0.  0.
</event>
<event>
 4    0  0.2179527E-002  0.2448321E+03  0.7546771E-02  0.1116615E+00
         21   -1    0    0  502  501  0.00000000000E+00  0.00000000000E+00  0.31109048935E+04  0.31109048935E+04  0.00000000000E+00 0.  1.
         21   -1    0    0  501  502 -0.00000000000E+00 -0.00000000000E+00 -0.19268595713E+02  0.19268595713E+02  0.00000000000E+00 0.  1.
         25    1    1    2    0    0  0.11099051588E+03 -0.37572184264E+02  0.26638132773E+04  0.26693176544E+04  0.12500000000E+03 0.  0.
         25    1    1    2    0    0 -0.11099051588E+03  0.37572184264E+02  0.42782302051E+03  0.46085583486E+03  0.12500000000E+03 0.  0.
</event>
<event>
 4    0  0.2179527E-002  0.2087480E+03  0.7546771E-02  0.1142561E+00
         21   -1    0    0  502  501  0.00000000000E+00  0.00000000000E+00  0.83295094385E+03  0.83295094385E+03  0.00000000000E+00 0. -1.
         21   -1    0    0  501  502 -0.00000000000E+00 -0.00000000000E+00 -0.52314881333E+02  0.52314881333E+02  0.00000000000E+00 0. -1.
         25    1    1    2    0    0 -0.11296584393E+01  0.22850780312E+02  0.74148435533E+03  0.75229481156E+03  0.12500000000E+03 0.  0.
         25    1    1    2    0    0  0.11296584393E+01 -0.22850780312E+02  0.39151707179E+02  0.13297101362E+03  0.12500000000E+03 0.  0.
</event>
<event>
 4    0  0.2179527E-002  0.2090404E+03  0.7546771E-02  0.1142328E+00
         21   -1    0    0  502  501  0.00000000000E+00  0.00000000000E+00  0.23814012482E+03  0.23814012482E+03  0.00000000000E+00 0.  1.
         21   -1    0    0  501  502 -0.00000000000E+00 -0.00000000000E+00 -0.18349647346E+03  0.18349647346E+03  0.00000000000E+00 0.  1.
         25    1    1    2    0    0 -0.50222629978E+02 -0.52576237000E+02 -0.12491336640E+03  0.19108878137E+03  0.12500000000E+03 0.  0.
         25    1    1    2    0    0  0.50222629978E+02  0.52576237000E+02  0.17955701775E+03  0.23054781691E+03  0.12500000000E+03 0.  0.
</event>
<event>
 4    0  0.2179527E-002  0.2334826E+03  0.7546771E-02  0.1124212E+00
         21   -1    0    0  502  501  0.00000000000E+00  0.00000000000E+00  0.58323329753E+03  0.58323329753E+03  0.00000000000E+00 0. -1.
         21   -1    0    0  501  502 -0.00000000000E+00 -0.00000000000E+00 -0.93468786454E+02  0.93468786454E+02  0.00000000000E+00 0. -1.
         25    1    1    2    0    0 -0.78298980104E+02  0.16271823873E+03  0.13003179301E+03  0.25522778590E+03  0.12500000000E+03 0.  0.
         25    1    1    2    0    0  0.78298980104E+02 -0.16271823873E+03  0.35973271807E+03  0.42147429809E+03  0.12500000000E+03 0.  0.
</event>
<event>
 4    0  0.2179527E-002  0.1606546E+03  0.7546771E-02  0.1187960E+00
         21   -1    0    0  502  501  0.00000000000E+00  0.00000000000E+00  0.11379810780E+04  0.11379810780E+04  0.00000000000E+00 0. -1.
         21   -1    0    0  501  502 -0.00000000000E+00 -0.00000000000E+00 -0.22680421737E+02  0.22680421737E+02  0.00000000000E+00 0. -1.
         25    1    1    2    0    0  0.81222819584E+02  0.58800746171E+02  0.59887105883E+03  0.61994049656E+03  0.12500000000E+03 0.  0.
         25    1    1    2    0    0 -0.81222819584E+02 -0.58800746171E+02  0.51642959744E+03  0.54072100318E+03  0.12500000000E+03 0.  0.
</event>
<event>
 4    0  0.2179527E-002  0.1983720E+03  0.7546771E-02  0.1151120E+00
         21   -1    0    0  502  501  0.00000000000E+00  0.00000000000E+00  0.39138406052E+03  0.39138406052E+03  0.00000000000E+00 0. -1.
         21   -1    0    0  501  502 -0.00000000000E+00 -0.00000000000E+00 -0.10054429902E+03  0.10054429902E+03  0.00000000000E+00 0. -1.
         25    1    1    2    0    0 -0.11447893858E+02 -0.10579253357E+03  0.28350935427E+03  0.32760596513E+03  0.12500000000E+03 0.  0.
         25    1    1    2    0    0  0.11447893858E+02  0.10579253357E+03  0.73304072369E+01  0.16432239441E+03  0.12500000000E+03 0.  0.
</event>
<event>
 4    0  0.2179527E-002  0.2024139E+03  0.7546771E-02  0.1147718E+00
         21   -1    0    0  502  501  0.00000000000E+00  0.00000000000E+00  0.46821560096E+02  0.46821560096E+02  0.00000000000E+00 0. -1.
         21   -1    0    0  501  502 -0.00000000000E+00 -0.00000000000E+00 -0.87505370794E+03  0.87505370794E+03  0.00000000000E+00 0. -1.
         25    1    1    2    0    0  0.59420920199E+02 -0.96165428116E+02 -0.66940415804E+03  0.69029382304E+03  0.12500000000E+03 0.  0.
         25    1    1    2    0    0 -0.59420920199E+02  0.96165428116E+02 -0.15882798980E+03  0.23158144500E+03  0.12500000000E+03 0.  0.
</event>
<event>
 4    0  0.2179527E-002  0.3334850E+03  0.7546771E-02  0.1069605E+00
         21   -1    0    0  502  501  0.00000000000E+00  0.00000000000E+00  0.36113986850E+03  0.36113986850E+03  0.00000000000E+00 0. -1.
         21   -1    0    0  501  502 -0.00000000000E+00 -0.00000000000E+00 -0.30794789086E+03  0.30794789086E+03  0.00000000000E+00 0.  1.
         25    1    1    2    0    0 -0.35753365580E+02 -0.25343824586E+03  0.20057679025E+03  0.34837522358E+03  0.12500000000E+03 0.  0.
         25    1    1    2    0    0  0.35753365580E+02  0.25343824586E+03 -0.14738481262E+03  0.32071253578E+03  0.12500000000E+03 0.  0.
</event>
<event>
 4    0  0.2179527E-002  0.2430533E+03  0.7546771E-02  0.1117775E+00
         21   -1    0    0  502  501  0.00000000000E+00  0.00000000000E+00  0.14670350122E+03  0.14670350122E+03  0.00000000000E+00 0.  1.
         21   -1    0    0  501  502 -0.00000000000E+00 -0.00000000000E+00 -0.40268225415E+03  0.40268225415E+03  0.00000000000E+00 0.  1.
         25    1    1    2    0    0  0.18713536641E+03  0.88474945624E+02 -0.10024971962E+03  0.26176796528E+03  0.12500000000E+03 0.  0.
         25    1    1    2    0    0 -0.18713536641E+03 -0.88474945624E+02 -0.15572903331E+03  0.28761779009E+03  0.12500000000E+03 0.  0.
</event>
<event>
 4    0  0.2179527E-002  0.3537282E+03  0.7546771E-02  0.1061095E+00
         21   -1    0    0  502  501  0.00000000000E+00  0.00000000000E+00  0.40481904193E+03  0.40481904193E+03  0.00000000000E+00 0.  1.
         21   -1    0    0  501  502 -0.00000000000E+00 -0.00000000000E+00 -0.30908532546E+03  0.30908532546E+03  0.00000000000E+00 0.  1.
         25    1    1    2    0    0  0.24715828963E+03 -0.21749169920E+03  0.81468486945E+02  0.36145812166E+03  0.12500000000E+03 0.  0.
         25    1    1    2    0    0 -0.24715828963E+03  0.21749169920E+03  0.14265229520E+02  0.35244624572E+03  0.12500000000E+03 0.  0.
</event>
<event>
 4    0  0.2179527E-002  0.2591824E+03  0.7546771E-02  0.1107635E+00
         21   -1    0    0  502  501  0.00000000000E+00  0.00000000000E+00  0.21616256972E+03  0.21616256972E+03  0.00000000000E+00 0.  1.
         21   -1    0    0  501  502 -0.00000000000E+00 -0.00000000000E+00 -0.31076385470E+03  0.31076385470E+03  0.00000000000E+00 0.  1.
         25    1    1    2    0    0  0.19042902296E+03  0.11954642786E+03 -0.79380596337E+02  0.26922265929E+03  0.12500000000E+03 0.  0.
         25    1    1    2    0    0 -0.19042902296E+03 -0.11954642786E+03 -0.15220688646E+02  0.25770376513E+03  0.12500000000E+03 0.  0.
</event>
<event>
 4    0  0.2179527E-002  0.3163408E+03  0.7546771E-02  0.1077346E+00
         21   -1    0    0  502  501  0.00000000000E+00  0.00000000000E+00  0.31125231794E+03  0.31125231794E+03  0.00000000000E+00 0. -1.
         21   -1    0    0  501  502 -0.00000000000E+00 -0.00000000000E+00 -0.32151255815E+03  0.32151255815E+03  0.00000000000E+00 0. -1.
         25    1    1    2    0    0  0.13102835277E+03  0.20173473468E+03  0.15792872583E+03  0.31373844975E+03  0.12500000000E+03 0.  0.
         25    1    1    2    0    0 -0.13102835277E+03 -0.20173473468E+03 -0.16818896604E+03  0.31902642634E+03  0.12500000000E+03 0.  0.
</event>
<event>
 4    0  0.2179527E-002  0.2590389E+03  0.7546771E-02  0.1107722E+00
         21   -1    0    0  502  501  0.00000000000E+00  0.00000000000E+00  0.82006226870E+03  0.82006226870E+03  0.00000000000E+00 0. -1.
         21   -1    0    0  501  502 -0.00000000000E+00 -0.00000000000E+00 -0.81824446824E+02  0.81824446824E+02  0.00000000000E+00 0. -1.
         25    1    1    2    0    0  0.61795222379E+02 -0.17814509135E+03  0.58878012189E+03  0.63074666469E+03  0.12500000000E+03 0.  0.
         25    1    1    2    0    0 -0.61795222379E+02  0.17814509135E+03  0.14945769998E+03  0.27114005083E+03  0.12500000000E+03 0.  0.
</event>
<event>
 4    0  0.2179527E-002  0.3176276E+03  0.7546771E-02  0.1076746E+00
         21   -1    0    0  502  501  0.00000000000E+00  0.00000000000E+00  0.82077978626E+02  0.82077978626E+02  0.00000000000E+00 0. -1.
         21   -1    0    0  501  502 -0.00000000000E+00 -0.00000000000E+00 -0.12291637498E+04  0.12291637498E+04  0.00000000000E+00 0. -1.
         25    1    1    2    0    0  0.11745196998E+02 -0.73137486165E+02 -0.11565429631E+04  0.11656344483E+04  0.12500000000E+03 0.  0.
         25    1    1    2    0    0 -0.11745196998E+02  0.73137486165E+02  0.94571919758E+01  0.14560728009E+03  0.12500000000E+03 0.  0.
</event>
<event>
 4    0  0.2179527E-002  0.2070173E+03  0.7546771E-02  0.1143950E+00
         21   -1    0    0  502  501  0.00000000000E+00  0.00000000000E+00  0.28682795148E+03  0.28682795148E+03  0.00000000000E+00 0. -1.
         21   -1    0    0  501  502 -0.00000000000E+00 -0.00000000000E+00 -0.14941414298E+03  0.14941414298E+03  0.00000000000E+00 0. -1.
         25    1    1    2    0    0 -0.41555483111E+01 -0.16435210091E+03  0.83691936620E+02  0.22284124822E+03  0.12500000000E+03 0.  0.
         25    1    1    2    0    0  0.41555483111E+01  0.16435210091E+03  0.53721871879E+02  0.21340084623E+03  0.12500000000E+03 0.  0.
</event>
<event>
 4    0  0.2179527E-002  0.1966965E+03  0.7546771E-02  0.1152557E+00
         21   -1    0    0  502  501  0.00000000000E+00  0.00000000000E+00  0.29035052344E+02  0.29035052344E+02  0.00000000000E+00 0. -1.
         21   -1    0    0  501  502 -0.00000000000E+00 -0.00000000000E+00 -0.13325100960E+04  0.13325100960E+04  0.00000000000E+00 0. -1.
         25    1    1    2    0    0 -0.12743148787E+02  0.95785712623E+02 -0.10572429071E+04  0.10689830940E+04  0.12500000000E+03 0.  0.
         25    1    1    2    0    0  0.12743148787E+02 -0.95785712623E+02 -0.24623213653E+03  0.29256205435E+03  0.12500000000E+03 0.  0.
</event>
<event>
 4    0  0.2179527E-002  0.2169271E+03  0.7546771E-02  0.1136195E+00
         21   -1    0    0  502  501  0.00000000000E+00  0.00000000000E+00  0.15287156175E+04  0.15287156175E+04  0.00000000000E+00 0. -1.
         21   -1    0    0  501  502 -0.00000000000E+00 -0.00000000000E+00 -0.30782286324E+02  0.30782286324E+02  0.00000000000E+00 0. -1.
         25    1    1    2    0    0 -0.10490218434E+03  0.11762780800E+03  0.10408008636E+04  0.10600623600E+04  0.12500000000E+03 0.  0.
         25    1    1    2    0    0  0.10490218434E+03 -0.11762780800E+03  0.45713246765E+03  0.49943554386E+03  0.12500000000E+03 0.  0.
</event>
<event>
 4    0  0.2179527E-002  0.2047836E+03  0.7546771E-02  0.1145765E+00
         21   -1    0    0  502  501  0.00000000000E+00  0.00000000000E+00  0.36896950016E+03  0.36896950016E+03  0.00000000000E+00 0.  1.
         21   -1    0    0  501  502 -0.00000000000E+00 -0.00000000000E+00 -0.11365793695E+03  0.11365793695E+03  0.00000000000E+00 0.  1.
         25    1    1    2    0    0 -0.72788070089E+02  0.64210735354E+01 -0.42994338891E+02  0.15103922176E+03  0.12500000000E+03 0.  0.
         25    1    1    2    0    0  0.72788070089E+02 -0.64210735354E+01  0.29830590210E+03  0.33158821535E+03  0.12500000000E+03 0.  0.
</event>
<event>
 4    0  0.2179527E-002  0.2467693E+03  0.7546771E-02  0.1115364E+00
         21   -1    0    0  502  501  0.00000000000E+00  0.00000000000E+00  0.69179037929E+02  0.69179037929E+02  0.00000000000E+00 0.  1.
         21   -1    0    0  501  502 -0.00000000000E+00 -0.00000000000E+00 -0.88025346356E+03  0.88025346356E+03  0.00000000000E+00 0.  1.
         25    1    1    2    0    0  0.20322573735E+03  0.11693817636E+02 -0.28644260495E+03  0.37297695857E+03  0.12500000000E+03 0.  0.
         25    1    1    2    0    0 -0.20322573735E+03 -0.11693817636E+02 -0.52463182068E+03  0.57645554292E+03  0.12500000000E+03 0.  0.
</event>
<event>
 4    0  0.2179527E-002  0.2222327E+03  0.7546771E-02  0.1132229E+00
         21   -1    0    0  502  501  0.00000000000E+00  0.00000000000E+00  0.35959287255E+02  0.35959287255E+02  0.00000000000E+00 0.  1.
         21   -1    0    0  501  502 -0.00000000000E+00 -0.00000000000E+00 -0.13734249451E+04  0.13734249451E+04  0.00000000000E+00 0.  1.
         25    1    1    2    0    0 -0.14335686962E+03  0.97770483028E+02 -0.47710256839E+03  0.52284043473E+03  0.12500000000E+03 0.  0.
         25    1    1    2    0    0  0.14335686962E+03 -0.97770483028E+02 -0.86036308949E+03  0.88654379767E+03  0.12500000000E+03 0.  0.
</event>
<event>
 4    0  0.2179527E-002  0.1563648E+03  0.7546771E-02  0.1192863E+00
         21   -1    0    0  502  501  0.00000000000E+00  0.00000000000E+00  0.54288855847E+03  0.54288855847E+03  0.00000000000E+00 0. -1.
         21   -1    0    0  501  502 -0.00000000000E+00 -0.00000000000E+00 -0.45036773673E+02  0.45036773673E+02  0.00000000000E+00 0. -1.
         25    1    1    2    0    0  0.51837132393E+02 -0.52919451514E+02  0.14031913687E+03  0.20199509107E+03  0.12500000000E+03 0.  0.
         25    1    1    2    0    0 -0.51837132393E+02  0.52919451514E+02  0.35753264793E+03  0.38593024108E+03  0.12500000000E+03 0.  0.
</event>
<event>
 4    0  0.2179527E-002  0.2070329E+03  0.7546771E-02  0.1143937E+00
         21   -1    0    0  502  501  0.00000000000E+00  0.00000000000E+00  0.52193033596E+02  0.52193033596E+02  0.00000000000E+00 0.  1.
         21   -1    0    0  501  502 -0.00000000000E+00 -0.00000000000E+00 -0.82123261170E+03  0.82123261170E+03  0.00000000000E+00 0. -1.
         25    1    1    2    0    0 -0.65639676914E+01  0.15063821832E+03 -0.52606373300E+03  0.56134036882E+03  0.12500000000E+03 0.  0.
         25    1    1    2    0    0  0.65639676914E+01 -0.15063821832E+03 -0.24297584511E+03  0.31208527648E+03  0.12500000000E+03 0.  0.
</event>
<event>
 4    0  0.2179527E-002  0.2837183E+03  0.7546771E-02  0.1093675E+00
         21   -1    0    0  502  501  0.00000000000E+00  0.00000000000E+00  0.36848497867E+02  0.36848497867E+02  0.00000000000E+00 0.  1.
         21   -1    0    0  501  502 -0.00000000000E+00 -0.00000000000E+00 -0.21845137168E+04  0.21845137168E+04  0.00000000000E+00 0.  1.
         25    1    1    2    0    0 -0.12663855571E+03  0.16543024568E+03 -0.50026671394E+03  0.55614411357E+03  0.12500000000E+03 0.  0.
         25    1    1    2    0    0  0.12663855571E+03 -0.16543024568E+03 -0.16473985050E+04  0.16652181011E+04  0.12500000000E+03 0.  0.
</event>
<event>
 4    0  0.2179527E-002  0.1500674E+03  0.7546771E-02  0.1200390E+00
         21   -1    0    0  502  501  0.00000000000E+00  0.00000000000E+00  0.72672426376E+03  0.72672426376E+03  0.00000000000E+00 0. -1.
         21   -1    0    0  501  502 -0.00000000000E+00 -0.00000000000E+00 -0.30988683330E+02  0.30988683330E+02  0.00000000000E+00 0.  1.
         25    1    1    2    0    0 -0.82959914061E+02  0.13349153831E+01  0.33945722618E+03  0.37113385422E+03  0.12500000000E+03 0.  0.
         25    1    1    2    0    0  0.82959914061E+02 -0.13349153831E+01  0.35627835424E+03  0.38657909287E+03  0.12500000000E+03 0.  0.
</event>
<event>
 4    0  0.2179527E-002  0.1745547E+03  0.7546771E-02  0.1173180E+00
         21   -1    0    0  502  501  0.00000000000E+00  0.00000000000E+00  0.15131795322E+04  0.15131795322E+04  0.00000000000E+00 0.  1.
         21   -1    0    0  501  502 -0.00000000000E+00 -0.00000000000E+00 -0.20135966144E+02  0.20135966144E+02  0.00000000000E+00 0.  1.
         25    1    1    2    0    0  0.96569880566E+02  0.25917435461E+02  0.10522961271E+04  0.10644010496E+04  0.12500000000E+03 0.  0.
         25    1    1    2    0    0 -0.96569880566E+02 -0.25917435461E+02  0.44074743904E+03  0.46891444882E+03  0.12500000000E+03 0.  0.
</event>
<event>
 4    0  0.2179527E-002  0.3089038E+03  0.7546771E-02  0.1080873E+00
         21   -1    0    0  502  501  0.00000000000E+00  0.00000000000E+00  0.11973459886E+03  0.11973459886E+03  0.00000000000E+00 0. -1.
         21   -1    0    0  501  502 -0.00000000000E+00 -0.00000000000E+00 -0.79694206498E+03  0.79694206498E+03  0.00000000000E+00 0. -1.
         25    1    1    2    0    0 -0.20393423791E+03  0.95252015196E+02 -0.85343996279E+02  0.27123922558E+03  0.12500000000E+03 0.  0.
         25    1    1    2    0    0  0.20393423791E+03 -0.95252015196E+02 -0.59186346984E+03  0.64543743827E+03  0.12500000000E+03 0.  0.
</event>
<event>
 4    0  0.2179527E-002  0.2165721E+03  0.7546771E-02  0.1136465E+00
         21   -1    0    0  502  501  0.00000000000E+00  0.00000000000E+00  0.31306632691E+03  0.31306632691E+03  0.00000000000E+00 0.  1.
         21   -1    0    0  501  502 -0.00000000000E+00 -0.00000000000E+00 -0.14981963057E+03  0.14981963057E+03  0.00000000000E+00 0.  1.
         25    1    1    2    0    0 -0.23009992293E+02 -0.12821470205E+03 -0.46215093309E+02  0.18635800068E+03  0.12500000000E+03 0.  0.
         25    1    1    2    0    0  0.23009992293E+02  0.12821470205E+03  0.20946178965E+03  0.27652795680E+03  0.12500000000E+03 0.  0.
</event>
<event>
 4    0  0.2179527E-002  0.2115686E+03  0.7546771E-02  0.1140330E+00
         21   -1    0    0  502  501  0.00000000000E+00  0.00000000000E+00  0.43833976811E+02  0.43833976811E+02  0.00000000000E+00 0. -1.
         21   -1    0    0  501  502 -0.00000000000E+00 -0.00000000000E+00 -0.10211544354E+04  0.10211544354E+04  0.00000000000E+00 0.  1.
         25    1    1    2    0    0  0.54305458651E+02 -0.16182299044E+03 -0.48688628409E+03  0.53086628892E+03  0.12500000000E+03 0.  0.
         25    1    1    2    0    0 -0.54305458651E+02  0.16182299044E+03 -0.49043417453E+03  0.53412212333E+03  0.12500000000E+03 0.  0.
</event>
<event>
 4    0  0.2179527E-002  0.1885531E+03  0.7546771E-02  0.1159773E+00
         21   -1    0    0  502  501  0.00000000000E+00  0.00000000000E+00  0.21740726791E+03  0.21740726791E+03  0.00000000000E+00 0. -1.
         21   -1    0    0  501  502 -0.00000000000E+00 -0.00000000000E+00 -0.16352839452E+03  0.16352839452E+03  0.00000000000E+00 0. -1.
         25    1    1    2    0    0  0.59336851394E+01  0.82685974043E+02  0.14235857622E+03  0.20679251230E+03  0.12500000000E+03 0.  0.
         25    1    1    2    0    0 -0.59336851394E+01 -0.82685974043E+02 -0.88479702827E+02  0.17414315012E+03  0.12500000000E+03 0.  0.
</event>
<event>
 4    0  0.2179527E-002  0.2141225E+03  0.7546771E-02  0.1138342E+00
         21   -1    0    0  502  501  0.00000000000E+00  0.00000000000E+00  0.54167693299E+03  0.54167693299E+03  0.00000000000E+00 0. -1.
         21   -1    0    0  501  502 -0.00000000000E+00 -0.00000000000E+00 -0.84641700519E+02  0.84641700519E+02  0.00000000000E+00 0. -1.
         25    1    1    2    0    0  0.36765098860E+02 -0.13597498846E+03  0.79493772683E+02  0.20441411369E+03  0.12500000000E+03 0.  0.
         25    1    1    2    0    0 -0.36765098860E+02  0.13597498846E+03  0.37754145979E+03  0.42190451982E+03  0.12500000000E+03 0.  0.
</event>
<event>
 4    0  0.2185924E-002  0.2392956E+03  0.7546771E-02  0.1120263E+00
         21   -1    0    0  502  501  0.00000000000E+00  0.00000000000E+00  0.17754522180E+03  0.17754522180E+03  0.00000000000E+00 0. -1.
         21   -1    0    0  501  502 -0.00000000000E+00 -0.00000000000E+00 -0.32252290786E+03  0.32252290786E+03  0.00000000000E+00 0. -1.
         25    1    1    2    0    0  0.53725091089E+02 -0.18358879711E+03 -0.14671300713E+03  0.27155282782E+03  0.12500000000E+03 0.  0.
         25    1    1    2    0    0 -0.53725091089E+02  0.18358879711E+03  0.17353210665E+01  0.22851530184E+03  0.12500000000E+03 0.  0.
</event>
<event>
 4    0  0.2179527E-002  0.1900133E+03  0.7546771E-02  0.1158449E+00
         21   -1    0    0  502  501  0.00000000000E+00  0.00000000000E+00  0.94799989845E+02  0.94799989845E+02  0.00000000000E+00 0. -1.
         21   -1    0    0  501  502 -0.00000000000E+00 -0.00000000000E+00 -0.38085513363E+03  0.38085513363E+03  0.00000000000E+00 0. -1.
         25    1    1    2    0    0  0.10183145396E+03 -0.70240817071E+02 -0.23308143328E+03  0.29198522555E+03  0.12500000000E+03 0.  0.
         25    1    1    2    0    0 -0.10183145396E+03  0.70240817071E+02 -0.52973710501E+02  0.18366989792E+03  0.12500000000E+03 0.  0.
</event>
<event>
 4    0  0.2179527E-002  0.2307170E+03  0.7546771E-02  0.1126136E+00
         21   -1    0    0  502  501  0.00000000000E+00  0.00000000000E+00  0.10760789223E+03  0.10760789223E+03  0.00000000000E+00 0. -1.
         21   -1    0    0  501  502 -0.00000000000E+00 -0.00000000000E+00 -0.49466935029E+03  0.49466935029E+03  0.00000000000E+00 0. -1.
         25    1    1    2    0    0  0.20440702409E+02  0.17077135628E+03 -0.31045371061E+03  0.37628072615E+03  0.12500000000E+03 0.  0.
         25    1    1    2    0    0 -0.20440702409E+02 -0.17077135628E+03 -0.76607747456E+02  0.22599651637E+03  0.12500000000E+03 0.  0.
</event>
<event>
 4    0  0.2179527E-002  0.3587871E+03  0.7546771E-02  0.1059065E+00
         21   -1    0    0  502  501  0.00000000000E+00  0.00000000000E+00  0.15139735387E+03  0.15139735387E+03  0.00000000000E+00 0.  1.
         21   -1    0    0  501  502 -0.00000000000E+00 -0.00000000000E+00 -0.85026714443E+03  0.85026714443E+03  0.00000000000E+00 0.  1.
         25    1    1    2    0    0 -0.15489964999E+03 -0.13949340385E+03  0.18964376067E+02  0.24379696233E+03  0.12500000000E+03 0.  0.
         25    1    1    2    0    0  0.15489964999E+03  0.13949340385E+03 -0.71783416663E+03  0.75786753596E+03  0.12500000000E+03 0.  0.
</event>
<event>
 4    0  0.2179527E-002  0.2069586E+03  0.7546771E-02  0.1143997E+00
         21   -1    0    0  502  501  0.00000000000E+00  0.00000000000E+00  0.22868393561E+03  0.22868393561E+03  0.00000000000E+00 0.  1.
         21   -1    0    0  501  502 -0.00000000000E+00 -0.00000000000E+00 -0.18729717298E+03  0.18729717298E+03  0.00000000000E+00 0.  1.
         25    1    1    2    0    0  0.10488395885E+03  0.84587672934E+02 -0.74918464715E+02  0.19847794737E+03  0.12500000000E+03 0.  0.
         25    1    1    2    0    0 -0.10488395885E+03 -0.84587672934E+02  0.11630522734E+03  0.21750316123E+03  0.12500000000E+03 0.  0.
</event>
<event>
 4    0  0.2179527E-002  0.2493380E+03  0.7546771E-02  0.1113724E+00
         21   -1    0    0  502  501  0.00000000000E+00  0.00000000000E+00  0.29100006937E+03  0.29100006937E+03  0.00000000000E+00 0.  1.
         21   -1    0    0  501  502 -0.00000000000E+00 -0.00000000000E+00 -0.21364057863E+03  0.21364057863E+03  0.00000000000E+00 0.  1.
         25    1    1    2    0    0 -0.15871148847E+03 -0.14272309955E+03  0.69163599651E+01  0.24745111791E+03  0.12500000000E+03 0.  0.
         25    1    1    2    0    0  0.15871148847E+03  0.14272309955E+03  0.70443130772E+02  0.25718953010E+03  0.12500000000E+03 0.  0.
</event>
<event>
 4    0  0.2179527E-002  0.2285056E+03  0.7546771E-02  0.1127696E+00
         21   -1    0    0  502  501  0.00000000000E+00  0.00000000000E+00  0.93662946426E+02  0.93662946426E+02  0.00000000000E+00 0. -1.
         21   -1    0    0  501  502 -0.00000000000E+00 -0.00000000000E+00 -0.55747553435E+03  0.55747553435E+03  0.00000000000E+00 0. -1.
         25    1    1    2    0    0  0.60531843396E+02  0.16465926835E+03 -0.12327685164E+03  0.24819137952E+03  0.12500000000E+03 0.  0.
         25    1    1    2    0    0 -0.60531843396E+02 -0.16465926835E+03 -0.34053573628E+03  0.40294710125E+03  0.12500000000E+03 0.  0.
</event>
<event>
 4    0  0.2179527E-002  0.3284106E+03  0.7546771E-02  0.1071842E+00
         21   -1    0    0  502  501  0.00000000000E+00  0.00000000000E+00  0.52727715731E+03  0.52727715731E+03  0.00000000000E+00 0. -1.
         21   -1    0    0  501  502 -0.00000000000E+00 -0.00000000000E+00 -0.20454800687E+03  0.20454800687E+03  0.00000000000E+00 0. -1.
         25    1    1    2    0    0  0.48812047553E+02  0.27760899337E+03  0.28731822411E+03  0.42145715214E+03  0.12500000000E+03 0.  0.
         25    1    1    2    0    0 -0.48812047553E+02 -0.27760899337E+03  0.35410926330E+02  0.31036801203E+03  0.12500000000E+03 0.  0.
</event>
<event>
 4    0  0.2179527E-002  0.1861732E+03  0.7546771E-02  0.1161959E+00
         21   -1    0    0  502  501  0.00000000000E+00  0.00000000000E+00  0.79491808282E+02  0.79491808282E+02  0.00000000000E+00 0. -1.
         21   -1    0    0  501  502 -0.00000000000E+00 -0.00000000000E+00 -0.43602549641E+03  0.43602549641E+03  0.00000000000E+00 0. -1.
         25    1    1    2    0    0 -0.38673074077E+01  0.13028232999E+03 -0.11562616099E+03  0.21443612261E+03  0.12500000000E+03 0.  0.
         25    1    1    2    0    0  0.38673074077E+01 -0.13028232999E+03 -0.24090752714E+03  0.30108118209E+03  0.12500000000E+03 0.  0.
</event>
<event>
 4    0  0.2179527E-002  0.2502311E+03  0.7546771E-02  0.1113159E+00
         21   -1    0    0  502  501  0.00000000000E+00  0.00000000000E+00  0.16335532938E+04  0.16335532938E+04  0.00000000000E+00 0.  1.
         21   -1    0    0  501  502 -0.00000000000E+00 -0.00000000000E+00 -0.38330932492E+02  0.38330932492E+02  0.00000000000E+00 0.  1.
         25    1    1    2    0    0 -0.63330456372E+02 -0.15618705775E+03  0.34218109345E+03  0.40139512257E+03  0.12500000000E+03 0.  0.
         25    1    1    2    0    0  0.63330456372E+02  0.15618705775E+03  0.12530412679E+04  0.12704891038E+04  0.12500000000E+03 0.  0.
</event>
<event>
 4    0  0.2179527E-002  0.1920344E+03  0.7546771E-02  0.1156639E+00
         21   -1    0    0  502  501  0.00000000000E+00  0.00000000000E+00  0.20864035167E+03  0.20864035167E+03  0.00000000000E+00 0.  1.
         21   -1    0    0  501  502 -0.00000000000E+00 -0.00000000000E+00 -0.17675005285E+03  0.17675005285E+03  0.00000000000E+00 0.  1.
         25    1    1    2    0    0  0.42647272613E+02 -0.10988710936E+03 -0.70130151397E+02  0.18557264022E+03  0.12500000000E+03 0.  0.
         25    1    1    2    0    0 -0.42647272613E+02  0.10988710936E+03  0.10202045022E+03  0.19981776429E+03  0.12500000000E+03 0.  0.
</event>
<event>
 4    0  0.2179527E-002  0.2767669E+03  0.7546771E-02  0.1097468E+00
         21   -1    0    0  502  501  0.00000000000E+00  0.00000000000E+00  0.14484106747E+04  0.14484106747E+04  0.00000000000E+00 0.  1.
         21   -1    0    0  501  502 -0.00000000000E+00 -0.00000000000E+00 -0.52885508097E+02  0.52885508097E+02  0.00000000000E+00 0.  1.
         25    1    1    2    0    0 -0.23198442991E+03  0.41072315032E+02  0.89837805397E+03  0.93712957409E+03  0.12500000000E+03 0.  0.
         25    1    1    2    0    0  0.23198442991E+03 -0.41072315032E+02  0.49714711268E+03  0.56416660875E+03  0.12500000000E+03 0.  0.
</event>
<event>
 4    0  0.2179527E-002  0.2323126E+03  0.7546771E-02  0.1125023E+00
         21   -1    0    0  502  501  0.00000000000E+00  0.00000000000E+00  0.48180691141E+02  0.48180691141E+02  0.00000000000E+00 0. -1.
         21   -1    0    0  501  502 -0.00000000000E+00 -0.00000000000E+00 -0.11201408066E+04  0.11201408066E+04  0.00000000000E+00 0. -1.
         25    1    1    2    0    0  0.13758272936E+03  0.12867806533E+02 -0.18710488005E+03  0.26406026585E+03  0.12500000000E+03 0.  0.
         25    1    1    2    0    0 -0.13758272936E+03 -0.12867806533E+02 -0.88485523539E+03  0.90426123187E+03  0.12500000000E+03 0.  0.
</event>
<event>
 4    0  0.2179527E-002  0.2921832E+03  0.7546771E-02  0.1089215E+00
         21   -1    0    0  502  501  0.00000000000E+00  0.00000000000E+00  0.13818253554E+04  0.13818253554E+04  0.00000000000E+00 0. -1.
         21   -1    0    0  501  502 -0.00000000000E+00 -0.00000000000E+00 -0.61781335026E+02  0.61781335026E+02  0.00000000000E+00 0. -1.
         25    1    1    2    0    0 -0.10252784051E+03  0.35376200162E+02  0.65165195252E+02  0.17786212719E+03  0.12500000000E+03 0.  0.
         25    1    1    2    0    0  0.10252784051E+03 -0.35376200162E+02  0.12548788252E+04  0.12657445633E+04  0.12500000000E+03 0.  0.
</event>
<event>
 4    0  0.2179527E-002  0.2087714E+03  0.7546771E-02  0.1142543E+00
         21   -1    0    0  502  501  0.00000000000E+00  0.00000000000E+00  0.16093212237E+03  0.16093212237E+03  0.00000000000E+00 0. -1.
         21   -1    0    0  501  502 -0.00000000000E+00 -0.00000000000E+00 -0.27083157444E+03  0.27083157444E+03  0.00000000000E+00 0. -1.
         25    1    1    2    0    0  0.96635532153E+02  0.63929892085E+02  0.69717779644E+02  0.18414946640E+03  0.12500000000E+03 0.  0.
         25    1    1    2    0    0 -0.96635532153E+02 -0.63929892085E+02 -0.17961723171E+03  0.24761423042E+03  0.12500000000E+03 0.  0.
</event>
<event>
 4    0  0.2179527E-002  0.2122926E+03  0.7546771E-02  0.1139763E+00
         21   -1    0    0  502  501  0.00000000000E+00  0.00000000000E+00  0.54532535711E+02  0.54532535711E+02  0.00000000000E+00 0.  1.
         21   -1    0    0  501  502 -0.00000000000E+00 -0.00000000000E+00 -0.82644530681E+03  0.82644530681E+03  0.00000000000E+00 0.  1.
         25    1    1    2    0    0 -0.74694278878E+02 -0.56841897821E+02 -0.68400043020E+03  0.70163510828E+03  0.12500000000E+03 0.  0.
         25    1    1    2    0    0  0.74694278878E+02  0.56841897821E+02 -0.87912340896E+02  0.17934273425E+03  0.12500000000E+03 0.  0.
</event>
<event>
 4    0  0.2179527E-002  0.1789028E+03  0.7546771E-02  0.1168869E+00
         21   -1    0    0  502  501  0.00000000000E+00  0.00000000000E+00  0.92569210449E+02  0.92569210449E+02  0.00000000000E+00 0. -1.
         21   -1    0    0  501  502 -0.00000000000E+00 -0.00000000000E+00 -0.34575440325E+03  0.34575440325E+03  0.00000000000E+00 0. -1.
         25    1    1    2    0    0 -0.11004285840E+03  0.84524799619E+01 -0.20598698369E+03  0.26502172091E+03  0.12500000000E+03 0.  0.
         25    1    1    2    0    0  0.11004285840E+03 -0.84524799619E+01 -0.47198209104E+02  0.17330189279E+03  0.12500000000E+03 0.  0.
</event>
<event>
 4    0  0.2179527E-002  0.1688584E+03  0.7546771E-02  0.1179044E+00
         21   -1    0    0  502  501  0.00000000000E+00  0.00000000000E+00  0.45131922309E+02  0.45131922309E+02  0.00000000000E+00 0.  1.
         21   -1    0    0  501  502 -0.00000000000E+00 -0.00000000000E+00 -0.63177400431E+03  0.63177400431E+03  0.00000000000E+00 0.  1.
         25    1    1    2    0    0 -0.39050585287E+02  0.10347366145E+03 -0.34467444401E+03  0.38295850843E+03  0.12500000000E+03 0.  0.
         25    1    1    2    0    0  0.39050585287E+02 -0.10347366145E+03 -0.24196763800E+03  0.29394741819E+03  0.12500000000E+03 0.  0.
</event>
<event>
 4    0  0.2179527E-002  0.2880094E+03  0.7546771E-02  0.1091393E+00
         21   -1    0    0  502  501  0.00000000000E+00  0.00000000000E+00  0.12617081440E+04  0.12617081440E+04  0.00000000000E+00 0.  1.
         21   -1    0    0  501  502 -0.00000000000E+00 -0.00000000000E+00 -0.65743758814E+02  0.65743758814E+02  0.00000000000E+00 0. -1.
         25    1    1    2    0    0  0.20036689323E+03 -0.16163972278E+03  0.67266257173E+03  0.73100904734E+03  0.12500000000E+03 0.  0.
         25    1    1    2    0    0 -0.20036689323E+03  0.16163972278E+03  0.52330181342E+03  0.59644285545E+03  0.12500000000E+03 0.  0.
</event>
<event>
 4    0  0.2179527E-002  0.3187857E+03  0.7546771E-02  0.1076210E+00
         21   -1    0    0  502  501  0.00000000000E+00  0.00000000000E+00  0.40501987077E+02  0.40501987077E+02  0.00000000000E+00 0. -1.
         21   -1    0    0  501  502 -0.00000000000E+00 -0.00000000000E+00 -0.25091197591E+04  0.25091197591E+04  0.00000000000E+00 0. -1.
         25    1    1    2    0    0 -0.18332226035E+03  0.17748118009E+03 -0.65628691717E+03  0.71515322699E+03  0.12500000000E+03 0.  0.
         25    1    1    2    0    0  0.18332226035E+03 -0.17748118009E+03 -0.18123308549E+04  0.18344685192E+04  0.12500000000E+03 0.  0.
</event>
<event>
 4    0  0.2179527E-002  0.1814006E+03  0.7546771E-02  0.1166454E+00
         21   -1    0    0  502  501  0.00000000000E+00  0.00000000000E+00  0.66549258882E+02  0.66549258882E+02  0.00000000000E+00 0.  1.
         21   -1    0    0  501  502 -0.00000000000E+00 -0.00000000000E+00 -0.49446322927E+03  0.49446322927E+03  0.00000000000E+00 0.  1.
         25    1    1    2    0    0 -0.19141804388E+02  0.12956381142E+03 -0.19646413272E+03  0.26716351800E+03  0.12500000000E+03 0.  0.
         25    1    1    2    0    0  0.19141804388E+02 -0.12956381142E+03 -0.23144983767E+03  0.29384897016E+03  0.12500000000E+03 0.  0.
</event>
<event>
 4    0  0.2179527E-002  0.2735194E+03  0.7546771E-02  0.1099282E+00
         21   -1    0    0  502  501  0.00000000000E+00  0.00000000000E+00  0.10417021170E+03  0.10417021170E+03  0.00000000000E+00 0. -1.
         21   -1    0    0  501  502 -0.00000000000E+00 -0.00000000000E+00 -0.71817924233E+03  0.71817924233E+03  0.00000000000E+00 0. -1.
         25    1    1    2    0    0 -0.20688210119E+03  0.89715812103E+02 -0.44427866728E+03  0.51367077485E+03  0.12500000000E+03 0.  0.
         25    1    1    2    0    0  0.20688210119E+03 -0.89715812103E+02 -0.16973036335E+03  0.30867867918E+03  0.12500000000E+03 0.  0.
</event>
<event>
 4    0  0.2179527E-002  0.2517305E+03  0.7546771E-02  0.1112216E+00
         21   -1    0    0  502  501  0.00000000000E+00  0.00000000000E+00  0.32143751936E+03  0.32143751936E+03  0.00000000000E+00 0.  1.
         21   -1    0    0  501  502 -0.00000000000E+00 -0.00000000000E+00 -0.19714012446E+03  0.19714012446E+03  0.00000000000E+00 0.  1.
         25    1    1    2    0    0 -0.15898784856E+03  0.94834213688E+02 -0.57407803890E+02  0.23063243489E+03  0.12500000000E+03 0.  0.
         25    1    1    2    0    0  0.15898784856E+03 -0.94834213688E+02  0.18170519879E+03  0.28794520893E+03  0.12500000000E+03 0.  0.
</event>
<event>
 4    0  0.2179527E-002  0.2130131E+03  0.7546771E-02  0.1139202E+00
         21   -1    0    0  502  501  0.00000000000E+00  0.00000000000E+00  0.85051425466E+02  0.85051425466E+02  0.00000000000E+00 0.  1.
         21   -1    0    0  501  502 -0.00000000000E+00 -0.00000000000E+00 -0.53349607300E+03  0.53349607300E+03  0.00000000000E+00 0.  1.
         25    1    1    2    0    0  0.72809289065E+02  0.33991332379E+02 -0.26327387199E+01  0.14862212004E+03  0.12500000000E+03 0.  0.
         25    1    1    2    0    0 -0.72809289065E+02 -0.33991332379E+02 -0.44581190881E+03  0.46992537842E+03  0.12500000000E+03 0.  0.
</event>
<event>
 4    0  0.2179527E-002  0.1984806E+03  0.7546771E-02  0.1151027E+00
         21   -1    0    0  502  501  0.00000000000E+00  0.00000000000E+00  0.34766538174E+02  0.34766538174E+02  0.00000000000E+00 0. -1.
         21   -1    0    0  501  502 -0.00000000000E+00 -0.00000000000E+00 -0.11331164331E+04  0.11331164331E+04  0.00000000000E+00 0. -1.
         25    1    1    2    0    0 -0.13338536221E+03  0.62696429950E+02 -0.41606382444E+03  0.45875549391E+03  0.12500000000E+03 0.  0.
         25    1    1    2    0    0  0.13338536221E+03 -0.62696429950E+02 -0.68228607045E+03  0.70912747733E+03  0.12500000000E+03 0.  0.
</event>
<event>
 4    0  0.2179527E-002  0.2154763E+03  0.7546771E-02  0.1137301E+00
         21   -1    0    0  502  501  0.00000000000E+00  0.00000000000E+00  0.57930845214E+02  0.57930845214E+02  0.00000000000E+00 0.  1.
         21   -1    0    0  501  502 -0.00000000000E+00 -0.00000000000E+00 -0.80147362705E+03  0.80147362705E+03  0.00000000000E+00 0.  1.
         25    1    1    2    0    0 -0.17353060471E+03  0.25535133964E+02 -0.35913837785E+03  0.41877235855E+03  0.12500000000E+03 0.  0.
         25    1    1    2    0    0  0.17353060471E+03 -0.25535133964E+02 -0.38440440398E+03  0.44063211371E+03  0.12500000000E+03 0.  0.
</event>
<event>
 4    0  0.2179527E-002  0.1824083E+03  0.7546771E-02  0.1165492E+00
         21   -1    0    0  502  501  0.00000000000E+00  0.00000000000E+00  0.74406545879E+02  0.74406545879E+02  0.00000000000E+00 0. -1.
         21   -1    0    0  501  502 -0.00000000000E+00 -0.00000000000E+00 -0.44717537320E+03  0.44717537320E+03  0.00000000000E+00 0. -1.
         25    1    1    2    0    0  0.28971351875E+02 -0.12439692526E+03 -0.13416884644E+03  0.22347307131E+03  0.12500000000E+03 0.  0.
         25    1    1    2    0    0 -0.28971351875E+02  0.12439692526E+03 -0.23859998088E+03  0.29810884777E+03  0.12500000000E+03 0.  0.
</event>
<event>
 4    0  0.2179527E-002  0.2452175E+03  0.7546771E-02  0.1116365E+00
         21   -1    0    0  502  501  0.00000000000E+00  0.00000000000E+00  0.66639737111E+03  0.66639737111E+03  0.00000000000E+00 0. -1.
         21   -1    0    0  501  502 -0.00000000000E+00 -0.00000000000E+00 -0.90233846885E+02  0.90233846885E+02  0.00000000000E+00 0. -1.
         25    1    1    2    0    0 -0.12127132094E+03  0.24541004011E+02  0.24462891704E+02  0.17757372337E+03  0.12500000000E+03 0.  0.
         25    1    1    2    0    0  0.12127132094E+03 -0.24541004011E+02  0.55170063252E+03  0.57905749463E+03  0.12500000000E+03 0.  0.
</event>
<event>
 4    0  0.2179527E-002  0.2500726E+03  0.7546771E-02  0.1113259E+00
         21   -1    0    0  502  501  0.00000000000E+00  0.00000000000E+00  0.49817584204E+03  0.49817584204E+03  0.00000000000E+00 0. -1.
         21   -1    0    0  501  502 -0.00000000000E+00 -0.00000000000E+00 -0.12553060544E+03  0.12553060544E+03  0.00000000000E+00 0. -1.
         25    1    1    2    0    0  0.11060406053E+03 -0.17681112613E+03  0.11343805462E+03  0.26830695997E+03  0.12500000000E+03 0.  0.
         25    1    1    2    0    0 -0.11060406053E+03  0.17681112613E+03  0.25920718198E+03  0.35539948751E+03  0.12500000000E+03 0.  0.
</event>
<event>
 4    0  0.2179527E-002  0.1786153E+03  0.7546771E-02  0.1169150E+00
         21   -1    0    0  502  501  0.00000000000E+00  0.00000000000E+00  0.29089171271E+03  0.29089171271E+03  0.00000000000E+00 0. -1.
         21   -1    0    0  501  502 -0.00000000000E+00 -0.00000000000E+00 -0.10967455192E+03  0.10967455192E+03  0.00000000000E+00 0. -1.
         25    1    1    2    0    0 -0.77679697461E+02 -0.83750294680E+02  0.26879372212E+02  0.17145188219E+03  0.12500000000E+03 0.  0.
         25    1    1    2    0    0  0.77679697461E+02  0.83750294680E+02  0.15433778858E+03  0.22911438244E+03  0.12500000000E+03 0.  0.
</event>
<event>
 4    0  0.2179527E-002  0.2171311E+03  0.7546771E-02  0.1136040E+00
         21   -1    0    0  502  501  0.00000000000E+00  0.00000000000E+00  0.86111725302E+03  0.86111725302E+03  0.00000000000E+00 0. -1.
         21   -1    0    0  501  502 -0.00000000000E+00 -0.00000000000E+00 -0.54749705426E+02  0.54749705426E+02  0.00000000000E+00 0. -1.
         25    1    1    2    0    0  0.33813172496E+01 -0.14308230753E+03  0.18161700860E+03  0.26285683908E+03  0.12500000000E+03 0.  0.
         25    1    1    2    0    0 -0.33813172496E+01  0.14308230753E+03  0.62475053899E+03  0.65301011937E+03  0.12500000000E+03 0.  0.
</event>
<event>
 4    0  0.2179527E-002  0.2398257E+03  0.7546771E-02  0.1119909E+00
         21   -1    0    0  502  501  0.00000000000E+00  0.00000000000E+00  0.66463215507E+03  0.66463215507E+03  0.00000000000E+00 0. -1.
         21   -1    0    0  501  502 -0.00000000000E+00 -0.00000000000E+00 -0.86538641228E+02  0.86538641228E+02  0.00000000000E+00 0. -1.
         25    1    1    2    0    0 -0.12665681478E+03  0.10283164567E+03  0.95491683778E+02  0.22662735438E+03  0.12500000000E+03 0.  0.
         25    1    1    2    0    0  0.12665681478E+03 -0.10283164567E+03  0.48260183006E+03  0.52454344192E+03  0.12500000000E+03 0.  0.
</event>
<event>
 4    0  0.2179527E-002  0.2850004E+03  0.7546771E-02  0.1092989E+00
         21   -1    0    0  502  501  0.00000000000E+00  0.00000000000E+00  0.15812926419E+03  0.15812926419E+03  0.00000000000E+00 0.  1.
         21   -1    0    0  501  502 -0.00000000000E+00 -0.00000000000E+00 -0.51366360003E+03  0.51366360003E+03  0.00000000000E+00 0.  1.
         25    1    1    2    0    0 -0.37009647279E+02  0.20577390273E+03 -0.35213215418E+03  0.42817597672E+03  0.12500000000E+03 0.  0.
         25    1    1    2    0    0  0.37009647279E+02 -0.20577390273E+03 -0.34021816566E+01  0.24361688750E+03  0.12500000000E+03 0.  0.
</event>
<event>
 4    0  0.2179527E-002  0.2093293E+03  0.7546771E-02  0.1142098E+00
         21   -1    0    0  502  501  0.00000000000E+00  0.00000000000E+00  0.58754195363E+03  0.58754195363E+03  0.00000000000E+00 0. -1.
         21   -1    0    0  501  502 -0.00000000000E+00 -0.00000000000E+00 -0.74579779593E+02  0.74579779593E+02  0.00000000000E+00 0. -1.
         25    1    1    2    0    0 -0.12995376971E+03  0.73361686907E+02  0.13475626366E+03  0.23675761859E+03  0.12500000000E+03 0.  0.
         25    1    1    2    0    0  0.12995376971E+03 -0.73361686907E+02  0.37820591038E+03  0.42536411463E+03  0.12500000000E+03 0.  0.
</event>
<event>
 4    0  0.2179527E-002  0.2262390E+03  0.7546771E-02  0.1129315E+00
         21   -1    0    0  502  501  0.00000000000E+00  0.00000000000E+00  0.50796361109E+03  0.50796361109E+03  0.00000000000E+00 0.  1.
         21   -1    0    0  501  502 -0.00000000000E+00 -0.00000000000E+00 -0.10076325885E+03  0.10076325885E+03  0.00000000000E+00 0.  1.
         25    1    1    2    0    0 -0.73208473185E+01 -0.18787497225E+03  0.18417586475E+03  0.29136978080E+03  0.12500000000E+03 0.  0.
         25    1    1    2    0    0  0.73208473185E+01  0.18787497225E+03  0.22302448749E+03  0.31735708914E+03  0.12500000000E+03 0.  0.
</event>
<event>
 4    0  0.2179527E-002  0.2867065E+03  0.7546771E-02  0.1092081E+00
         21   -1    0    0  502  501  0.00000000000E+00  0.00000000000E+00  0.45205651252E+02  0.45205651252E+02  0.00000000000E+00 0.  1.
         21   -1    0    0  501  502 -0.00000000000E+00 -0.00000000000E+00 -0.18183703103E+04  0.18183703103E+04  0.00000000000E+00 0.  1.
         25    1    1    2    0    0 -0.23216156847E+03 -0.51864355848E+02 -0.56180121582E+03  0.62276360795E+03  0.12500000000E+03 0.  0.
         25    1    1    2    0    0  0.23216156847E+03  0.51864355848E+02 -0.12113634432E+04  0.12408123536E+04  0.12500000000E+03 0.  0.
</event>
<event>
 4    0  0.2179527E-002  0.2371316E+03  0.7546771E-02  0.1121719E+00
         21   -1    0    0  502  501  0.00000000000E+00  0.00000000000E+00  0.35793994015E+03  0.35793994015E+03  0.00000000000E+00 0.  1.
         21   -1    0    0  501  502 -0.00000000000E+00 -0.00000000000E+00 -0.15709727862E+03  0.15709727862E+03  0.00000000000E+00 0.  1.
         25    1    1    2    0    0  0.74665787351E+02  0.92649592293E+02 -0.76187014853E+02  0.18864884835E+03  0.12500000000E+03 0.  0.
         25    1    1    2    0    0 -0.74665787351E+02 -0.92649592293E+02  0.27702967638E+03  0.32638837042E+03  0.12500000000E+03 0.  0.
</event>
<event>
 4    0  0.2179527E-002  0.2609171E+03  0.7546771E-02  0.1106593E+00
         21   -1    0    0  502  501  0.00000000000E+00  0.00000000000E+00  0.22446309289E+03  0.22446309289E+03  0.00000000000E+00 0. -1.
         21   -1    0    0  501  502 -0.00000000000E+00 -0.00000000000E+00 -0.30329143065E+03  0.30329143065E+03  0.00000000000E+00 0. -1.
         25    1    1    2    0    0  0.78686280385E+02  0.89072851652E+02 -0.23740867421E+03  0.29345081736E+03  0.12500000000E+03 0.  0.
         25    1    1    2    0    0 -0.78686280385E+02 -0.89072851652E+02  0.15858033645E+03  0.23430370618E+03  0.12500000000E+03 0.  0.
</event>
<event>
 4    0  0.2179527E-002  0.1939732E+03  0.7546771E-02  0.1154926E+00
         21   -1    0    0  502  501  0.00000000000E+00  0.00000000000E+00  0.11246616873E+03  0.11246616873E+03  0.00000000000E+00 0.  1.
         21   -1    0    0  501  502 -0.00000000000E+00 -0.00000000000E+00 -0.33455023619E+03  0.33455023619E+03  0.00000000000E+00 0.  1.
         25    1    1    2    0    0 -0.42457776120E+02 -0.11521105167E+03 -0.20692486582E+03  0.27114414851E+03  0.12500000000E+03 0.  0.
         25    1    1    2    0    0  0.42457776120E+02  0.11521105167E+03 -0.15159201645E+02  0.17587225641E+03  0.12500000000E+03 0.  0.
</event>
<event>
 4    0  0.2179527E-002  0.2232716E+03  0.7546771E-02  0.1131467E+00
         21   -1    0    0  502  501  0.00000000000E+00  0.00000000000E+00  0.60102013199E+02  0.60102013199E+02  0.00000000000E+00 0.  1.
         21   -1    0    0  501  502 -0.00000000000E+00 -0.00000000000E+00 -0.82942688860E+03  0.82942688860E+03  0.00000000000E+00 0.  1.
         25    1    1    2    0    0  0.17668157729E+03 -0.33045607849E+02 -0.29744792908E+03  0.36933543354E+03  0.12500000000E+03 0.  0.
         25    1    1    2    0    0 -0.17668157729E+03  0.33045607849E+02 -0.47187694632E+03  0.52019346826E+03  0.12500000000E+03 0.  0.
</event>
<event>
 4    0  0.2179527E-002  0.3260017E+03  0.7546771E-02  0.1072920E+00
         21   -1    0    0  502  501  0.00000000000E+00  0.00000000000E+00  0.13162163018E+03  0.13162163018E+03  0.00000000000E+00 0. -1.
         21   -1    0    0  501  502 -0.00000000000E+00 -0.00000000000E+00 -0.80744413882E+03  0.80744413882E+03  0.00000000000E+00 0. -1.
         25    1    1    2    0    0  0.29084389034E+03 -0.57376512611E+02 -0.41371256245E+03  0.52408521929E+03  0.12500000000E+03 0.  0.
         25    1    1    2    0    0 -0.29084389034E+03  0.57376512611E+02 -0.26210994619E+03  0.41498054971E+03  0.12500000000E+03 0.  0.
</event>
<event>
 4    0  0.2179527E-002  0.1740882E+03  0.7546771E-02  0.1173650E+00
         21   -1    0    0  502  501  0.00000000000E+00  0.00000000000E+00  0.35246315600E+03  0.35246315600E+03  0.00000000000E+00 0. -1.
         21   -1    0    0  501  502 -0.00000000000E+00 -0.00000000000E+00 -0.85985456350E+02  0.85985456350E+02  0.00000000000E+00 0. -1.
         25    1    1    2    0    0 -0.11013810295E+03  0.49817331669E+02  0.12273792627E+03  0.21284211708E+03  0.12500000000E+03 0.  0.
         25    1    1    2    0    0  0.11013810295E+03 -0.49817331669E+02  0.14373977338E+03  0.22560649527E+03  0.12500000000E+03 0.  0.
</event>
<event>
 4    0  0.2179527E-002  0.2187792E+03  0.7546771E-02  0.1134797E+00
         21   -1    0    0  502  501  0.00000000000E+00  0.00000000000E+00  0.51702415160E+03  0.51702415160E+03  0.00000000000E+00 0. -1.
         21   -1    0    0  501  502 -0.00000000000E+00 -0.00000000000E+00 -0.92576559185E+02  0.92576559185E+02  0.00000000000E+00 0. -1.
         25    1    1    2    0    0  0.39678461628E+02  0.20610206686E+02  0.45449486207E+03  0.47348679030E+03  0.12500000000E+03 0.  0.
         25    1    1    2    0    0 -0.39678461628E+02 -0.20610206686E+02 -0.30047269657E+02  0.13611392049E+03  0.12500000000E+03 0.  0.
</event>
<event>
 4    0  0.2179527E-002  0.3031612E+03  0.7546771E-02  0.1083671E+00
         21   -1    0    0  502  501  0.00000000000E+00  0.00000000000E+00  0.56101254372E+03  0.56101254372E+03  0.00000000000E+00 0.  1.
         21   -1    0    0  501  502 -0.00000000000E+00 -0.00000000000E+00 -0.16382291156E+03  0.16382291156E+03  0.00000000000E+00 0.  1.
         25    1    1    2    0    0  0.56099117494E+02 -0.16213263991E+03 -0.60154684951E+02  0.22063021105E+03  0.12500000000E+03 0.  0.
         25    1    1    2    0    0 -0.56099117494E+02  0.16213263991E+03  0.45734431712E+03  0.50420524423E+03  0.12500000000E+03 0.  0.
</event>
<event>
 4    0  0.2179527E-002  0.2293592E+03  0.7546771E-02  0.1127092E+00
         21   -1    0    0  502  501  0.00000000000E+00  0.00000000000E+00  0.13854463355E+04  0.13854463355E+04  0.00000000000E+00 0.  1.
         21   -1    0    0  501  502 -0.00000000000E+00 -0.00000000000E+00 -0.37970182387E+02  0.37970182387E+02  0.00000000000E+00 0.  1.
         25    1    1    2    0    0  0.10778663389E+03 -0.14970076037E+03  0.50513267187E+03  0.55209808213E+03  0.12500000000E+03 0.  0.
         25    1    1    2    0    0 -0.10778663389E+03  0.14970076037E+03  0.84234348122E+03  0.87131843574E+03  0.12500000000E+03 0.  0.
</event>
<event>
 4    0  0.2179527E-002  0.2426115E+03  0.7546771E-02  0.1118065E+00
         21   -1    0    0  502  501  0.00000000000E+00  0.00000000000E+00  0.20062604075E+03  0.20062604075E+03  0.00000000000E+00 0.  1.
         21   -1    0    0  501  502 -0.00000000000E+00 -0.00000000000E+00 -0.29338343576E+03  0.29338343576E+03  0.00000000000E+00 0. -1.
         25    1    1    2    0    0 -0.17814888750E+03  0.28777560503E+02  0.58788372027E+02  0.22725810610E+03  0.12500000000E+03 0.  0.
         25    1    1    2    0    0  0.17814888750E+03 -0.28777560503E+02 -0.15154576705E+03  0.26675137041E+03  0.12500000000E+03 0.  0.
</event>
<event>
 4    0  0.2179527E-002  0.2319303E+03  0.7546771E-02  0.1125288E+00
         21   -1    0    0  502  501  0.00000000000E+00  0.00000000000E+00  0.22547824507E+04  0.22547824507E+04  0.00000000000E+00 0. -1.
         21   -1    0    0  501  502 -0.00000000000E+00 -0.00000000000E+00 -0.23856694014E+02  0.23856694014E+02  0.00000000000E+00 0. -1.
         25    1    1    2    0    0  0.19156525455E+03 -0.36395086299E+02  0.11745756451E+04  0.11971945519E+04  0.12500000000E+03 0.  0.
         25    1    1    2    0    0 -0.19156525455E+03  0.36395086299E+02  0.10563501115E+04  0.10814445928E+04  0.12500000000E+03 0.  0.
</event>
<event>
 4    0  0.2179527E-002  0.3041079E+03  0.7546771E-02  0.1083205E+00
         21   -1    0    0  502  501  0.00000000000E+00  0.00000000000E+00  0.90925585084E+03  0.90925585084E+03  0.00000000000E+00 0. -1.
         21   -1    0    0  501  502 -0.00000000000E+00 -0.00000000000E+00 -0.10171129542E+03  0.10171129542E+03  0.00000000000E+00 0. -1.
         25    1    1    2    0    0 -0.18265989540E+03 -0.17362078322E+03  0.21173573967E+03  0.35208782598E+03  0.12500000000E+03 0.  0.
         25    1    1    2    0    0  0.18265989540E+03  0.17362078322E+03  0.59580881576E+03  0.65887932027E+03  0.12500000000E+03 0.  0.
</event>
<event>
 4    0  0.2179527E-002  0.3259148E+03  0.7546771E-02  0.1072959E+00
         21   -1    0    0  502  501  0.00000000000E+00  0.00000000000E+00  0.66302254800E+03  0.66302254800E+03  0.00000000000E+00 0.  1.
         21   -1    0    0  501  502 -0.00000000000E+00 -0.00000000000E+00 -0.16020635471E+03  0.16020635471E+03  0.00000000000E+00 0.  1.
         25    1    1    2    0    0 -0.12563491622E+03  0.21720499204E+03  0.41464394228E+02  0.28338390344E+03  0.12500000000E+03 0.  0.
         25    1    1    2    0    0  0.12563491622E+03 -0.21720499204E+03  0.46135179906E+03  0.53984499927E+03  0.12500000000E+03 0.  0.
</event>
<event>
 4    0  0.2179527E-002  0.3698289E+03  0.7546771E-02  0.1054758E+00
         21   -1    0    0  502  501  0.00000000000E+00  0.00000000000E+00  0.63164018617E+02  0.63164018617E+02  0.00000000000E+00 0. -1.
         21   -1    0    0  501  502 -0.00000000000E+00 -0.00000000000E+00 -0.21653696386E+04  0.21653696386E+04  0.00000000000E+00 0. -1.
         25    1    1    2    0    0 -0.13399449640E+03 -0.85076770548E+02 -0.11779678587E+03  0.23386676701E+03  0.12500000000E+03 0.  0.
         25    1    1    2    0    0  0.13399449640E+03  0.85076770548E+02 -0.19844088341E+04  0.19946668902E+04  0.12500000000E+03 0.  0.
</event>
<event>
 4    0  0.2179527E-002  0.2328377E+03  0.7546771E-02  0.1124658E+00
         21   -1    0    0  502  501  0.00000000000E+00  0.00000000000E+00  0.23845193294E+03  0.23845193294E+03  0.00000000000E+00 0. -1.
         21   -1    0    0  501  502 -0.00000000000E+00 -0.00000000000E+00 -0.22735558566E+03  0.22735558566E+03  0.00000000000E+00 0. -1.
         25    1    1    2    0    0  0.14097803376E+03 -0.11533162814E+03 -0.68040286334E+02  0.23115075387E+03  0.12500000000E+03 0.  0.
         25    1    1    2    0    0 -0.14097803376E+03  0.11533162814E+03  0.79136633607E+02  0.23465676472E+03  0.12500000000E+03 0.  0.
</event>
<event>
 4    0  0.2179527E-002  0.1638832E+03  0.7546771E-02  0.1184381E+00
         21   -1    0    0  502  501  0.00000000000E+00  0.00000000000E+00  0.20858622628E+03  0.20858622628E+03  0.00000000000E+00 0.  1.
         21   -1    0    0  501  502 -0.00000000000E+00 -0.00000000000E+00 -0.12876064157E+03  0.12876064157E+03  0.00000000000E+00 0.  1.
         25    1    1    2    0    0  0.21195424481E+01  0.81745246395E+02 -0.29481401046E+02  0.15225285145E+03  0.12500000000E+03 0.  0.
         25    1    1    2    0    0 -0.21195424481E+01 -0.81745246395E+02  0.10930698576E+03  0.18509401639E+03  0.12500000000E+03 0.  0.
</event>
<event>
 4    0  0.2179527E-002  0.2942617E+03  0.7546771E-02  0.1088145E+00
         21   -1    0    0  502  501  0.00000000000E+00  0.00000000000E+00  0.41650281348E+03  0.41650281348E+03  0.00000000000E+00 0.  1.
         21   -1    0    0  501  502 -0.00000000000E+00 -0.00000000000E+00 -0.20789756463E+03  0.20789756463E+03  0.00000000000E+00 0.  1.
         25    1    1    2    0    0  0.12266740269E+03 -0.23383693248E+03  0.66973705362E+02  0.29972901075E+03  0.12500000000E+03 0.  0.
         25    1    1    2    0    0 -0.12266740269E+03  0.23383693248E+03  0.14163154348E+03  0.32467136736E+03  0.12500000000E+03 0.  0.
</event>
<event>
 4    0  0.2179527E-002  0.1744936E+03  0.7546771E-02  0.1173241E+00
         21   -1    0    0  502  501  0.00000000000E+00  0.00000000000E+00  0.18169097822E+03  0.18169097822E+03  0.00000000000E+00 0.  1.
         21   -1    0    0  501  502 -0.00000000000E+00 -0.00000000000E+00 -0.16758138933E+03  0.16758138933E+03  0.00000000000E+00 0.  1.
         25    1    1    2    0    0 -0.38096359883E+01 -0.60901102038E+01 -0.11458224372E+03  0.16972240083E+03  0.12500000000E+03 0.  0.
         25    1    1    2    0    0  0.38096359883E+01  0.60901102038E+01  0.12869183261E+03  0.17954996672E+03  0.12500000000E+03 0.  0.
</event>
<event>
 4    0  0.2179527E-002  0.2150105E+03  0.7546771E-02  0.1137659E+00
         21   -1    0    0  502  501  0.00000000000E+00  0.00000000000E+00  0.25925103436E+03  0.25925103436E+03  0.00000000000E+00 0.  1.
         21   -1    0    0  501  502 -0.00000000000E+00 -0.00000000000E+00 -0.17831945322E+03  0.17831945322E+03  0.00000000000E+00 0.  1.
         25    1    1    2    0    0 -0.12439563841E+00 -0.98332095527E+02  0.18769631792E+03  0.24601651214E+03  0.12500000000E+03 0.  0.
         25    1    1    2    0    0  0.12439563841E+00  0.98332095527E+02 -0.10676473679E+03  0.19155397544E+03  0.12500000000E+03 0.  0.
</event>
<event>
 4    0  0.2179527E-002  0.3173415E+03  0.7546771E-02  0.1076879E+00
         21   -1    0    0  502  501  0.00000000000E+00  0.00000000000E+00  0.23874218617E+03  0.23874218617E+03  0.00000000000E+00 0. -1.
         21   -1    0    0  501  502 -0.00000000000E+00 -0.00000000000E+00 -0.42181741410E+03  0.42181741410E+03  0.00000000000E+00 0.  1.
         25    1    1    2    0    0 -0.28157901728E+03  0.17637142890E+02 -0.14472757713E+02  0.30892114284E+03  0.12500000000E+03 0.  0.
         25    1    1    2    0    0  0.28157901728E+03 -0.17637142890E+02 -0.16860247022E+03  0.35163845743E+03  0.12500000000E+03 0.  0.
</event>
<event>
 4    0  0.2179527E-002  0.2877244E+03  0.7546771E-02  0.1091543E+00
         21   -1    0    0  502  501  0.00000000000E+00  0.00000000000E+00  0.36522677707E+03  0.36522677707E+03  0.00000000000E+00 0.  1.
         21   -1    0    0  501  502 -0.00000000000E+00 -0.00000000000E+00 -0.22666823314E+03  0.22666823314E+03  0.00000000000E+00 0.  1.
         25    1    1    2    0    0  0.60553928319E+02  0.10460607774E+03 -0.16651266358E+03  0.24075023752E+03  0.12500000000E+03 0.  0.
         25    1    1    2    0    0 -0.60553928319E+02 -0.10460607774E+03  0.30507120751E+03  0.35114477269E+03  0.12500000000E+03 0.  0.
</event>
<event>
 4    0  0.2179527E-002  0.2233146E+03  0.7546771E-02  0.1131436E+00
         21   -1    0    0  502  501  0.00000000000E+00  0.00000000000E+00  0.13586694330E+04  0.13586694330E+04  0.00000000000E+00 0.  1.
         21   -1    0    0  501  502 -0.00000000000E+00 -0.00000000000E+00 -0.36704609273E+02  0.36704609273E+02  0.00000000000E+00 0.  1.
         25    1    1    2    0    0  0.15505222083E+03 -0.10015108810E+03  0.61988965460E+03  0.65875611231E+03  0.12500000000E+03 0.  0.
         25    1    1    2    0    0 -0.15505222083E+03  0.10015108810E+03  0.70207516911E+03  0.73661792994E+03  0.12500000000E+03 0.  0.
</event>
<event>
 4    0  0.2179527E-002  0.3362479E+03  0.7546771E-02  0.1068405E+00
         21   -1    0    0  502  501  0.00000000000E+00  0.00000000000E+00  0.77602096830E+03  0.77602096830E+03  0.00000000000E+00 0.  1.
         21   -1    0    0  501  502 -0.00000000000E+00 -0.00000000000E+00 -0.14569538380E+03  0.14569538380E+03  0.00000000000E+00 0.  1.
         25    1    1    2    0    0  0.13074842061E+02 -0.22425147953E+03  0.18095448827E+02  0.25770549633E+03  0.12500000000E+03 0.  0.
         25    1    1    2    0    0 -0.13074842061E+02  0.22425147953E+03  0.61223013567E+03  0.66401085578E+03  0.12500000000E+03 0.  0.
</event>
<event>
 4    0  0.2179527E-002  0.3207826E+03  0.7546771E-02  0.1075290E+00
         21   -1    0    0  502  501  0.00000000000E+00  0.00000000000E+00  0.21029994902E+03  0.21029994902E+03  0.00000000000E+00 0.  1.
         21   -1    0    0  501  502 -0.00000000000E+00 -0.00000000000E+00 -0.48930800748E+03  0.48930800748E+03  0.00000000000E+00 0.  1.
         25    1    1    2    0    0 -0.17223466318E+03  0.15227112286E+03  0.62822148587E+02  0.26911502450E+03  0.12500000000E+03 0.  0.
         25    1    1    2    0    0  0.17223466318E+03 -0.15227112286E+03 -0.34183020704E+03  0.43049293200E+03  0.12500000000E+03 0.  0.
</event>
<event>
 4    0  0.2179527E-002  0.3908812E+03  0.7546771E-02  0.1046984E+00
         21   -1    0    0  502  501  0.00000000000E+00  0.00000000000E+00  0.25154676782E+04  0.25154676782E+04  0.00000000000E+00 0.  1.
         21   -1    0    0  501  502 -0.00000000000E+00 -0.00000000000E+00 -0.60739430900E+02  0.60739430900E+02  0.00000000000E+00 0.  1.
         25    1    1    2    0    0 -0.57947513951E+02  0.19138686051E+03  0.20009065201E+03  0.30927029242E+03  0.12500000000E+03 0.  0.
         25    1    1    2    0    0  0.57947513951E+02 -0.19138686051E+03  0.22546375953E+04  0.22669368167E+04  0.12500000000E+03 0.  0.
</event>
<event>
 4    0  0.2179527E-002  0.1739160E+03  0.7546771E-02  0.1173825E+00
         21   -1    0    0  502  501  0.00000000000E+00  0.00000000000E+00  0.36322291935E+02  0.36322291935E+02  0.00000000000E+00 0.  1.
         21   -1    0    0  501  502 -0.00000000000E+00 -0.00000000000E+00 -0.83273328334E+03  0.83273328334E+03  0.00000000000E+00 0.  1.
         25    1    1    2    0    0 -0.61003627529E+02  0.68848823217E+02 -0.20210684071E+03  0.25482107074E+03  0.12500000000E+03 0.  0.
         25    1    1    2    0    0  0.61003627529E+02 -0.68848823217E+02 -0.59430415070E+03  0.61423450454E+03  0.12500000000E+03 0.  0.
</event>
<event>
 4    0  0.2179527E-002  0.1819236E+03  0.7546771E-02  0.1165954E+00
         21   -1    0    0  502  501  0.00000000000E+00  0.00000000000E+00  0.74131520639E+03  0.74131520639E+03  0.00000000000E+00 0. -1.
         21   -1    0    0  501  502 -0.00000000000E+00 -0.00000000000E+00 -0.44645242209E+02  0.44645242209E+02  0.00000000000E+00 0. -1.
         25    1    1    2    0    0  0.28190406918E+02 -0.12659538133E+03  0.29325748702E+03  0.34415990951E+03  0.12500000000E+03 0.  0.
         25    1    1    2    0    0 -0.28190406918E+02  0.12659538133E+03  0.40341247716E+03  0.44180053910E+03  0.12500000000E+03 0.  0.
</event>
<event>
 4    0  0.2179527E-002  0.2272481E+03  0.7546771E-02  0.1128592E+00
         21   -1    0    0  502  501  0.00000000000E+00  0.00000000000E+00  0.84215698629E+03  0.84215698629E+03  0.00000000000E+00 0. -1.
         21   -1    0    0  501  502 -0.00000000000E+00 -0.00000000000E+00 -0.61320769523E+02  0.61320769523E+02  0.00000000000E+00 0. -1.
         25    1    1    2    0    0 -0.18930143680E+02 -0.10571152526E+03  0.79373025863E+02  0.18291624900E+03  0.12500000000E+03 0.  0.
         25    1    1    2    0    0  0.18930143680E+02  0.10571152526E+03  0.70146319091E+03  0.72056150682E+03  0.12500000000E+03 0.  0.
</event>
<event>
 4    0  0.2179527E-002  0.1875171E+03  0.7546771E-02  0.1160720E+00
         21   -1    0    0  502  501  0.00000000000E+00  0.00000000000E+00  0.39667510025E+03  0.39667510025E+03  0.00000000000E+00 0. -1.
         21   -1    0    0  501  502 -0.00000000000E+00 -0.00000000000E+00 -0.88643439493E+02  0.88643439493E+02  0.00000000000E+00 0. -1.
         25    1    1    2    0    0 -0.11344709224E+02 -0.12838468345E+03  0.22401884110E+03  0.28709017841E+03  0.12500000000E+03 0.  0.
         25    1    1    2    0    0  0.11344709224E+02  0.12838468345E+03  0.84012819657E+02  0.19822836134E+03  0.12500000000E+03 0.  0.
</event>
<event>
 4    0  0.2179527E-002  0.2030320E+03  0.7546771E-02  0.1147206E+00
         21   -1    0    0  502  501  0.00000000000E+00  0.00000000000E+00  0.26078650078E+02  0.26078650078E+02  0.00000000000E+00 0. -1.
         21   -1    0    0  501  502 -0.00000000000E+00 -0.00000000000E+00 -0.15806804203E+04  0.15806804203E+04  0.00000000000E+00 0. -1.
         25    1    1    2    0    0  0.10536754819E+02  0.62315029566E+02 -0.19571822105E+03  0.24067573240E+03  0.12500000000E+03 0.  0.
         25    1    1    2    0    0 -0.10536754819E+02 -0.62315029566E+02 -0.13588835492E+04  0.13660833380E+04  0.12500000000E+03 0.  0.
</event>
<event>
 4    0  0.2179527E-002  0.1726361E+03  0.7546771E-02  0.1175126E+00
         21   -1    0    0  502  501  0.00000000000E+00  0.00000000000E+00  0.15456497051E+03  0.15456497051E+03  0.00000000000E+00 0.  1.
         21   -1    0    0  501  502 -0.00000000000E+00 -0.00000000000E+00 -0.19282002884E+03  0.19282002884E+03  0.00000000000E+00 0.  1.
         25    1    1    2    0    0 -0.81582688785E+02  0.27152337295E+02  0.63749081929E+02  0.16456588339E+03  0.12500000000E+03 0.  0.
         25    1    1    2    0    0  0.81582688785E+02 -0.27152337295E+02 -0.10200414026E+03  0.18281911596E+03  0.12500000000E+03 0.  0.
</event>
<event>
 4    0  0.2179527E-002  0.1875085E+03  0.7546771E-02  0.1160728E+00
         21   -1    0    0  502  501  0.00000000000E+00  0.00000000000E+00  0.26018657212E+04  0.26018657212E+04  0.00000000000E+00 0. -1.
         21   -1    0    0  501  502 -0.00000000000E+00 -0.00000000000E+00 -0.13513157886E+02  0.13513157886E+02  0.00000000000E+00 0. -1.
         25    1    1    2    0    0  0.12302779838E+03 -0.27698283393E+02  0.17144382509E+04  0.17236085838E+04  0.12500000000E+03 0.  0.
         25    1    1    2    0    0 -0.12302779838E+03  0.27698283393E+02  0.87391431248E+03  0.89177029533E+03  0.12500000000E+03 0.  0.
</event>
<event>
 4    0  0.2179527E-002  0.1867847E+03  0.7546771E-02  0.1161394E+00
         21   -1    0    0  502  501  0.00000000000E+00  0.00000000000E+00  0.49957514130E+03  0.49957514130E+03  0.00000000000E+00 0.  1.
         21   -1    0    0  501  502 -0.00000000000E+00 -0.00000000000E+00 -0.69836372906E+02  0.69836372906E+02  0.00000000000E+00 0.  1.
         25    1    1    2    0    0 -0.94532358693E+02 -0.90419797917E+02  0.14416985708E+03  0.23134833992E+03  0.12500000000E+03 0.  0.
         25    1    1    2    0    0  0.94532358693E+02  0.90419797917E+02  0.28556891131E+03  0.33806317428E+03  0.12500000000E+03 0.  0.
</event>
<event>
 4    0  0.2179527E-002  0.2003862E+03  0.7546771E-02  0.1149414E+00
         21   -1    0    0  502  501  0.00000000000E+00  0.00000000000E+00  0.17815554723E+03  0.17815554723E+03  0.00000000000E+00 0. -1.
         21   -1    0    0  501  502 -0.00000000000E+00 -0.00000000000E+00 -0.22539086785E+03  0.22539086785E+03  0.00000000000E+00 0. -1.
         25    1    1    2    0    0 -0.17131497934E+02  0.15507689818E+03 -0.98371430585E+01  0.20016019073E+03  0.12500000000E+03 0.  0.
         25    1    1    2    0    0  0.17131497934E+02 -0.15507689818E+03 -0.37398177562E+02  0.20338622435E+03  0.12500000000E+03 0.  0.
</event>
<event>
 4    0  0.2179527E-002  0.3644096E+03  0.7546771E-02  0.1056851E+00
         21   -1    0    0  502  501  0.00000000000E+00  0.00000000000E+00  0.19547411788E+03  0.19547411788E+03  0.00000000000E+00 0. -1.
         21   -1    0    0  501  502 -0.00000000000E+00 -0.00000000000E+00 -0.67934492517E+03  0.67934492517E+03  0.00000000000E+00 0.  1.
         25    1    1    2    0    0  0.33503731436E+02 -0.24100231506E+03  0.47052961252E+02  0.27756728382E+03  0.12500000000E+03 0.  0.
         25    1    1    2    0    0 -0.33503731436E+02  0.24100231506E+03 -0.53092376855E+03  0.59725175922E+03  0.12500000000E+03 0.  0.
</event>
<event>
 4    0  0.2179527E-002  0.2441532E+03  0.7546771E-02  0.1117057E+00
         21   -1    0    0  502  501  0.00000000000E+00  0.00000000000E+00  0.30477520234E+03  0.30477520234E+03  0.00000000000E+00 0.  1.
         21   -1    0    0  501  502 -0.00000000000E+00 -0.00000000000E+00 -0.19558941880E+03  0.19558941880E+03  0.00000000000E+00 0.  1.
         25    1    1    2    0    0 -0.57773402852E+02  0.65810137424E+02 -0.14068338011E+03  0.20757059932E+03  0.12500000000E+03 0.  0.
         25    1    1    2    0    0  0.57773402852E+02 -0.65810137424E+02  0.24986916365E+03  0.29279402181E+03  0.12500000000E+03 0.  0.
</event>
<event>
 4    0  0.2179527E-002  0.2973350E+03  0.7546771E-02  0.1086580E+00
         21   -1    0    0  502  501  0.00000000000E+00  0.00000000000E+00  0.10043987828E+04  0.10043987828E+04  0.00000000000E+00 0.  1.
         21   -1    0    0  501  502 -0.00000000000E+00 -0.00000000000E+00 -0.88020902006E+02  0.88020902006E+02  0.00000000000E+00 0.  1.
         25    1    1    2    0    0  0.19811502129E+03  0.13918275102E+03  0.23957843867E+03  0.36282809720E+03  0.12500000000E+03 0.  0.
         25    1    1    2    0    0 -0.19811502129E+03 -0.13918275102E+03  0.67679944208E+03  0.72959158756E+03  0.12500000000E+03 0.  0.
</event>
<event>
 4    0  0.2179527E-002  0.1897817E+03  0.7546771E-02  0.1158658E+00
         21   -1    0    0  502  501  0.00000000000E+00  0.00000000000E+00  0.13217146583E+03  0.13217146583E+03  0.00000000000E+00 0. -1.
         21   -1    0    0  501  502 -0.00000000000E+00 -0.00000000000E+00 -0.27250282138E+03  0.27250282138E+03  0.00000000000E+00 0. -1.
         25    1    1    2    0    0  0.24201066919E+02 -0.80986975691E+02  0.52546730019E+02  0.15978341812E+03  0.12500000000E+03 0.  0.
         25    1    1    2    0    0 -0.24201066919E+02  0.80986975691E+02 -0.19287808557E+03  0.24489086909E+03  0.12500000000E+03 0.  0.
</event>
<event>
 4    0  0.2179527E-002  0.2702057E+03  0.7546771E-02  0.1101162E+00
         21   -1    0    0  502  501  0.00000000000E+00  0.00000000000E+00  0.87976373838E+02  0.87976373838E+02  0.00000000000E+00 0. -1.
         21   -1    0    0  501  502 -0.00000000000E+00 -0.00000000000E+00 -0.82989471913E+03  0.82989471913E+03  0.00000000000E+00 0. -1.
         25    1    1    2    0    0 -0.53160742667E+02  0.14085351304E+03 -0.68744132491E+03  0.71474915312E+03  0.12500000000E+03 0.  0.
         25    1    1    2    0    0  0.53160742667E+02 -0.14085351304E+03 -0.54477020380E+02  0.20312193984E+03  0.12500000000E+03 0.  0.
</event>
<event>
 4    0  0.2179527E-002  0.2455065E+03  0.7546771E-02  0.1116178E+00
         21   -1    0    0  502  501  0.00000000000E+00  0.00000000000E+00  0.54257298901E+02  0.54257298901E+02  0.00000000000E+00 0. -1.
         21   -1    0    0  501  502 -0.00000000000E+00 -0.00000000000E+00 -0.11108819029E+04  0.11108819029E+04  0.00000000000E+00 0. -1.
         25    1    1    2    0    0 -0.13430399856E+03  0.61816500101E+02 -0.88653509303E+03  0.90742950960E+03  0.12500000000E+03 0.  0.
         25    1    1    2    0    0  0.13430399856E+03 -0.61816500101E+02 -0.17008951096E+03  0.25770969220E+03  0.12500000000E+03 0.  0.
</event>
<event>
 4    0  0.2179527E-002  0.3245366E+03  0.7546771E-02  0.1073580E+00
         21   -1    0    0  502  501  0.00000000000E+00  0.00000000000E+00  0.21256913871E+04  0.21256913871E+04  0.00000000000E+00 0. -1.
         21   -1    0    0  501  502 -0.00000000000E+00 -0.00000000000E+00 -0.49548127460E+02  0.49548127460E+02  0.00000000000E+00 0.  1.
         25    1    1    2    0    0 -0.28925409390E+03 -0.56469775747E+01  0.77849813761E+03  0.83987151961E+03  0.12500000000E+03 0.  0.
         25    1    1    2    0    0  0.28925409390E+03  0.56469775747E+01  0.12976451220E+04  0.13353679949E+04  0.12500000000E+03 0.  0.
</event>
<event>
 4    0  0.2179527E-002  0.1394484E+03  0.7546771E-02  0.1214073E+00
         21   -1    0    0  502  501  0.00000000000E+00  0.00000000000E+00  0.13727690508E+02  0.13727690508E+02  0.00000000000E+00 0. -1.
         21   -1    0    0  501  502 -0.00000000000E+00 -0.00000000000E+00 -0.14165433438E+04  0.14165433438E+04  0.00000000000E+00 0. -1.
         25    1    1    2    0    0  0.18843105050E+02 -0.52037733778E+02 -0.56022724246E+03  0.57666502542E+03  0.12500000000E+03 0.  0.
         25    1    1    2    0    0 -0.18843105050E+02  0.52037733778E+02 -0.84258841080E+03  0.85360600886E+03  0.12500000000E+03 0.  0.
</event>
<event>
 4    0  0.2179527E-002  0.3375733E+03  0.7546771E-02  0.1067834E+00
         21   -1    0    0  502  501  0.00000000000E+00  0.00000000000E+00  0.61715351334E+03  0.61715351334E+03  0.00000000000E+00 0. -1.
         21   -1    0    0  501  502 -0.00000000000E+00 -0.00000000000E+00 -0.18464735243E+03  0.18464735243E+03  0.00000000000E+00 0. -1.
         25    1    1    2    0    0 -0.97682364559E+02 -0.28319470907E+03  0.32631998129E+03  0.46027254728E+03  0.12500000000E+03 0.  0.
         25    1    1    2    0    0  0.97682364559E+02  0.28319470907E+03  0.10618617962E+03  0.34152831849E+03  0.12500000000E+03 0.  0.
</event>
<event>
 4    0  0.2179527E-002  0.2259681E+03  0.7546771E-02  0.1129510E+00
         21   -1    0    0  502  501  0.00000000000E+00  0.00000000000E+00  0.32362144433E+03  0.32362144433E+03  0.00000000000E+00 0.  1.
         21   -1    0    0  501  502 -0.00000000000E+00 -0.00000000000E+00 -0.15778187108E+03  0.15778187108E+03  0.00000000000E+00 0.  1.
         25    1    1    2    0    0  0.99016988144E+02 -0.15036102450E+03  0.14149421834E+03  0.26088007868E+03  0.12500000000E+03 0.  0.
         25    1    1    2    0    0 -0.99016988144E+02  0.15036102450E+03  0.24345354907E+02  0.22052323672E+03  0.12500000000E+03 0.  0.
</event>
<event>
 4    0  0.2179527E-002  0.2124819E+03  0.7546771E-02  0.1139616E+00
         21   -1    0    0  502  501  0.00000000000E+00  0.00000000000E+00  0.32964257346E+03  0.32964257346E+03  0.00000000000E+00 0. -1.
         21   -1    0    0  501  502 -0.00000000000E+00 -0.00000000000E+00 -0.13696216178E+03  0.13696216178E+03  0.00000000000E+00 0. -1.
         25    1    1    2    0    0  0.14192841461E+02  0.17112052611E+03  0.10327478016E+03  0.23616594044E+03  0.12500000000E+03 0.  0.
         25    1    1    2    0    0 -0.14192841461E+02 -0.17112052611E+03  0.89405631510E+02  0.23043879480E+03  0.12500000000E+03 0.  0.
</event>
<event>
 4    0  0.2179527E-002  0.1761570E+03  0.7546771E-02  0.1171575E+00
         21   -1    0    0  502  501  0.00000000000E+00  0.00000000000E+00  0.77945093492E+02  0.77945093492E+02  0.00000000000E+00 0.  1.
         21   -1    0    0  501  502 -0.00000000000E+00 -0.00000000000E+00 -0.39811732042E+03  0.39811732042E+03  0.00000000000E+00 0.  1.
         25    1    1    2    0    0  0.10429148759E+03  0.42441460433E+02 -0.89506379318E+02  0.19056333300E+03  0.12500000000E+03 0.  0.
         25    1    1    2    0    0 -0.10429148759E+03 -0.42441460433E+02 -0.23066584761E+03  0.28549908091E+03  0.12500000000E+03 0.  0.
</event>
<event>
 4    0  0.2179527E-002  0.2203027E+03  0.7546771E-02  0.1133658E+00
         21   -1    0    0  502  501  0.00000000000E+00  0.00000000000E+00  0.40845285591E+03  0.40845285591E+03  0.00000000000E+00 0.  1.
         21   -1    0    0  501  502 -0.00000000000E+00 -0.00000000000E+00 -0.11882223976E+03  0.11882223976E+03  0.00000000000E+00 0.  1.
         25    1    1    2    0    0  0.16075661505E+03 -0.46876702256E+02  0.22831218598E+03  0.30950213047E+03  0.12500000000E+03 0.  0.
         25    1    1    2    0    0 -0.16075661505E+03  0.46876702256E+02  0.61318430173E+02  0.21777296521E+03  0.12500000000E+03 0.  0.
</event>
<event>
 4    0  0.2179527E-002  0.1615337E+03  0.7546771E-02  0.1186976E+00
         21   -1    0    0  502  501  0.00000000000E+00  0.00000000000E+00  0.10492028752E+03  0.10492028752E+03  0.00000000000E+00 0. -1.
         21   -1    0    0  501  502 -0.00000000000E+00 -0.00000000000E+00 -0.24869476839E+03  0.24869476839E+03  0.00000000000E+00 0. -1.
         25    1    1    2    0    0 -0.81133222830E+02  0.32962723910E+02 -0.12979516801E+03  0.20035200686E+03  0.12500000000E+03 0.  0.
         25    1    1    2    0    0  0.81133222830E+02 -0.32962723910E+02 -0.13979312851E+02  0.15326304904E+03  0.12500000000E+03 0.  0.
</event>
<event>
 4    0  0.2179527E-002  0.2236239E+03  0.7546771E-02  0.1131210E+00
         21   -1    0    0  502  501  0.00000000000E+00  0.00000000000E+00  0.63776620745E+03  0.63776620745E+03  0.00000000000E+00 0. -1.
         21   -1    0    0  501  502 -0.00000000000E+00 -0.00000000000E+00 -0.78410612864E+02  0.78410612864E+02  0.00000000000E+00 0. -1.
         25    1    1    2    0    0 -0.22555814226E+02  0.66863620059E+02  0.55425778184E+03  0.57254362033E+03  0.12500000000E+03 0.  0.
         25    1    1    2    0    0  0.22555814226E+02 -0.66863620059E+02  0.50978127395E+01  0.14363319998E+03  0.12500000000E+03 0.  0.
</event>
<event>
 4    0  0.2179527E-002  0.1822540E+03  0.7546771E-02  0.1165639E+00
         21   -1    0    0  502  501  0.00000000000E+00  0.00000000000E+00  0.24899569861E+03  0.24899569861E+03  0.00000000000E+00 0.  1.
         21   -1    0    0  501  502 -0.00000000000E+00 -0.00000000000E+00 -0.13340195336E+03  0.13340195336E+03  0.00000000000E+00 0.  1.
         25    1    1    2    0    0  0.10627701679E+03  0.41946548687E+02  0.12846147874E+03  0.21255980045E+03  0.12500000000E+03 0.  0.
         25    1    1    2    0    0 -0.10627701679E+03 -0.41946548687E+02 -0.12867733501E+02  0.16983785152E+03  0.12500000000E+03 0.  0.
</event>
<event>
 4    0  0.2179527E-002  0.2181339E+03  0.7546771E-02  0.1135282E+00
         21   -1    0    0  502  501  0.00000000000E+00  0.00000000000E+00  0.54021593557E+02  0.54021593557E+02  0.00000000000E+00 0. -1.
         21   -1    0    0  501  502 -0.00000000000E+00 -0.00000000000E+00 -0.88080314322E+03  0.88080314322E+03  0.00000000000E+00 0. -1.
         25    1    1    2    0    0  0.25396302668E+02 -0.17687766237E+03 -0.40231657958E+03  0.45761808294E+03  0.12500000000E+03 0.  0.
         25    1    1    2    0    0 -0.25396302668E+02  0.17687766237E+03 -0.42446497009E+03  0.47720665384E+03  0.12500000000E+03 0.  0.
</event>
<event>
 4    0  0.2179527E-002  0.2246417E+03  0.7546771E-02  0.1130469E+00
         21   -1    0    0  502  501  0.00000000000E+00  0.00000000000E+00  0.12129589171E+03  0.12129589171E+03  0.00000000000E+00 0.  1.
         21   -1    0    0  501  502 -0.00000000000E+00 -0.00000000000E+00 -0.41603977252E+03  0.41603977252E+03  0.00000000000E+00 0.  1.
         25    1    1    2    0    0 -0.12175888620E+03  0.13975948100E+03 -0.17360126075E+03  0.28305535966E+03  0.12500000000E+03 0.  0.
         25    1    1    2    0    0  0.12175888620E+03 -0.13975948100E+03 -0.12114262006E+03  0.25428030457E+03  0.12500000000E+03 0.  0.
</event>
<event>
 4    0  0.2179527E-002  0.1810006E+03  0.7546771E-02  0.1166838E+00
         21   -1    0    0  502  501  0.00000000000E+00  0.00000000000E+00  0.53325168438E+02  0.53325168438E+02  0.00000000000E+00 0.  1.
         21   -1    0    0  501  502 -0.00000000000E+00 -0.00000000000E+00 -0.61436668932E+03  0.61436668932E+03  0.00000000000E+00 0.  1.
         25    1    1    2    0    0 -0.38532138793E+00  0.10242654897E+03 -0.13016880540E+03  0.20750967280E+03  0.12500000000E+03 0.  0.
         25    1    1    2    0    0  0.38532138793E+00 -0.10242654897E+03 -0.43087271548E+03  0.46018218496E+03  0.12500000000E+03 0.  0.
</event>
<event>
 4    0  0.2179527E-002  0.1803666E+03  0.7546771E-02  0.1167449E+00
         21   -1    0    0  502  501  0.00000000000E+00  0.00000000000E+00  0.39470840517E+03  0.39470840517E+03  0.00000000000E+00 0. -1.
         21   -1    0    0  501  502 -0.00000000000E+00 -0.00000000000E+00 -0.82420572602E+02  0.82420572602E+02  0.00000000000E+00 0. -1.
         25    1    1    2    0    0 -0.12278307205E+03  0.40550889847E+02  0.13805503934E+03  0.22672505670E+03  0.12500000000E+03 0.  0.
         25    1    1    2    0    0  0.12278307205E+03 -0.40550889847E+02  0.17423279322E+03  0.25040392106E+03  0.12500000000E+03 0.  0.
</event>
<event>
 4    0  0.2179527E-002  0.2126759E+03  0.7546771E-02  0.1139464E+00
         21   -1    0    0  502  501  0.00000000000E+00  0.00000000000E+00  0.13168115397E+04  0.13168115397E+04  0.00000000000E+00 0. -1.
         21   -1    0    0  501  502 -0.00000000000E+00 -0.00000000000E+00 -0.34348893456E+02  0.34348893456E+02  0.00000000000E+00 0. -1.
         25    1    1    2    0    0 -0.35842066279E+02 -0.12988680111E+03  0.30131160647E+03  0.35294322350E+03  0.12500000000E+03 0.  0.
         25    1    1    2    0    0  0.35842066279E+02  0.12988680111E+03  0.98115103979E+03  0.99821720968E+03  0.12500000000E+03 0.  0.
</event>
<event>
 4    0  0.2179527E-002  0.2203432E+03  0.7546771E-02  0.1133627E+00
         21   -1    0    0  502  501  0.00000000000E+00  0.00000000000E+00  0.75959103047E+03  0.75959103047E+03  0.00000000000E+00 0. -1.
         21   -1    0    0  501  502 -0.00000000000E+00 -0.00000000000E+00 -0.63917448052E+02  0.63917448052E+02  0.00000000000E+00 0. -1.
         25    1    1    2    0    0 -0.10585400593E+03 -0.76361250018E+01  0.62287633431E+03  0.64409883467E+03  0.12500000000E+03 0.  0.
         25    1    1    2    0    0  0.10585400593E+03  0.76361250018E+01  0.72797248108E+02  0.17940964386E+03  0.12500000000E+03 0.  0.
</event>
<event>
 4    0  0.2179527E-002  0.2071459E+03  0.7546771E-02  0.1143846E+00
         21   -1    0    0  502  501  0.00000000000E+00  0.00000000000E+00  0.66194263820E+02  0.66194263820E+02  0.00000000000E+00 0.  1.
         21   -1    0    0  501  502 -0.00000000000E+00 -0.00000000000E+00 -0.64823499027E+03  0.64823499027E+03  0.00000000000E+00 0.  1.
         25    1    1    2    0    0  0.10870966531E+03 -0.85983481179E+02 -0.13607327763E+03  0.23098027460E+03  0.12500000000E+03 0.  0.
         25    1    1    2    0    0 -0.10870966531E+03  0.85983481179E+02 -0.44596744882E+03  0.48344897949E+03  0.12500000000E+03 0.  0.
</event>
<event>
 4    0  0.2179527E-002  0.2835503E+03  0.7546771E-02  0.1093766E+00
         21   -1    0    0  502  501  0.00000000000E+00  0.00000000000E+00  0.19751802352E+03  0.19751802352E+03  0.00000000000E+00 0. -1.
         21   -1    0    0  501  502 -0.00000000000E+00 -0.00000000000E+00 -0.40705527414E+03  0.40705527414E+03  0.00000000000E+00 0. -1.
         25    1    1    2    0    0  0.13951238643E+03  0.20279089481E+03 -0.35778478251E+02  0.27837556015E+03  0.12500000000E+03 0.  0.
         25    1    1    2    0    0 -0.13951238643E+03 -0.20279089481E+03 -0.17375877237E+03  0.32619773752E+03  0.12500000000E+03 0.  0.
</event>
<event>
 4    0  0.2179527E-002  0.1867467E+03  0.7546771E-02  0.1161429E+00
         21   -1    0    0  502  501  0.00000000000E+00  0.00000000000E+00  0.22182655116E+03  0.22182655116E+03  0.00000000000E+00 0.  1.
         21   -1    0    0  501  502 -0.00000000000E+00 -0.00000000000E+00 -0.15721447731E+03  0.15721447731E+03  0.00000000000E+00 0.  1.
         25    1    1    2    0    0  0.40674207372E+02 -0.95862805090E+02 -0.60735998619E+02  0.17366038717E+03  0.12500000000E+03 0.  0.
         25    1    1    2    0    0 -0.40674207372E+02  0.95862805090E+02  0.12534807248E+03  0.20538064129E+03  0.12500000000E+03 0.  0.
</event>
<event>
 4    0  0.2179527E-002  0.1973383E+03  0.7546771E-02  0.1152004E+00
         21   -1    0    0  502  501  0.00000000000E+00  0.00000000000E+00  0.67270993531E+02  0.67270993531E+02  0.00000000000E+00 0.  1.
         21   -1    0    0  501  502 -0.00000000000E+00 -0.00000000000E+00 -0.57888862494E+03  0.57888862494E+03  0.00000000000E+00 0.  1.
         25    1    1    2    0    0  0.13337866915E+03  0.68976849282E+02 -0.30123118698E+03  0.35904443058E+03  0.12500000000E+03 0.  0.
         25    1    1    2    0    0 -0.13337866915E+03 -0.68976849282E+02 -0.21038644443E+03  0.28711518790E+03  0.12500000000E+03 0.  0.
</event>
<event>
 4    0  0.2179527E-002  0.2311268E+03  0.7546771E-02  0.1125849E+00
         21   -1    0    0  502  501  0.00000000000E+00  0.00000000000E+00  0.47555456241E+02  0.47555456241E+02  0.00000000000E+00 0. -1.
         21   -1    0    0  501  502 -0.00000000000E+00 -0.00000000000E+00 -0.11233113911E+04  0.11233113911E+04  0.00000000000E+00 0. -1.
         25    1    1    2    0    0 -0.10639348475E+03  0.14279376534E+03 -0.73546382611E+03  0.76696914706E+03  0.12500000000E+03 0.  0.
         25    1    1    2    0    0  0.10639348475E+03 -0.14279376534E+03 -0.34029210875E+03  0.40389770028E+03  0.12500000000E+03 0.  0.
</event>
<event>
 4    0  0.2179527E-002  0.1578783E+03  0.7546771E-02  0.1191113E+00
         21   -1    0    0  502  501  0.00000000000E+00  0.00000000000E+00  0.20064938045E+03  0.20064938045E+03  0.00000000000E+00 0.  1.
         21   -1    0    0  501  502 -0.00000000000E+00 -0.00000000000E+00 -0.12422447043E+03  0.12422447043E+03  0.00000000000E+00 0.  1.
         25    1    1    2    0    0 -0.14675493075E+02 -0.59217997625E+02  0.11505786685E+03  0.18051441511E+03  0.12500000000E+03 0.  0.
         25    1    1    2    0    0  0.14675493075E+02  0.59217997625E+02 -0.38632956829E+02  0.14435943576E+03  0.12500000000E+03 0.  0.
</event>
<event>
 4    0  0.2179527E-002  0.3276558E+03  0.7546771E-02  0.1072179E+00
         21   -1    0    0  502  501  0.00000000000E+00  0.00000000000E+00  0.19428278911E+03  0.19428278911E+03  0.00000000000E+00 0. -1.
         21   -1    0    0  501  502 -0.00000000000E+00 -0.00000000000E+00 -0.55258803289E+03  0.55258803289E+03  0.00000000000E+00 0. -1.
         25    1    1    2    0    0 -0.28467309684E+03  0.96023139274E+02 -0.13539382962E+03  0.35244248388E+03  0.12500000000E+03 0.  0.
         25    1    1    2    0    0  0.28467309684E+03 -0.96023139274E+02 -0.22291141416E+03  0.39442833811E+03  0.12500000000E+03 0.  0.
</event>
<event>
 4    0  0.2179527E-002  0.4162662E+03  0.7546771E-02  0.1038288E+00
         21   -1    0    0  502  501  0.00000000000E+00  0.00000000000E+00  0.72888124941E+02  0.72888124941E+02  0.00000000000E+00 0. -1.
         21   -1    0    0  501  502 -0.00000000000E+00 -0.00000000000E+00 -0.23773087931E+04  0.23773087931E+04  0.00000000000E+00 0.  1.
         25    1    1    2    0    0 -0.64294921245E+02  0.39140628105E+03 -0.12048465002E+04  0.12746029981E+04  0.12500000000E+03 0.  0.
         25    1    1    2    0    0  0.64294921245E+02 -0.39140628105E+03 -0.10995741680E+04  0.11755939199E+04  0.12500000000E+03 0.  0.
</event>
<event>
 4    0  0.2179527E-002  0.2089121E+03  0.7546771E-02  0.1142430E+00
         21   -1    0    0  502  501  0.00000000000E+00  0.00000000000E+00  0.34271624227E+03  0.34271624227E+03  0.00000000000E+00 0.  1.
         21   -1    0    0  501  502 -0.00000000000E+00 -0.00000000000E+00 -0.12734808782E+03  0.12734808782E+03  0.00000000000E+00 0.  1.
         25    1    1    2    0    0 -0.61149632271E+02 -0.14392077777E+03  0.17487375106E+03  0.26581628357E+03  0.12500000000E+03 0.  0.
         25    1    1    2    0    0  0.61149632271E+02  0.14392077777E+03  0.40494403387E+02  0.20424804652E+03  0.12500000000E+03 0.  0.
</event>
<event>
 4    0  0.2179527E-002  0.2092312E+03  0.7546771E-02  0.1142176E+00
         21   -1    0    0  502  501  0.00000000000E+00  0.00000000000E+00  0.38338945964E+02  0.38338945964E+02  0.00000000000E+00 0. -1.
         21   -1    0    0  501  502 -0.00000000000E+00 -0.00000000000E+00 -0.11418600682E+04  0.11418600682E+04  0.00000000000E+00 0. -1.
         25    1    1    2    0    0 -0.46017336273E+02  0.28082827824E+02 -0.10363567285E+03  0.17108943025E+03  0.12500000000E+03 0.  0.
         25    1    1    2    0    0  0.46017336273E+02 -0.28082827824E+02 -0.99988544939E+03  0.10091095839E+04  0.12500000000E+03 0.  0.
</event>
<event>
 4    0  0.2179527E-002  0.1920758E+03  0.7546771E-02  0.1156602E+00
         21   -1    0    0  502  501  0.00000000000E+00  0.00000000000E+00  0.77103448116E+03  0.77103448116E+03  0.00000000000E+00 0.  1.
         21   -1    0    0  501  502 -0.00000000000E+00 -0.00000000000E+00 -0.47848844776E+02  0.47848844776E+02  0.00000000000E+00 0.  1.
         25    1    1    2    0    0 -0.70944071404E+02  0.56319775232E+02  0.11795593085E+03  0.19427707011E+03  0.12500000000E+03 0.  0.
         25    1    1    2    0    0  0.70944071404E+02 -0.56319775232E+02  0.60522970553E+03  0.62460625582E+03  0.12500000000E+03 0.  0.
</event>
<event>
 4    0  0.2179527E-002  0.2019487E+03  0.7546771E-02  0.1148105E+00
         21   -1    0    0  502  501  0.00000000000E+00  0.00000000000E+00  0.41550801918E+02  0.41550801918E+02  0.00000000000E+00 0. -1.
         21   -1    0    0  501  502 -0.00000000000E+00 -0.00000000000E+00 -0.98152828721E+03  0.98152828721E+03  0.00000000000E+00 0. -1.
         25    1    1    2    0    0  0.13255994666E+02 -0.81492794095E+02 -0.81303715254E+03  0.82672317512E+03  0.12500000000E+03 0.  0.
         25    1    1    2    0    0 -0.13255994666E+02  0.81492794095E+02 -0.12694033276E+03  0.19635591400E+03  0.12500000000E+03 0.  0.
</event>
<event>
 4    0  0.2179527E-002  0.2160930E+03  0.7546771E-02  0.1136830E+00
         21   -1    0    0  502  501  0.00000000000E+00  0.00000000000E+00  0.30821944335E+02  0.30821944335E+02  0.00000000000E+00 0. -1.
         21   -1    0    0  501  502 -0.00000000000E+00 -0.00000000000E+00 -0.15150307334E+04  0.15150307334E+04  0.00000000000E+00 0. -1.
         25    1    1    2    0    0  0.14414122533E+03  0.89223075528E+01 -0.38059942627E+03  0.42583708586E+03  0.12500000000E+03 0.  0.
         25    1    1    2    0    0 -0.14414122533E+03 -0.89223075528E+01 -0.11036093628E+04  0.11200155919E+04  0.12500000000E+03 0.  0.
</event>
<event>
 4    0  0.2179527E-002  0.2038977E+03  0.7546771E-02  0.1146492E+00
         21   -1    0    0  502  501  0.00000000000E+00  0.00000000000E+00  0.26243581157E+04  0.26243581157E+04  0.00000000000E+00 0. -1.
         21   -1    0    0  501  502 -0.00000000000E+00 -0.00000000000E+00 -0.15841686948E+02  0.15841686948E+02  0.00000000000E+00 0. -1.
         25    1    1    2    0    0  0.13331936746E+03 -0.50911625622E+02  0.17880256257E+04  0.17980619248E+04  0.12500000000E+03 0.  0.
         25    1    1    2    0    0 -0.13331936746E+03  0.50911625622E+02  0.82049080308E+03  0.84213787784E+03  0.12500000000E+03 0.  0.
</event>
<event>
 4    0  0.2179527E-002  0.1963858E+03  0.7546771E-02  0.1152825E+00
         21   -1    0    0  502  501  0.00000000000E+00  0.00000000000E+00  0.51008797810E+02  0.51008797810E+02  0.00000000000E+00 0. -1.
         21   -1    0    0  501  502 -0.00000000000E+00 -0.00000000000E+00 -0.75609259739E+03  0.75609259739E+03  0.00000000000E+00 0. -1.
         25    1    1    2    0    0  0.14935113533E+03 -0.16960217343E+02 -0.31415542129E+03  0.37001626900E+03  0.12500000000E+03 0.  0.
         25    1    1    2    0    0 -0.14935113533E+03  0.16960217343E+02 -0.39092837829E+03  0.43708512620E+03  0.12500000000E+03 0.  0.
</event>
<event>
 4    0  0.2179527E-002  0.2713405E+03  0.7546771E-02  0.1100515E+00
         21   -1    0    0  502  501  0.00000000000E+00  0.00000000000E+00  0.34614996031E+03  0.34614996031E+03  0.00000000000E+00 0. -1.
         21   -1    0    0  501  502 -0.00000000000E+00 -0.00000000000E+00 -0.21269877394E+03  0.21269877394E+03  0.00000000000E+00 0. -1.
         25    1    1    2    0    0 -0.24047318266E+03  0.32123364480E+01  0.53578025819E+02  0.27628477253E+03  0.12500000000E+03 0.  0.
         25    1    1    2    0    0  0.24047318266E+03 -0.32123364480E+01  0.79873160547E+02  0.28256396171E+03  0.12500000000E+03 0.  0.
</event>
<event>
 4    0  0.2179527E-002  0.2250974E+03  0.7546771E-02  0.1130139E+00
         21   -1    0    0  502  501  0.00000000000E+00  0.00000000000E+00  0.11685354730E+03  0.11685354730E+03  0.00000000000E+00 0.  1.
         21   -1    0    0  501  502 -0.00000000000E+00 -0.00000000000E+00 -0.43360974869E+03  0.43360974869E+03  0.00000000000E+00 0.  1.
         25    1    1    2    0    0 -0.10436757171E+03  0.70813464453E+02  0.10767782239E+02  0.17789907787E+03  0.12500000000E+03 0.  0.
         25    1    1    2    0    0  0.10436757171E+03 -0.70813464453E+02 -0.32752398363E+03  0.37256421812E+03  0.12500000000E+03 0.  0.
</event>
<event>
 4    0  0.2179527E-002  0.2672026E+03  0.7546771E-02  0.1102891E+00
         21   -1    0    0  502  501  0.00000000000E+00  0.00000000000E+00  0.22136489132E+03  0.22136489132E+03  0.00000000000E+00 0.  1.
         21   -1    0    0  501  502 -0.00000000000E+00 -0.00000000000E+00 -0.32253184190E+03  0.32253184190E+03  0.00000000000E+00 0.  1.
         25    1    1    2    0    0  0.20362839470E+03 -0.56838766337E+02  0.56533424053E+02  0.25202419829E+03  0.12500000000E+03 0.  0.
         25    1    1    2    0    0 -0.20362839470E+03  0.56838766337E+02 -0.15770037463E+03  0.29187253493E+03  0.12500000000E+03 0.  0.
</event>
<event>
 4    0  0.2179527E-002  0.2053642E+03  0.7546771E-02  0.1145290E+00
         21   -1    0    0  502  501  0.00000000000E+00  0.00000000000E+00  0.20992585058E+03  0.20992585058E+03  0.00000000000E+00 0. -1.
         21   -1    0    0  501  502 -0.00000000000E+00 -0.00000000000E+00 -0.20090176257E+03  0.20090176257E+03  0.00000000000E+00 0. -1.
         25    1    1    2    0    0 -0.15710699022E+03 -0.15699730393E+02 -0.35751682527E+02  0.20452938839E+03  0.12500000000E+03 0.  0.
         25    1    1    2    0    0  0.15710699022E+03  0.15699730393E+02  0.44775770538E+02  0.20629822476E+03  0.12500000000E+03 0.  0.
</event>
<event>
 4    0  0.2179527E-002  0.1767424E+03  0.7546771E-02  0.1170994E+00
         21   -1    0    0  502  501  0.00000000000E+00  0.00000000000E+00  0.17487663170E+03  0.17487663170E+03  0.00000000000E+00 0. -1.
         21   -1    0    0  501  502 -0.00000000000E+00 -0.00000000000E+00 -0.17862803615E+03  0.17862803615E+03  0.00000000000E+00 0. -1.
         25    1    1    2    0    0 -0.68993982818E+02  0.10195383081E+03  0.19529147780E+02  0.17652518487E+03  0.12500000000E+03 0.  0.
         25    1    1    2    0    0  0.68993982818E+02 -0.10195383081E+03 -0.23280552230E+02  0.17697948298E+03  0.12500000000E+03 0.  0.
</event>
<event>
 4    0  0.2179527E-002  0.2083944E+03  0.7546771E-02  0.1142844E+00
         21   -1    0    0  502  501  0.00000000000E+00  0.00000000000E+00  0.61376235854E+02  0.61376235854E+02  0.00000000000E+00 0.  1.
         21   -1    0    0  501  502 -0.00000000000E+00 -0.00000000000E+00 -0.70757364698E+03  0.70757364698E+03  0.00000000000E+00 0.  1.
         25    1    1    2    0    0 -0.50616468124E+02 -0.15462235065E+03 -0.39046069415E+03  0.44108349758E+03  0.12500000000E+03 0.  0.
         25    1    1    2    0    0  0.50616468124E+02  0.15462235065E+03 -0.25573671698E+03  0.32786638525E+03  0.12500000000E+03 0.  0.
</event>
<event>
 4    0  0.2179527E-002  0.3113972E+03  0.7546771E-02  0.1079678E+00
         21   -1    0    0  502  501  0.00000000000E+00  0.00000000000E+00  0.48916342945E+03  0.48916342945E+03  0.00000000000E+00 0.  1.
         21   -1    0    0  501  502 -0.00000000000E+00 -0.00000000000E+00 -0.19823276046E+03  0.19823276046E+03  0.00000000000E+00 0.  1.
         25    1    1    2    0    0  0.22993101449E+02 -0.26947251174E+03  0.45523917654E+02  0.30139931051E+03  0.12500000000E+03 0.  0.
         25    1    1    2    0    0 -0.22993101449E+02  0.26947251174E+03  0.24540675134E+03  0.38599687939E+03  0.12500000000E+03 0.  0.
</event>
<event>
 4    0  0.2179527E-002  0.3664019E+03  0.7546771E-02  0.1056077E+00
         21   -1    0    0  502  501  0.00000000000E+00  0.00000000000E+00  0.23018960062E+03  0.23018960062E+03  0.00000000000E+00 0. -1.
         21   -1    0    0  501  502 -0.00000000000E+00 -0.00000000000E+00 -0.58321641919E+03  0.58321641919E+03  0.00000000000E+00 0. -1.
         25    1    1    2    0    0  0.10829392215E+03 -0.36970192576E+02 -0.53710007563E+03  0.56320143816E+03  0.12500000000E+03 0.  0.
         25    1    1    2    0    0 -0.10829392215E+03  0.36970192576E+02  0.18407325706E+03  0.25020458165E+03  0.12500000000E+03 0.  0.
</event>
<event>
 4    0  0.2179527E-002  0.1572989E+03  0.7546771E-02  0.1191780E+00
         21   -1    0    0  502  501  0.00000000000E+00  0.00000000000E+00  0.11048767240E+03  0.11048767240E+03  0.00000000000E+00 0. -1.
         21   -1    0    0  501  502 -0.00000000000E+00 -0.00000000000E+00 -0.22394313785E+03  0.22394313785E+03  0.00000000000E+00 0. -1.
         25    1    1    2    0    0 -0.49537105857E+02  0.43524459212E+02 -0.13014426538E+03  0.19212192279E+03  0.12500000000E+03 0.  0.
         25    1    1    2    0    0  0.49537105857E+02 -0.43524459212E+02  0.16688799927E+02  0.14230888746E+03  0.12500000000E+03 0.  0.
</event>
<event>
 4    0  0.2179527E-002  0.1872640E+03  0.7546771E-02  0.1160952E+00
         21   -1    0    0  502  501  0.00000000000E+00  0.00000000000E+00  0.13543556289E+03  0.13543556289E+03  0.00000000000E+00 0. -1.
         21   -1    0    0  501  502 -0.00000000000E+00 -0.00000000000E+00 -0.25892611282E+03  0.25892611282E+03  0.00000000000E+00 0. -1.
         25    1    1    2    0    0 -0.38271959768E+02  0.45681929453E+02 -0.19448138140E+03  0.23874586759E+03  0.12500000000E+03 0.  0.
         25    1    1    2    0    0  0.38271959768E+02 -0.45681929453E+02  0.70990831463E+02  0.15561580811E+03  0.12500000000E+03 0.  0.
</event>
<event>
 4    0  0.2179527E-002  0.1938373E+03  0.7546771E-02  0.1155045E+00
         21   -1    0    0  502  501  0.00000000000E+00  0.00000000000E+00  0.42210107946E+02  0.42210107946E+02  0.00000000000E+00 0. -1.
         21   -1    0    0  501  502 -0.00000000000E+00 -0.00000000000E+00 -0.89014010793E+03  0.89014010793E+03  0.00000000000E+00 0. -1.
         25    1    1    2    0    0  0.72056949453E+02  0.12822152356E+03 -0.46664558711E+03  0.50499115541E+03  0.12500000000E+03 0.  0.
         25    1    1    2    0    0 -0.72056949453E+02 -0.12822152356E+03 -0.38128441287E+03  0.42735906047E+03  0.12500000000E+03 0.  0.
</event>
<event>
 4    0  0.2179527E-002  0.2309740E+03  0.7546771E-02  0.1125956E+00
         21   -1    0    0  502  501  0.00000000000E+00  0.00000000000E+00  0.60649780181E+02  0.60649780181E+02  0.00000000000E+00 0.  1.
         21   -1    0    0  501  502 -0.00000000000E+00 -0.00000000000E+00 -0.87962397879E+03  0.87962397879E+03  0.00000000000E+00 0.  1.
         25    1    1    2    0    0  0.42464207069E+02  0.16434805691E+03 -0.21734947635E+03  0.30278587741E+03  0.12500000000E+03 0.  0.
         25    1    1    2    0    0 -0.42464207069E+02 -0.16434805691E+03 -0.60162472226E+03  0.63748788155E+03  0.12500000000E+03 0.  0.
</event>
<event>
 4    0  0.2179527E-002  0.1873292E+03  0.7546771E-02  0.1160892E+00
         21   -1    0    0  502  501  0.00000000000E+00  0.00000000000E+00  0.24644486816E+02  0.24644486816E+02  0.00000000000E+00 0.  1.
         21   -1    0    0  501  502 -0.00000000000E+00 -0.00000000000E+00 -0.14239390413E+04  0.14239390413E+04  0.00000000000E+00 0.  1.
         25    1    1    2    0    0 -0.11196800019E+03  0.81979758018E+02 -0.64365327807E+03  0.67020299623E+03  0.12500000000E+03 0.  0.
         25    1    1    2    0    0  0.11196800019E+03 -0.81979758018E+02 -0.75564127644E+03  0.77838053191E+03  0.12500000000E+03 0.  0.
</event>
<event>
 4    0  0.2179527E-002  0.4147350E+03  0.7546771E-02  0.1038794E+00
         21   -1    0    0  502  501  0.00000000000E+00  0.00000000000E+00  0.15819920326E+03  0.15819920326E+03  0.00000000000E+00 0.  1.
         21   -1    0    0  501  502 -0.00000000000E+00 -0.00000000000E+00 -0.10872689647E+04  0.10872689647E+04  0.00000000000E+00 0.  1.
         25    1    1    2    0    0  0.13139334433E+03 -0.17848807282E+03 -0.95628740829E+03  0.98956192850E+03  0.12500000000E+03 0.  0.
         25    1    1    2    0    0 -0.13139334433E+03  0.17848807282E+03  0.27217646895E+02  0.25590623942E+03  0.12500000000E+03 0.  0.
</event>
<event>
 4    0  0.2179527E-002  0.2631955E+03  0.7546771E-02  0.1105238E+00
         21   -1    0    0  502  501  0.00000000000E+00  0.00000000000E+00  0.26190501148E+03  0.26190501148E+03  0.00000000000E+00 0.  1.
         21   -1    0    0  501  502 -0.00000000000E+00 -0.00000000000E+00 -0.26449234086E+03  0.26449234086E+03  0.00000000000E+00 0.  1.
         25    1    1    2    0    0 -0.10018667769E+03 -0.19678937653E+03  0.68588796970E+02  0.26285519240E+03  0.12500000000E+03 0.  0.
         25    1    1    2    0    0  0.10018667769E+03  0.19678937653E+03 -0.71176126355E+02  0.26354215994E+03  0.12500000000E+03 0.  0.
</event>
<event>
 4    0  0.2179527E-002  0.2674341E+03  0.7546771E-02  0.1102757E+00
         21   -1    0    0  502  501  0.00000000000E+00  0.00000000000E+00  0.20341399441E+04  0.20341399441E+04  0.00000000000E+00 0. -1.
         21   -1    0    0  501  502 -0.00000000000E+00 -0.00000000000E+00 -0.35160307345E+02  0.35160307345E+02  0.00000000000E+00 0. -1.
         25    1    1    2    0    0  0.16733235602E+03  0.15848999779E+03  0.12033574125E+04  0.12315897283E+04  0.12500000000E+03 0.  0.
         25    1    1    2    0    0 -0.16733235602E+03 -0.15848999779E+03  0.79562222431E+03  0.83771052315E+03  0.12500000000E+03 0.  0.
</event>
<event>
 4    0  0.2179527E-002  0.2641222E+03  0.7546771E-02  0.1104692E+00
         21   -1    0    0  502  501  0.00000000000E+00  0.00000000000E+00  0.79807148106E+02  0.79807148106E+02  0.00000000000E+00 0.  1.
         21   -1    0    0  501  502 -0.00000000000E+00 -0.00000000000E+00 -0.87411418908E+03  0.87411418908E+03  0.00000000000E+00 0.  1.
         25    1    1    2    0    0  0.58951820008E+01 -0.21212255354E+03 -0.56946471741E+03  0.62044000134E+03  0.12500000000E+03 0.  0.
         25    1    1    2    0    0 -0.58951820008E+01  0.21212255354E+03 -0.22484232356E+03  0.33348133584E+03  0.12500000000E+03 0.  0.
</event>
<event>
 4    0  0.2179527E-002  0.3784683E+03  0.7546771E-02  0.1051501E+00
         21   -1    0    0  502  501  0.00000000000E+00  0.00000000000E+00  0.51703865705E+03  0.51703865705E+03  0.00000000000E+00 0.  1.
         21   -1    0    0  501  502 -0.00000000000E+00 -0.00000000000E+00 -0.27703580080E+03  0.27703580080E+03  0.00000000000E+00 0.  1.
         25    1    1    2    0    0 -0.32453605356E+03 -0.14077058867E+03  0.67830057443E+02  0.38126883610E+03  0.12500000000E+03 0.  0.
         25    1    1    2    0    0  0.32453605356E+03  0.14077058867E+03  0.17217279881E+03  0.41280562174E+03  0.12500000000E+03 0.  0.
</event>
<event>
 4    0  0.2179527E-002  0.2850582E+03  0.7546771E-02  0.1092958E+00
         21   -1    0    0  502  501  0.00000000000E+00  0.00000000000E+00  0.49621172393E+03  0.49621172393E+03  0.00000000000E+00 0. -1.
         21   -1    0    0  501  502 -0.00000000000E+00 -0.00000000000E+00 -0.16375709626E+03  0.16375709626E+03  0.00000000000E+00 0. -1.
         25    1    1    2    0    0 -0.17498635707E+02  0.20529141336E+02 -0.12869032060E+03  0.18142173660E+03  0.12500000000E+03 0.  0.
         25    1    1    2    0    0  0.17498635707E+02 -0.20529141336E+02  0.46114494827E+03  0.47854708358E+03  0.12500000000E+03 0.  0.
</event>
<event>
 4    0  0.2179527E-002  0.2775064E+03  0.7546771E-02  0.1097059E+00
         21   -1    0    0  502  501  0.00000000000E+00  0.00000000000E+00  0.76900468786E+03  0.76900468786E+03  0.00000000000E+00 0.  1.
         21   -1    0    0  501  502 -0.00000000000E+00 -0.00000000000E+00 -0.10014215010E+03  0.10014215010E+03  0.00000000000E+00 0.  1.
         25    1    1    2    0    0 -0.99338245669E+01 -0.24591073152E+03  0.28975198714E+03  0.40018993340E+03  0.12500000000E+03 0.  0.
         25    1    1    2    0    0  0.99338245669E+01  0.24591073152E+03  0.37911055062E+03  0.46895690456E+03  0.12500000000E+03 0.  0.
</event>
<event>
 4    0  0.2179527E-002  0.1763117E+03  0.7546771E-02  0.1171421E+00
         21   -1    0    0  502  501  0.00000000000E+00  0.00000000000E+00  0.24021741568E+03  0.24021741568E+03  0.00000000000E+00 0. -1.
         21   -1    0    0  501  502 -0.00000000000E+00 -0.00000000000E+00 -0.12940705584E+03  0.12940705584E+03  0.00000000000E+00 0. -1.
         25    1    1    2    0    0 -0.78965257123E+02  0.33046863320E+02  0.14993760471E+03  0.21315227495E+03  0.12500000000E+03 0.  0.
         25    1    1    2    0    0  0.78965257123E+02 -0.33046863320E+02 -0.39127244869E+02  0.15647219657E+03  0.12500000000E+03 0.  0.
</event>
<event>
 4    0  0.2179527E-002  0.2032004E+03  0.7546771E-02  0.1147067E+00
         21   -1    0    0  502  501  0.00000000000E+00  0.00000000000E+00  0.20900513988E+03  0.20900513988E+03  0.00000000000E+00 0.  1.
         21   -1    0    0  501  502 -0.00000000000E+00 -0.00000000000E+00 -0.19755691082E+03  0.19755691082E+03  0.00000000000E+00 0.  1.
         25    1    1    2    0    0 -0.11965672902E+03 -0.33705207257E+02 -0.95368611719E+02  0.20043439300E+03  0.12500000000E+03 0.  0.
         25    1    1    2    0    0  0.11965672902E+03  0.33705207257E+02  0.10681684078E+03  0.20612765770E+03  0.12500000000E+03 0.  0.
</event>
<event>
 4    0  0.2179527E-002  0.3823962E+03  0.7546771E-02  0.1050052E+00
         21   -1    0    0  502  501  0.00000000000E+00  0.00000000000E+00  0.80157674873E+03  0.80157674873E+03  0.00000000000E+00 0. -1.
         21   -1    0    0  501  502 -0.00000000000E+00 -0.00000000000E+00 -0.18242398055E+03  0.18242398055E+03  0.00000000000E+00 0.  1.
         25    1    1    2    0    0 -0.69306332367E+02  0.35429985267E+03  0.33072044487E+03  0.50530462690E+03  0.12500000000E+03 0.  0.
         25    1    1    2    0    0  0.69306332367E+02 -0.35429985267E+03  0.28843232331E+03  0.47869610239E+03  0.12500000000E+03 0.  0.
</event>
<event>
 4    0  0.2179527E-002  0.2173349E+03  0.7546771E-02  0.1135886E+00
         21   -1    0    0  502  501  0.00000000000E+00  0.00000000000E+00  0.13123473529E+03  0.13123473529E+03  0.00000000000E+00 0.  1.
         21   -1    0    0  501  502 -0.00000000000E+00 -0.00000000000E+00 -0.35992335382E+03  0.35992335382E+03  0.00000000000E+00 0.  1.
         25    1    1    2    0    0  0.12404174870E+02 -0.16405529349E+03 -0.38196250739E+02  0.21012366941E+03  0.12500000000E+03 0.  0.
         25    1    1    2    0    0 -0.12404174870E+02  0.16405529349E+03 -0.19049236779E+03  0.28103441971E+03  0.12500000000E+03 0.  0.
</event>
<event>
 4    0  0.2179527E-002  0.4299026E+03  0.7546771E-02  0.1033891E+00
         21   -1    0    0  502  501  0.00000000000E+00  0.00000000000E+00  0.61673848451E+03  0.61673848451E+03  0.00000000000E+00 0. -1.
         21   -1    0    0  501  502 -0.00000000000E+00 -0.00000000000E+00 -0.29966710202E+03  0.29966710202E+03  0.00000000000E+00 0. -1.
         25    1    1    2    0    0 -0.59936830027E+01 -0.15447289433E+03 -0.24773048776E+03  0.31763688999E+03  0.12500000000E+03 0.  0.
         25    1    1    2    0    0  0.59936830027E+01  0.15447289433E+03  0.56480187024E+03  0.59876869653E+03  0.12500000000E+03 0.  0.
</event>
<event>
 4    0  0.2179527E-002  0.2047101E+03  0.7546771E-02  0.1145825E+00
         21   -1    0    0  502  501  0.00000000000E+00  0.00000000000E+00  0.56290801700E+02  0.56290801700E+02  0.00000000000E+00 0. -1.
         21   -1    0    0  501  502 -0.00000000000E+00 -0.00000000000E+00 -0.74445956932E+03  0.74445956932E+03  0.00000000000E+00 0. -1.
         25    1    1    2    0    0 -0.53480486162E+01  0.15766047707E+03 -0.27101436561E+03  0.33757845610E+03  0.12500000000E+03 0.  0.
         25    1    1    2    0    0  0.53480486162E+01 -0.15766047707E+03 -0.41715440201E+03  0.46317191492E+03  0.12500000000E+03 0.  0.
</event>
<event>
 4    0  0.2179527E-002  0.2888440E+03  0.7546771E-02  0.1090954E+00
         21   -1    0    0  502  501  0.00000000000E+00  0.00000000000E+00  0.69850210992E+03  0.69850210992E+03  0.00000000000E+00 0.  1.
         21   -1    0    0  501  502 -0.00000000000E+00 -0.00000000000E+00 -0.11944252255E+03  0.11944252255E+03  0.00000000000E+00 0.  1.
         25    1    1    2    0    0  0.20012066534E+03  0.34043710685E+02  0.52044894267E+03  0.57245030951E+03  0.12500000000E+03 0.  0.
         25    1    1    2    0    0 -0.20012066534E+03 -0.34043710685E+02  0.58610644697E+02  0.24549432296E+03  0.12500000000E+03 0.  0.
</event>
<event>
 4    0  0.2179527E-002  0.2921278E+03  0.7546771E-02  0.1089243E+00
         21   -1    0    0  502  501  0.00000000000E+00  0.00000000000E+00  0.75835679549E+02  0.75835679549E+02  0.00000000000E+00 0. -1.
         21   -1    0    0  501  502 -0.00000000000E+00 -0.00000000000E+00 -0.11253097995E+04  0.11253097995E+04  0.00000000000E+00 0. -1.
         25    1    1    2    0    0 -0.76267366489E+02  0.25049282902E+03 -0.59446256723E+03  0.66149384912E+03  0.12500000000E+03 0.  0.
         25    1    1    2    0    0  0.76267366489E+02 -0.25049282902E+03 -0.45501155271E+03  0.53965162992E+03  0.12500000000E+03 0.  0.
</event>
<event>
 4    0  0.2179527E-002  0.2978339E+03  0.7546771E-02  0.1086328E+00
         21   -1    0    0  502  501  0.00000000000E+00  0.00000000000E+00  0.76298175171E+02  0.76298175171E+02  0.00000000000E+00 0. -1.
         21   -1    0    0  501  502 -0.00000000000E+00 -0.00000000000E+00 -0.11626102469E+04  0.11626102469E+04  0.00000000000E+00 0. -1.
         25    1    1    2    0    0 -0.19339695064E+03 -0.18868927800E+03 -0.52526241482E+03  0.60376454730E+03  0.12500000000E+03 0.  0.
         25    1    1    2    0    0  0.19339695064E+03  0.18868927800E+03 -0.56104965689E+03  0.63514387476E+03  0.12500000000E+03 0.  0.
</event>
<event>
 4    0  0.2179527E-002  0.3003212E+03  0.7546771E-02  0.1085080E+00
         21   -1    0    0  502  501  0.00000000000E+00  0.00000000000E+00  0.65441385392E+03  0.65441385392E+03  0.00000000000E+00 0. -1.
         21   -1    0    0  501  502 -0.00000000000E+00 -0.00000000000E+00 -0.13782226138E+03  0.13782226138E+03  0.00000000000E+00 0. -1.
         25    1    1    2    0    0  0.32041788819E+02 -0.25499823107E+03  0.13656999935E+03  0.31674459554E+03  0.12500000000E+03 0.  0.
         25    1    1    2    0    0 -0.32041788819E+02  0.25499823107E+03  0.38002159319E+03  0.47549151977E+03  0.12500000000E+03 0.  0.
</event>
<event>
 4    0  0.2179527E-002  0.1870915E+03  0.7546771E-02  0.1161111E+00
         21   -1    0    0  502  501  0.00000000000E+00  0.00000000000E+00  0.77627855195E+03  0.77627855195E+03  0.00000000000E+00 0.  1.
         21   -1    0    0  501  502 -0.00000000000E+00 -0.00000000000E+00 -0.45091081647E+02  0.45091081647E+02  0.00000000000E+00 0.  1.
         25    1    1    2    0    0  0.24739514474E+02 -0.13034267667E+03  0.45812662343E+03  0.49305806963E+03  0.12500000000E+03 0.  0.
         25    1    1    2    0    0 -0.24739514474E+02  0.13034267667E+03  0.27306084688E+03  0.32831156397E+03  0.12500000000E+03 0.  0.
</event>
<event>
 4    0  0.2179527E-002  0.3975624E+03  0.7546771E-02  0.1044627E+00
         21   -1    0    0  502  501  0.00000000000E+00  0.00000000000E+00  0.67535117505E+03  0.67535117505E+03  0.00000000000E+00 0.  1.
         21   -1    0    0  501  502 -0.00000000000E+00 -0.00000000000E+00 -0.23403503916E+03  0.23403503916E+03  0.00000000000E+00 0.  1.
         25    1    1    2    0    0  0.11050853281E+03 -0.35849653584E+03  0.17351675293E+03  0.43181589316E+03  0.12500000000E+03 0.  0.
         25    1    1    2    0    0 -0.11050853281E+03  0.35849653584E+03  0.26779938296E+03  0.47757032105E+03  0.12500000000E+03 0.  0.
</event>
<event>
 4    0  0.2179527E-002  0.2244298E+03  0.7546771E-02  0.1130623E+00
         21   -1    0    0  502  501  0.00000000000E+00  0.00000000000E+00  0.84732932278E+03  0.84732932278E+03  0.00000000000E+00 0. -1.
         21   -1    0    0  501  502 -0.00000000000E+00 -0.00000000000E+00 -0.59444117601E+02  0.59444117601E+02  0.00000000000E+00 0. -1.
         25    1    1    2    0    0  0.23469244298E+02  0.16272889503E+01  0.76748476619E+03  0.77795328898E+03  0.12500000000E+03 0.  0.
         25    1    1    2    0    0 -0.23469244298E+02 -0.16272889503E+01  0.20400438992E+02  0.12882015141E+03  0.12500000000E+03 0.  0.
</event>
<event>
 4    0  0.2179527E-002  0.2523830E+03  0.7546771E-02  0.1111808E+00
         21   -1    0    0  502  501  0.00000000000E+00  0.00000000000E+00  0.32313584089E+03  0.32313584089E+03  0.00000000000E+00 0.  1.
         21   -1    0    0  501  502 -0.00000000000E+00 -0.00000000000E+00 -0.19712204952E+03  0.19712204952E+03  0.00000000000E+00 0.  1.
         25    1    1    2    0    0 -0.10935506772E+03  0.12437435502E+03 -0.85085471645E+02  0.22425888725E+03  0.12500000000E+03 0.  0.
         25    1    1    2    0    0  0.10935506772E+03 -0.12437435502E+03  0.21109926302E+03  0.29599900316E+03  0.12500000000E+03 0.  0.
</event>
<event>
 4    0  0.2179527E-002  0.2269594E+03  0.7546771E-02  0.1128798E+00
         21   -1    0    0  502  501  0.00000000000E+00  0.00000000000E+00  0.63002602329E+02  0.63002602329E+02  0.00000000000E+00 0. -1.
         21   -1    0    0  501  502 -0.00000000000E+00 -0.00000000000E+00 -0.81759441331E+03  0.81759441331E+03  0.00000000000E+00 0. -1.
         25    1    1    2    0    0 -0.12182950529E+03  0.14382480330E+03 -0.34061149505E+03  0.40886329374E+03  0.12500000000E+03 0.  0.
         25    1    1    2    0    0  0.12182950529E+03 -0.14382480330E+03 -0.41398031592E+03  0.47173372190E+03  0.12500000000E+03 0.  0.
</event>
<event>
 4    0  0.2179527E-002  0.2042595E+03  0.7546771E-02  0.1146194E+00
         21   -1    0    0  502  501  0.00000000000E+00  0.00000000000E+00  0.27757716584E+03  0.27757716584E+03  0.00000000000E+00 0. -1.
         21   -1    0    0  501  502 -0.00000000000E+00 -0.00000000000E+00 -0.15030756737E+03  0.15030756737E+03  0.00000000000E+00 0. -1.
         25    1    1    2    0    0 -0.83260804152E+02  0.22553120546E+02 -0.79426813444E+02  0.17139026649E+03  0.12500000000E+03 0.  0.
         25    1    1    2    0    0  0.83260804152E+02 -0.22553120546E+02  0.20669641192E+03  0.25649446671E+03  0.12500000000E+03 0.  0.
</event>
<event>
 4    0  0.2179527E-002  0.2725019E+03  0.7546771E-02  0.1099856E+00
         21   -1    0    0  502  501  0.00000000000E+00  0.00000000000E+00  0.15902976828E+04  0.15902976828E+04  0.00000000000E+00 0.  1.
         21   -1    0    0  501  502 -0.00000000000E+00 -0.00000000000E+00 -0.46693969782E+02  0.46693969782E+02  0.00000000000E+00 0.  1.
         25    1    1    2    0    0  0.16929924477E+03  0.14996968540E+03  0.10315626440E+04  0.10634376472E+04  0.12500000000E+03 0.  0.
         25    1    1    2    0    0 -0.16929924477E+03 -0.14996968540E+03  0.51204106901E+03  0.57355400545E+03  0.12500000000E+03 0.  0.
</event>
<event>
 4    0  0.2179527E-002  0.1876649E+03  0.7546771E-02  0.1160584E+00
         21   -1    0    0  502  501  0.00000000000E+00  0.00000000000E+00  0.56063909701E+03  0.56063909701E+03  0.00000000000E+00 0. -1.
         21   -1    0    0  501  502 -0.00000000000E+00 -0.00000000000E+00 -0.62817815148E+02  0.62817815148E+02  0.00000000000E+00 0. -1.
         25    1    1    2    0    0 -0.34973198206E+01  0.65702079657E+02  0.43686071387E+02  0.14785962042E+03  0.12500000000E+03 0.  0.
         25    1    1    2    0    0  0.34973198206E+01 -0.65702079657E+02  0.45413521048E+03  0.47559729174E+03  0.12500000000E+03 0.  0.
</event>
<event>
 4    0  0.2179527E-002  0.2004215E+03  0.7546771E-02  0.1149384E+00
         21   -1    0    0  502  501  0.00000000000E+00  0.00000000000E+00  0.20420073930E+03  0.20420073930E+03  0.00000000000E+00 0.  1.
         21   -1    0    0  501  502 -0.00000000000E+00 -0.00000000000E+00 -0.19671218980E+03  0.19671218980E+03  0.00000000000E+00 0.  1.
         25    1    1    2    0    0  0.13301301565E+03 -0.28984085428E+02 -0.73801409007E+02  0.19900800866E+03  0.12500000000E+03 0.  0.
         25    1    1    2    0    0 -0.13301301565E+03  0.28984085428E+02  0.81289958505E+02  0.20190492043E+03  0.12500000000E+03 0.  0.
</event>
<event>
 4    0  0.2179527E-002  0.7464316E+03  0.7546771E-02  0.9640965E-01
         21   -1    0    0  502  501  0.00000000000E+00  0.00000000000E+00  0.77552976379E+03  0.77552976379E+03  0.00000000000E+00 0.  1.
         21   -1    0    0  501  502 -0.00000000000E+00 -0.00000000000E+00 -0.71842524036E+03  0.71842524036E+03  0.00000000000E+00 0. -1.
         25    1    1    2    0    0 -0.41362102873E+03  0.57929209534E+03 -0.15832870672E+03  0.73983421556E+03  0.12500000000E+03 0.  0.
         25    1    1    2    0    0  0.41362102873E+03 -0.57929209534E+03  0.21543323016E+03  0.75412078859E+03  0.12500000000E+03 0.  0.
</event>
<event>
 4    0  0.2179527E-002  0.2026943E+03  0.7546771E-02  0.1147486E+00
         21   -1    0    0  502  501  0.00000000000E+00  0.00000000000E+00  0.16070673147E+02  0.16070673147E+02  0.00000000000E+00 0. -1.
         21   -1    0    0  501  502 -0.00000000000E+00 -0.00000000000E+00 -0.25565182836E+04  0.25565182836E+04  0.00000000000E+00 0. -1.
         25    1    1    2    0    0 -0.69755048462E+02 -0.90617831600E+02 -0.19763869442E+04  0.19836349743E+04  0.12500000000E+03 0.  0.
         25    1    1    2    0    0  0.69755048462E+02  0.90617831600E+02 -0.56406066627E+03  0.58895398243E+03  0.12500000000E+03 0.  0.
</event>
<event>
 4    0  0.2179527E-002  0.1821717E+03  0.7546771E-02  0.1165718E+00
         21   -1    0    0  502  501  0.00000000000E+00  0.00000000000E+00  0.82831764194E+02  0.82831764194E+02  0.00000000000E+00 0.  1.
         21   -1    0    0  501  502 -0.00000000000E+00 -0.00000000000E+00 -0.40064962995E+03  0.40064962995E+03  0.00000000000E+00 0.  1.
         25    1    1    2    0    0  0.11824331335E+03  0.59454759793E+02 -0.16782708831E+03  0.24760307184E+03  0.12500000000E+03 0.  0.
         25    1    1    2    0    0 -0.11824331335E+03 -0.59454759793E+02 -0.14999077745E+03  0.23587832230E+03  0.12500000000E+03 0.  0.
</event>
<event>
 4    0  0.2179527E-002  0.3202255E+03  0.7546771E-02  0.1075546E+00
         21   -1    0    0  502  501  0.00000000000E+00  0.00000000000E+00  0.23698127755E+03  0.23698127755E+03  0.00000000000E+00 0. -1.
         21   -1    0    0  501  502 -0.00000000000E+00 -0.00000000000E+00 -0.43271083619E+03  0.43271083619E+03  0.00000000000E+00 0. -1.
         25    1    1    2    0    0  0.14242640454E+03 -0.15511983031E+03 -0.31361483969E+03  0.39790289034E+03  0.12500000000E+03 0.  0.
         25    1    1    2    0    0 -0.14242640454E+03  0.15511983031E+03  0.11788528106E+03  0.27178922340E+03  0.12500000000E+03 0.  0.
</event>
<event>
 4    0  0.2179527E-002  0.1681105E+03  0.7546771E-02  0.1179833E+00
         21   -1    0    0  502  501  0.00000000000E+00  0.00000000000E+00  0.10748275555E+04  0.10748275555E+04  0.00000000000E+00 0.  1.
         21   -1    0    0  501  502 -0.00000000000E+00 -0.00000000000E+00 -0.26293653056E+02  0.26293653056E+02  0.00000000000E+00 0.  1.
         25    1    1    2    0    0  0.14544646962E+02  0.10899109012E+03  0.44777373563E+03  0.47772054886E+03  0.12500000000E+03 0.  0.
         25    1    1    2    0    0 -0.14544646962E+02 -0.10899109012E+03  0.60076016679E+03  0.62340065968E+03  0.12500000000E+03 0.  0.
</event>
<event>
 4    0  0.2179527E-002  0.2783615E+03  0.7546771E-02  0.1096587E+00
         21   -1    0    0  502  501  0.00000000000E+00  0.00000000000E+00  0.16534732409E+03  0.16534732409E+03  0.00000000000E+00 0.  1.
         21   -1    0    0  501  502 -0.00000000000E+00 -0.00000000000E+00 -0.46862034432E+03  0.46862034432E+03  0.00000000000E+00 0.  1.
         25    1    1    2    0    0  0.12682795932E+03 -0.21317238918E+03 -0.17239553577E+03  0.32691439174E+03  0.12500000000E+03 0.  0.
         25    1    1    2    0    0 -0.12682795932E+03  0.21317238918E+03 -0.13087748447E+03  0.30705327667E+03  0.12500000000E+03 0.  0.
</event>
<event>
 4    0  0.2179527E-002  0.2052857E+03  0.7546771E-02  0.1145355E+00
         21   -1    0    0  502  501  0.00000000000E+00  0.00000000000E+00  0.43503921149E+02  0.43503921149E+02  0.00000000000E+00 0. -1.
         21   -1    0    0  501  502 -0.00000000000E+00 -0.00000000000E+00 -0.96869977158E+03  0.96869977158E+03  0.00000000000E+00 0. -1.
         25    1    1    2    0    0  0.21652998816E+02 -0.15302477893E+03 -0.33612259468E+03  0.39049818691E+03  0.12500000000E+03 0.  0.
         25    1    1    2    0    0 -0.21652998816E+02  0.15302477893E+03 -0.58907325575E+03  0.62170550582E+03  0.12500000000E+03 0.  0.
</event>
<event>
 4    0  0.2179527E-002  0.1803300E+03  0.7546771E-02  0.1167484E+00
         21   -1    0    0  502  501  0.00000000000E+00  0.00000000000E+00  0.91975219459E+02  0.91975219459E+02  0.00000000000E+00 0. -1.
         21   -1    0    0  501  502 -0.00000000000E+00 -0.00000000000E+00 -0.35356156544E+03  0.35356156544E+03  0.00000000000E+00 0. -1.
         25    1    1    2    0    0 -0.57110346293E+02 -0.84907393227E+02 -0.22979794534E+03  0.28089669411E+03  0.12500000000E+03 0.  0.
         25    1    1    2    0    0  0.57110346293E+02  0.84907393227E+02 -0.31788400632E+02  0.16464009078E+03  0.12500000000E+03 0.  0.
</event>
<event>
 4    0  0.2179527E-002  0.2447234E+03  0.7546771E-02  0.1116686E+00
         21   -1    0    0  502  501  0.00000000000E+00  0.00000000000E+00  0.14472240489E+03  0.14472240489E+03  0.00000000000E+00 0. -1.
         21   -1    0    0  501  502 -0.00000000000E+00 -0.00000000000E+00 -0.41382340578E+03  0.41382340578E+03  0.00000000000E+00 0. -1.
         25    1    1    2    0    0 -0.10312421150E+03 -0.33361798709E+01 -0.34379035132E+03  0.38008227893E+03  0.12500000000E+03 0.  0.
         25    1    1    2    0    0  0.10312421150E+03  0.33361798709E+01  0.74689350435E+02  0.17846353175E+03  0.12500000000E+03 0.  0.
</event>
<event>
 4    0  0.2179527E-002  0.2415331E+03  0.7546771E-02  0.1118776E+00
         21   -1    0    0  502  501  0.00000000000E+00  0.00000000000E+00  0.30822625899E+03  0.30822625899E+03  0.00000000000E+00 0.  1.
         21   -1    0    0  501  502 -0.00000000000E+00 -0.00000000000E+00 -0.18927082250E+03  0.18927082250E+03  0.00000000000E+00 0.  1.
         25    1    1    2    0    0  0.19509168614E+03 -0.13497125399E+02  0.12833536610E+03  0.26521294197E+03  0.12500000000E+03 0.  0.
         25    1    1    2    0    0 -0.19509168614E+03  0.13497125399E+02 -0.93799296036E+01  0.23228413952E+03  0.12500000000E+03 0.  0.
</event>
<event>
 4    0  0.2179527E-002  0.2239467E+03  0.7546771E-02  0.1130974E+00
         21   -1    0    0  502  501  0.00000000000E+00  0.00000000000E+00  0.63069331509E+03  0.63069331509E+03  0.00000000000E+00 0.  1.
         21   -1    0    0  501  502 -0.00000000000E+00 -0.00000000000E+00 -0.79519003769E+02  0.79519003769E+02  0.00000000000E+00 0.  1.
         25    1    1    2    0    0 -0.89947190665E+02 -0.62162949357E+02  0.37353973477E+02  0.17022058840E+03  0.12500000000E+03 0.  0.
         25    1    1    2    0    0  0.89947190665E+02  0.62162949357E+02  0.51382033784E+03  0.53999173046E+03  0.12500000000E+03 0.  0.
</event>
<event>
 4    0  0.2179527E-002  0.1859915E+03  0.7546771E-02  0.1162127E+00
         21   -1    0    0  502  501  0.00000000000E+00  0.00000000000E+00  0.85164587287E+03  0.85164587287E+03  0.00000000000E+00 0.  1.
         21   -1    0    0  501  502 -0.00000000000E+00 -0.00000000000E+00 -0.40618798560E+02  0.40618798560E+02  0.00000000000E+00 0.  1.
         25    1    1    2    0    0  0.81774376471E+02  0.67578875988E+02  0.61618565160E+03  0.63762348636E+03  0.12500000000E+03 0.  0.
         25    1    1    2    0    0 -0.81774376471E+02 -0.67578875988E+02  0.19484142271E+03  0.25464118506E+03  0.12500000000E+03 0.  0.
</event>
<event>
 4    0  0.2179527E-002  0.3035036E+03  0.7546771E-02  0.1083502E+00
         21   -1    0    0  502  501  0.00000000000E+00  0.00000000000E+00  0.16789685916E+04  0.16789685916E+04  0.00000000000E+00 0.  1.
         21   -1    0    0  501  502 -0.00000000000E+00 -0.00000000000E+00 -0.54863712591E+02  0.54863712591E+02  0.00000000000E+00 0.  1.
         25    1    1    2    0    0 -0.10023252174E+03 -0.51145309608E+02  0.15336841278E+04  0.15428786099E+04  0.12500000000E+03 0.  0.
         25    1    1    2    0    0  0.10023252174E+03  0.51145309608E+02  0.90420751237E+02  0.19095369429E+03  0.12500000000E+03 0.  0.
</event>
<event>
 4    0  0.2179527E-002  0.3235717E+03  0.7546771E-02  0.1074017E+00
         21   -1    0    0  502  501  0.00000000000E+00  0.00000000000E+00  0.18494260691E+03  0.18494260691E+03  0.00000000000E+00 0.  1.
         21   -1    0    0  501  502 -0.00000000000E+00 -0.00000000000E+00 -0.56611433616E+03  0.56611433616E+03  0.00000000000E+00 0.  1.
         25    1    1    2    0    0 -0.23960091845E+03  0.17719513140E+03 -0.17162385520E+03  0.36590499093E+03  0.12500000000E+03 0.  0.
         25    1    1    2    0    0  0.23960091845E+03 -0.17719513140E+03 -0.20954787406E+03  0.38515195214E+03  0.12500000000E+03 0.  0.
</event>
<event>
 4    0  0.2179527E-002  0.2311257E+03  0.7546771E-02  0.1125850E+00
         21   -1    0    0  502  501  0.00000000000E+00  0.00000000000E+00  0.59330643030E+03  0.59330643030E+03  0.00000000000E+00 0. -1.
         21   -1    0    0  501  502 -0.00000000000E+00 -0.00000000000E+00 -0.90036250333E+02  0.90036250333E+02  0.00000000000E+00 0. -1.
         25    1    1    2    0    0 -0.18467513623E+03 -0.74372229148E+01  0.16252130278E+03  0.27604056238E+03  0.12500000000E+03 0.  0.
         25    1    1    2    0    0  0.18467513623E+03  0.74372229148E+01  0.34074887719E+03  0.40730211825E+03  0.12500000000E+03 0.  0.
</event>
<event>
 4    0  0.2179527E-002  0.2255924E+03  0.7546771E-02  0.1129781E+00
         21   -1    0    0  502  501  0.00000000000E+00  0.00000000000E+00  0.59309279222E+02  0.59309279222E+02  0.00000000000E+00 0. -1.
         21   -1    0    0  501  502 -0.00000000000E+00 -0.00000000000E+00 -0.85807741757E+03  0.85807741757E+03  0.00000000000E+00 0. -1.
         25    1    1    2    0    0 -0.42570820371E+02 -0.92162970662E+02 -0.72062136469E+03  0.73839450104E+03  0.12500000000E+03 0.  0.
         25    1    1    2    0    0  0.42570820371E+02  0.92162970662E+02 -0.78146773653E+02  0.17899219575E+03  0.12500000000E+03 0.  0.
</event>
<event>
 4    0  0.2179527E-002  0.3367352E+03  0.7546771E-02  0.1068195E+00
         21   -1    0    0  502  501  0.00000000000E+00  0.00000000000E+00  0.91128903714E+02  0.91128903714E+02  0.00000000000E+00 0.  1.
         21   -1    0    0  501  502 -0.00000000000E+00 -0.00000000000E+00 -0.12442881091E+04  0.12442881091E+04  0.00000000000E+00 0.  1.
         25    1    1    2    0    0  0.22630631750E+03  0.18818352099E+03 -0.78584741908E+03  0.84841543655E+03  0.12500000000E+03 0.  0.
         25    1    1    2    0    0 -0.22630631750E+03 -0.18818352099E+03 -0.36731178629E+03  0.48700157624E+03  0.12500000000E+03 0.  0.
</event>
<event>
 4    0  0.2179527E-002  0.2697732E+03  0.7546771E-02  0.1101409E+00
         21   -1    0    0  502  501  0.00000000000E+00  0.00000000000E+00  0.46004658973E+02  0.46004658973E+02  0.00000000000E+00 0.  1.
         21   -1    0    0  501  502 -0.00000000000E+00 -0.00000000000E+00 -0.15819615542E+04  0.15819615542E+04  0.00000000000E+00 0.  1.
         25    1    1    2    0    0  0.11071908059E+03  0.18247167117E+03 -0.10929217788E+04  0.11205613059E+04  0.12500000000E+03 0.  0.
         25    1    1    2    0    0 -0.11071908059E+03 -0.18247167117E+03 -0.44303511639E+03  0.50740490729E+03  0.12500000000E+03 0.  0.
</event>
<event>
 4    0  0.2179527E-002  0.3020013E+03  0.7546771E-02  0.1084244E+00
         21   -1    0    0  502  501  0.00000000000E+00  0.00000000000E+00  0.70180823458E+02  0.70180823458E+02  0.00000000000E+00 0.  1.
         21   -1    0    0  501  502 -0.00000000000E+00 -0.00000000000E+00 -0.12995686382E+04  0.12995686382E+04  0.00000000000E+00 0.  1.
         25    1    1    2    0    0  0.19485016117E+03  0.12096162197E+03 -0.95848250427E+03  0.99343445194E+03  0.12500000000E+03 0.  0.
         25    1    1    2    0    0 -0.19485016117E+03 -0.12096162197E+03 -0.27090531046E+03  0.37631500971E+03  0.12500000000E+03 0.  0.
</event>
<event>
 4    0  0.2179527E-002  0.2083587E+03  0.7546771E-02  0.1142872E+00
         21   -1    0    0  502  501  0.00000000000E+00  0.00000000000E+00  0.10531377204E+03  0.10531377204E+03  0.00000000000E+00 0.  1.
         21   -1    0    0  501  502 -0.00000000000E+00 -0.00000000000E+00 -0.41222856184E+03  0.41222856184E+03  0.00000000000E+00 0.  1.
         25    1    1    2    0    0 -0.10997027468E+03  0.10216445858E+03 -0.24350785265E+03  0.31217320867E+03  0.12500000000E+03 0.  0.
         25    1    1    2    0    0  0.10997027468E+03 -0.10216445858E+03 -0.63406937143E+02  0.20536912521E+03  0.12500000000E+03 0.  0.
</event>
<event>
 4    0  0.2179527E-002  0.2628418E+03  0.7546771E-02  0.1105448E+00
         21   -1    0    0  502  501  0.00000000000E+00  0.00000000000E+00  0.25080838556E+03  0.25080838556E+03  0.00000000000E+00 0. -1.
         21   -1    0    0  501  502 -0.00000000000E+00 -0.00000000000E+00 -0.27545256529E+03  0.27545256529E+03  0.00000000000E+00 0. -1.
         25    1    1    2    0    0 -0.19163176411E+03 -0.12716634539E+03  0.11511635668E+02  0.26201437016E+03  0.12500000000E+03 0.  0.
         25    1    1    2    0    0  0.19163176411E+03  0.12716634539E+03 -0.36155815400E+02  0.26424658068E+03  0.12500000000E+03 0.  0.
</event>
<event>
 4    0  0.2179527E-002  0.1589599E+03  0.7546771E-02  0.1189876E+00
         21   -1    0    0  502  501  0.00000000000E+00  0.00000000000E+00  0.87145489254E+03  0.87145489254E+03  0.00000000000E+00 0.  1.
         21   -1    0    0  501  502 -0.00000000000E+00 -0.00000000000E+00 -0.28995465122E+02  0.28995465122E+02  0.00000000000E+00 0.  1.
         25    1    1    2    0    0 -0.13347115426E+02 -0.18320998817E+02  0.69185242723E+03  0.70341921039E+03  0.12500000000E+03 0.  0.
         25    1    1    2    0    0  0.13347115426E+02  0.18320998817E+02  0.15060700019E+03  0.19703114727E+03  0.12500000000E+03 0.  0.
</event>
<event>
 4    0  0.2179527E-002  0.2670163E+03  0.7546771E-02  0.1102999E+00
         21   -1    0    0  502  501  0.00000000000E+00  0.00000000000E+00  0.89914664739E+02  0.89914664739E+02  0.00000000000E+00 0. -1.
         21   -1    0    0  501  502 -0.00000000000E+00 -0.00000000000E+00 -0.79294882069E+03  0.79294882069E+03  0.00000000000E+00 0. -1.
         25    1    1    2    0    0 -0.69555539532E+02 -0.22344205978E+03 -0.40134403081E+03  0.48110950752E+03  0.12500000000E+03 0.  0.
         25    1    1    2    0    0  0.69555539532E+02  0.22344205978E+03 -0.30169012514E+03  0.40175397791E+03  0.12500000000E+03 0.  0.
</event>
<event>
 4    0  0.2179527E-002  0.2371466E+03  0.7546771E-02  0.1121708E+00
         21   -1    0    0  502  501  0.00000000000E+00  0.00000000000E+00  0.14196057089E+03  0.14196057089E+03  0.00000000000E+00 0. -1.
         21   -1    0    0  501  502 -0.00000000000E+00 -0.00000000000E+00 -0.39615592344E+03  0.39615592344E+03  0.00000000000E+00 0. -1.
         25    1    1    2    0    0  0.73870844825E+02  0.18674472144E+03 -0.14618496899E+03  0.27807469835E+03  0.12500000000E+03 0.  0.
         25    1    1    2    0    0 -0.73870844825E+02 -0.18674472144E+03 -0.10801038356E+03  0.26004179598E+03  0.12500000000E+03 0.  0.
</event>
<event>
 4    0  0.2179527E-002  0.2059390E+03  0.7546771E-02  0.1144823E+00
         21   -1    0    0  502  501  0.00000000000E+00  0.00000000000E+00  0.48881890096E+03  0.48881890096E+03  0.00000000000E+00 0.  1.
         21   -1    0    0  501  502 -0.00000000000E+00 -0.00000000000E+00 -0.86761956644E+02  0.86761956644E+02  0.00000000000E+00 0.  1.
         25    1    1    2    0    0 -0.53924470432E+02  0.12856203368E+02  0.41622173900E+03  0.43810805344E+03  0.12500000000E+03 0.  0.
         25    1    1    2    0    0  0.53924470432E+02 -0.12856203368E+02 -0.14164794680E+02  0.13747280416E+03  0.12500000000E+03 0.  0.
</event>
<event>
 4    0  0.2179527E-002  0.3012876E+03  0.7546771E-02  0.1084599E+00
         21   -1    0    0  502  501  0.00000000000E+00  0.00000000000E+00  0.10849864857E+04  0.10849864857E+04  0.00000000000E+00 0. -1.
         21   -1    0    0  501  502 -0.00000000000E+00 -0.00000000000E+00 -0.83663922489E+02  0.83663922489E+02  0.00000000000E+00 0. -1.
         25    1    1    2    0    0 -0.18445926108E+03  0.20192443499E+03  0.46435053362E+03  0.55321344390E+03  0.12500000000E+03 0.  0.
         25    1    1    2    0    0  0.18445926108E+03 -0.20192443499E+03  0.53697202961E+03  0.61543696430E+03  0.12500000000E+03 0.  0.
</event>
<event>
 4    0  0.2179527E-002  0.2782505E+03  0.7546771E-02  0.1096648E+00
         21   -1    0    0  502  501  0.00000000000E+00  0.00000000000E+00  0.33909337460E+03  0.33909337460E+03  0.00000000000E+00 0. -1.
         21   -1    0    0  501  502 -0.00000000000E+00 -0.00000000000E+00 -0.22832459207E+03  0.22832459207E+03  0.00000000000E+00 0. -1.
         25    1    1    2    0    0  0.23526380897E+03  0.43639630177E+02 -0.13353826373E+02  0.27029021775E+03  0.12500000000E+03 0.  0.
         25    1    1    2    0    0 -0.23526380897E+03 -0.43639630177E+02  0.12412260890E+03  0.29712774891E+03  0.12500000000E+03 0.  0.
</event>
<event>
 4    0  0.2179527E-002  0.2050126E+03  0.7546771E-02  0.1145577E+00
         21   -1    0    0  502  501  0.00000000000E+00  0.00000000000E+00  0.61324834317E+02  0.61324834317E+02  0.00000000000E+00 0. -1.
         21   -1    0    0  501  502 -0.00000000000E+00 -0.00000000000E+00 -0.68536958935E+03  0.68536958935E+03  0.00000000000E+00 0. -1.
         25    1    1    2    0    0 -0.10182897575E+03 -0.11530676052E+03 -0.21669047293E+03  0.29367422492E+03  0.12500000000E+03 0.  0.
         25    1    1    2    0    0  0.10182897575E+03  0.11530676052E+03 -0.40735428210E+03  0.45302019875E+03  0.12500000000E+03 0.  0.
</event>
<event>
 4    0  0.2179527E-002  0.2134755E+03  0.7546771E-02  0.1138843E+00
         21   -1    0    0  502  501  0.00000000000E+00  0.00000000000E+00  0.33460223580E+02  0.33460223580E+02  0.00000000000E+00 0.  1.
         21   -1    0    0  501  502 -0.00000000000E+00 -0.00000000000E+00 -0.13619692215E+04  0.13619692215E+04  0.00000000000E+00 0.  1.
         25    1    1    2    0    0 -0.63096618900E+01 -0.11862918302E+03 -0.10755240052E+04  0.10892610250E+04  0.12500000000E+03 0.  0.
         25    1    1    2    0    0  0.63096618900E+01  0.11862918302E+03 -0.25298499278E+03  0.30616842010E+03  0.12500000000E+03 0.  0.
</event>
<event>
 4    0  0.2179527E-002  0.1854991E+03  0.7546771E-02  0.1162585E+00
         21   -1    0    0  502  501  0.00000000000E+00  0.00000000000E+00  0.22853502483E+03  0.22853502483E+03  0.00000000000E+00 0. -1.
         21   -1    0    0  501  502 -0.00000000000E+00 -0.00000000000E+00 -0.15056728948E+03  0.15056728948E+03  0.00000000000E+00 0. -1.
         25    1    1    2    0    0 -0.10702967321E+01  0.13691590099E+03  0.32702245451E+02  0.18825925299E+03  0.12500000000E+03 0.  0.
         25    1    1    2    0    0  0.10702967321E+01 -0.13691590099E+03  0.45265489890E+02  0.19084306132E+03  0.12500000000E+03 0.  0.
</event>
<event>
 4    0  0.2179527E-002  0.2270410E+03  0.7546771E-02  0.1128740E+00
         21   -1    0    0  502  501  0.00000000000E+00  0.00000000000E+00  0.32166333985E+02  0.32166333985E+02  0.00000000000E+00 0.  1.
         21   -1    0    0  501  502 -0.00000000000E+00 -0.00000000000E+00 -0.16025329693E+04  0.16025329693E+04  0.00000000000E+00 0.  1.
         25    1    1    2    0    0 -0.46083192630E+02  0.10053846675E+03 -0.13392920618E+04  0.13496517591E+04  0.12500000000E+03 0.  0.
         25    1    1    2    0    0  0.46083192630E+02 -0.10053846675E+03 -0.23107457350E+03  0.28504754421E+03  0.12500000000E+03 0.  0.
</event>
<event>
 4    0  0.2179527E-002  0.2286199E+03  0.7546771E-02  0.1127615E+00
         21   -1    0    0  502  501  0.00000000000E+00  0.00000000000E+00  0.15599549956E+03  0.15599549956E+03  0.00000000000E+00 0. -1.
         21   -1    0    0  501  502 -0.00000000000E+00 -0.00000000000E+00 -0.33505496188E+03  0.33505496188E+03  0.00000000000E+00 0. -1.
         25    1    1    2    0    0 -0.35166150144E+02 -0.13111604504E+03  0.55409055858E+02  0.19267391846E+03  0.12500000000E+03 0.  0.
         25    1    1    2    0    0  0.35166150144E+02  0.13111604504E+03 -0.23446851817E+03  0.29837654298E+03  0.12500000000E+03 0.  0.
</event>
<event>
 4    0  0.2179527E-002  0.2979499E+03  0.7546771E-02  0.1086270E+00
         21   -1    0    0  502  501  0.00000000000E+00  0.00000000000E+00  0.14679336191E+03  0.14679336191E+03  0.00000000000E+00 0.  1.
         21   -1    0    0  501  502 -0.00000000000E+00 -0.00000000000E+00 -0.60475576771E+03  0.60475576771E+03  0.00000000000E+00 0.  1.
         25    1    1    2    0    0 -0.22403674783E+03  0.12145542491E+03 -0.11473809498E+03  0.30615962350E+03  0.12500000000E+03 0.  0.
         25    1    1    2    0    0  0.22403674783E+03 -0.12145542491E+03 -0.34322431083E+03  0.44538950612E+03  0.12500000000E+03 0.  0.
</event>
<event>
 4    0  0.2179527E-002  0.2898091E+03  0.7546771E-02  0.1090449E+00
         21   -1    0    0  502  501  0.00000000000E+00  0.00000000000E+00  0.18811482636E+03  0.18811482636E+03  0.00000000000E+00 0. -1.
         21   -1    0    0  501  502 -0.00000000000E+00 -0.00000000000E+00 -0.44647885157E+03  0.44647885157E+03  0.00000000000E+00 0. -1.
         25    1    1    2    0    0  0.15897990626E+03 -0.19648545662E+03 -0.55875046536E+02  0.28745115425E+03  0.12500000000E+03 0.  0.
         25    1    1    2    0    0 -0.15897990626E+03  0.19648545662E+03 -0.20248897868E+03  0.34714252367E+03  0.12500000000E+03 0.  0.
</event>
<event>
 4    0  0.2179527E-002  0.1614557E+03  0.7546771E-02  0.1187063E+00
         21   -1    0    0  502  501  0.00000000000E+00  0.00000000000E+00  0.54869484499E+03  0.54869484499E+03  0.00000000000E+00 0.  1.
         21   -1    0    0  501  502 -0.00000000000E+00 -0.00000000000E+00 -0.47508992089E+02  0.47508992089E+02  0.00000000000E+00 0.  1.
         25    1    1    2    0    0  0.55517521183E+02 -0.82500532746E+02  0.29406650379E+03  0.33464704049E+03  0.12500000000E+03 0.  0.
         25    1    1    2    0    0 -0.55517521183E+02  0.82500532746E+02  0.20711934911E+03  0.26155679658E+03  0.12500000000E+03 0.  0.
</event>
<event>
 4    0  0.2179527E-002  0.1669816E+03  0.7546771E-02  0.1181033E+00
         21   -1    0    0  502  501  0.00000000000E+00  0.00000000000E+00  0.13605209719E+03  0.13605209719E+03  0.00000000000E+00 0. -1.
         21   -1    0    0  501  502 -0.00000000000E+00 -0.00000000000E+00 -0.20494257032E+03  0.20494257032E+03  0.00000000000E+00 0. -1.
         25    1    1    2    0    0  0.94296449088E+02 -0.10646434578E+02 -0.92678464125E+02  0.18226207667E+03  0.12500000000E+03 0.  0.
         25    1    1    2    0    0 -0.94296449088E+02  0.10646434578E+02  0.23787990992E+02  0.15873259084E+03  0.12500000000E+03 0.  0.
</event>
<event>
 4    0  0.2179527E-002  0.4694742E+03  0.7546771E-02  0.1022069E+00
         21   -1    0    0  502  501  0.00000000000E+00  0.00000000000E+00  0.19323673152E+03  0.19323673152E+03  0.00000000000E+00 0. -1.
         21   -1    0    0  501  502 -0.00000000000E+00 -0.00000000000E+00 -0.11406013075E+04  0.11406013075E+04  0.00000000000E+00 0. -1.
         25    1    1    2    0    0  0.35673781928E+03 -0.26070294506E+03 -0.61252884444E+03  0.76553542214E+03  0.12500000000E+03 0.  0.
         25    1    1    2    0    0 -0.35673781928E+03  0.26070294506E+03 -0.33483573158E+03  0.56830261693E+03  0.12500000000E+03 0.  0.
</event>
<event>
 4    0  0.2179527E-002  0.2214080E+03  0.7546771E-02  0.1132838E+00
         21   -1    0    0  502  501  0.00000000000E+00  0.00000000000E+00  0.56919589660E+03  0.56919589660E+03  0.00000000000E+00 0. -1.
         21   -1    0    0  501  502 -0.00000000000E+00 -0.00000000000E+00 -0.86124157449E+02  0.86124157449E+02  0.00000000000E+00 0. -1.
         25    1    1    2    0    0 -0.58607270344E+02  0.32924206716E+02 -0.99487334097E+01  0.14227716901E+03  0.12500000000E+03 0.  0.
         25    1    1    2    0    0  0.58607270344E+02 -0.32924206716E+02  0.49302047256E+03  0.51304288504E+03  0.12500000000E+03 0.  0.
</event>
<event>
 4    0  0.2179527E-002  0.1727997E+03  0.7546771E-02  0.1174959E+00
         21   -1    0    0  502  501  0.00000000000E+00  0.00000000000E+00  0.67337284526E+03  0.67337284526E+03  0.00000000000E+00 0. -1.
         21   -1    0    0  501  502 -0.00000000000E+00 -0.00000000000E+00 -0.44343534906E+02  0.44343534906E+02  0.00000000000E+00 0. -1.
         25    1    1    2    0    0 -0.32240348841E+02  0.17882631528E+02  0.78867597686E+02  0.15232966411E+03  0.12500000000E+03 0.  0.
         25    1    1    2    0    0  0.32240348841E+02 -0.17882631528E+02  0.55016171267E+03  0.56538671605E+03  0.12500000000E+03 0.  0.
</event>
<event>
 4    0  0.2179527E-002  0.1746069E+03  0.7546771E-02  0.1173127E+00
         21   -1    0    0  502  501  0.00000000000E+00  0.00000000000E+00  0.83768369269E+02  0.83768369269E+02  0.00000000000E+00 0.  1.
         21   -1    0    0  501  502 -0.00000000000E+00 -0.00000000000E+00 -0.36395098832E+03  0.36395098832E+03  0.00000000000E+00 0.  1.
         25    1    1    2    0    0  0.10938853287E+03 -0.39353479197E+02 -0.93019086320E+02  0.19440189780E+03  0.12500000000E+03 0.  0.
         25    1    1    2    0    0 -0.10938853287E+03  0.39353479197E+02 -0.18716353273E+03  0.25331745979E+03  0.12500000000E+03 0.  0.
</event>
<event>
 4    0  0.2179527E-002  0.1725055E+03  0.7546771E-02  0.1175260E+00
         21   -1    0    0  502  501  0.00000000000E+00  0.00000000000E+00  0.20440064696E+03  0.20440064696E+03  0.00000000000E+00 0. -1.
         21   -1    0    0  501  502 -0.00000000000E+00 -0.00000000000E+00 -0.14558731273E+03  0.14558731273E+03  0.00000000000E+00 0. -1.
         25    1    1    2    0    0 -0.95240033991E+01 -0.78371724895E+02 -0.60759206427E+02  0.15984215673E+03  0.12500000000E+03 0.  0.
         25    1    1    2    0    0  0.95240033991E+01  0.78371724895E+02  0.11957254066E+03  0.19014580296E+03  0.12500000000E+03 0.  0.
</event>
<event>
 4    0  0.2179527E-002  0.2510122E+03  0.7546771E-02  0.1112667E+00
         21   -1    0    0  502  501  0.00000000000E+00  0.00000000000E+00  0.13552329574E+04  0.13552329574E+04  0.00000000000E+00 0.  1.
         21   -1    0    0  501  502 -0.00000000000E+00 -0.00000000000E+00 -0.46491742109E+02  0.46491742109E+02  0.00000000000E+00 0.  1.
         25    1    1    2    0    0  0.12515773165E+03 -0.17006235671E+03  0.50671717040E+03  0.56300351131E+03  0.12500000000E+03 0.  0.
         25    1    1    2    0    0 -0.12515773165E+03  0.17006235671E+03  0.80202404486E+03  0.83872118817E+03  0.12500000000E+03 0.  0.
</event>
<event>
 4    0  0.2179527E-002  0.2132723E+03  0.7546771E-02  0.1139001E+00
         21   -1    0    0  502  501  0.00000000000E+00  0.00000000000E+00  0.33425756822E+02  0.33425756822E+02  0.00000000000E+00 0.  1.
         21   -1    0    0  501  502 -0.00000000000E+00 -0.00000000000E+00 -0.13607787326E+04  0.13607787326E+04  0.00000000000E+00 0.  1.
         25    1    1    2    0    0  0.87183972046E+02 -0.33148967938E+02 -0.18820818163E+03  0.24443244198E+03  0.12500000000E+03 0.  0.
         25    1    1    2    0    0 -0.87183972046E+02  0.33148967938E+02 -0.11391447942E+04  0.11497720475E+04  0.12500000000E+03 0.  0.
</event>
<event>
 4    0  0.2179527E-002  0.1968389E+03  0.7546771E-02  0.1152434E+00
         21   -1    0    0  502  501  0.00000000000E+00  0.00000000000E+00  0.79469949976E+02  0.79469949976E+02  0.00000000000E+00 0. -1.
         21   -1    0    0  501  502 -0.00000000000E+00 -0.00000000000E+00 -0.48754991718E+03  0.48754991718E+03  0.00000000000E+00 0. -1.
         25    1    1    2    0    0 -0.43483705733E+02  0.10144964356E+03 -0.35467306617E+03  0.39191943906E+03  0.12500000000E+03 0.  0.
         25    1    1    2    0    0  0.43483705733E+02 -0.10144964356E+03 -0.53406901027E+02  0.17510042810E+03  0.12500000000E+03 0.  0.
</event>
<event>
 4    0  0.2179527E-002  0.1992565E+03  0.7546771E-02  0.1150368E+00
         21   -1    0    0  502  501  0.00000000000E+00  0.00000000000E+00  0.41568692623E+03  0.41568692623E+03  0.00000000000E+00 0.  1.
         21   -1    0    0  501  502 -0.00000000000E+00 -0.00000000000E+00 -0.95512143479E+02  0.95512143479E+02  0.00000000000E+00 0.  1.
         25    1    1    2    0    0 -0.19075518504E+02  0.95236276999E+02  0.31531975378E+03  0.35282484463E+03  0.12500000000E+03 0.  0.
         25    1    1    2    0    0  0.19075518504E+02 -0.95236276999E+02  0.48550289681E+01  0.15837422508E+03  0.12500000000E+03 0.  0.
</event>
<event>
 4    0  0.2179527E-002  0.1707329E+03  0.7546771E-02  0.1177086E+00
         21   -1    0    0  502  501  0.00000000000E+00  0.00000000000E+00  0.26686105759E+04  0.26686105759E+04  0.00000000000E+00 0. -1.
         21   -1    0    0  501  502 -0.00000000000E+00 -0.00000000000E+00 -0.10923179781E+02  0.10923179781E+02  0.00000000000E+00 0. -1.
         25    1    1    2    0    0  0.42153456158E+02 -0.10082227982E+03  0.16410249970E+04  0.16494029486E+04  0.12500000000E+03 0.  0.
         25    1    1    2    0    0 -0.42153456158E+02  0.10082227982E+03  0.10166623991E+04  0.10301308071E+04  0.12500000000E+03 0.  0.
</event>
<event>
 4    0  0.2179527E-002  0.2931504E+03  0.7546771E-02  0.1088716E+00
         21   -1    0    0  502  501  0.00000000000E+00  0.00000000000E+00  0.92858504453E+02  0.92858504453E+02  0.00000000000E+00 0.  1.
         21   -1    0    0  501  502 -0.00000000000E+00 -0.00000000000E+00 -0.92546328490E+03  0.92546328490E+03  0.00000000000E+00 0.  1.
         25    1    1    2    0    0  0.18222102923E+03 -0.11924504484E+03 -0.15353533258E+03  0.29431612692E+03  0.12500000000E+03 0.  0.
         25    1    1    2    0    0 -0.18222102923E+03  0.11924504484E+03 -0.67906944787E+03  0.72400566244E+03  0.12500000000E+03 0.  0.
</event>
<event>
 4    0  0.2179527E-002  0.1775549E+03  0.7546771E-02  0.1170191E+00
         21   -1    0    0  502  501  0.00000000000E+00  0.00000000000E+00  0.70112152561E+02  0.70112152561E+02  0.00000000000E+00 0. -1.
         21   -1    0    0  501  502 -0.00000000000E+00 -0.00000000000E+00 -0.44964735599E+03  0.44964735599E+03  0.00000000000E+00 0. -1.
         25    1    1    2    0    0  0.11658282334E+03  0.34822427441E+02 -0.23823631539E+03  0.29527224407E+03  0.12500000000E+03 0.  0.
         25    1    1    2    0    0 -0.11658282334E+03 -0.34822427441E+02 -0.14129888804E+03  0.22448726448E+03  0.12500000000E+03 0.  0.
</event>
<event>
 4    0  0.2179527E-002  0.2700719E+03  0.7546771E-02  0.1101238E+00
         21   -1    0    0  502  501  0.00000000000E+00  0.00000000000E+00  0.54929255828E+03  0.54929255828E+03  0.00000000000E+00 0.  1.
         21   -1    0    0  501  502 -0.00000000000E+00 -0.00000000000E+00 -0.13278682326E+03  0.13278682326E+03  0.00000000000E+00 0.  1.
         25    1    1    2    0    0 -0.19446163548E+03 -0.12752474680E+02  0.38384592075E+03  0.44826403398E+03  0.12500000000E+03 0.  0.
         25    1    1    2    0    0  0.19446163548E+03  0.12752474680E+02  0.32659814270E+02  0.23381534756E+03  0.12500000000E+03 0.  0.
</event>
<event>
 4    0  0.2179527E-002  0.2097168E+03  0.7546771E-02  0.1141790E+00
         21   -1    0    0  502  501  0.00000000000E+00  0.00000000000E+00  0.11074611074E+04  0.11074611074E+04  0.00000000000E+00 0.  1.
         21   -1    0    0  501  502 -0.00000000000E+00 -0.00000000000E+00 -0.39713487436E+02  0.39713487436E+02  0.00000000000E+00 0.  1.
         25    1    1    2    0    0 -0.96670046619E+02 -0.13496774057E+02  0.15857383414E+03  0.22427198152E+03  0.12500000000E+03 0.  0.
         25    1    1    2    0    0  0.96670046619E+02  0.13496774057E+02  0.90917378581E+03  0.92290261330E+03  0.12500000000E+03 0.  0.
</event>
<event>
 4    0  0.2179527E-002  0.2602634E+03  0.7546771E-02  0.1106985E+00
         21   -1    0    0  502  501  0.00000000000E+00  0.00000000000E+00  0.13371389503E+03  0.13371389503E+03  0.00000000000E+00 0.  1.
         21   -1    0    0  501  502 -0.00000000000E+00 -0.00000000000E+00 -0.50658170566E+03  0.50658170566E+03  0.00000000000E+00 0.  1.
         25    1    1    2    0    0  0.57933026010E+02  0.18326000152E+02 -0.45710981402E+03  0.47777239336E+03  0.12500000000E+03 0.  0.
         25    1    1    2    0    0 -0.57933026010E+02 -0.18326000152E+02  0.84242003388E+02  0.16252320732E+03  0.12500000000E+03 0.  0.
</event>
<event>
 4    0  0.2179527E-002  0.1743698E+03  0.7546771E-02  0.1173366E+00
         21   -1    0    0  502  501  0.00000000000E+00  0.00000000000E+00  0.39738846402E+03  0.39738846402E+03  0.00000000000E+00 0. -1.
         21   -1    0    0  501  502 -0.00000000000E+00 -0.00000000000E+00 -0.76511627961E+02  0.76511627961E+02  0.00000000000E+00 0. -1.
         25    1    1    2    0    0  0.58521042252E+02  0.59865906572E+02  0.40645962365E+02  0.15583880586E+03  0.12500000000E+03 0.  0.
         25    1    1    2    0    0 -0.58521042252E+02 -0.59865906572E+02  0.28023087369E+03  0.31806128612E+03  0.12500000000E+03 0.  0.
</event>
<event>
 4    0  0.2179527E-002  0.2493950E+03  0.7546771E-02  0.1113688E+00
         21   -1    0    0  502  501  0.00000000000E+00  0.00000000000E+00  0.34555551763E+02  0.34555551763E+02  0.00000000000E+00 0. -1.
         21   -1    0    0  501  502 -0.00000000000E+00 -0.00000000000E+00 -0.17999384017E+04  0.17999384017E+04  0.00000000000E+00 0. -1.
         25    1    1    2    0    0 -0.65565323492E+02 -0.99737668774E+02 -0.22142334194E+03  0.28089092291E+03  0.12500000000E+03 0.  0.
         25    1    1    2    0    0  0.65565323492E+02  0.99737668774E+02 -0.15439595080E+04  0.15536030305E+04  0.12500000000E+03 0.  0.
</event>
<event>
 4    0  0.2179527E-002  0.2200298E+03  0.7546771E-02  0.1133861E+00
         21   -1    0    0  502  501  0.00000000000E+00  0.00000000000E+00  0.29029347095E+03  0.29029347095E+03  0.00000000000E+00 0. -1.
         21   -1    0    0  501  502 -0.00000000000E+00 -0.00000000000E+00 -0.16677302717E+03  0.16677302717E+03  0.00000000000E+00 0. -1.
         25    1    1    2    0    0 -0.12378699069E+03 -0.62816993060E+02 -0.59004189603E+02  0.19589713646E+03  0.12500000000E+03 0.  0.
         25    1    1    2    0    0  0.12378699069E+03  0.62816993060E+02  0.18252463339E+03  0.26116936167E+03  0.12500000000E+03 0.  0.
</event>
<event>
 4    0  0.2179527E-002  0.1956760E+03  0.7546771E-02  0.1153439E+00
         21   -1    0    0  502  501  0.00000000000E+00  0.00000000000E+00  0.55045972145E+02  0.55045972145E+02  0.00000000000E+00 0. -1.
         21   -1    0    0  501  502 -0.00000000000E+00 -0.00000000000E+00 -0.69558432874E+03  0.69558432874E+03  0.00000000000E+00 0. -1.
         25    1    1    2    0    0  0.32454639544E+02 -0.55084482463E+01 -0.60203536048E+03  0.61575581353E+03  0.12500000000E+03 0.  0.
         25    1    1    2    0    0 -0.32454639544E+02  0.55084482463E+01 -0.38502996119E+02  0.13487448736E+03  0.12500000000E+03 0.  0.
</event>
<event>
 4    0  0.2179527E-002  0.2545155E+03  0.7546771E-02  0.1110484E+00
         21   -1    0    0  502  501  0.00000000000E+00  0.00000000000E+00  0.71390884243E+02  0.71390884243E+02  0.00000000000E+00 0.  1.
         21   -1    0    0  501  502 -0.00000000000E+00 -0.00000000000E+00 -0.90737285369E+03  0.90737285369E+03  0.00000000000E+00 0.  1.
         25    1    1    2    0    0  0.70541552961E+02 -0.88882977798E+02 -0.78421635239E+03  0.80218238686E+03  0.12500000000E+03 0.  0.
         25    1    1    2    0    0 -0.70541552961E+02  0.88882977798E+02 -0.51765617057E+02  0.17658135107E+03  0.12500000000E+03 0.  0.
</event>
<event>
 4    0  0.2179527E-002  0.2111418E+03  0.7546771E-02  0.1140665E+00
         21   -1    0    0  502  501  0.00000000000E+00  0.00000000000E+00  0.18183559924E+03  0.18183559924E+03  0.00000000000E+00 0.  1.
         21   -1    0    0  501  502 -0.00000000000E+00 -0.00000000000E+00 -0.24517129732E+03  0.24517129732E+03  0.00000000000E+00 0.  1.
         25    1    1    2    0    0 -0.23351020412E+02  0.11464623798E+03  0.93273214429E+02  0.19497159426E+03  0.12500000000E+03 0.  0.
         25    1    1    2    0    0  0.23351020412E+02 -0.11464623798E+03 -0.15660891251E+03  0.23203530230E+03  0.12500000000E+03 0.  0.
</event>
<event>
 4    0  0.2179527E-002  0.1710005E+03  0.7546771E-02  0.1176808E+00
         21   -1    0    0  502  501  0.00000000000E+00  0.00000000000E+00  0.79861162271E+03  0.79861162271E+03  0.00000000000E+00 0. -1.
         21   -1    0    0  501  502 -0.00000000000E+00 -0.00000000000E+00 -0.36615023845E+02  0.36615023845E+02  0.00000000000E+00 0. -1.
         25    1    1    2    0    0  0.10152550467E+03  0.56881747362E+02  0.36010059244E+03  0.39854786156E+03  0.12500000000E+03 0.  0.
         25    1    1    2    0    0 -0.10152550467E+03 -0.56881747362E+02  0.40189600643E+03  0.43667878499E+03  0.12500000000E+03 0.  0.
</event>
<event>
 4    0  0.2179527E-002  0.2198081E+03  0.7546771E-02  0.1134026E+00
         21   -1    0    0  502  501  0.00000000000E+00  0.00000000000E+00  0.19281313978E+03  0.19281313978E+03  0.00000000000E+00 0. -1.
         21   -1    0    0  501  502 -0.00000000000E+00 -0.00000000000E+00 -0.25058243282E+03  0.25058243282E+03  0.00000000000E+00 0. -1.
         25    1    1    2    0    0 -0.18034556967E+03  0.65339924833E+01 -0.17682038201E+02  0.22023821656E+03  0.12500000000E+03 0.  0.
         25    1    1    2    0    0  0.18034556967E+03 -0.65339924833E+01 -0.40087254845E+02  0.22315735605E+03  0.12500000000E+03 0.  0.
</event>
<event>
 4    0  0.2179527E-002  0.2600829E+03  0.7546771E-02  0.1107093E+00
         21   -1    0    0  502  501  0.00000000000E+00  0.00000000000E+00  0.40305959465E+04  0.40305959465E+04  0.00000000000E+00 0. -1.
         21   -1    0    0  501  502 -0.00000000000E+00 -0.00000000000E+00 -0.16782404836E+02  0.16782404836E+02  0.00000000000E+00 0. -1.
         25    1    1    2    0    0 -0.20580936763E+03  0.59014652914E+02  0.26184841127E+04  0.26301947216E+04  0.12500000000E+03 0.  0.
         25    1    1    2    0    0  0.20580936763E+03 -0.59014652914E+02  0.13953294289E+04  0.14171836297E+04  0.12500000000E+03 0.  0.
</event>
<event>
 4    0  0.2179527E-002  0.2163171E+03  0.7546771E-02  0.1136659E+00
         21   -1    0    0  502  501  0.00000000000E+00  0.00000000000E+00  0.29355913844E+03  0.29355913844E+03  0.00000000000E+00 0.  1.
         21   -1    0    0  501  502 -0.00000000000E+00 -0.00000000000E+00 -0.15939925367E+03  0.15939925367E+03  0.00000000000E+00 0.  1.
         25    1    1    2    0    0  0.14581657007E+03  0.99431688269E+02  0.62519296122E+02  0.22512839698E+03  0.12500000000E+03 0.  0.
         25    1    1    2    0    0 -0.14581657007E+03 -0.99431688269E+02  0.71640588649E+02  0.22782999513E+03  0.12500000000E+03 0.  0.
</event>
<event>
 4    0  0.2179527E-002  0.1832385E+03  0.7546771E-02  0.1164705E+00
         21   -1    0    0  502  501  0.00000000000E+00  0.00000000000E+00  0.40081695114E+03  0.40081695114E+03  0.00000000000E+00 0. -1.
         21   -1    0    0  501  502 -0.00000000000E+00 -0.00000000000E+00 -0.83769756067E+02  0.83769756067E+02  0.00000000000E+00 0. -1.
         25    1    1    2    0    0  0.12685646417E+03  0.19314960758E+02  0.20949089062E+03  0.27563937212E+03  0.12500000000E+03 0.  0.
         25    1    1    2    0    0 -0.12685646417E+03 -0.19314960758E+02  0.10755630445E+03  0.20894733508E+03  0.12500000000E+03 0.  0.
</event>
<event>
 4    0  0.2179527E-002  0.2930001E+03  0.7546771E-02  0.1088793E+00
         21   -1    0    0  502  501  0.00000000000E+00  0.00000000000E+00  0.91577485864E+02  0.91577485864E+02  0.00000000000E+00 0. -1.
         21   -1    0    0  501  502 -0.00000000000E+00 -0.00000000000E+00 -0.93744722634E+03  0.93744722634E+03  0.00000000000E+00 0. -1.
         25    1    1    2    0    0  0.15450513653E+03 -0.16300855549E+03 -0.17596388077E+03  0.31149946021E+03  0.12500000000E+03 0.  0.
         25    1    1    2    0    0 -0.15450513653E+03  0.16300855549E+03 -0.66990585971E+03  0.71752525200E+03  0.12500000000E+03 0.  0.
</event>
<event>
 4    0  0.2179527E-002  0.1794412E+03  0.7546771E-02  0.1168345E+00
         21   -1    0    0  502  501  0.00000000000E+00  0.00000000000E+00  0.12219912563E+03  0.12219912563E+03  0.00000000000E+00 0. -1.
         21   -1    0    0  501  502 -0.00000000000E+00 -0.00000000000E+00 -0.26349742846E+03  0.26349742846E+03  0.00000000000E+00 0. -1.
         25    1    1    2    0    0 -0.65103113710E+02  0.56046349673E+02  0.32403384491E+02  0.15509541596E+03  0.12500000000E+03 0.  0.
         25    1    1    2    0    0  0.65103113710E+02 -0.56046349673E+02 -0.17370168732E+03  0.23060113812E+03  0.12500000000E+03 0.  0.
</event>
<event>
 4    0  0.2179527E-002  0.1716051E+03  0.7546771E-02  0.1176184E+00
         21   -1    0    0  502  501  0.00000000000E+00  0.00000000000E+00  0.74890245698E+02  0.74890245698E+02  0.00000000000E+00 0. -1.
         21   -1    0    0  501  502 -0.00000000000E+00 -0.00000000000E+00 -0.39321979419E+03  0.39321979419E+03  0.00000000000E+00 0. -1.
         25    1    1    2    0    0  0.19266697237E+02  0.43528379457E+02 -0.12536491533E+02  0.13434317646E+03  0.12500000000E+03 0.  0.
         25    1    1    2    0    0 -0.19266697237E+02 -0.43528379457E+02 -0.30579305696E+03  0.33376686343E+03  0.12500000000E+03 0.  0.
</event>
<event>
 4    0  0.2179527E-002  0.2325851E+03  0.7546771E-02  0.1124833E+00
         21   -1    0    0  502  501  0.00000000000E+00  0.00000000000E+00  0.11288217985E+03  0.11288217985E+03  0.00000000000E+00 0. -1.
         21   -1    0    0  501  502 -0.00000000000E+00 -0.00000000000E+00 -0.47922374104E+03  0.47922374104E+03  0.00000000000E+00 0. -1.
         25    1    1    2    0    0  0.14755913401E+03 -0.12438165102E+03 -0.22774572039E+03  0.32363189938E+03  0.12500000000E+03 0.  0.
         25    1    1    2    0    0 -0.14755913401E+03  0.12438165102E+03 -0.13859584080E+03  0.26847402151E+03  0.12500000000E+03 0.  0.
</event>
<event>
 4    0  0.2179527E-002  0.3592472E+03  0.7546771E-02  0.1058882E+00
         21   -1    0    0  502  501  0.00000000000E+00  0.00000000000E+00  0.29079299630E+03  0.29079299630E+03  0.00000000000E+00 0.  1.
         21   -1    0    0  501  502 -0.00000000000E+00 -0.00000000000E+00 -0.44381587355E+03  0.44381587355E+03  0.00000000000E+00 0. -1.
         25    1    1    2    0    0 -0.31116932238E+03  0.33338988432E+02 -0.20378510591E+03  0.39381620679E+03  0.12500000000E+03 0.  0.
         25    1    1    2    0    0  0.31116932238E+03 -0.33338988432E+02  0.50762228666E+02  0.34079266306E+03  0.12500000000E+03 0.  0.
</event>
<event>
 4    0  0.2179527E-002  0.1872145E+03  0.7546771E-02  0.1160998E+00
         21   -1    0    0  502  501  0.00000000000E+00  0.00000000000E+00  0.65389308866E+03  0.65389308866E+03  0.00000000000E+00 0.  1.
         21   -1    0    0  501  502 -0.00000000000E+00 -0.00000000000E+00 -0.53600939609E+02  0.53600939609E+02  0.00000000000E+00 0.  1.
         25    1    1    2    0    0 -0.10155336401E+02  0.17737409152E+02  0.39647884389E+02  0.13272038757E+03  0.12500000000E+03 0.  0.
         25    1    1    2    0    0  0.10155336401E+02 -0.17737409152E+02  0.56064426467E+03  0.57477364070E+03  0.12500000000E+03 0.  0.
</event>
<event>
 4    0  0.2179527E-002  0.1993581E+03  0.7546771E-02  0.1150282E+00
         21   -1    0    0  502  501  0.00000000000E+00  0.00000000000E+00  0.25300032844E+03  0.25300032844E+03  0.00000000000E+00 0. -1.
         21   -1    0    0  501  502 -0.00000000000E+00 -0.00000000000E+00 -0.15708933901E+03  0.15708933901E+03  0.00000000000E+00 0. -1.
         25    1    1    2    0    0  0.62892887698E+02 -0.13996673671E+03  0.72563949261E+02  0.21080021215E+03  0.12500000000E+03 0.  0.
         25    1    1    2    0    0 -0.62892887698E+02  0.13996673671E+03  0.23347040171E+02  0.19928945530E+03  0.12500000000E+03 0.  0.
</event>
<event>
 4    0  0.2179527E-002  0.1969711E+03  0.7546771E-02  0.1152320E+00
         21   -1    0    0  502  501  0.00000000000E+00  0.00000000000E+00  0.91642539025E+03  0.91642539025E+03  0.00000000000E+00 0. -1.
         21   -1    0    0  501  502 -0.00000000000E+00 -0.00000000000E+00 -0.42335824649E+02  0.42335824649E+02  0.00000000000E+00 0. -1.
         25    1    1    2    0    0 -0.14057924796E+03  0.58145617583E+02  0.42389643108E+03  0.46739343393E+03  0.12500000000E+03 0.  0.
         25    1    1    2    0    0  0.14057924796E+03 -0.58145617583E+02  0.45019313452E+03  0.49136778097E+03  0.12500000000E+03 0.  0.
</event>
<event>
 4    0  0.2179527E-002  0.2218124E+03  0.7546771E-02  0.1132539E+00
         21   -1    0    0  502  501  0.00000000000E+00  0.00000000000E+00  0.18603838094E+03  0.18603838094E+03  0.00000000000E+00 0. -1.
         21   -1    0    0  501  502 -0.00000000000E+00 -0.00000000000E+00 -0.26446560094E+03  0.26446560094E+03  0.00000000000E+00 0. -1.
         25    1    1    2    0    0 -0.12759535328E+03 -0.59974709951E+02  0.79640638880E+02  0.20456092338E+03  0.12500000000E+03 0.  0.
         25    1    1    2    0    0  0.12759535328E+03  0.59974709951E+02 -0.15806785888E+03  0.24594305850E+03  0.12500000000E+03 0.  0.
</event>
<event>
 4    0  0.2179527E-002  0.1694082E+03  0.7546771E-02  0.1178466E+00
         21   -1    0    0  502  501  0.00000000000E+00  0.00000000000E+00  0.12979088998E+03  0.12979088998E+03  0.00000000000E+00 0. -1.
         21   -1    0    0  501  502 -0.00000000000E+00 -0.00000000000E+00 -0.22111835957E+03  0.22111835957E+03  0.00000000000E+00 0. -1.
         25    1    1    2    0    0  0.54952866226E+02  0.99939402668E+02 -0.54106173105E+02  0.17765184964E+03  0.12500000000E+03 0.  0.
         25    1    1    2    0    0 -0.54952866226E+02 -0.99939402668E+02 -0.37221296491E+02  0.17325739991E+03  0.12500000000E+03 0.  0.
</event>
<event>
 4    0  0.2179527E-002  0.2773958E+03  0.7546771E-02  0.1097120E+00
         21   -1    0    0  502  501  0.00000000000E+00  0.00000000000E+00  0.12530884220E+03  0.12530884220E+03  0.00000000000E+00 0.  1.
         21   -1    0    0  501  502 -0.00000000000E+00 -0.00000000000E+00 -0.61407007408E+03  0.61407007408E+03  0.00000000000E+00 0.  1.
         25    1    1    2    0    0 -0.16978491610E+03 -0.14199122805E+03 -0.96365344236E+02  0.27184500391E+03  0.12500000000E+03 0.  0.
         25    1    1    2    0    0  0.16978491610E+03  0.14199122805E+03 -0.39239588764E+03  0.46753391237E+03  0.12500000000E+03 0.  0.
</event>
<event>
 4    0  0.2179527E-002  0.1900827E+03  0.7546771E-02  0.1158387E+00
         21   -1    0    0  502  501  0.00000000000E+00  0.00000000000E+00  0.46041088249E+02  0.46041088249E+02  0.00000000000E+00 0.  1.
         21   -1    0    0  501  502 -0.00000000000E+00 -0.00000000000E+00 -0.78476508969E+03  0.78476508969E+03  0.00000000000E+00 0.  1.
         25    1    1    2    0    0 -0.13859005579E+03 -0.28678528402E+02 -0.41708028618E+03  0.45783253125E+03  0.12500000000E+03 0.  0.
         25    1    1    2    0    0  0.13859005579E+03  0.28678528402E+02 -0.32164371526E+03  0.37297364669E+03  0.12500000000E+03 0.  0.
</event>
<event>
 4    0  0.2179527E-002  0.1938053E+03  0.7546771E-02  0.1155073E+00
         21   -1    0    0  502  501  0.00000000000E+00  0.00000000000E+00  0.33495266319E+03  0.33495266319E+03  0.00000000000E+00 0. -1.
         21   -1    0    0  501  502 -0.00000000000E+00 -0.00000000000E+00 -0.11213674679E+03  0.11213674679E+03  0.00000000000E+00 0. -1.
         25    1    1    2    0    0 -0.57275732957E+02 -0.11978480365E+03  0.35713232578E+02  0.18582073015E+03  0.12500000000E+03 0.  0.
         25    1    1    2    0    0  0.57275732957E+02  0.11978480365E+03  0.18710268382E+03  0.26126867984E+03  0.12500000000E+03 0.  0.
</event>
<event>
 4    0  0.2179527E-002  0.2191205E+03  0.7546771E-02  0.1134540E+00
         21   -1    0    0  502  501  0.00000000000E+00  0.00000000000E+00  0.27494105619E+02  0.27494105619E+02  0.00000000000E+00 0. -1.
         21   -1    0    0  501  502 -0.00000000000E+00 -0.00000000000E+00 -0.17463311945E+04  0.17463311945E+04  0.00000000000E+00 0. -1.
         25    1    1    2    0    0  0.81647377145E+02  0.14878076809E+03 -0.61700799449E+03  0.65201677617E+03  0.12500000000E+03 0.  0.
         25    1    1    2    0    0 -0.81647377145E+02 -0.14878076809E+03 -0.11018290944E+04  0.11218085239E+04  0.12500000000E+03 0.  0.
</event>
<event>
 4    0  0.2179527E-002  0.2978791E+03  0.7546771E-02  0.1086306E+00
         21   -1    0    0  502  501  0.00000000000E+00  0.00000000000E+00  0.60132693343E+03  0.60132693343E+03  0.00000000000E+00 0.  1.
         21   -1    0    0  501  502 -0.00000000000E+00 -0.00000000000E+00 -0.14756028277E+03  0.14756028277E+03  0.00000000000E+00 0.  1.
         25    1    1    2    0    0  0.50848288350E+02 -0.42623785988E+02 -0.10260450447E+03  0.17479994250E+03  0.12500000000E+03 0.  0.
         25    1    1    2    0    0 -0.50848288350E+02  0.42623785988E+02  0.55637115513E+03  0.57408727370E+03  0.12500000000E+03 0.  0.
</event>
<event>
 4    0  0.2179527E-002  0.1824047E+03  0.7546771E-02  0.1165496E+00
         21   -1    0    0  502  501  0.00000000000E+00  0.00000000000E+00  0.40592187772E+03  0.40592187772E+03  0.00000000000E+00 0.  1.
         21   -1    0    0  501  502 -0.00000000000E+00 -0.00000000000E+00 -0.81965224576E+02  0.81965224576E+02  0.00000000000E+00 0.  1.
         25    1    1    2    0    0 -0.11244249927E+03  0.13557550720E+02  0.69135627668E+02  0.18229607192E+03  0.12500000000E+03 0.  0.
         25    1    1    2    0    0  0.11244249927E+03 -0.13557550720E+02  0.25482102548E+03  0.30559103038E+03  0.12500000000E+03 0.  0.
</event>
<event>
 4    0  0.2179527E-002  0.2325900E+03  0.7546771E-02  0.1124830E+00
         21   -1    0    0  502  501  0.00000000000E+00  0.00000000000E+00  0.33835752210E+03  0.33835752210E+03  0.00000000000E+00 0. -1.
         21   -1    0    0  501  502 -0.00000000000E+00 -0.00000000000E+00 -0.15988451877E+03  0.15988451877E+03  0.00000000000E+00 0. -1.
         25    1    1    2    0    0 -0.13125976449E+03 -0.13537514654E+03  0.31382932983E+02  0.22839755812E+03  0.12500000000E+03 0.  0.
         25    1    1    2    0    0  0.13125976449E+03  0.13537514654E+03  0.14709007035E+03  0.26984448275E+03  0.12500000000E+03 0.  0.
</event>
<event>
 4    0  0.2179527E-002  0.1733902E+03  0.7546771E-02  0.1174358E+00
         21   -1    0    0  502  501  0.00000000000E+00  0.00000000000E+00  0.37015669984E+02  0.37015669984E+02  0.00000000000E+00 0. -1.
         21   -1    0    0  501  502 -0.00000000000E+00 -0.00000000000E+00 -0.81220059262E+03  0.81220059262E+03  0.00000000000E+00 0. -1.
         25    1    1    2    0    0  0.10962875059E+02 -0.11072646233E+03 -0.27648290439E+03  0.32318466936E+03  0.12500000000E+03 0.  0.
         25    1    1    2    0    0 -0.10962875059E+02  0.11072646233E+03 -0.49870201824E+03  0.52603159324E+03  0.12500000000E+03 0.  0.
</event>
<event>
 4    0  0.2179527E-002  0.2402785E+03  0.7546771E-02  0.1119607E+00
         21   -1    0    0  502  501  0.00000000000E+00  0.00000000000E+00  0.37079167571E+03  0.37079167571E+03  0.00000000000E+00 0. -1.
         21   -1    0    0  501  502 -0.00000000000E+00 -0.00000000000E+00 -0.15570408826E+03  0.15570408826E+03  0.00000000000E+00 0. -1.
         25    1    1    2    0    0  0.15680782943E+03  0.10999638023E+03  0.18820873414E+03  0.29620166550E+03  0.12500000000E+03 0.  0.
         25    1    1    2    0    0 -0.15680782943E+03 -0.10999638023E+03  0.26878853307E+02  0.23029409847E+03  0.12500000000E+03 0.  0.
</event>
<event>
 4    0  0.2179527E-002  0.2622982E+03  0.7546771E-02  0.1105770E+00
         21   -1    0    0  502  501  0.00000000000E+00  0.00000000000E+00  0.38421301551E+03  0.38421301551E+03  0.00000000000E+00 0. -1.
         21   -1    0    0  501  502 -0.00000000000E+00 -0.00000000000E+00 -0.17906828504E+03  0.17906828504E+03  0.00000000000E+00 0. -1.
         25    1    1    2    0    0 -0.21871982963E+03  0.35507401598E+02  0.34018947731E+02  0.25667377787E+03  0.12500000000E+03 0.  0.
         25    1    1    2    0    0  0.21871982963E+03 -0.35507401598E+02  0.17112578273E+03  0.30660752267E+03  0.12500000000E+03 0.  0.
</event>
<event>
 4    0  0.2179527E-002  0.2198781E+03  0.7546771E-02  0.1133974E+00
         21   -1    0    0  502  501  0.00000000000E+00  0.00000000000E+00  0.27711797833E+03  0.27711797833E+03  0.00000000000E+00 0.  1.
         21   -1    0    0  501  502 -0.00000000000E+00 -0.00000000000E+00 -0.17446130386E+03  0.17446130386E+03  0.00000000000E+00 0.  1.
         25    1    1    2    0    0  0.11035251339E+03 -0.14332622437E+03  0.50166539401E+02  0.22552553176E+03  0.12500000000E+03 0.  0.
         25    1    1    2    0    0 -0.11035251339E+03  0.14332622437E+03  0.52490135076E+02  0.22605375043E+03  0.12500000000E+03 0.  0.
</event>
<event>
 4    0  0.2179527E-002  0.2295286E+03  0.7546771E-02  0.1126972E+00
         21   -1    0    0  502  501  0.00000000000E+00  0.00000000000E+00  0.23480125509E+03  0.23480125509E+03  0.00000000000E+00 0.  1.
         21   -1    0    0  501  502 -0.00000000000E+00 -0.00000000000E+00 -0.22437440458E+03  0.22437440458E+03  0.00000000000E+00 0.  1.
         25    1    1    2    0    0  0.21046378103E+01  0.19172573630E+03 -0.11972517997E+02  0.22919757557E+03  0.12500000000E+03 0.  0.
         25    1    1    2    0    0 -0.21046378103E+01 -0.19172573630E+03  0.22399368504E+02  0.22997808410E+03  0.12500000000E+03 0.  0.
</event>
<event>
 4    0  0.2179527E-002  0.1837900E+03  0.7546771E-02  0.1164185E+00
         21   -1    0    0  502  501  0.00000000000E+00  0.00000000000E+00  0.19820368395E+03  0.19820368395E+03  0.00000000000E+00 0. -1.
         21   -1    0    0  501  502 -0.00000000000E+00 -0.00000000000E+00 -0.17042449174E+03  0.17042449174E+03  0.00000000000E+00 0. -1.
         25    1    1    2    0    0 -0.10940901511E+03  0.28091532581E+02  0.87544899949E+02  0.18986462624E+03  0.12500000000E+03 0.  0.
         25    1    1    2    0    0  0.10940901511E+03 -0.28091532581E+02 -0.59765707734E+02  0.17876354945E+03  0.12500000000E+03 0.  0.
</event>
<event>
 4    0  0.2179527E-002  0.2202162E+03  0.7546771E-02  0.1133722E+00
         21   -1    0    0  502  501  0.00000000000E+00  0.00000000000E+00  0.16476157088E+04  0.16476157088E+04  0.00000000000E+00 0. -1.
         21   -1    0    0  501  502 -0.00000000000E+00 -0.00000000000E+00 -0.29433550594E+02  0.29433550594E+02  0.00000000000E+00 0. -1.
         25    1    1    2    0    0 -0.78245722451E+02 -0.14310194398E+03  0.50759117797E+03  0.54760785550E+03  0.12500000000E+03 0.  0.
         25    1    1    2    0    0  0.78245722451E+02  0.14310194398E+03  0.11105909803E+04  0.11294414039E+04  0.12500000000E+03 0.  0.
</event>
<event>
 4    0  0.2179527E-002  0.2209891E+03  0.7546771E-02  0.1133148E+00
         21   -1    0    0  502  501  0.00000000000E+00  0.00000000000E+00  0.27963697129E+03  0.27963697129E+03  0.00000000000E+00 0. -1.
         21   -1    0    0  501  502 -0.00000000000E+00 -0.00000000000E+00 -0.17464132863E+03  0.17464132863E+03  0.00000000000E+00 0. -1.
         25    1    1    2    0    0 -0.56310282846E+02 -0.16268129120E+03 -0.89585063239E+01  0.21293497904E+03  0.12500000000E+03 0.  0.
         25    1    1    2    0    0  0.56310282846E+02  0.16268129120E+03  0.11395414899E+03  0.24134332088E+03  0.12500000000E+03 0.  0.
</event>
<event>
 4    0  0.2179527E-002  0.2923798E+03  0.7546771E-02  0.1089113E+00
         21   -1    0    0  502  501  0.00000000000E+00  0.00000000000E+00  0.47493697174E+02  0.47493697174E+02  0.00000000000E+00 0.  1.
         21   -1    0    0  501  502 -0.00000000000E+00 -0.00000000000E+00 -0.17999435528E+04  0.17999435528E+04  0.00000000000E+00 0.  1.
         25    1    1    2    0    0  0.16241741460E+03  0.20837783785E+03 -0.90074454495E+03  0.94697754732E+03  0.12500000000E+03 0.  0.
         25    1    1    2    0    0 -0.16241741460E+03 -0.20837783785E+03 -0.85170531067E+03  0.90045970265E+03  0.12500000000E+03 0.  0.
</event>
<event>
 4    0  0.2179527E-002  0.1645946E+03  0.7546771E-02  0.1183605E+00
         21   -1    0    0  502  501  0.00000000000E+00  0.00000000000E+00  0.54141854699E+02  0.54141854699E+02  0.00000000000E+00 0.  1.
         21   -1    0    0  501  502 -0.00000000000E+00 -0.00000000000E+00 -0.50037799882E+03  0.50037799882E+03  0.00000000000E+00 0.  1.
         25    1    1    2    0    0  0.39510280449E+00 -0.10290503903E+03 -0.27299723618E+03  0.31739895105E+03  0.12500000000E+03 0.  0.
         25    1    1    2    0    0 -0.39510280449E+00  0.10290503903E+03 -0.17323890793E+03  0.23712090246E+03  0.12500000000E+03 0.  0.
</event>
<event>
 4    0  0.2179527E-002  0.2505712E+03  0.7546771E-02  0.1112944E+00
         21   -1    0    0  502  501  0.00000000000E+00  0.00000000000E+00  0.93306642275E+03  0.93306642275E+03  0.00000000000E+00 0.  1.
         21   -1    0    0  501  502 -0.00000000000E+00 -0.00000000000E+00 -0.67289888118E+02  0.67289888118E+02  0.00000000000E+00 0.  1.
         25    1    1    2    0    0  0.29138202204E+02  0.45595666141E+02  0.13065082973E+02  0.13683455701E+03  0.12500000000E+03 0.  0.
         25    1    1    2    0    0 -0.29138202204E+02 -0.45595666141E+02  0.85271145166E+03  0.86352175386E+03  0.12500000000E+03 0.  0.
</event>
<event>
 4    0  0.2179527E-002  0.2909279E+03  0.7546771E-02  0.1089866E+00
         21   -1    0    0  502  501  0.00000000000E+00  0.00000000000E+00  0.61371036127E+03  0.61371036127E+03  0.00000000000E+00 0.  1.
         21   -1    0    0  501  502 -0.00000000000E+00 -0.00000000000E+00 -0.13791366682E+03  0.13791366682E+03  0.00000000000E+00 0.  1.
         25    1    1    2    0    0  0.72521099424E+02 -0.16904187309E+03  0.48018562690E+03  0.52918588511E+03  0.12500000000E+03 0.  0.
         25    1    1    2    0    0 -0.72521099424E+02  0.16904187309E+03 -0.43889324511E+01  0.22243814297E+03  0.12500000000E+03 0.  0.
</event>
<event>
 4    0  0.2179527E-002  0.2026860E+03  0.7546771E-02  0.1147492E+00
         21   -1    0    0  502  501  0.00000000000E+00  0.00000000000E+00  0.71242735579E+02  0.71242735579E+02  0.00000000000E+00 0. -1.
         21   -1    0    0  501  502 -0.00000000000E+00 -0.00000000000E+00 -0.57664275579E+03  0.57664275579E+03  0.00000000000E+00 0. -1.
         25    1    1    2    0    0  0.10629011360E+03 -0.86111230493E+02 -0.38395000780E+03  0.42632773867E+03  0.12500000000E+03 0.  0.
         25    1    1    2    0    0 -0.10629011360E+03  0.86111230493E+02 -0.12145001240E+03  0.22155775270E+03  0.12500000000E+03 0.  0.
</event>
<event>
 4    0  0.2179527E-002  0.2920584E+03  0.7546771E-02  0.1089279E+00
         21   -1    0    0  502  501  0.00000000000E+00  0.00000000000E+00  0.36840905646E+03  0.36840905646E+03  0.00000000000E+00 0.  1.
         21   -1    0    0  501  502 -0.00000000000E+00 -0.00000000000E+00 -0.23153094712E+03  0.23153094712E+03  0.00000000000E+00 0.  1.
         25    1    1    2    0    0  0.11413474273E+03  0.38569562399E+02  0.30966018557E+03  0.35500532555E+03  0.12500000000E+03 0.  0.
         25    1    1    2    0    0 -0.11413474273E+03 -0.38569562399E+02 -0.17278207622E+03  0.24493467804E+03  0.12500000000E+03 0.  0.
</event>
<event>
 4    0  0.2179527E-002  0.2108588E+03  0.7546771E-02  0.1140888E+00
         21   -1    0    0  502  501  0.00000000000E+00  0.00000000000E+00  0.54785372384E+02  0.54785372384E+02  0.00000000000E+00 0. -1.
         21   -1    0    0  501  502 -0.00000000000E+00 -0.00000000000E+00 -0.81155651641E+03  0.81155651641E+03  0.00000000000E+00 0. -1.
         25    1    1    2    0    0  0.13549302168E+02  0.16919904402E+03 -0.36821184948E+03  0.42428394523E+03  0.12500000000E+03 0.  0.
         25    1    1    2    0    0 -0.13549302168E+02 -0.16919904402E+03 -0.38855929455E+03  0.44205794356E+03  0.12500000000E+03 0.  0.
</event>
<event>
 4    0  0.2179527E-002  0.1690078E+03  0.7546771E-02  0.1178887E+00
         21   -1    0    0  502  501  0.00000000000E+00  0.00000000000E+00  0.24524424101E+03  0.24524424101E+03  0.00000000000E+00 0.  1.
         21   -1    0    0  501  502 -0.00000000000E+00 -0.00000000000E+00 -0.11647010728E+03  0.11647010728E+03  0.00000000000E+00 0.  1.
         25    1    1    2    0    0  0.95442113341E+02 -0.15539688817E+01 -0.18130815484E+01  0.15728922113E+03  0.12500000000E+03 0.  0.
         25    1    1    2    0    0 -0.95442113341E+02  0.15539688817E+01  0.13058721528E+03  0.20442512716E+03  0.12500000000E+03 0.  0.
</event>
<event>
 4    0  0.2179527E-002  0.2360297E+03  0.7546771E-02  0.1122466E+00
         21   -1    0    0  502  501  0.00000000000E+00  0.00000000000E+00  0.49117598218E+03  0.49117598218E+03  0.00000000000E+00 0.  1.
         21   -1    0    0  501  502 -0.00000000000E+00 -0.00000000000E+00 -0.11342167567E+03  0.11342167567E+03  0.00000000000E+00 0.  1.
         25    1    1    2    0    0 -0.15603874055E+03 -0.75416609976E+02  0.31726877511E+03  0.38251827312E+03  0.12500000000E+03 0.  0.
         25    1    1    2    0    0  0.15603874055E+03  0.75416609976E+02  0.60485531404E+02  0.22207938473E+03  0.12500000000E+03 0.  0.
</event>
<event>
 4    0  0.2179527E-002  0.2910979E+03  0.7546771E-02  0.1089777E+00
         21   -1    0    0  502  501  0.00000000000E+00  0.00000000000E+00  0.74942849350E+03  0.74942849350E+03  0.00000000000E+00 0.  1.
         21   -1    0    0  501  502 -0.00000000000E+00 -0.00000000000E+00 -0.11307014419E+03  0.11307014419E+03  0.00000000000E+00 0.  1.
         25    1    1    2    0    0 -0.18431091592E+03  0.15493668055E+03  0.16183727277E+03  0.31589902116E+03  0.12500000000E+03 0.  0.
         25    1    1    2    0    0  0.18431091592E+03 -0.15493668055E+03  0.47452107654E+03  0.54659961653E+03  0.12500000000E+03 0.  0.
</event>
<event>
 4    0  0.2179527E-002  0.2259573E+03  0.7546771E-02  0.1129518E+00
         21   -1    0    0  502  501  0.00000000000E+00  0.00000000000E+00  0.30672098298E+03  0.30672098298E+03  0.00000000000E+00 0.  1.
         21   -1    0    0  501  502 -0.00000000000E+00 -0.00000000000E+00 -0.16645980780E+03  0.16645980780E+03  0.00000000000E+00 0. -1.
         25    1    1    2    0    0 -0.14825760481E+03  0.95310914195E+02  0.93576325374E+00  0.21607953027E+03  0.12500000000E+03 0.  0.
         25    1    1    2    0    0  0.14825760481E+03 -0.95310914195E+02  0.13932541193E+03  0.25710126051E+03  0.12500000000E+03 0.  0.
</event>
<event>
 4    0  0.2179527E-002  0.2186378E+03  0.7546771E-02  0.1134903E+00
         21   -1    0    0  502  501  0.00000000000E+00  0.00000000000E+00  0.76309803039E+02  0.76309803039E+02  0.00000000000E+00 0. -1.
         21   -1    0    0  501  502 -0.00000000000E+00 -0.00000000000E+00 -0.62642669461E+03  0.62642669461E+03  0.00000000000E+00 0. -1.
         25    1    1    2    0    0 -0.11273413786E+03 -0.13432836785E+03 -0.33571160420E+03  0.39884881527E+03  0.12500000000E+03 0.  0.
         25    1    1    2    0    0  0.11273413786E+03  0.13432836785E+03 -0.21440528737E+03  0.30388768238E+03  0.12500000000E+03 0.  0.
</event>
<event>
 4    0  0.2179527E-002  0.2010211E+03  0.7546771E-02  0.1148880E+00
         21   -1    0    0  502  501  0.00000000000E+00  0.00000000000E+00  0.27003816281E+03  0.27003816281E+03  0.00000000000E+00 0.  1.
         21   -1    0    0  501  502 -0.00000000000E+00 -0.00000000000E+00 -0.14964352938E+03  0.14964352938E+03  0.00000000000E+00 0.  1.
         25    1    1    2    0    0  0.39874836062E+02  0.62035408713E+02  0.20539004106E+03  0.25149247196E+03  0.12500000000E+03 0.  0.
         25    1    1    2    0    0 -0.39874836062E+02 -0.62035408713E+02 -0.84995407632E+02  0.16818922024E+03  0.12500000000E+03 0.  0.
</event>
<event>
 4    0  0.2179527E-002  0.2552122E+03  0.7546771E-02  0.1110054E+00
         21   -1    0    0  502  501  0.00000000000E+00  0.00000000000E+00  0.22377523562E+04  0.22377523562E+04  0.00000000000E+00 0. -1.
         21   -1    0    0  501  502 -0.00000000000E+00 -0.00000000000E+00 -0.29106548736E+02  0.29106548736E+02  0.00000000000E+00 0. -1.
         25    1    1    2    0    0 -0.14593267307E+03  0.78021027602E+02  0.17649114777E+04  0.17770540650E+04  0.12500000000E+03 0.  0.
         25    1    1    2    0    0  0.14593267307E+03 -0.78021027602E+02  0.44373432982E+03  0.48980483999E+03  0.12500000000E+03 0.  0.
</event>
<event>
 4    0  0.2179527E-002  0.2035731E+03  0.7546771E-02  0.1146759E+00
         21   -1    0    0  502  501  0.00000000000E+00  0.00000000000E+00  0.81080956277E+03  0.81080956277E+03  0.00000000000E+00 0.  1.
         21   -1    0    0  501  502 -0.00000000000E+00 -0.00000000000E+00 -0.51111867737E+02  0.51111867737E+02  0.00000000000E+00 0.  1.
         25    1    1    2    0    0 -0.14094776570E+02  0.15211403137E+02  0.71715368426E+03  0.72826125557E+03  0.12500000000E+03 0.  0.
         25    1    1    2    0    0  0.14094776570E+02 -0.15211403137E+02  0.42544010770E+02  0.13366017494E+03  0.12500000000E+03 0.  0.
</event>
<event>
 4    0  0.2179527E-002  0.2270661E+03  0.7546771E-02  0.1128722E+00
         21   -1    0    0  502  501  0.00000000000E+00  0.00000000000E+00  0.70912577996E+02  0.70912577996E+02  0.00000000000E+00 0. -1.
         21   -1    0    0  501  502 -0.00000000000E+00 -0.00000000000E+00 -0.72707875116E+03  0.72707875116E+03  0.00000000000E+00 0. -1.
         25    1    1    2    0    0 -0.92380667400E+02 -0.74786537238E+02 -0.58756789126E+03  0.61236283419E+03  0.12500000000E+03 0.  0.
         25    1    1    2    0    0  0.92380667400E+02  0.74786537238E+02 -0.68598281902E+02  0.18562849496E+03  0.12500000000E+03 0.  0.
</event>
<event>
 4    0  0.2179527E-002  0.1735170E+03  0.7546771E-02  0.1174229E+00
         21   -1    0    0  502  501  0.00000000000E+00  0.00000000000E+00  0.80818817176E+03  0.80818817176E+03  0.00000000000E+00 0.  1.
         21   -1    0    0  501  502 -0.00000000000E+00 -0.00000000000E+00 -0.37253894651E+02  0.37253894651E+02  0.00000000000E+00 0.  1.
         25    1    1    2    0    0 -0.33424270877E+02 -0.24503613339E+02  0.11021449173E+03  0.17172607006E+03  0.12500000000E+03 0.  0.
         25    1    1    2    0    0  0.33424270877E+02  0.24503613339E+02  0.66071978538E+03  0.67371599635E+03  0.12500000000E+03 0.  0.
</event>
<event>
 4    0  0.2179527E-002  0.2202750E+03  0.7546771E-02  0.1133678E+00
         21   -1    0    0  502  501  0.00000000000E+00  0.00000000000E+00  0.16339559241E+03  0.16339559241E+03  0.00000000000E+00 0.  1.
         21   -1    0    0  501  502 -0.00000000000E+00 -0.00000000000E+00 -0.29695471496E+03  0.29695471496E+03  0.00000000000E+00 0.  1.
         25    1    1    2    0    0 -0.93503809878E+02  0.52645591543E+02  0.86016783220E+02  0.18584511768E+03  0.12500000000E+03 0.  0.
         25    1    1    2    0    0  0.93503809878E+02 -0.52645591543E+02 -0.21957590577E+03  0.27450518969E+03  0.12500000000E+03 0.  0.
</event>
<event>
 4    0  0.2179527E-002  0.1781681E+03  0.7546771E-02  0.1169588E+00
         21   -1    0    0  502  501  0.00000000000E+00  0.00000000000E+00  0.20858151205E+03  0.20858151205E+03  0.00000000000E+00 0. -1.
         21   -1    0    0  501  502 -0.00000000000E+00 -0.00000000000E+00 -0.15218931365E+03  0.15218931365E+03  0.00000000000E+00 0. -1.
         25    1    1    2    0    0  0.41876959135E+01 -0.12507941742E+03  0.49827376502E+02  0.18376660444E+03  0.12500000000E+03 0.  0.
         25    1    1    2    0    0 -0.41876959135E+01  0.12507941742E+03  0.65648218943E+01  0.17700422126E+03  0.12500000000E+03 0.  0.
</event>
<event>
 4    0  0.2179527E-002  0.1886270E+03  0.7546771E-02  0.1159706E+00
         21   -1    0    0  502  501  0.00000000000E+00  0.00000000000E+00  0.53567256020E+02  0.53567256020E+02  0.00000000000E+00 0.  1.
         21   -1    0    0  501  502 -0.00000000000E+00 -0.00000000000E+00 -0.66421439550E+03  0.66421439550E+03  0.00000000000E+00 0.  1.
         25    1    1    2    0    0 -0.28396082628E+02  0.10771368901E+03 -0.47060848127E+03  0.49950567459E+03  0.12500000000E+03 0.  0.
         25    1    1    2    0    0  0.28396082628E+02 -0.10771368901E+03 -0.14003865821E+03  0.21827597693E+03  0.12500000000E+03 0.  0.
</event>
<event>
 4    0  0.2179527E-002  0.3028091E+03  0.7546771E-02  0.1083845E+00
         21   -1    0    0  502  501  0.00000000000E+00  0.00000000000E+00  0.41482209157E+03  0.41482209157E+03  0.00000000000E+00 0.  1.
         21   -1    0    0  501  502 -0.00000000000E+00 -0.00000000000E+00 -0.22104261697E+03  0.22104261697E+03  0.00000000000E+00 0.  1.
         25    1    1    2    0    0 -0.19992597395E+02  0.17043893746E+03  0.32358806011E+03  0.38701856286E+03  0.12500000000E+03 0.  0.
         25    1    1    2    0    0  0.19992597395E+02 -0.17043893746E+03 -0.12980858550E+03  0.24884614568E+03  0.12500000000E+03 0.  0.
</event>
<event>
 4    0  0.2179527E-002  0.2075709E+03  0.7546771E-02  0.1143504E+00
         21   -1    0    0  502  501  0.00000000000E+00  0.00000000000E+00  0.14597639297E+03  0.14597639297E+03  0.00000000000E+00 0. -1.
         21   -1    0    0  501  502 -0.00000000000E+00 -0.00000000000E+00 -0.29515504052E+03  0.29515504052E+03  0.00000000000E+00 0. -1.
         25    1    1    2    0    0 -0.10072230676E+03  0.12156792963E+03 -0.12811045531E+03  0.23866510711E+03  0.12500000000E+03 0.  0.
         25    1    1    2    0    0  0.10072230676E+03 -0.12156792963E+03 -0.21068192244E+02  0.20246632638E+03  0.12500000000E+03 0.  0.
</event>
<event>
 4    0  0.2179527E-002  0.2567760E+03  0.7546771E-02  0.1109096E+00
         21   -1    0    0  502  501  0.00000000000E+00  0.00000000000E+00  0.60595034747E+03  0.60595034747E+03  0.00000000000E+00 0. -1.
         21   -1    0    0  501  502 -0.00000000000E+00 -0.00000000000E+00 -0.10881077316E+03  0.10881077316E+03  0.00000000000E+00 0. -1.
         25    1    1    2    0    0 -0.59439533654E+02 -0.18845822459E+03  0.10088579917E+03  0.25466155000E+03  0.12500000000E+03 0.  0.
         25    1    1    2    0    0  0.59439533654E+02  0.18845822459E+03  0.39625377514E+03  0.46009957062E+03  0.12500000000E+03 0.  0.
</event>
<event>
 4    0  0.2179527E-002  0.2621442E+03  0.7546771E-02  0.1105862E+00
         21   -1    0    0  502  501  0.00000000000E+00  0.00000000000E+00  0.29646350857E+04  0.29646350857E+04  0.00000000000E+00 0. -1.
         21   -1    0    0  501  502 -0.00000000000E+00 -0.00000000000E+00 -0.23179783976E+02  0.23179783976E+02  0.00000000000E+00 0. -1.
         25    1    1    2    0    0 -0.22764385822E+03  0.35628865935E+02  0.14601294459E+04  0.14834736738E+04  0.12500000000E+03 0.  0.
         25    1    1    2    0    0  0.22764385822E+03 -0.35628865935E+02  0.14813258558E+04  0.15043411958E+04  0.12500000000E+03 0.  0.
</event>
<event>
 4    0  0.2179527E-002  0.2472878E+03  0.7546771E-02  0.1115031E+00
         21   -1    0    0  502  501  0.00000000000E+00  0.00000000000E+00  0.29852376594E+03  0.29852376594E+03  0.00000000000E+00 0. -1.
         21   -1    0    0  501  502 -0.00000000000E+00 -0.00000000000E+00 -0.20484554804E+03  0.20484554804E+03  0.00000000000E+00 0. -1.
         25    1    1    2    0    0  0.17576867274E+02 -0.18637150598E+03  0.15104599004E+03  0.27107780362E+03  0.12500000000E+03 0.  0.
         25    1    1    2    0    0 -0.17576867274E+02  0.18637150598E+03 -0.57367772147E+02  0.23229151036E+03  0.12500000000E+03 0.  0.
</event>
<event>
 4    0  0.2179527E-002  0.2179094E+03  0.7546771E-02  0.1135451E+00
         21   -1    0    0  502  501  0.00000000000E+00  0.00000000000E+00  0.61606327359E+02  0.61606327359E+02  0.00000000000E+00 0. -1.
         21   -1    0    0  501  502 -0.00000000000E+00 -0.00000000000E+00 -0.77077318739E+03  0.77077318739E+03  0.00000000000E+00 0. -1.
         25    1    1    2    0    0  0.15850161847E+03  0.51934179561E+02 -0.23319320692E+03  0.31276827495E+03  0.12500000000E+03 0.  0.
         25    1    1    2    0    0 -0.15850161847E+03 -0.51934179561E+02 -0.47597365312E+03  0.51961123980E+03  0.12500000000E+03 0.  0.
</event>
<event>
 4    0  0.2179527E-002  0.2239529E+03  0.7546771E-02  0.1130970E+00
         21   -1    0    0  502  501  0.00000000000E+00  0.00000000000E+00  0.24947788474E+03  0.24947788474E+03  0.00000000000E+00 0. -1.
         21   -1    0    0  501  502 -0.00000000000E+00 -0.00000000000E+00 -0.20103954543E+03  0.20103954543E+03  0.00000000000E+00 0. -1.
         25    1    1    2    0    0  0.15954243811E+03 -0.95242858923E+02  0.21986133137E+02  0.22501862542E+03  0.12500000000E+03 0.  0.
         25    1    1    2    0    0 -0.15954243811E+03  0.95242858923E+02  0.26452206177E+02  0.22549880476E+03  0.12500000000E+03 0.  0.
</event>
<event>
 4    0  0.2179527E-002  0.2700759E+03  0.7546771E-02  0.1101236E+00
         21   -1    0    0  502  501  0.00000000000E+00  0.00000000000E+00  0.42730110212E+02  0.42730110212E+02  0.00000000000E+00 0. -1.
         21   -1    0    0  501  502 -0.00000000000E+00 -0.00000000000E+00 -0.17070156189E+04  0.17070156189E+04  0.00000000000E+00 0. -1.
         25    1    1    2    0    0 -0.20621292301E+03 -0.11423583164E+01 -0.12261065924E+04  0.12495949146E+04  0.12500000000E+03 0.  0.
         25    1    1    2    0    0  0.20621292301E+03  0.11423583164E+01 -0.43817891625E+03  0.50015081450E+03  0.12500000000E+03 0.  0.
</event>
<event>
 4    0  0.2179527E-002  0.1964931E+03  0.7546771E-02  0.1152732E+00
         21   -1    0    0  502  501  0.00000000000E+00  0.00000000000E+00  0.14163411206E+03  0.14163411206E+03  0.00000000000E+00 0.  1.
         21   -1    0    0  501  502 -0.00000000000E+00 -0.00000000000E+00 -0.27260047239E+03  0.27260047239E+03  0.00000000000E+00 0.  1.
         25    1    1    2    0    0 -0.14176364699E+03  0.48016026303E+02 -0.90913470057E+02  0.21515745264E+03  0.12500000000E+03 0.  0.
         25    1    1    2    0    0  0.14176364699E+03 -0.48016026303E+02 -0.40052890279E+02  0.19907713181E+03  0.12500000000E+03 0.  0.
</event>
<event>
 4    0  0.2179527E-002  0.2185494E+03  0.7546771E-02  0.1134969E+00
         21   -1    0    0  502  501  0.00000000000E+00  0.00000000000E+00  0.12709713266E+03  0.12709713266E+03  0.00000000000E+00 0.  1.
         21   -1    0    0  501  502 -0.00000000000E+00 -0.00000000000E+00 -0.37580581474E+03  0.37580581474E+03  0.00000000000E+00 0.  1.
         25    1    1    2    0    0 -0.13010541745E+03  0.63787888592E+02 -0.29046509862E+01  0.19138900537E+03  0.12500000000E+03 0.  0.
         25    1    1    2    0    0  0.13010541745E+03 -0.63787888592E+02 -0.24580403109E+03  0.31151394203E+03  0.12500000000E+03 0.  0.
</event>
<event>
 4    0  0.2179527E-002  0.2408701E+03  0.7546771E-02  0.1119215E+00
         21   -1    0    0  502  501  0.00000000000E+00  0.00000000000E+00  0.10588001121E+04  0.10588001121E+04  0.00000000000E+00 0. -1.
         21   -1    0    0  501  502 -0.00000000000E+00 -0.00000000000E+00 -0.54796371292E+02  0.54796371292E+02  0.00000000000E+00 0. -1.
         25    1    1    2    0    0 -0.17582647365E+03 -0.17113141516E+02  0.25752120251E+03  0.33637773141E+03  0.12500000000E+03 0.  0.
         25    1    1    2    0    0  0.17582647365E+03  0.17113141516E+02  0.74648253833E+03  0.77721875201E+03  0.12500000000E+03 0.  0.
</event>
<event>
 4    0  0.2179527E-002  0.2077882E+03  0.7546771E-02  0.1143330E+00
         21   -1    0    0  502  501  0.00000000000E+00  0.00000000000E+00  0.79829981454E+02  0.79829981454E+02  0.00000000000E+00 0.  1.
         21   -1    0    0  501  502 -0.00000000000E+00 -0.00000000000E+00 -0.54084886662E+03  0.54084886662E+03  0.00000000000E+00 0.  1.
         25    1    1    2    0    0  0.14237632244E+03 -0.82197427032E+02 -0.19633645570E+03  0.28495690558E+03  0.12500000000E+03 0.  0.
         25    1    1    2    0    0 -0.14237632244E+03  0.82197427032E+02 -0.26468242947E+03  0.33572194250E+03  0.12500000000E+03 0.  0.
</event>
<event>
 4    0  0.2179527E-002  0.1781500E+03  0.7546771E-02  0.1169606E+00
         21   -1    0    0  502  501  0.00000000000E+00  0.00000000000E+00  0.22204125983E+03  0.22204125983E+03  0.00000000000E+00 0.  1.
         21   -1    0    0  501  502 -0.00000000000E+00 -0.00000000000E+00 -0.14293475010E+03  0.14293475010E+03  0.00000000000E+00 0.  1.
         25    1    1    2    0    0  0.70695207760E+02 -0.10475426850E+03  0.27383608443E+02  0.17985030214E+03  0.12500000000E+03 0.  0.
         25    1    1    2    0    0 -0.70695207760E+02  0.10475426850E+03  0.51722901291E+02  0.18512570779E+03  0.12500000000E+03 0.  0.
</event>
<event>
 4    0  0.2179527E-002  0.6922086E+03  0.7546771E-02  0.9730650E-01
         21   -1    0    0  502  501  0.00000000000E+00  0.00000000000E+00  0.12181594186E+04  0.12181594186E+04  0.00000000000E+00 0. -1.
         21   -1    0    0  501  502 -0.00000000000E+00 -0.00000000000E+00 -0.39334158631E+03  0.39334158631E+03  0.00000000000E+00 0.  1.
         25    1    1    2    0    0 -0.49207087122E+02 -0.67285467041E+03  0.30589546019E+03  0.75123350396E+03  0.12500000000E+03 0.  0.
         25    1    1    2    0    0  0.49207087122E+02  0.67285467041E+03  0.51892237212E+03  0.86026750096E+03  0.12500000000E+03 0.  0.
</event>
<event>
 4    0  0.2179527E-002  0.1866049E+03  0.7546771E-02  0.1161560E+00
         21   -1    0    0  502  501  0.00000000000E+00  0.00000000000E+00  0.15969313402E+03  0.15969313402E+03  0.00000000000E+00 0.  1.
         21   -1    0    0  501  502 -0.00000000000E+00 -0.00000000000E+00 -0.21805189859E+03  0.21805189859E+03  0.00000000000E+00 0.  1.
         25    1    1    2    0    0  0.11652417404E+03  0.20047118457E+02 -0.10228324911E+03  0.20016651354E+03  0.12500000000E+03 0.  0.
         25    1    1    2    0    0 -0.11652417404E+03 -0.20047118457E+02  0.43924484534E+02  0.17757851907E+03  0.12500000000E+03 0.  0.
</event>
<event>
 4    0  0.2179527E-002  0.1928378E+03  0.7546771E-02  0.1155926E+00
         21   -1    0    0  502  501  0.00000000000E+00  0.00000000000E+00  0.43140895725E+02  0.43140895725E+02  0.00000000000E+00 0.  1.
         21   -1    0    0  501  502 -0.00000000000E+00 -0.00000000000E+00 -0.86197579512E+03  0.86197579512E+03  0.00000000000E+00 0.  1.
         25    1    1    2    0    0 -0.10621647371E+03 -0.86368396782E+02 -0.28479261270E+03  0.33981358346E+03  0.12500000000E+03 0.  0.
         25    1    1    2    0    0  0.10621647371E+03  0.86368396782E+02 -0.53404228670E+03  0.56530310739E+03  0.12500000000E+03 0.  0.
</event>
<event>
 4    0  0.2179527E-002  0.1712446E+03  0.7546771E-02  0.1176556E+00
         21   -1    0    0  502  501  0.00000000000E+00  0.00000000000E+00  0.78802926777E+03  0.78802926777E+03  0.00000000000E+00 0.  1.
         21   -1    0    0  501  502 -0.00000000000E+00 -0.00000000000E+00 -0.37212720100E+02  0.37212720100E+02  0.00000000000E+00 0.  1.
         25    1    1    2    0    0  0.71361478762E+02 -0.91906954406E+02  0.40592144953E+03  0.44038230222E+03  0.12500000000E+03 0.  0.
         25    1    1    2    0    0 -0.71361478762E+02  0.91906954406E+02  0.34489509814E+03  0.38485968566E+03  0.12500000000E+03 0.  0.
</event>
<event>
 4    0  0.2179527E-002  0.2502872E+03  0.7546771E-02  0.1113123E+00
         21   -1    0    0  502  501  0.00000000000E+00  0.00000000000E+00  0.22340423847E+03  0.22340423847E+03  0.00000000000E+00 0. -1.
         21   -1    0    0  501  502 -0.00000000000E+00 -0.00000000000E+00 -0.28040500873E+03  0.28040500873E+03  0.00000000000E+00 0. -1.
         25    1    1    2    0    0 -0.18015223158E+03 -0.40992877613E+02 -0.14273907556E+03  0.26482954188E+03  0.12500000000E+03 0.  0.
         25    1    1    2    0    0  0.18015223158E+03  0.40992877613E+02  0.85738305302E+02  0.23897970532E+03  0.12500000000E+03 0.  0.
</event>
<event>
 4    0  0.2179527E-002  0.1998340E+03  0.7546771E-02  0.1149879E+00
         21   -1    0    0  502  501  0.00000000000E+00  0.00000000000E+00  0.19915384858E+03  0.19915384858E+03  0.00000000000E+00 0.  1.
         21   -1    0    0  501  502 -0.00000000000E+00 -0.00000000000E+00 -0.20051652656E+03  0.20051652656E+03  0.00000000000E+00 0.  1.
         25    1    1    2    0    0  0.74066684249E+02 -0.13587042727E+03  0.18344839105E+02  0.19977031773E+03  0.12500000000E+03 0.  0.
         25    1    1    2    0    0 -0.74066684249E+02  0.13587042727E+03 -0.19707517084E+02  0.19990005741E+03  0.12500000000E+03 0.  0.
</event>
<event>
 4    0  0.2179527E-002  0.1972451E+03  0.7546771E-02  0.1152084E+00
         21   -1    0    0  502  501  0.00000000000E+00  0.00000000000E+00  0.10200521983E+04  0.10200521983E+04  0.00000000000E+00 0.  1.
         21   -1    0    0  501  502 -0.00000000000E+00 -0.00000000000E+00 -0.38140834898E+02  0.38140834898E+02  0.00000000000E+00 0.  1.
         25    1    1    2    0    0 -0.12337829574E+03 -0.88177319244E+02  0.53609702312E+03  0.57098376657E+03  0.12500000000E+03 0.  0.
         25    1    1    2    0    0  0.12337829574E+03  0.88177319244E+02  0.44581434032E+03  0.48720926666E+03  0.12500000000E+03 0.  0.
</event>
<event>
 4    0  0.2179527E-002  0.4193678E+03  0.7546771E-02  0.1037272E+00
         21   -1    0    0  502  501  0.00000000000E+00  0.00000000000E+00  0.23670265696E+03  0.23670265696E+03  0.00000000000E+00 0. -1.
         21   -1    0    0  501  502 -0.00000000000E+00 -0.00000000000E+00 -0.74299687465E+03  0.74299687465E+03  0.00000000000E+00 0. -1.
         25    1    1    2    0    0 -0.30207826000E+03 -0.49813060200E+02  0.48095866515E+02  0.33417185475E+03  0.12500000000E+03 0.  0.
         25    1    1    2    0    0  0.30207826000E+03  0.49813060200E+02 -0.55439008420E+03  0.64552767686E+03  0.12500000000E+03 0.  0.
</event>
<event>
 4    0  0.2179527E-002  0.2551152E+03  0.7546771E-02  0.1110114E+00
         21   -1    0    0  502  501  0.00000000000E+00  0.00000000000E+00  0.22662415636E+03  0.22662415636E+03  0.00000000000E+00 0. -1.
         21   -1    0    0  501  502 -0.00000000000E+00 -0.00000000000E+00 -0.28718818008E+03  0.28718818008E+03  0.00000000000E+00 0. -1.
         25    1    1    2    0    0 -0.58596583431E+02 -0.18229711149E+03  0.83618074917E+02  0.24348055138E+03  0.12500000000E+03 0.  0.
         25    1    1    2    0    0  0.58596583431E+02  0.18229711149E+03 -0.14418209863E+03  0.27033178506E+03  0.12500000000E+03 0.  0.
</event>
<event>
 4    0  0.2179527E-002  0.1637289E+03  0.7546771E-02  0.1184550E+00
         21   -1    0    0  502  501  0.00000000000E+00  0.00000000000E+00  0.20049930468E+03  0.20049930468E+03  0.00000000000E+00 0. -1.
         21   -1    0    0  501  502 -0.00000000000E+00 -0.00000000000E+00 -0.13370201975E+03  0.13370201975E+03  0.00000000000E+00 0. -1.
         25    1    1    2    0    0  0.26118491981E+02  0.49166847232E+02  0.12515337983E+03  0.18543980957E+03  0.12500000000E+03 0.  0.
         25    1    1    2    0    0 -0.26118491981E+02 -0.49166847232E+02 -0.58356094902E+02  0.14876151486E+03  0.12500000000E+03 0.  0.
</event>
<event>
 4    0  0.2179527E-002  0.2492045E+03  0.7546771E-02  0.1113809E+00
         21   -1    0    0  502  501  0.00000000000E+00  0.00000000000E+00  0.85109064162E+02  0.85109064162E+02  0.00000000000E+00 0.  1.
         21   -1    0    0  501  502 -0.00000000000E+00 -0.00000000000E+00 -0.72968605539E+03  0.72968605539E+03  0.00000000000E+00 0.  1.
         25    1    1    2    0    0  0.12275551448E+03  0.17685729256E+03 -0.30361468865E+03  0.39262488132E+03  0.12500000000E+03 0.  0.
         25    1    1    2    0    0 -0.12275551448E+03 -0.17685729256E+03 -0.34096230258E+03  0.42217023823E+03  0.12500000000E+03 0.  0.
</event>
<event>
 4    0  0.2179527E-002  0.2041923E+03  0.7546771E-02  0.1146249E+00
         21   -1    0    0  502  501  0.00000000000E+00  0.00000000000E+00  0.20278912328E+03  0.20278912328E+03  0.00000000000E+00 0.  1.
         21   -1    0    0  501  502 -0.00000000000E+00 -0.00000000000E+00 -0.20560519409E+03  0.20560519409E+03  0.00000000000E+00 0.  1.
         25    1    1    2    0    0  0.84755534385E+02  0.23605101928E+01 -0.13881735894E+03  0.20514466057E+03  0.12500000000E+03 0.  0.
         25    1    1    2    0    0 -0.84755534385E+02 -0.23605101928E+01  0.13600128813E+03  0.20324965680E+03  0.12500000000E+03 0.  0.
</event>
<event>
 4    0  0.2179527E-002  0.1564699E+03  0.7546771E-02  0.1192741E+00
         21   -1    0    0  502  501  0.00000000000E+00  0.00000000000E+00  0.97281466150E+03  0.97281466150E+03  0.00000000000E+00 0. -1.
         21   -1    0    0  501  502 -0.00000000000E+00 -0.00000000000E+00 -0.25166995009E+02  0.25166995009E+02  0.00000000000E+00 0. -1.
         25    1    1    2    0    0  0.45272493092E+02 -0.80052449756E+02  0.41005644333E+03  0.43843959682E+03  0.12500000000E+03 0.  0.
         25    1    1    2    0    0 -0.45272493092E+02  0.80052449756E+02  0.53759122316E+03  0.55954205969E+03  0.12500000000E+03 0.  0.
</event>
<event>
 4    0  0.2179527E-002  0.2196441E+03  0.7546771E-02  0.1134149E+00
         21   -1    0    0  502  501  0.00000000000E+00  0.00000000000E+00  0.23414818776E+03  0.23414818776E+03  0.00000000000E+00 0. -1.
         21   -1    0    0  501  502 -0.00000000000E+00 -0.00000000000E+00 -0.20603842960E+03  0.20603842960E+03  0.00000000000E+00 0. -1.
         25    1    1    2    0    0  0.95100528607E+02  0.10650821337E+03 -0.96762510934E+02  0.21301665094E+03  0.12500000000E+03 0.  0.
         25    1    1    2    0    0 -0.95100528607E+02 -0.10650821337E+03  0.12487226909E+03  0.22716996642E+03  0.12500000000E+03 0.  0.
</event>
<event>
 4    0  0.2179527E-002  0.3141650E+03  0.7546771E-02  0.1078367E+00
         21   -1    0    0  502  501  0.00000000000E+00  0.00000000000E+00  0.31213744569E+03  0.31213744569E+03  0.00000000000E+00 0. -1.
         21   -1    0    0  501  502 -0.00000000000E+00 -0.00000000000E+00 -0.31620564764E+03  0.31620564764E+03  0.00000000000E+00 0. -1.
         25    1    1    2    0    0 -0.20084646309E+03 -0.15937946250E+03  0.12962544102E+03  0.31331911809E+03  0.12500000000E+03 0.  0.
         25    1    1    2    0    0  0.20084646309E+03  0.15937946250E+03 -0.13369364298E+03  0.31502397524E+03  0.12500000000E+03 0.  0.
</event>
<event>
 4    0  0.2179527E-002  0.1758122E+03  0.7546771E-02  0.1171919E+00
         21   -1    0    0  502  501  0.00000000000E+00  0.00000000000E+00  0.79408084544E+02  0.79408084544E+02  0.00000000000E+00 0.  1.
         21   -1    0    0  501  502 -0.00000000000E+00 -0.00000000000E+00 -0.38925414649E+03  0.38925414649E+03  0.00000000000E+00 0.  1.
         25    1    1    2    0    0 -0.47022081125E+02 -0.11433992074E+03 -0.15556582589E+03  0.23475608570E+03  0.12500000000E+03 0.  0.
         25    1    1    2    0    0  0.47022081125E+02  0.11433992074E+03 -0.15428023606E+03  0.23390614534E+03  0.12500000000E+03 0.  0.
</event>
<event>
 4    0  0.2179527E-002  0.1863562E+03  0.7546771E-02  0.1161789E+00
         21   -1    0    0  502  501  0.00000000000E+00  0.00000000000E+00  0.39213148098E+03  0.39213148098E+03  0.00000000000E+00 0. -1.
         21   -1    0    0  501  502 -0.00000000000E+00 -0.00000000000E+00 -0.88563781545E+02  0.88563781545E+02  0.00000000000E+00 0. -1.
         25    1    1    2    0    0  0.89735441374E+01 -0.10218741154E+03  0.32313206091E+02  0.16489977217E+03  0.12500000000E+03 0.  0.
         25    1    1    2    0    0 -0.89735441374E+01  0.10218741154E+03  0.27125449335E+03  0.31579549036E+03  0.12500000000E+03 0.  0.
</event>
<event>
 4    0  0.2179527E-002  0.1566178E+03  0.7546771E-02  0.1192569E+00
         21   -1    0    0  502  501  0.00000000000E+00  0.00000000000E+00  0.48469497596E+02  0.48469497596E+02  0.00000000000E+00 0.  1.
         21   -1    0    0  501  502 -0.00000000000E+00 -0.00000000000E+00 -0.50607351718E+03  0.50607351718E+03  0.00000000000E+00 0.  1.
         25    1    1    2    0    0  0.44505878080E+02 -0.83020450268E+02 -0.23865277833E+03  0.28540027496E+03  0.12500000000E+03 0.  0.
         25    1    1    2    0    0 -0.44505878080E+02  0.83020450268E+02 -0.21895124126E+03  0.26914273982E+03  0.12500000000E+03 0.  0.
</event>
<event>
 4    0  0.2179527E-002  0.2536760E+03  0.7546771E-02  0.1111003E+00
         21   -1    0    0  502  501  0.00000000000E+00  0.00000000000E+00  0.63210717597E+03  0.63210717597E+03  0.00000000000E+00 0.  1.
         21   -1    0    0  501  502 -0.00000000000E+00 -0.00000000000E+00 -0.10180474573E+03  0.10180474573E+03  0.00000000000E+00 0.  1.
         25    1    1    2    0    0 -0.11264099382E+03 -0.92957527228E+02  0.25715259269E+02  0.19394682239E+03  0.12500000000E+03 0.  0.
         25    1    1    2    0    0  0.11264099382E+03  0.92957527228E+02  0.50458717097E+03  0.53996509931E+03  0.12500000000E+03 0.  0.
</event>
<event>
 4    0  0.2179527E-002  0.2632943E+03  0.7546771E-02  0.1105180E+00
         21   -1    0    0  502  501  0.00000000000E+00  0.00000000000E+00  0.27981362197E+03  0.27981362197E+03  0.00000000000E+00 0.  1.
         21   -1    0    0  501  502 -0.00000000000E+00 -0.00000000000E+00 -0.24775024499E+03  0.24775024499E+03  0.00000000000E+00 0.  1.
         25    1    1    2    0    0  0.25124004905E+02 -0.23036363189E+03  0.15506433037E+02  0.26375001040E+03  0.12500000000E+03 0.  0.
         25    1    1    2    0    0 -0.25124004905E+02  0.23036363189E+03  0.16556943946E+02  0.26381385656E+03  0.12500000000E+03 0.  0.
</event>
<event>
 4    0  0.2179527E-002  0.2039729E+03  0.7546771E-02  0.1146430E+00
         21   -1    0    0  502  501  0.00000000000E+00  0.00000000000E+00  0.32472486837E+03  0.32472486837E+03  0.00000000000E+00 0. -1.
         21   -1    0    0  501  502 -0.00000000000E+00 -0.00000000000E+00 -0.12812368489E+03  0.12812368489E+03  0.00000000000E+00 0. -1.
         25    1    1    2    0    0  0.97673697608E+01  0.71633974193E+02 -0.61615508891E+02  0.15699776657E+03  0.12500000000E+03 0.  0.
         25    1    1    2    0    0 -0.97673697608E+01 -0.71633974193E+02  0.25821669237E+03  0.29585078670E+03  0.12500000000E+03 0.  0.
</event>
<event>
 4    0  0.2179527E-002  0.2336845E+03  0.7546771E-02  0.1124073E+00
         21   -1    0    0  502  501  0.00000000000E+00  0.00000000000E+00  0.26126777697E+03  0.26126777697E+03  0.00000000000E+00 0.  1.
         21   -1    0    0  501  502 -0.00000000000E+00 -0.00000000000E+00 -0.20901340035E+03  0.20901340035E+03  0.00000000000E+00 0. -1.
         25    1    1    2    0    0 -0.58113668225E+02 -0.14028125223E+03 -0.10086311969E+03  0.22103030805E+03  0.12500000000E+03 0.  0.
         25    1    1    2    0    0  0.58113668225E+02  0.14028125223E+03  0.15311749631E+03  0.24925086928E+03  0.12500000000E+03 0.  0.
</event>
<event>
 4    0  0.2179527E-002  0.1977153E+03  0.7546771E-02  0.1151681E+00
         21   -1    0    0  502  501  0.00000000000E+00  0.00000000000E+00  0.10997695260E+03  0.10997695260E+03  0.00000000000E+00 0. -1.
         21   -1    0    0  501  502 -0.00000000000E+00 -0.00000000000E+00 -0.35545015775E+03  0.35545015775E+03  0.00000000000E+00 0. -1.
         25    1    1    2    0    0 -0.14514102717E+03  0.23362797384E+01 -0.18033755115E+03  0.26309315523E+03  0.12500000000E+03 0.  0.
         25    1    1    2    0    0  0.14514102717E+03 -0.23362797384E+01 -0.65135654002E+02  0.20233395512E+03  0.12500000000E+03 0.  0.
</event>
<event>
 4    0  0.2179527E-002  0.2640539E+03  0.7546771E-02  0.1104732E+00
         21   -1    0    0  502  501  0.00000000000E+00  0.00000000000E+00  0.27645144173E+03  0.27645144173E+03  0.00000000000E+00 0. -1.
         21   -1    0    0  501  502 -0.00000000000E+00 -0.00000000000E+00 -0.25221240545E+03  0.25221240545E+03  0.00000000000E+00 0. -1.
         25    1    1    2    0    0  0.15458918593E+03  0.12630249246E+03 -0.10737677890E+03  0.25885306383E+03  0.12500000000E+03 0.  0.
         25    1    1    2    0    0 -0.15458918593E+03 -0.12630249246E+03  0.13161581518E+03  0.26981078335E+03  0.12500000000E+03 0.  0.
</event>
<event>
 4    0  0.2179527E-002  0.1699178E+03  0.7546771E-02  0.1177934E+00
         21   -1    0    0  502  501  0.00000000000E+00  0.00000000000E+00  0.18133646182E+04  0.18133646182E+04  0.00000000000E+00 0.  1.
         21   -1    0    0  501  502 -0.00000000000E+00 -0.00000000000E+00 -0.15921813199E+02  0.15921813199E+02  0.00000000000E+00 0.  1.
         25    1    1    2    0    0  0.57674374735E+01 -0.14105080860E+02  0.28463110234E+03  0.31124280081E+03  0.12500000000E+03 0.  0.
         25    1    1    2    0    0 -0.57674374735E+01  0.14105080860E+02  0.15128117026E+04  0.15180436305E+04  0.12500000000E+03 0.  0.
</event>
<event>
 4    0  0.2179527E-002  0.2001627E+03  0.7546771E-02  0.1149602E+00
         21   -1    0    0  502  501  0.00000000000E+00  0.00000000000E+00  0.17338776312E+04  0.17338776312E+04  0.00000000000E+00 0. -1.
         21   -1    0    0  501  502 -0.00000000000E+00 -0.00000000000E+00 -0.23107236804E+02  0.23107236804E+02  0.00000000000E+00 0. -1.
         25    1    1    2    0    0 -0.28748490359E+02  0.12229751362E+03  0.44703046879E+03  0.48087877637E+03  0.12500000000E+03 0.  0.
         25    1    1    2    0    0  0.28748490359E+02 -0.12229751362E+03  0.12637399256E+04  0.12761060917E+04  0.12500000000E+03 0.  0.
</event>
<event>
 4    0  0.2179527E-002  0.1954102E+03  0.7546771E-02  0.1153670E+00
         21   -1    0    0  502  501  0.00000000000E+00  0.00000000000E+00  0.30670738484E+03  0.30670738484E+03  0.00000000000E+00 0.  1.
         21   -1    0    0  501  502 -0.00000000000E+00 -0.00000000000E+00 -0.12450029233E+03  0.12450029233E+03  0.00000000000E+00 0.  1.
         25    1    1    2    0    0 -0.13866173713E+03  0.53279248041E+02  0.11563650549E+03  0.22597025693E+03  0.12500000000E+03 0.  0.
         25    1    1    2    0    0  0.13866173713E+03 -0.53279248041E+02  0.66570587023E+02  0.20523742025E+03  0.12500000000E+03 0.  0.
</event>
<event>
 4    0  0.2179527E-002  0.2500746E+03  0.7546771E-02  0.1113258E+00
         21   -1    0    0  502  501  0.00000000000E+00  0.00000000000E+00  0.13548372155E+03  0.13548372155E+03  0.00000000000E+00 0.  1.
         21   -1    0    0  501  502 -0.00000000000E+00 -0.00000000000E+00 -0.46158524684E+03  0.46158524684E+03  0.00000000000E+00 0.  1.
         25    1    1    2    0    0 -0.41309966904E+02  0.25044883036E+01 -0.41685087328E+03  0.43715264655E+03  0.12500000000E+03 0.  0.
         25    1    1    2    0    0  0.41309966904E+02 -0.25044883036E+01  0.90749347995E+02  0.15991632183E+03  0.12500000000E+03 0.  0.
</event>
<event>
 4    0  0.2179527E-002  0.2043237E+03  0.7546771E-02  0.1146142E+00
         21   -1    0    0  502  501  0.00000000000E+00  0.00000000000E+00  0.44931261473E+02  0.44931261473E+02  0.00000000000E+00 0. -1.
         21   -1    0    0  501  502 -0.00000000000E+00 -0.00000000000E+00 -0.92915640237E+03  0.92915640237E+03  0.00000000000E+00 0. -1.
         25    1    1    2    0    0  0.14067473168E+02  0.94780494719E+01 -0.82525237927E+03  0.83483783858E+03  0.12500000000E+03 0.  0.
         25    1    1    2    0    0 -0.14067473168E+02 -0.94780494719E+01 -0.58972761622E+02  0.13924982527E+03  0.12500000000E+03 0.  0.
</event>
<event>
 4    0  0.2179527E-002  0.2855844E+03  0.7546771E-02  0.1092677E+00
         21   -1    0    0  502  501  0.00000000000E+00  0.00000000000E+00  0.13300242222E+03  0.13300242222E+03  0.00000000000E+00 0.  1.
         21   -1    0    0  501  502 -0.00000000000E+00 -0.00000000000E+00 -0.61321038145E+03  0.61321038145E+03  0.00000000000E+00 0.  1.
         25    1    1    2    0    0  0.59962417351E+02 -0.23520874285E+03 -0.34952644598E+03  0.44352269462E+03  0.12500000000E+03 0.  0.
         25    1    1    2    0    0 -0.59962417351E+02  0.23520874285E+03 -0.13068151326E+03  0.30269010905E+03  0.12500000000E+03 0.  0.
</event>
<event>
 4    0  0.2179527E-002  0.2559176E+03  0.7546771E-02  0.1109621E+00
         21   -1    0    0  502  501  0.00000000000E+00  0.00000000000E+00  0.81641353955E+03  0.81641353955E+03  0.00000000000E+00 0. -1.
         21   -1    0    0  501  502 -0.00000000000E+00 -0.00000000000E+00 -0.80221401630E+02  0.80221401630E+02  0.00000000000E+00 0. -1.
         25    1    1    2    0    0  0.85387118747E+02 -0.19424208203E+03  0.24612357381E+03  0.34817059047E+03  0.12500000000E+03 0.  0.
         25    1    1    2    0    0 -0.85387118747E+02  0.19424208203E+03  0.49006856411E+03  0.54846435072E+03  0.12500000000E+03 0.  0.
</event>
<event>
 4    0  0.2179527E-002  0.3241426E+03  0.7546771E-02  0.1073758E+00
         21   -1    0    0  502  501  0.00000000000E+00  0.00000000000E+00  0.54394841472E+03  0.54394841472E+03  0.00000000000E+00 0. -1.
         21   -1    0    0  501  502 -0.00000000000E+00 -0.00000000000E+00 -0.19315886093E+03  0.19315886093E+03  0.00000000000E+00 0. -1.
         25    1    1    2    0    0  0.16170313701E+03 -0.19830834771E+03 -0.63764470931E+00  0.28477976031E+03  0.12500000000E+03 0.  0.
         25    1    1    2    0    0 -0.16170313701E+03  0.19830834771E+03  0.35142719850E+03  0.45232751534E+03  0.12500000000E+03 0.  0.
</event>
<event>
 4    0  0.2179527E-002  0.2632182E+03  0.7546771E-02  0.1105225E+00
         21   -1    0    0  502  501  0.00000000000E+00  0.00000000000E+00  0.13621675820E+04  0.13621675820E+04  0.00000000000E+00 0.  1.
         21   -1    0    0  501  502 -0.00000000000E+00 -0.00000000000E+00 -0.50862926456E+02  0.50862926456E+02  0.00000000000E+00 0.  1.
         25    1    1    2    0    0 -0.18408002377E+03  0.55204397567E+02  0.10027883519E+04  0.10286605171E+04  0.12500000000E+03 0.  0.
         25    1    1    2    0    0  0.18408002377E+03 -0.55204397567E+02  0.30851630359E+03  0.38436999134E+03  0.12500000000E+03 0.  0.
</event>
<event>
 4    0  0.2179527E-002  0.2301415E+03  0.7546771E-02  0.1126540E+00
         21   -1    0    0  502  501  0.00000000000E+00  0.00000000000E+00  0.87160413435E+03  0.87160413435E+03  0.00000000000E+00 0.  1.
         21   -1    0    0  501  502 -0.00000000000E+00 -0.00000000000E+00 -0.60767399112E+02  0.60767399112E+02  0.00000000000E+00 0.  1.
         25    1    1    2    0    0 -0.56031619251E+02 -0.11543991957E+03  0.69808213139E+03  0.72070075590E+03  0.12500000000E+03 0.  0.
         25    1    1    2    0    0  0.56031619251E+02  0.11543991957E+03  0.11275460384E+03  0.21167077756E+03  0.12500000000E+03 0.  0.
</event>
<event>
 4    0  0.2179527E-002  0.2733753E+03  0.7546771E-02  0.1099363E+00
         21   -1    0    0  502  501  0.00000000000E+00  0.00000000000E+00  0.16517150359E+03  0.16517150359E+03  0.00000000000E+00 0.  1.
         21   -1    0    0  501  502 -0.00000000000E+00 -0.00000000000E+00 -0.45246325774E+03  0.45246325774E+03  0.00000000000E+00 0.  1.
         25    1    1    2    0    0 -0.18236810342E+03 -0.14523972657E+03 -0.22155326689E+03  0.34505586995E+03  0.12500000000E+03 0.  0.
         25    1    1    2    0    0  0.18236810342E+03  0.14523972657E+03 -0.65738487256E+02  0.27257889138E+03  0.12500000000E+03 0.  0.
</event>
<event>
 4    0  0.2179527E-002  0.2059688E+03  0.7546771E-02  0.1144799E+00
         21   -1    0    0  502  501  0.00000000000E+00  0.00000000000E+00  0.22586991725E+04  0.22586991725E+04  0.00000000000E+00 0. -1.
         21   -1    0    0  501  502 -0.00000000000E+00 -0.00000000000E+00 -0.18782122914E+02  0.18782122914E+02  0.00000000000E+00 0. -1.
         25    1    1    2    0    0  0.16238778087E+03  0.98905398741E+01  0.10194407790E+04  0.10398808182E+04  0.12500000000E+03 0.  0.
         25    1    1    2    0    0 -0.16238778087E+03 -0.98905398741E+01  0.12204762706E+04  0.12376004772E+04  0.12500000000E+03 0.  0.
</event>
<event>
 4    0  0.2179527E-002  0.2123857E+03  0.7546771E-02  0.1139691E+00
         21   -1    0    0  502  501  0.00000000000E+00  0.00000000000E+00  0.64219488473E+02  0.64219488473E+02  0.00000000000E+00 0. -1.
         21   -1    0    0  501  502 -0.00000000000E+00 -0.00000000000E+00 -0.70239857477E+03  0.70239857477E+03  0.00000000000E+00 0. -1.
         25    1    1    2    0    0  0.39774489901E+01  0.16967469255E+03 -0.27211827967E+03  0.34420732055E+03  0.12500000000E+03 0.  0.
         25    1    1    2    0    0 -0.39774489901E+01 -0.16967469255E+03 -0.36606080663E+03  0.42241074269E+03  0.12500000000E+03 0.  0.
</event>
<event>
 4    0  0.2179527E-002  0.1981150E+03  0.7546771E-02  0.1151339E+00
         21   -1    0    0  502  501  0.00000000000E+00  0.00000000000E+00  0.11719074993E+03  0.11719074993E+03  0.00000000000E+00 0.  1.
         21   -1    0    0  501  502 -0.00000000000E+00 -0.00000000000E+00 -0.33492037883E+03  0.33492037883E+03  0.00000000000E+00 0. -1.
         25    1    1    2    0    0 -0.25136741762E+02  0.14691240912E+03 -0.15170229430E+03  0.24668542283E+03  0.12500000000E+03 0.  0.
         25    1    1    2    0    0  0.25136741762E+02 -0.14691240912E+03 -0.66027334600E+02  0.20542570592E+03  0.12500000000E+03 0.  0.
</event>
<event>
 4    0  0.2179527E-002  0.2228497E+03  0.7546771E-02  0.1131776E+00
         21   -1    0    0  502  501  0.00000000000E+00  0.00000000000E+00  0.48418028630E+02  0.48418028630E+02  0.00000000000E+00 0.  1.
         21   -1    0    0  501  502 -0.00000000000E+00 -0.00000000000E+00 -0.10256924046E+04  0.10256924046E+04  0.00000000000E+00 0.  1.
         25    1    1    2    0    0  0.82024429206E+02  0.15164484021E+03 -0.33037087881E+03  0.39305735220E+03  0.12500000000E+03 0.  0.
         25    1    1    2    0    0 -0.82024429206E+02 -0.15164484021E+03 -0.64690349719E+03  0.68105308106E+03  0.12500000000E+03 0.  0.
</event>
<event>
 4    0  0.2179527E-002  0.2166063E+03  0.7546771E-02  0.1136439E+00
         21   -1    0    0  502  501  0.00000000000E+00  0.00000000000E+00  0.16866083314E+04  0.16866083314E+04  0.00000000000E+00 0.  1.
         21   -1    0    0  501  502 -0.00000000000E+00 -0.00000000000E+00 -0.27818136984E+02  0.27818136984E+02  0.00000000000E+00 0.  1.
         25    1    1    2    0    0  0.15917955958E+02 -0.73002827988E+02  0.14639556191E+04  0.14711811067E+04  0.12500000000E+03 0.  0.
         25    1    1    2    0    0 -0.15917955958E+02  0.73002827988E+02  0.19483457539E+03  0.24324536169E+03  0.12500000000E+03 0.  0.
</event>
<event>
 4    0  0.2179527E-002  0.2013405E+03  0.7546771E-02  0.1148613E+00
         21   -1    0    0  502  501  0.00000000000E+00  0.00000000000E+00  0.60563169935E+02  0.60563169935E+02  0.00000000000E+00 0.  1.
         21   -1    0    0  501  502 -0.00000000000E+00 -0.00000000000E+00 -0.66935047396E+03  0.66935047396E+03  0.00000000000E+00 0.  1.
         25    1    1    2    0    0 -0.45129365216E+02  0.15082575349E+03 -0.28389251756E+03  0.34785777129E+03  0.12500000000E+03 0.  0.
         25    1    1    2    0    0  0.45129365216E+02 -0.15082575349E+03 -0.32489478646E+03  0.38205587260E+03  0.12500000000E+03 0.  0.
</event>
<event>
 4    0  0.2179527E-002  0.2127439E+03  0.7546771E-02  0.1139411E+00
         21   -1    0    0  502  501  0.00000000000E+00  0.00000000000E+00  0.11725355853E+04  0.11725355853E+04  0.00000000000E+00 0. -1.
         21   -1    0    0  501  502 -0.00000000000E+00 -0.00000000000E+00 -0.38600072488E+02  0.38600072488E+02  0.00000000000E+00 0. -1.
         25    1    1    2    0    0  0.42260705922E+01 -0.16409469169E+03  0.71460106985E+03  0.74379070749E+03  0.12500000000E+03 0.  0.
         25    1    1    2    0    0 -0.42260705922E+01  0.16409469169E+03  0.41933444291E+03  0.46734495025E+03  0.12500000000E+03 0.  0.
</event>
<event>
 4    0  0.2179527E-002  0.2129916E+03  0.7546771E-02  0.1139219E+00
         21   -1    0    0  502  501  0.00000000000E+00  0.00000000000E+00  0.34905763831E+03  0.34905763831E+03  0.00000000000E+00 0. -1.
         21   -1    0    0  501  502 -0.00000000000E+00 -0.00000000000E+00 -0.12996544251E+03  0.12996544251E+03  0.00000000000E+00 0. -1.
         25    1    1    2    0    0  0.97951046616E+02  0.12757241454E+03  0.17951296834E+03  0.27151249379E+03  0.12500000000E+03 0.  0.
         25    1    1    2    0    0 -0.97951046616E+02 -0.12757241454E+03  0.39579227463E+02  0.20751058703E+03  0.12500000000E+03 0.  0.
</event>
<event>
 4    0  0.2179527E-002  0.3216517E+03  0.7546771E-02  0.1074892E+00
         21   -1    0    0  502  501  0.00000000000E+00  0.00000000000E+00  0.35765198765E+03  0.35765198765E+03  0.00000000000E+00 0.  1.
         21   -1    0    0  501  502 -0.00000000000E+00 -0.00000000000E+00 -0.28927501589E+03  0.28927501589E+03  0.00000000000E+00 0.  1.
         25    1    1    2    0    0 -0.22719854854E+03  0.13676423466E+03  0.16726358842E+03  0.33752887928E+03  0.12500000000E+03 0.  0.
         25    1    1    2    0    0  0.22719854854E+03 -0.13676423466E+03 -0.98886616658E+02  0.30939812426E+03  0.12500000000E+03 0.  0.
</event>
<event>
 4    0  0.2179527E-002  0.3130624E+03  0.7546771E-02  0.1078887E+00
         21   -1    0    0  502  501  0.00000000000E+00  0.00000000000E+00  0.32497312061E+03  0.32497312061E+03  0.00000000000E+00 0. -1.
         21   -1    0    0  501  502 -0.00000000000E+00 -0.00000000000E+00 -0.30158815872E+03  0.30158815872E+03  0.00000000000E+00 0. -1.
         25    1    1    2    0    0 -0.15613419223E+03 -0.21998559363E+03  0.10979908128E+03  0.31694224338E+03  0.12500000000E+03 0.  0.
         25    1    1    2    0    0  0.15613419223E+03  0.21998559363E+03 -0.86414119389E+02  0.30961903594E+03  0.12500000000E+03 0.  0.
</event>
<event>
 4    0  0.2179527E-002  0.1563875E+03  0.7546771E-02  0.1192837E+00
         21   -1    0    0  502  501  0.00000000000E+00  0.00000000000E+00  0.14797298819E+03  0.14797298819E+03  0.00000000000E+00 0. -1.
         21   -1    0    0  501  502 -0.00000000000E+00 -0.00000000000E+00 -0.16528046254E+03  0.16528046254E+03  0.00000000000E+00 0. -1.
         25    1    1    2    0    0 -0.66064937114E+01 -0.89740215398E+02  0.18500318804E+02  0.15512644460E+03  0.12500000000E+03 0.  0.
         25    1    1    2    0    0  0.66064937114E+01  0.89740215398E+02 -0.35807793154E+02  0.15812700614E+03  0.12500000000E+03 0.  0.
</event>
<event>
 4    0  0.2179527E-002  0.1710813E+03  0.7546771E-02  0.1176725E+00
         21   -1    0    0  502  501  0.00000000000E+00  0.00000000000E+00  0.25565153597E+02  0.25565153597E+02  0.00000000000E+00 0. -1.
         21   -1    0    0  501  502 -0.00000000000E+00 -0.00000000000E+00 -0.11448719679E+04  0.11448719679E+04  0.00000000000E+00 0. -1.
         25    1    1    2    0    0  0.47152461519E+02 -0.99701783052E+02 -0.42805509304E+03  0.45936909218E+03  0.12500000000E+03 0.  0.
         25    1    1    2    0    0 -0.47152461519E+02  0.99701783052E+02 -0.69125172129E+03  0.71106802935E+03  0.12500000000E+03 0.  0.
</event>
<event>
 4    0  0.2179527E-002  0.1415554E+03  0.7546771E-02  0.1211251E+00
         21   -1    0    0  502  501  0.00000000000E+00  0.00000000000E+00  0.12702549473E+02  0.12702549473E+02  0.00000000000E+00 0. -1.
         21   -1    0    0  501  502 -0.00000000000E+00 -0.00000000000E+00 -0.15774733756E+04  0.15774733756E+04  0.00000000000E+00 0. -1.
         25    1    1    2    0    0  0.14636095195E+02  0.54889496590E+02 -0.58896349189E+03  0.60475620451E+03  0.12500000000E+03 0.  0.
         25    1    1    2    0    0 -0.14636095195E+02 -0.54889496590E+02 -0.97580733429E+03  0.98541972061E+03  0.12500000000E+03 0.  0.
</event>
<event>
 4    0  0.2179527E-002  0.2879758E+03  0.7546771E-02  0.1091411E+00
         21   -1    0    0  502  501  0.00000000000E+00  0.00000000000E+00  0.88029795021E+02  0.88029795021E+02  0.00000000000E+00 0.  1.
         21   -1    0    0  501  502 -0.00000000000E+00 -0.00000000000E+00 -0.94206801387E+03  0.94206801387E+03  0.00000000000E+00 0.  1.
         25    1    1    2    0    0 -0.24714495902E+03  0.78318030893E+02 -0.44405319025E+03  0.52917159835E+03  0.12500000000E+03 0.  0.
         25    1    1    2    0    0  0.24714495902E+03 -0.78318030893E+02 -0.40998502860E+03  0.50092621054E+03  0.12500000000E+03 0.  0.
</event>
<event>
 4    0  0.2179527E-002  0.2461265E+03  0.7546771E-02  0.1115778E+00
         21   -1    0    0  502  501  0.00000000000E+00  0.00000000000E+00  0.15970801405E+04  0.15970801405E+04  0.00000000000E+00 0. -1.
         21   -1    0    0  501  502 -0.00000000000E+00 -0.00000000000E+00 -0.37930633941E+02  0.37930633941E+02  0.00000000000E+00 0. -1.
         25    1    1    2    0    0 -0.14828650561E+02  0.72973216868E+00  0.77076162052E+02  0.14760134194E+03  0.12500000000E+03 0.  0.
         25    1    1    2    0    0  0.14828650561E+02 -0.72973216868E+00  0.14820733446E+04  0.14874094325E+04  0.12500000000E+03 0.  0.
</event>
<event>
 4    0  0.2179527E-002  0.2949649E+03  0.7546771E-02  0.1087785E+00
         21   -1    0    0  502  501  0.00000000000E+00  0.00000000000E+00  0.79975150649E+02  0.79975150649E+02  0.00000000000E+00 0. -1.
         21   -1    0    0  501  502 -0.00000000000E+00 -0.00000000000E+00 -0.10878917790E+04  0.10878917790E+04  0.00000000000E+00 0. -1.
         25    1    1    2    0    0 -0.17430578121E+02  0.14271241210E+03 -0.58164524478E+02  0.19919530498E+03  0.12500000000E+03 0.  0.
         25    1    1    2    0    0  0.17430578121E+02 -0.14271241210E+03 -0.94975210387E+03  0.96867162466E+03  0.12500000000E+03 0.  0.
</event>
<event>
 4    0  0.2179527E-002  0.1914113E+03  0.7546771E-02  0.1157195E+00
         21   -1    0    0  502  501  0.00000000000E+00  0.00000000000E+00  0.74564279790E+03  0.74564279790E+03  0.00000000000E+00 0.  1.
         21   -1    0    0  501  502 -0.00000000000E+00 -0.00000000000E+00 -0.49136492421E+02  0.49136492421E+02  0.00000000000E+00 0.  1.
         25    1    1    2    0    0  0.15087037609E+02 -0.93365660440E+02  0.57632717419E+03  0.59726273696E+03  0.12500000000E+03 0.  0.
         25    1    1    2    0    0 -0.15087037609E+02  0.93365660440E+02  0.12017913129E+03  0.19751655336E+03  0.12500000000E+03 0.  0.
</event>
<event>
 4    0  0.2179527E-002  0.2611162E+03  0.7546771E-02  0.1106474E+00
         21   -1    0    0  502  501  0.00000000000E+00  0.00000000000E+00  0.45089657040E+03  0.45089657040E+03  0.00000000000E+00 0. -1.
         21   -1    0    0  501  502 -0.00000000000E+00 -0.00000000000E+00 -0.15121356180E+03  0.15121356180E+03  0.00000000000E+00 0. -1.
         25    1    1    2    0    0 -0.88545121211E+02 -0.21134765921E+03  0.15787957825E+03  0.30505578632E+03  0.12500000000E+03 0.  0.
         25    1    1    2    0    0  0.88545121211E+02  0.21134765921E+03  0.14180343036E+03  0.29705434587E+03  0.12500000000E+03 0.  0.
</event>
<event>
 4    0  0.2179527E-002  0.1755585E+03  0.7546771E-02  0.1172172E+00
         21   -1    0    0  502  501  0.00000000000E+00  0.00000000000E+00  0.21514395954E+03  0.21514395954E+03  0.00000000000E+00 0. -1.
         21   -1    0    0  501  502 -0.00000000000E+00 -0.00000000000E+00 -0.14325651552E+03  0.14325651552E+03  0.00000000000E+00 0. -1.
         25    1    1    2    0    0 -0.38727783242E+02  0.94987018376E+01 -0.83119429797E+02  0.15531872437E+03  0.12500000000E+03 0.  0.
         25    1    1    2    0    0  0.38727783242E+02 -0.94987018376E+01  0.15500687382E+03  0.20308175069E+03  0.12500000000E+03 0.  0.
</event>
<event>
 4    0  0.2179527E-002  0.1992973E+03  0.7546771E-02  0.1150333E+00
         21   -1    0    0  502  501  0.00000000000E+00  0.00000000000E+00  0.27479439573E+03  0.27479439573E+03  0.00000000000E+00 0. -1.
         21   -1    0    0  501  502 -0.00000000000E+00 -0.00000000000E+00 -0.14454226467E+03  0.14454226467E+03  0.00000000000E+00 0. -1.
         25    1    1    2    0    0 -0.53765730875E+02 -0.27929161487E+02  0.21547409946E+03  0.25636863969E+03  0.12500000000E+03 0.  0.
         25    1    1    2    0    0  0.53765730875E+02  0.27929161487E+02 -0.85221968402E+02  0.16296802072E+03  0.12500000000E+03 0.  0.
</event>
<event>
 4    0  0.2179527E-002  0.2113027E+03  0.7546771E-02  0.1140539E+00
         21   -1    0    0  502  501  0.00000000000E+00  0.00000000000E+00  0.28131821497E+02  0.28131821497E+02  0.00000000000E+00 0. -1.
         21   -1    0    0  501  502 -0.00000000000E+00 -0.00000000000E+00 -0.15871286980E+04  0.15871286980E+04  0.00000000000E+00 0. -1.
         25    1    1    2    0    0  0.15493268789E+03 -0.62229745623E+02 -0.65004421793E+03  0.68268526005E+03  0.12500000000E+03 0.  0.
         25    1    1    2    0    0 -0.15493268789E+03  0.62229745623E+02 -0.90895265855E+03  0.93257525943E+03  0.12500000000E+03 0.  0.
</event>
<event>
 4    0  0.2179527E-002  0.2305300E+03  0.7546771E-02  0.1126267E+00
         21   -1    0    0  502  501  0.00000000000E+00  0.00000000000E+00  0.64350281353E+03  0.64350281353E+03  0.00000000000E+00 0.  1.
         21   -1    0    0  501  502 -0.00000000000E+00 -0.00000000000E+00 -0.82585647399E+02  0.82585647399E+02  0.00000000000E+00 0.  1.
         25    1    1    2    0    0  0.37779705425E+02  0.92628696825E+02  0.54166921879E+03  0.56483442193E+03  0.12500000000E+03 0.  0.
         25    1    1    2    0    0 -0.37779705425E+02 -0.92628696825E+02  0.19247947350E+02  0.16125403900E+03  0.12500000000E+03 0.  0.
</event>
<event>
 4    0  0.2179527E-002  0.2046325E+03  0.7546771E-02  0.1145888E+00
         21   -1    0    0  502  501  0.00000000000E+00  0.00000000000E+00  0.91895908875E+02  0.91895908875E+02  0.00000000000E+00 0. -1.
         21   -1    0    0  501  502 -0.00000000000E+00 -0.00000000000E+00 -0.45567279455E+03  0.45567279455E+03  0.00000000000E+00 0. -1.
         25    1    1    2    0    0 -0.16065899433E+01  0.16158051890E+03 -0.19764087188E+03  0.28424946694E+03  0.12500000000E+03 0.  0.
         25    1    1    2    0    0  0.16065899433E+01 -0.16158051890E+03 -0.16613601379E+03  0.26331923648E+03  0.12500000000E+03 0.  0.
</event>
<event>
 4    0  0.2179527E-002  0.1904773E+03  0.7546771E-02  0.1158032E+00
         21   -1    0    0  502  501  0.00000000000E+00  0.00000000000E+00  0.19036263339E+03  0.19036263339E+03  0.00000000000E+00 0. -1.
         21   -1    0    0  501  502 -0.00000000000E+00 -0.00000000000E+00 -0.19059201780E+03  0.19059201780E+03  0.00000000000E+00 0. -1.
         25    1    1    2    0    0 -0.12362657525E+03 -0.53158738009E+02 -0.50584661494E+02  0.19050771510E+03  0.12500000000E+03 0.  0.
         25    1    1    2    0    0  0.12362657525E+03  0.53158738009E+02  0.50355277086E+02  0.19044693609E+03  0.12500000000E+03 0.  0.
</event>
<event>
 4    0  0.2179527E-002  0.4474565E+03  0.7546771E-02  0.1028483E+00
         21   -1    0    0  502  501  0.00000000000E+00  0.00000000000E+00  0.24228299699E+03  0.24228299699E+03  0.00000000000E+00 0. -1.
         21   -1    0    0  501  502 -0.00000000000E+00 -0.00000000000E+00 -0.82637788246E+03  0.82637788246E+03  0.00000000000E+00 0.  1.
         25    1    1    2    0    0  0.37599334890E+03  0.13380257076E+03 -0.48205697005E+03  0.63818339741E+03  0.12500000000E+03 0.  0.
         25    1    1    2    0    0 -0.37599334890E+03 -0.13380257076E+03 -0.10203791541E+03  0.43047748204E+03  0.12500000000E+03 0.  0.
</event>
