<event>
 5    0  0.5822326E-005  0.4344081E+03  0.7546771E-02  0.1032476E+00
         21   -1    0    0  502  501  0.00000000000E+00  0.00000000000E+00  0.48720587141E+03  0.48720587141E+03  0.00000000000E+00 0.  1.
         21   -1    0    0  501  502 -0.00000000000E+00 -0.00000000000E+00 -0.38733192467E+03  0.38733192467E+03  0.00000000000E+00 0.  1.
         25    1    1    2    0    0 -0.14287253234E+03 -0.40159265283E+02  0.20288063199E+03  0.28073275179E+03  0.12500000000E+03 0.  0.
         25    1    1    2    0    0 -0.16515474943E+03  0.10300340529E+03 -0.10836994520E+03  0.25545026480E+03  0.12500000000E+03 0.  0.
         25    1    1    2    0    0  0.30802728178E+03 -0.62844140008E+02  0.53632599467E+01  0.33835477950E+03  0.12500000000E+03 0.  0.
</event>
<event>
 5    0  0.5822326E-005  0.3343844E+03  0.7546771E-02  0.1069213E+00
         21   -1    0    0  502  501  0.00000000000E+00  0.00000000000E+00  0.10746205863E+03  0.10746205863E+03  0.00000000000E+00 0.  1.
         21   -1    0    0  501  502 -0.00000000000E+00 -0.00000000000E+00 -0.10404872182E+04  0.10404872182E+04  0.00000000000E+00 0.  1.
         25    1    1    2    0    0  0.17560978632E+02 -0.17668561960E+03 -0.11939940035E+03  0.24780519153E+03  0.12500000000E+03 0.  0.
         25    1    1    2    0    0  0.94195753738E+02  0.29721062012E+02 -0.39331937198E+03  0.42435988255E+03  0.12500000000E+03 0.  0.
         25    1    1    2    0    0 -0.11175673237E+03  0.14696455759E+03 -0.42030638720E+03  0.47578420270E+03  0.12500000000E+03 0.  0.
</event>
<event>
 5    0  0.5822326E-005  0.3676316E+03  0.7546771E-02  0.1055602E+00
         21   -1    0    0  502  501  0.00000000000E+00  0.00000000000E+00  0.48631664268E+02  0.48631664268E+02  0.00000000000E+00 0. -1.
         21   -1    0    0  501  502 -0.00000000000E+00 -0.00000000000E+00 -0.27791150055E+04  0.27791150055E+04  0.00000000000E+00 0. -1.
         25    1    1    2    0    0 -0.12816323511E+03 -0.10220369957E+02 -0.16624587776E+03  0.24452599589E+03  0.12500000000E+03 0.  0.
         25    1    1    2    0    0  0.11063648358E+03 -0.29687155128E+02 -0.10972393902E+04  0.11102616981E+04  0.12500000000E+03 0.  0.
         25    1    1    2    0    0  0.17526751531E+02  0.39907525086E+02 -0.14669980732E+04  0.14729589758E+04  0.12500000000E+03 0.  0.
</event>
<event>
 5    0  0.6361921E-005  0.3148335E+03  0.7546771E-02  0.1078052E+00
         21   -1    0    0  502  501  0.00000000000E+00  0.00000000000E+00  0.66509786153E+03  0.66509786153E+03  0.00000000000E+00 0.  1.
         21   -1    0    0  501  502 -0.00000000000E+00 -0.00000000000E+00 -0.14903093287E+03  0.14903093287E+03  0.00000000000E+00 0.  1.
         25    1    1    2    0    0  0.93488463156E+02 -0.15854767724E+02  0.31452906356E+03  0.35148968439E+03  0.12500000000E+03 0.  0.
         25    1    1    2    0    0  0.68985359046E+02 -0.97971524734E+02  0.39447171592E+02  0.17759076206E+03  0.12500000000E+03 0.  0.
         25    1    1    2    0    0 -0.16247382220E+03  0.11382629246E+03  0.16209069350E+03  0.28504834796E+03  0.12500000000E+03 0.  0.
</event>
<event>
 5    0  0.5822326E-005  0.3834014E+03  0.7546771E-02  0.1049684E+00
         21   -1    0    0  502  501  0.00000000000E+00  0.00000000000E+00  0.94063219816E+03  0.94063219816E+03  0.00000000000E+00 0. -1.
         21   -1    0    0  501  502 -0.00000000000E+00 -0.00000000000E+00 -0.15627433497E+03  0.15627433497E+03  0.00000000000E+00 0. -1.
         25    1    1    2    0    0 -0.51231276019E+02  0.69776091293E+02 -0.49473736076E+02  0.15989370569E+03  0.12500000000E+03 0.  0.
         25    1    1    2    0    0 -0.95552719174E+02 -0.15062335126E+03  0.40104961302E+03  0.45638088061E+03  0.12500000000E+03 0.  0.
         25    1    1    2    0    0  0.14678399519E+03  0.80847259964E+02  0.43278198624E+03  0.48063194682E+03  0.12500000000E+03 0.  0.
</event>
<event>
 5    0  0.5822326E-005  0.2931307E+03  0.7546771E-02  0.1088726E+00
         21   -1    0    0  502  501  0.00000000000E+00  0.00000000000E+00  0.64622011185E+02  0.64622011185E+02  0.00000000000E+00 0. -1.
         21   -1    0    0  501  502 -0.00000000000E+00 -0.00000000000E+00 -0.13296648907E+04  0.13296648907E+04  0.00000000000E+00 0. -1.
         25    1    1    2    0    0 -0.31948844099E+02 -0.52271115830E+02 -0.42162894761E+03  0.44401460297E+03  0.12500000000E+03 0.  0.
         25    1    1    2    0    0 -0.66049994649E+02  0.12000808397E+03 -0.15857419112E+03  0.24399859856E+03  0.12500000000E+03 0.  0.
         25    1    1    2    0    0  0.97998838749E+02 -0.67736968139E+02 -0.68483974083E+03  0.70627370039E+03  0.12500000000E+03 0.  0.
</event>
<event>
 5    0  0.5822326E-005  0.3259672E+03  0.7546771E-02  0.1072935E+00
         21   -1    0    0  502  501  0.00000000000E+00  0.00000000000E+00  0.10793040762E+04  0.10793040762E+04  0.00000000000E+00 0.  1.
         21   -1    0    0  501  502 -0.00000000000E+00 -0.00000000000E+00 -0.98447345200E+02  0.98447345200E+02  0.00000000000E+00 0.  1.
         25    1    1    2    0    0 -0.16155587809E+03  0.85492183487E+02  0.27707615516E+03  0.35469058480E+03  0.12500000000E+03 0.  0.
         25    1    1    2    0    0  0.13760569990E+03 -0.17170781310E+02  0.12060857243E+03  0.22226468932E+03  0.12500000000E+03 0.  0.
         25    1    1    2    0    0  0.23950178198E+02 -0.68321402177E+02  0.58317200339E+03  0.60079614727E+03  0.12500000000E+03 0.  0.
</event>
<event>
 5    0  0.5822326E-005  0.2644782E+03  0.7546771E-02  0.1104482E+00
         21   -1    0    0  502  501  0.00000000000E+00  0.00000000000E+00  0.47803230119E+03  0.47803230119E+03  0.00000000000E+00 0. -1.
         21   -1    0    0  501  502 -0.00000000000E+00 -0.00000000000E+00 -0.14632634323E+03  0.14632634323E+03  0.00000000000E+00 0. -1.
         25    1    1    2    0    0 -0.13256278386E+02  0.60648093128E+02  0.73293461480E+02  0.15764152883E+03  0.12500000000E+03 0.  0.
         25    1    1    2    0    0 -0.79756149172E+02 -0.14843404422E+03  0.13828118893E+03  0.25127752790E+03  0.12500000000E+03 0.  0.
         25    1    1    2    0    0  0.93012427558E+02  0.87785951096E+02  0.12013130755E+03  0.21543958769E+03  0.12500000000E+03 0.  0.
</event>
<event>
 5    0  0.5822326E-005  0.3110341E+03  0.7546771E-02  0.1079851E+00
         21   -1    0    0  502  501  0.00000000000E+00  0.00000000000E+00  0.87063764215E+02  0.87063764215E+02  0.00000000000E+00 0.  1.
         21   -1    0    0  501  502 -0.00000000000E+00 -0.00000000000E+00 -0.11111647577E+04  0.11111647577E+04  0.00000000000E+00 0.  1.
         25    1    1    2    0    0 -0.25408120443E+02 -0.17931015033E+03 -0.19294127875E+03  0.29265857179E+03  0.12500000000E+03 0.  0.
         25    1    1    2    0    0 -0.69133426032E+02  0.13497658792E+03 -0.46414991739E+03  0.50404191859E+03  0.12500000000E+03 0.  0.
         25    1    1    2    0    0  0.94541546474E+02  0.44333562413E+02 -0.36700979735E+03  0.40152803155E+03  0.12500000000E+03 0.  0.
</event>
<event>
 5    0  0.5822326E-005  0.4341125E+03  0.7546771E-02  0.1032569E+00
         21   -1    0    0  502  501  0.00000000000E+00  0.00000000000E+00  0.31850989655E+04  0.31850989655E+04  0.00000000000E+00 0. -1.
         21   -1    0    0  501  502 -0.00000000000E+00 -0.00000000000E+00 -0.59167280165E+02  0.59167280165E+02  0.00000000000E+00 0. -1.
         25    1    1    2    0    0 -0.12968350104E+03 -0.69058946915E+02  0.61736346455E+03  0.64679950213E+03  0.12500000000E+03 0.  0.
         25    1    1    2    0    0  0.40222752873E+02 -0.26873162901E+03  0.12526557927E+04  0.12878688184E+04  0.12500000000E+03 0.  0.
         25    1    1    2    0    0  0.89460748170E+02  0.33779057593E+03  0.12559124281E+04  0.13095979252E+04  0.12500000000E+03 0.  0.
</event>
<event>
 5    0  0.6491002E-005  0.3673952E+03  0.7546771E-02  0.1055693E+00
         21   -1    0    0  502  501  0.00000000000E+00  0.00000000000E+00  0.77552222151E+03  0.77552222151E+03  0.00000000000E+00 0.  1.
         21   -1    0    0  501  502 -0.00000000000E+00 -0.00000000000E+00 -0.17404950624E+03  0.17404950624E+03  0.00000000000E+00 0.  1.
         25    1    1    2    0    0  0.11092912301E+03 -0.96642234794E+02  0.12371072996E+02  0.19345034331E+03  0.12500000000E+03 0.  0.
         25    1    1    2    0    0 -0.24213192290E+03  0.32579360917E+02  0.27948696853E+03  0.39169790454E+03  0.12500000000E+03 0.  0.
         25    1    1    2    0    0  0.13120279988E+03  0.64062873876E+02  0.30961467375E+03  0.36442347990E+03  0.12500000000E+03 0.  0.
</event>
<event>
 5    0  0.5822326E-005  0.3385189E+03  0.7546771E-02  0.1067429E+00
         21   -1    0    0  502  501  0.00000000000E+00  0.00000000000E+00  0.60730457087E+03  0.60730457087E+03  0.00000000000E+00 0.  1.
         21   -1    0    0  501  502 -0.00000000000E+00 -0.00000000000E+00 -0.18869450264E+03  0.18869450264E+03  0.00000000000E+00 0.  1.
         25    1    1    2    0    0 -0.93313621012E+02  0.16919890172E+03  0.25892248723E+03  0.34641240538E+03  0.12500000000E+03 0.  0.
         25    1    1    2    0    0  0.23536098638E+02 -0.20516046736E+03  0.13387002968E+02  0.24176223269E+03  0.12500000000E+03 0.  0.
         25    1    1    2    0    0  0.69777522374E+02  0.35961565641E+02  0.14630057803E+03  0.20782443544E+03  0.12500000000E+03 0.  0.
</event>
<event>
 5    0  0.5822326E-005  0.3217262E+03  0.7546771E-02  0.1074858E+00
         21   -1    0    0  502  501  0.00000000000E+00  0.00000000000E+00  0.28621016993E+03  0.28621016993E+03  0.00000000000E+00 0. -1.
         21   -1    0    0  501  502 -0.00000000000E+00 -0.00000000000E+00 -0.36164950386E+03  0.36164950386E+03  0.00000000000E+00 0. -1.
         25    1    1    2    0    0  0.88780563877E+02 -0.10578576390E+03 -0.93943946205E+02  0.20862186222E+03  0.12500000000E+03 0.  0.
         25    1    1    2    0    0 -0.16768236518E+03  0.14374058290E+03  0.91881910812E+02  0.26990001167E+03  0.12500000000E+03 0.  0.
         25    1    1    2    0    0  0.78901801303E+02 -0.37954818999E+02 -0.73377298537E+02  0.16933779990E+03  0.12500000000E+03 0.  0.
</event>
<event>
 5    0  0.5822326E-005  0.4102744E+03  0.7546771E-02  0.1040279E+00
         21   -1    0    0  502  501  0.00000000000E+00  0.00000000000E+00  0.22164965481E+03  0.22164965481E+03  0.00000000000E+00 0.  1.
         21   -1    0    0  501  502 -0.00000000000E+00 -0.00000000000E+00 -0.75941940427E+03  0.75941940427E+03  0.00000000000E+00 0.  1.
         25    1    1    2    0    0 -0.71804947615E+02  0.13713340798E+03 -0.11347256152E+03  0.22904703514E+03  0.12500000000E+03 0.  0.
         25    1    1    2    0    0  0.68397786244E+02 -0.15478936713E+03 -0.54075164948E+03  0.58023732365E+03  0.12500000000E+03 0.  0.
         25    1    1    2    0    0  0.34071613705E+01  0.17655959141E+02  0.11645446154E+03  0.17178470030E+03  0.12500000000E+03 0.  0.
</event>
<event>
 5    0  0.5822326E-005  0.3744229E+03  0.7546771E-02  0.1053015E+00
         21   -1    0    0  502  501  0.00000000000E+00  0.00000000000E+00  0.65952058753E+03  0.65952058753E+03  0.00000000000E+00 0. -1.
         21   -1    0    0  501  502 -0.00000000000E+00 -0.00000000000E+00 -0.21256734342E+03  0.21256734342E+03  0.00000000000E+00 0. -1.
         25    1    1    2    0    0 -0.12499150844E+03 -0.28614844620E+03  0.18458396517E+03  0.38366658786E+03  0.12500000000E+03 0.  0.
         25    1    1    2    0    0  0.11085235558E+03  0.13171473368E+03  0.13865724698E+03  0.25394457652E+03  0.12500000000E+03 0.  0.
         25    1    1    2    0    0  0.14139152865E+02  0.15443371252E+03  0.12371203196E+03  0.23447676656E+03  0.12500000000E+03 0.  0.
</event>
<event>
 5    0  0.5822326E-005  0.3475402E+03  0.7546771E-02  0.1063629E+00
         21   -1    0    0  502  501  0.00000000000E+00  0.00000000000E+00  0.40098631679E+03  0.40098631679E+03  0.00000000000E+00 0.  1.
         21   -1    0    0  501  502 -0.00000000000E+00 -0.00000000000E+00 -0.30121773586E+03  0.30121773586E+03  0.00000000000E+00 0. -1.
         25    1    1    2    0    0 -0.17358845401E+03 -0.49948714799E+02  0.21094898343E+03  0.30455262121E+03  0.12500000000E+03 0.  0.
         25    1    1    2    0    0  0.20514584381E+03  0.66871716949E+02 -0.94009313251E+02  0.26649464298E+03  0.12500000000E+03 0.  0.
         25    1    1    2    0    0 -0.31557389795E+02 -0.16923002150E+02 -0.17171089246E+02  0.13115678846E+03  0.12500000000E+03 0.  0.
</event>
<event>
 5    0  0.5822326E-005  0.4209593E+03  0.7546771E-02  0.1036755E+00
         21   -1    0    0  502  501  0.00000000000E+00  0.00000000000E+00  0.39632772818E+03  0.39632772818E+03  0.00000000000E+00 0. -1.
         21   -1    0    0  501  502 -0.00000000000E+00 -0.00000000000E+00 -0.44712174383E+03  0.44712174383E+03  0.00000000000E+00 0. -1.
         25    1    1    2    0    0 -0.99186115331E+02  0.73602275210E+02 -0.29272508567E+03  0.34142079048E+03  0.12500000000E+03 0.  0.
         25    1    1    2    0    0  0.22001500439E+03 -0.79247225291E+02  0.13137661654E+03  0.29592488954E+03  0.12500000000E+03 0.  0.
         25    1    1    2    0    0 -0.12082888906E+03  0.56449500812E+01  0.11055445347E+03  0.20610379200E+03  0.12500000000E+03 0.  0.
</event>
<event>
 5    0  0.5822326E-005  0.3824102E+03  0.7546771E-02  0.1050047E+00
         21   -1    0    0  502  501  0.00000000000E+00  0.00000000000E+00  0.13212102487E+03  0.13212102487E+03  0.00000000000E+00 0.  1.
         21   -1    0    0  501  502 -0.00000000000E+00 -0.00000000000E+00 -0.11068455293E+04  0.11068455293E+04  0.00000000000E+00 0.  1.
         25    1    1    2    0    0  0.86565251764E+02 -0.29005767168E+03 -0.55161034723E+03  0.64150290014E+03  0.12500000000E+03 0.  0.
         25    1    1    2    0    0 -0.54548515685E+02  0.24801050673E+03 -0.25116018808E+03  0.37840612057E+03  0.12500000000E+03 0.  0.
         25    1    1    2    0    0 -0.32016736079E+02  0.42047164948E+02 -0.17195396910E+03  0.21905753344E+03  0.12500000000E+03 0.  0.
</event>
<event>
 5    0  0.5822326E-005  0.2972940E+03  0.7546771E-02  0.1086601E+00
         21   -1    0    0  502  501  0.00000000000E+00  0.00000000000E+00  0.73703411911E+02  0.73703411911E+02  0.00000000000E+00 0.  1.
         21   -1    0    0  501  502 -0.00000000000E+00 -0.00000000000E+00 -0.11991811192E+04  0.11991811192E+04  0.00000000000E+00 0.  1.
         25    1    1    2    0    0 -0.52914361947E+02  0.38315859930E+02 -0.18409750260E+03  0.23191577197E+03  0.12500000000E+03 0.  0.
         25    1    1    2    0    0  0.13780322418E+03 -0.93784906732E+02 -0.22468274823E+03  0.30641911604E+03  0.12500000000E+03 0.  0.
         25    1    1    2    0    0 -0.84888862234E+02  0.55469046803E+02 -0.71669745647E+03  0.73454964312E+03  0.12500000000E+03 0.  0.
</event>
<event>
 5    0  0.5822326E-005  0.2412621E+03  0.7546771E-02  0.1118955E+00
         21   -1    0    0  502  501  0.00000000000E+00  0.00000000000E+00  0.77103880577E+03  0.77103880577E+03  0.00000000000E+00 0.  1.
         21   -1    0    0  501  502 -0.00000000000E+00 -0.00000000000E+00 -0.75492150171E+02  0.75492150171E+02  0.00000000000E+00 0.  1.
         25    1    1    2    0    0  0.54817318862E+02 -0.44170541450E+02  0.30569987404E+03  0.33768830032E+03  0.12500000000E+03 0.  0.
         25    1    1    2    0    0 -0.11895606358E+03 -0.90541868228E+01  0.16869822449E+03  0.24148833162E+03  0.12500000000E+03 0.  0.
         25    1    1    2    0    0  0.64138744720E+02  0.53224728273E+02  0.22114855706E+03  0.26735432400E+03  0.12500000000E+03 0.  0.
</event>
<event>
 5    0  0.5822326E-005  0.3678240E+03  0.7546771E-02  0.1055528E+00
         21   -1    0    0  502  501  0.00000000000E+00  0.00000000000E+00  0.78063380241E+03  0.78063380241E+03  0.00000000000E+00 0.  1.
         21   -1    0    0  501  502 -0.00000000000E+00 -0.00000000000E+00 -0.17331362459E+03  0.17331362459E+03  0.00000000000E+00 0.  1.
         25    1    1    2    0    0  0.87677594094E+00  0.13806872348E+02  0.55476595425E+03  0.56884238806E+03  0.12500000000E+03 0.  0.
         25    1    1    2    0    0  0.46589973680E+02 -0.14182774142E+03  0.88858297976E+01  0.19490944527E+03  0.12500000000E+03 0.  0.
         25    1    1    2    0    0 -0.47466749621E+02  0.12802086907E+03  0.43668393771E+02  0.19019559367E+03  0.12500000000E+03 0.  0.
</event>
<event>
 5    0  0.5822326E-005  0.4886508E+03  0.7546771E-02  0.1016784E+00
         21   -1    0    0  502  501  0.00000000000E+00  0.00000000000E+00  0.41452321221E+03  0.41452321221E+03  0.00000000000E+00 0. -1.
         21   -1    0    0  501  502 -0.00000000000E+00 -0.00000000000E+00 -0.57603430601E+03  0.57603430601E+03  0.00000000000E+00 0. -1.
         25    1    1    2    0    0  0.10635559695E+03 -0.60519724956E+02 -0.86819947508E+02  0.19528659298E+03  0.12500000000E+03 0.  0.
         25    1    1    2    0    0  0.24833396373E+03  0.61499557382E+01 -0.25261619205E+03  0.37569604734E+03  0.12500000000E+03 0.  0.
         25    1    1    2    0    0 -0.35468956069E+03  0.54369769218E+02  0.17792504576E+03  0.41957487791E+03  0.12500000000E+03 0.  0.
</event>
<event>
 5    0  0.6311139E-005  0.5960324E+03  0.7546771E-02  0.9913672E-01
         21   -1    0    0  502  501  0.00000000000E+00  0.00000000000E+00  0.10700524685E+04  0.10700524685E+04  0.00000000000E+00 0. -1.
         21   -1    0    0  501  502 -0.00000000000E+00 -0.00000000000E+00 -0.33199734969E+03  0.33199734969E+03  0.00000000000E+00 0. -1.
         25    1    1    2    0    0 -0.43131674710E+03  0.66371688639E+02  0.28734164393E+03  0.53724255017E+03  0.12500000000E+03 0.  0.
         25    1    1    2    0    0  0.67917079335E+02 -0.24084877023E+03  0.31545379956E+03  0.42161233312E+03  0.12500000000E+03 0.  0.
         25    1    1    2    0    0  0.36339966776E+03  0.17447708159E+03  0.13525967529E+03  0.44319493486E+03  0.12500000000E+03 0.  0.
</event>
<event>
 5    0  0.5822326E-005  0.3611984E+03  0.7546771E-02  0.1058110E+00
         21   -1    0    0  502  501  0.00000000000E+00  0.00000000000E+00  0.49940895592E+03  0.49940895592E+03  0.00000000000E+00 0. -1.
         21   -1    0    0  501  502 -0.00000000000E+00 -0.00000000000E+00 -0.26123740804E+03  0.26123740804E+03  0.00000000000E+00 0. -1.
         25    1    1    2    0    0  0.12740139577E+03 -0.24066789662E+03  0.41598140835E+02  0.30250216103E+03  0.12500000000E+03 0.  0.
         25    1    1    2    0    0 -0.12911440351E+03  0.21293296677E+03  0.17291338281E+03  0.32792531998E+03  0.12500000000E+03 0.  0.
         25    1    1    2    0    0  0.17130077320E+01  0.27734929852E+02  0.23660024240E+02  0.13021888295E+03  0.12500000000E+03 0.  0.
</event>
<event>
 5    0  0.5822326E-005  0.6229595E+03  0.7546771E-02  0.9858885E-01
         21   -1    0    0  502  501  0.00000000000E+00  0.00000000000E+00  0.14427488178E+03  0.14427488178E+03  0.00000000000E+00 0. -1.
         21   -1    0    0  501  502 -0.00000000000E+00 -0.00000000000E+00 -0.26898550957E+04  0.26898550957E+04  0.00000000000E+00 0. -1.
         25    1    1    2    0    0 -0.17592424294E+03 -0.17754490073E+03 -0.48051834068E+03  0.55587265336E+03  0.12500000000E+03 0.  0.
         25    1    1    2    0    0  0.51569945649E+03 -0.22338447218E+02 -0.13717294014E+04  0.14709559770E+04  0.12500000000E+03 0.  0.
         25    1    1    2    0    0 -0.33977521355E+03  0.19988334795E+03 -0.69333247191E+03  0.80730134716E+03  0.12500000000E+03 0.  0.
</event>
<event>
 5    0  0.5822326E-005  0.2334732E+03  0.7546771E-02  0.1124219E+00
         21   -1    0    0  502  501  0.00000000000E+00  0.00000000000E+00  0.28116394707E+03  0.28116394707E+03  0.00000000000E+00 0. -1.
         21   -1    0    0  501  502 -0.00000000000E+00 -0.00000000000E+00 -0.19387177016E+03  0.19387177016E+03  0.00000000000E+00 0. -1.
         25    1    1    2    0    0 -0.81868811115E+02 -0.20719100212E+02  0.11215748158E+03  0.18797894569E+03  0.12500000000E+03 0.  0.
         25    1    1    2    0    0  0.39583318737E+02  0.54181334953E+02  0.20969742421E+02  0.14341264336E+03  0.12500000000E+03 0.  0.
         25    1    1    2    0    0  0.42285492378E+02 -0.33462234740E+02 -0.45835047095E+02  0.14364412818E+03  0.12500000000E+03 0.  0.
</event>
<event>
 5    0  0.5822326E-005  0.2350957E+03  0.7546771E-02  0.1123104E+00
         21   -1    0    0  502  501  0.00000000000E+00  0.00000000000E+00  0.82508573033E+02  0.82508573033E+02  0.00000000000E+00 0.  1.
         21   -1    0    0  501  502 -0.00000000000E+00 -0.00000000000E+00 -0.66986980574E+03  0.66986980574E+03  0.00000000000E+00 0.  1.
         25    1    1    2    0    0 -0.84561942245E+02 -0.13177770348E+02 -0.20934971608E+03  0.25841184054E+03  0.12500000000E+03 0.  0.
         25    1    1    2    0    0 -0.27436543119E+02  0.28028545069E+02 -0.85631286825E+02  0.15651223761E+03  0.12500000000E+03 0.  0.
         25    1    1    2    0    0  0.11199848536E+03 -0.14850774720E+02 -0.29238022980E+03  0.33745430062E+03  0.12500000000E+03 0.  0.
</event>
<event>
 5    0  0.5822326E-005  0.3755537E+03  0.7546771E-02  0.1052589E+00
         21   -1    0    0  502  501  0.00000000000E+00  0.00000000000E+00  0.47952214736E+03  0.47952214736E+03  0.00000000000E+00 0.  1.
         21   -1    0    0  501  502 -0.00000000000E+00 -0.00000000000E+00 -0.29412738810E+03  0.29412738810E+03  0.00000000000E+00 0.  1.
         25    1    1    2    0    0  0.84972620416E+02  0.19122030680E+03 -0.10885269524E+03  0.26694467819E+03  0.12500000000E+03 0.  0.
         25    1    1    2    0    0  0.42177862405E+01 -0.21218873385E+03  0.12156319567E+03  0.27467154755E+03  0.12500000000E+03 0.  0.
         25    1    1    2    0    0 -0.89190406656E+02  0.20968427052E+02  0.17268425883E+03  0.23203330972E+03  0.12500000000E+03 0.  0.
</event>
<event>
 5    0  0.5822326E-005  0.4606205E+03  0.7546771E-02  0.1024601E+00
         21   -1    0    0  502  501  0.00000000000E+00  0.00000000000E+00  0.44128558011E+03  0.44128558011E+03  0.00000000000E+00 0. -1.
         21   -1    0    0  501  502 -0.00000000000E+00 -0.00000000000E+00 -0.48080266935E+03  0.48080266935E+03  0.00000000000E+00 0. -1.
         25    1    1    2    0    0  0.30933467253E+03  0.36055574890E+02  0.40278874142E+02  0.33798717700E+03  0.12500000000E+03 0.  0.
         25    1    1    2    0    0  0.78500630167E+02  0.56484436329E+02 -0.47356497574E+02  0.16498629745E+03  0.12500000000E+03 0.  0.
         25    1    1    2    0    0 -0.38783530270E+03 -0.92540011220E+02 -0.32439465806E+02  0.41911477502E+03  0.12500000000E+03 0.  0.
</event>
<event>
 5    0  0.5822326E-005  0.4480797E+03  0.7546771E-02  0.1028296E+00
         21   -1    0    0  502  501  0.00000000000E+00  0.00000000000E+00  0.65913533817E+03  0.65913533817E+03  0.00000000000E+00 0. -1.
         21   -1    0    0  501  502 -0.00000000000E+00 -0.00000000000E+00 -0.30460427862E+03  0.30460427862E+03  0.00000000000E+00 0. -1.
         25    1    1    2    0    0 -0.15950866677E+03 -0.17941466035E+03  0.43028926693E+03  0.50833698307E+03  0.12500000000E+03 0.  0.
         25    1    1    2    0    0  0.32542536744E+02  0.14872310499E+03 -0.16204506050E+03  0.25507093187E+03  0.12500000000E+03 0.  0.
         25    1    1    2    0    0  0.12696613002E+03  0.30691555359E+02  0.86286853113E+02  0.20033170184E+03  0.12500000000E+03 0.  0.
</event>
<event>
 5    0  0.5822326E-005  0.4967427E+03  0.7546771E-02  0.1014633E+00
         21   -1    0    0  502  501  0.00000000000E+00  0.00000000000E+00  0.30482872421E+03  0.30482872421E+03  0.00000000000E+00 0.  1.
         21   -1    0    0  501  502 -0.00000000000E+00 -0.00000000000E+00 -0.80948171376E+03  0.80948171376E+03  0.00000000000E+00 0.  1.
         25    1    1    2    0    0  0.46422853415E+02  0.33335297907E+03 -0.46867929193E+02  0.36207857264E+03  0.12500000000E+03 0.  0.
         25    1    1    2    0    0 -0.15234830638E+02 -0.42101810894E+03 -0.36172525154E+03  0.56917352865E+03  0.12500000000E+03 0.  0.
         25    1    1    2    0    0 -0.31188022777E+02  0.87665129864E+02 -0.96059808812E+02  0.18305833668E+03  0.12500000000E+03 0.  0.
</event>
<event>
 5    0  0.5822326E-005  0.7094088E+03  0.7546771E-02  0.9701276E-01
         21   -1    0    0  502  501  0.00000000000E+00  0.00000000000E+00  0.10398671208E+04  0.10398671208E+04  0.00000000000E+00 0.  1.
         21   -1    0    0  501  502 -0.00000000000E+00 -0.00000000000E+00 -0.48396651315E+03  0.48396651315E+03  0.00000000000E+00 0.  1.
         25    1    1    2    0    0 -0.18645764094E+03 -0.13269569268E+03  0.73955100760E+03  0.78417809939E+03  0.12500000000E+03 0.  0.
         25    1    1    2    0    0  0.24820900095E+03  0.15723797602E+03 -0.38079296811E+03  0.49695047421E+03  0.12500000000E+03 0.  0.
         25    1    1    2    0    0 -0.61751360012E+02 -0.24542283336E+02  0.19714256815E+03  0.24270506034E+03  0.12500000000E+03 0.  0.
</event>
<event>
 5    0  0.5862238E-005  0.2602158E+03  0.7546771E-02  0.1107014E+00
         21   -1    0    0  502  501  0.00000000000E+00  0.00000000000E+00  0.62979578659E+03  0.62979578659E+03  0.00000000000E+00 0. -1.
         21   -1    0    0  501  502 -0.00000000000E+00 -0.00000000000E+00 -0.10751464717E+03  0.10751464717E+03  0.00000000000E+00 0. -1.
         25    1    1    2    0    0  0.21202908577E+02 -0.38046736940E+02  0.18360172576E+03  0.22634423171E+03  0.12500000000E+03 0.  0.
         25    1    1    2    0    0 -0.13124222162E+03 -0.51751711368E+02  0.20982573459E+03  0.28205424879E+03  0.12500000000E+03 0.  0.
         25    1    1    2    0    0  0.11003931305E+03  0.89798448308E+02  0.12885367908E+03  0.22891195326E+03  0.12500000000E+03 0.  0.
</event>
<event>
 5    0  0.6614948E-005  0.7177239E+03  0.7546771E-02  0.9687393E-01
         21   -1    0    0  502  501  0.00000000000E+00  0.00000000000E+00  0.12751766021E+04  0.12751766021E+04  0.00000000000E+00 0. -1.
         21   -1    0    0  501  502 -0.00000000000E+00 -0.00000000000E+00 -0.40396564526E+03  0.40396564526E+03  0.00000000000E+00 0. -1.
         25    1    1    2    0    0  0.19169198604E+03 -0.15140558509E+03  0.65439183662E+03  0.70959364748E+03  0.12500000000E+03 0.  0.
         25    1    1    2    0    0  0.35032522273E+03  0.91721220218E+02  0.12255507225E+03  0.40222542144E+03  0.12500000000E+03 0.  0.
         25    1    1    2    0    0 -0.54201720877E+03  0.59684364876E+02  0.94264047927E+02  0.56732317840E+03  0.12500000000E+03 0.  0.
</event>
<event>
 5    0  0.5822326E-005  0.4316383E+03  0.7546771E-02  0.1033344E+00
         21   -1    0    0  502  501  0.00000000000E+00  0.00000000000E+00  0.42168870874E+03  0.42168870874E+03  0.00000000000E+00 0.  1.
         21   -1    0    0  501  502 -0.00000000000E+00 -0.00000000000E+00 -0.44182258183E+03  0.44182258183E+03  0.00000000000E+00 0.  1.
         25    1    1    2    0    0  0.52174149259E+02 -0.75639218146E+02 -0.42208570414E+02  0.16077934130E+03  0.12500000000E+03 0.  0.
         25    1    1    2    0    0 -0.24953386432E+03  0.41974887312E+02  0.24821717146E+03  0.37585343528E+03  0.12500000000E+03 0.  0.
         25    1    1    2    0    0  0.19735971506E+03  0.33664330834E+02 -0.22614247413E+03  0.32687851398E+03  0.12500000000E+03 0.  0.
</event>
<event>
 5    0  0.5822326E-005  0.4185112E+03  0.7546771E-02  0.1037552E+00
         21   -1    0    0  502  501  0.00000000000E+00  0.00000000000E+00  0.18423343809E+04  0.18423343809E+04  0.00000000000E+00 0. -1.
         21   -1    0    0  501  502 -0.00000000000E+00 -0.00000000000E+00 -0.95070488925E+02  0.95070488925E+02  0.00000000000E+00 0. -1.
         25    1    1    2    0    0  0.28533288972E+02 -0.74429753449E+02  0.31039708119E+02  0.15146748911E+03  0.12500000000E+03 0.  0.
         25    1    1    2    0    0  0.91193988400E+02 -0.11029873780E+03  0.36810935664E+03  0.41426036925E+03  0.12500000000E+03 0.  0.
         25    1    1    2    0    0 -0.11972727737E+03  0.18472849125E+03  0.13481148272E+04  0.13716770115E+04  0.12500000000E+03 0.  0.
</event>
<event>
 5    0  0.5822326E-005  0.3384226E+03  0.7546771E-02  0.1067470E+00
         21   -1    0    0  502  501  0.00000000000E+00  0.00000000000E+00  0.12053692034E+03  0.12053692034E+03  0.00000000000E+00 0. -1.
         21   -1    0    0  501  502 -0.00000000000E+00 -0.00000000000E+00 -0.95016427231E+03  0.95016427231E+03  0.00000000000E+00 0. -1.
         25    1    1    2    0    0  0.11643802033E+03  0.29511668311E+02 -0.22277084452E+03  0.28227752357E+03  0.12500000000E+03 0.  0.
         25    1    1    2    0    0  0.20345421793E+01 -0.15988252068E+03 -0.51528083751E+03  0.55381034776E+03  0.12500000000E+03 0.  0.
         25    1    1    2    0    0 -0.11847256251E+03  0.13037085237E+03 -0.91575669937E+02  0.23461332132E+03  0.12500000000E+03 0.  0.
</event>
<event>
 5    0  0.5822326E-005  0.3037052E+03  0.7546771E-02  0.1083403E+00
         21   -1    0    0  502  501  0.00000000000E+00  0.00000000000E+00  0.49216641948E+03  0.49216641948E+03  0.00000000000E+00 0. -1.
         21   -1    0    0  501  502 -0.00000000000E+00 -0.00000000000E+00 -0.18740992789E+03  0.18740992789E+03  0.00000000000E+00 0. -1.
         25    1    1    2    0    0 -0.17637647984E+02 -0.13603964204E+03  0.33158266257E+03  0.37998675365E+03  0.12500000000E+03 0.  0.
         25    1    1    2    0    0  0.42791452544E+01  0.11683215885E+03 -0.18441338139E+02  0.17214281100E+03  0.12500000000E+03 0.  0.
         25    1    1    2    0    0  0.13358502730E+02  0.19207483190E+02 -0.83848328380E+01  0.12744678273E+03  0.12500000000E+03 0.  0.
</event>
<event>
 5    0  0.5822326E-005  0.3499732E+03  0.7546771E-02  0.1062626E+00
         21   -1    0    0  502  501  0.00000000000E+00  0.00000000000E+00  0.82090293203E+02  0.82090293203E+02  0.00000000000E+00 0. -1.
         21   -1    0    0  501  502 -0.00000000000E+00 -0.00000000000E+00 -0.14920306978E+04  0.14920306978E+04  0.00000000000E+00 0. -1.
         25    1    1    2    0    0  0.45983294885E+02  0.19657684147E+03 -0.10921033346E+04  0.11176187237E+04  0.12500000000E+03 0.  0.
         25    1    1    2    0    0 -0.35199991894E+02 -0.91930301254E+02 -0.11640295673E+03  0.19714174610E+03  0.12500000000E+03 0.  0.
         25    1    1    2    0    0 -0.10783302992E+02 -0.10464654021E+03 -0.20143411328E+03  0.25936052127E+03  0.12500000000E+03 0.  0.
</event>
<event>
 5    0  0.5822326E-005  0.2700333E+03  0.7546771E-02  0.1101261E+00
         21   -1    0    0  502  501  0.00000000000E+00  0.00000000000E+00  0.41128225121E+03  0.41128225121E+03  0.00000000000E+00 0. -1.
         21   -1    0    0  501  502 -0.00000000000E+00 -0.00000000000E+00 -0.17729423308E+03  0.17729423308E+03  0.00000000000E+00 0. -1.
         25    1    1    2    0    0 -0.70481953101E+02 -0.13510424972E+03  0.74528264980E+02  0.21071384930E+03  0.12500000000E+03 0.  0.
         25    1    1    2    0    0  0.10411910682E+03  0.94010298162E+02  0.15229193708E+03  0.24186061826E+03  0.12500000000E+03 0.  0.
         25    1    1    2    0    0 -0.33637153717E+02  0.41093951560E+02  0.71678160651E+01  0.13600201672E+03  0.12500000000E+03 0.  0.
</event>
<event>
 5    0  0.5822326E-005  0.3269032E+03  0.7546771E-02  0.1072515E+00
         21   -1    0    0  502  501  0.00000000000E+00  0.00000000000E+00  0.46489962915E+03  0.46489962915E+03  0.00000000000E+00 0.  1.
         21   -1    0    0  501  502 -0.00000000000E+00 -0.00000000000E+00 -0.22986832500E+03  0.22986832500E+03  0.00000000000E+00 0.  1.
         25    1    1    2    0    0 -0.44235185942E+02  0.11882099866E+03  0.26560037643E+03  0.31975575266E+03  0.12500000000E+03 0.  0.
         25    1    1    2    0    0  0.73870111042E+02 -0.18540576865E+02 -0.11985638529E+03  0.18918535723E+03  0.12500000000E+03 0.  0.
         25    1    1    2    0    0 -0.29634925100E+02 -0.10028042180E+03  0.89287313013E+02  0.18582684426E+03  0.12500000000E+03 0.  0.
</event>
<event>
 5    0  0.5822326E-005  0.5582160E+03  0.7546771E-02  0.9996099E-01
         21   -1    0    0  502  501  0.00000000000E+00  0.00000000000E+00  0.80825335825E+03  0.80825335825E+03  0.00000000000E+00 0.  1.
         21   -1    0    0  501  502 -0.00000000000E+00 -0.00000000000E+00 -0.38552894567E+03  0.38552894567E+03  0.00000000000E+00 0.  1.
         25    1    1    2    0    0 -0.22892375650E+03  0.22891897372E+02  0.17737900533E+03  0.31625691580E+03  0.12500000000E+03 0.  0.
         25    1    1    2    0    0  0.16352854598E+03  0.36815704322E+03  0.75712041184E+02  0.42853063718E+03  0.12500000000E+03 0.  0.
         25    1    1    2    0    0  0.65395210524E+02 -0.39104894059E+03  0.16963336607E+03  0.44899475095E+03  0.12500000000E+03 0.  0.
</event>
<event>
 5    0  0.5822326E-005  0.3142640E+03  0.7546771E-02  0.1078320E+00
         21   -1    0    0  502  501  0.00000000000E+00  0.00000000000E+00  0.17349137063E+03  0.17349137063E+03  0.00000000000E+00 0.  1.
         21   -1    0    0  501  502 -0.00000000000E+00 -0.00000000000E+00 -0.56926094998E+03  0.56926094998E+03  0.00000000000E+00 0.  1.
         25    1    1    2    0    0 -0.21500091632E+02 -0.62156691022E+02 -0.39084111622E+03  0.41558090224E+03  0.12500000000E+03 0.  0.
         25    1    1    2    0    0 -0.42249104514E+01  0.12747218971E+03 -0.31575187918E+02  0.18135325062E+03  0.12500000000E+03 0.  0.
         25    1    1    2    0    0  0.25725002084E+02 -0.65315498690E+02  0.26646724792E+02  0.14581816774E+03  0.12500000000E+03 0.  0.
</event>
<event>
 5    0  0.5822326E-005  0.2034399E+03  0.7546771E-02  0.1146869E+00
         21   -1    0    0  502  501  0.00000000000E+00  0.00000000000E+00  0.22267052444E+03  0.22267052444E+03  0.00000000000E+00 0. -1.
         21   -1    0    0  501  502 -0.00000000000E+00 -0.00000000000E+00 -0.18587011403E+03  0.18587011403E+03  0.00000000000E+00 0. -1.
         25    1    1    2    0    0 -0.66990568777E+02  0.29134177570E+01  0.96910075595E+01  0.14217995617E+03  0.12500000000E+03 0.  0.
         25    1    1    2    0    0  0.25276141672E+02 -0.23414870291E+02  0.29509117147E+02  0.13297716903E+03  0.12500000000E+03 0.  0.
         25    1    1    2    0    0  0.41714427105E+02  0.20501452534E+02 -0.23997142921E+01  0.13338351327E+03  0.12500000000E+03 0.  0.
</event>
<event>
 5    0  0.5822326E-005  0.6029056E+03  0.7546771E-02  0.9899396E-01
         21   -1    0    0  502  501  0.00000000000E+00  0.00000000000E+00  0.96906939347E+03  0.96906939347E+03  0.00000000000E+00 0.  1.
         21   -1    0    0  501  502 -0.00000000000E+00 -0.00000000000E+00 -0.37509714723E+03  0.37509714723E+03  0.00000000000E+00 0.  1.
         25    1    1    2    0    0 -0.29774416326E+03 -0.24424080381E+03  0.13116756347E+03  0.42559967894E+03  0.12500000000E+03 0.  0.
         25    1    1    2    0    0  0.23296153305E+02 -0.20423041783E+03  0.70312983890E+02  0.25064255430E+03  0.12500000000E+03 0.  0.
         25    1    1    2    0    0  0.27444800996E+03  0.44847122164E+03  0.39249169888E+03  0.66792430746E+03  0.12500000000E+03 0.  0.
</event>
<event>
 5    0  0.5822326E-005  0.2930060E+03  0.7546771E-02  0.1088790E+00
         21   -1    0    0  502  501  0.00000000000E+00  0.00000000000E+00  0.58175341208E+02  0.58175341208E+02  0.00000000000E+00 0. -1.
         21   -1    0    0  501  502 -0.00000000000E+00 -0.00000000000E+00 -0.14757541828E+04  0.14757541828E+04  0.00000000000E+00 0. -1.
         25    1    1    2    0    0 -0.10780395558E+03  0.71667135362E+01 -0.21850124139E+03  0.27393584488E+03  0.12500000000E+03 0.  0.
         25    1    1    2    0    0  0.45562561839E+02 -0.11292381318E+03 -0.32856224117E+03  0.37202940871E+03  0.12500000000E+03 0.  0.
         25    1    1    2    0    0  0.62241393744E+02  0.10575709964E+03 -0.87051535902E+03  0.88796427040E+03  0.12500000000E+03 0.  0.
</event>
<event>
 5    0  0.5822326E-005  0.3055791E+03  0.7546771E-02  0.1082484E+00
         21   -1    0    0  502  501  0.00000000000E+00  0.00000000000E+00  0.13745993833E+04  0.13745993833E+04  0.00000000000E+00 0.  1.
         21   -1    0    0  501  502 -0.00000000000E+00 -0.00000000000E+00 -0.67931510856E+02  0.67931510856E+02  0.00000000000E+00 0.  1.
         25    1    1    2    0    0  0.48788342872E+02 -0.77605948345E+02  0.37925257424E+03  0.40970782356E+03  0.12500000000E+03 0.  0.
         25    1    1    2    0    0 -0.11086771215E+03  0.14327380269E+03  0.80888872108E+03  0.83829886987E+03  0.12500000000E+03 0.  0.
         25    1    1    2    0    0  0.62079369275E+02 -0.65667854347E+02  0.11852657713E+03  0.19452420073E+03  0.12500000000E+03 0.  0.
</event>
<event>
 5    0  0.5822326E-005  0.2391123E+03  0.7546771E-02  0.1120386E+00
         21   -1    0    0  502  501  0.00000000000E+00  0.00000000000E+00  0.20760131845E+03  0.20760131845E+03  0.00000000000E+00 0.  1.
         21   -1    0    0  501  502 -0.00000000000E+00 -0.00000000000E+00 -0.27540624535E+03  0.27540624535E+03  0.00000000000E+00 0.  1.
         25    1    1    2    0    0 -0.75353871566E+02  0.12031680812E+01  0.16939595535E+02  0.14694081622E+03  0.12500000000E+03 0.  0.
         25    1    1    2    0    0 -0.50947736385E+02  0.17029578538E+02 -0.79032663224E+02  0.15734306545E+03  0.12500000000E+03 0.  0.
         25    1    1    2    0    0  0.12630160795E+03 -0.18232746619E+02 -0.57118592186E+01  0.17872368214E+03  0.12500000000E+03 0.  0.
</event>
<event>
 5    0  0.5952816E-005  0.2606629E+03  0.7546771E-02  0.1106746E+00
         21   -1    0    0  502  501  0.00000000000E+00  0.00000000000E+00  0.29352703925E+03  0.29352703925E+03  0.00000000000E+00 0. -1.
         21   -1    0    0  501  502 -0.00000000000E+00 -0.00000000000E+00 -0.23147828948E+03  0.23147828948E+03  0.00000000000E+00 0. -1.
         25    1    1    2    0    0  0.60890482072E+02  0.46913016010E+01  0.86734287957E+02  0.16394357513E+03  0.12500000000E+03 0.  0.
         25    1    1    2    0    0 -0.11528060757E+03  0.61552105795E+02 -0.82598254691E+02  0.19881084449E+03  0.12500000000E+03 0.  0.
         25    1    1    2    0    0  0.54390125500E+02 -0.66243407396E+02  0.57912716508E+02  0.16225090912E+03  0.12500000000E+03 0.  0.
</event>
<event>
 5    0  0.5822326E-005  0.5263458E+03  0.7546771E-02  0.1007122E+00
         21   -1    0    0  502  501  0.00000000000E+00  0.00000000000E+00  0.20019152693E+04  0.20019152693E+04  0.00000000000E+00 0.  1.
         21   -1    0    0  501  502 -0.00000000000E+00 -0.00000000000E+00 -0.13838744926E+03  0.13838744926E+03  0.00000000000E+00 0.  1.
         25    1    1    2    0    0  0.21649143982E+03  0.22831995721E+03  0.27100569267E+03  0.43366765136E+03  0.12500000000E+03 0.  0.
         25    1    1    2    0    0  0.54247374753E+02  0.12141713533E+02  0.94058329806E+03  0.95047995216E+03  0.12500000000E+03 0.  0.
         25    1    1    2    0    0 -0.27073881457E+03 -0.24046167075E+03  0.65193882930E+03  0.75615511501E+03  0.12500000000E+03 0.  0.
</event>
<event>
 5    0  0.5822326E-005  0.2856202E+03  0.7546771E-02  0.1092658E+00
         21   -1    0    0  502  501  0.00000000000E+00  0.00000000000E+00  0.63434612039E+02  0.63434612039E+02  0.00000000000E+00 0. -1.
         21   -1    0    0  501  502 -0.00000000000E+00 -0.00000000000E+00 -0.12860316169E+04  0.12860316169E+04  0.00000000000E+00 0. -1.
         25    1    1    2    0    0 -0.88983720633E+02 -0.14265122803E+02 -0.18647188653E+03  0.24190568561E+03  0.12500000000E+03 0.  0.
         25    1    1    2    0    0  0.13951066696E+03 -0.13713259312E+01 -0.88424677390E+03  0.90387082257E+03  0.12500000000E+03 0.  0.
         25    1    1    2    0    0 -0.50526946331E+02  0.15636448734E+02 -0.15187834442E+03  0.20368972074E+03  0.12500000000E+03 0.  0.
</event>
<event>
 5    0  0.5866890E-005  0.3487951E+03  0.7546771E-02  0.1063111E+00
         21   -1    0    0  502  501  0.00000000000E+00  0.00000000000E+00  0.13833800702E+04  0.13833800702E+04  0.00000000000E+00 0.  1.
         21   -1    0    0  501  502 -0.00000000000E+00 -0.00000000000E+00 -0.87942582074E+02  0.87942582074E+02  0.00000000000E+00 0.  1.
         25    1    1    2    0    0 -0.91240531215E+02  0.11092629386E+03  0.82772945694E+03  0.84934712049E+03  0.12500000000E+03 0.  0.
         25    1    1    2    0    0 -0.71935719232E+02  0.45360628802E+02  0.15668848808E+03  0.21773519845E+03  0.12500000000E+03 0.  0.
         25    1    1    2    0    0  0.16317625045E+03 -0.15628692266E+03  0.31101954314E+03  0.40424033337E+03  0.12500000000E+03 0.  0.
</event>
<event>
 5    0  0.5822326E-005  0.2567310E+03  0.7546771E-02  0.1109123E+00
         21   -1    0    0  502  501  0.00000000000E+00  0.00000000000E+00  0.25673662420E+03  0.25673662420E+03  0.00000000000E+00 0.  1.
         21   -1    0    0  501  502 -0.00000000000E+00 -0.00000000000E+00 -0.25672544106E+03  0.25672544106E+03  0.00000000000E+00 0.  1.
         25    1    1    2    0    0  0.46352710983E+02  0.41442573737E+02  0.30022480333E+02  0.14280199599E+03  0.12500000000E+03 0.  0.
         25    1    1    2    0    0 -0.63462616974E+02  0.94152676897E+02  0.38461936992E+02  0.17319512383E+03  0.12500000000E+03 0.  0.
         25    1    1    2    0    0  0.17109905991E+02 -0.13559525063E+03 -0.68473234185E+02  0.19746494544E+03  0.12500000000E+03 0.  0.
</event>
<event>
 5    0  0.5822326E-005  0.2916184E+03  0.7546771E-02  0.1089507E+00
         21   -1    0    0  502  501  0.00000000000E+00  0.00000000000E+00  0.33855803330E+03  0.33855803330E+03  0.00000000000E+00 0. -1.
         21   -1    0    0  501  502 -0.00000000000E+00 -0.00000000000E+00 -0.25118674710E+03  0.25118674710E+03  0.00000000000E+00 0. -1.
         25    1    1    2    0    0 -0.17755880342E+03  0.14260946580E+02  0.52489861782E+02  0.22385416873E+03  0.12500000000E+03 0.  0.
         25    1    1    2    0    0  0.14920619031E+03  0.49622914660E+01  0.10213502087E+03  0.21987194921E+03  0.12500000000E+03 0.  0.
         25    1    1    2    0    0  0.28352613115E+02 -0.19223238046E+02 -0.67253596453E+02  0.14601866246E+03  0.12500000000E+03 0.  0.
</event>
<event>
 5    0  0.5822326E-005  0.2768403E+03  0.7546771E-02  0.1097427E+00
         21   -1    0    0  502  501  0.00000000000E+00  0.00000000000E+00  0.16887225411E+03  0.16887225411E+03  0.00000000000E+00 0. -1.
         21   -1    0    0  501  502 -0.00000000000E+00 -0.00000000000E+00 -0.45383756643E+03  0.45383756643E+03  0.00000000000E+00 0. -1.
         25    1    1    2    0    0  0.13402696104E+03 -0.35846241527E+02 -0.44567468534E+02  0.19198812091E+03  0.12500000000E+03 0.  0.
         25    1    1    2    0    0 -0.13794665963E+03  0.35542435196E+02 -0.38749336997E+02  0.19344005976E+03  0.12500000000E+03 0.  0.
         25    1    1    2    0    0  0.39196985829E+01  0.30380633043E+00 -0.20164850678E+03  0.23728163988E+03  0.12500000000E+03 0.  0.
</event>
<event>
 5    0  0.5822326E-005  0.2717387E+03  0.7546771E-02  0.1100289E+00
         21   -1    0    0  502  501  0.00000000000E+00  0.00000000000E+00  0.66456430498E+03  0.66456430498E+03  0.00000000000E+00 0.  1.
         21   -1    0    0  501  502 -0.00000000000E+00 -0.00000000000E+00 -0.11111326053E+03  0.11111326053E+03  0.00000000000E+00 0.  1.
         25    1    1    2    0    0  0.44457006382E+02  0.77569721009E+02  0.32180218551E+02  0.15701609312E+03  0.12500000000E+03 0.  0.
         25    1    1    2    0    0 -0.11491530047E+03 -0.64863953310E+02  0.22515281848E+03  0.28936421753E+03  0.12500000000E+03 0.  0.
         25    1    1    2    0    0  0.70458294083E+02 -0.12705767698E+02  0.29611800743E+03  0.32929725486E+03  0.12500000000E+03 0.  0.
</event>
<event>
 5    0  0.5822326E-005  0.3806883E+03  0.7546771E-02  0.1050680E+00
         21   -1    0    0  502  501  0.00000000000E+00  0.00000000000E+00  0.29541336871E+03  0.29541336871E+03  0.00000000000E+00 0. -1.
         21   -1    0    0  501  502 -0.00000000000E+00 -0.00000000000E+00 -0.49057907028E+03  0.49057907028E+03  0.00000000000E+00 0. -1.
         25    1    1    2    0    0 -0.97477381602E+02  0.11346938177E+03 -0.11005798632E+03  0.22386357648E+03  0.12500000000E+03 0.  0.
         25    1    1    2    0    0  0.34876239485E+02 -0.92877474483E+02 -0.27947188857E+03  0.32182621684E+03  0.12500000000E+03 0.  0.
         25    1    1    2    0    0  0.62601142117E+02 -0.20591907290E+02  0.19436417332E+03  0.24030264566E+03  0.12500000000E+03 0.  0.
</event>
<event>
 5    0  0.5822326E-005  0.2001798E+03  0.7546771E-02  0.1149587E+00
         21   -1    0    0  502  501  0.00000000000E+00  0.00000000000E+00  0.28516876168E+02  0.28516876168E+02  0.00000000000E+00 0. -1.
         21   -1    0    0  501  502 -0.00000000000E+00 -0.00000000000E+00 -0.14052013669E+04  0.14052013669E+04  0.00000000000E+00 0. -1.
         25    1    1    2    0    0 -0.28652362170E+02 -0.12548297220E+02 -0.54330106860E+03  0.55837215974E+03  0.12500000000E+03 0.  0.
         25    1    1    2    0    0  0.50596768152E+02 -0.11144218986E+02 -0.35715157134E+03  0.38192469346E+03  0.12500000000E+03 0.  0.
         25    1    1    2    0    0 -0.21944405981E+02  0.23692516206E+02 -0.47623185077E+03  0.49342138985E+03  0.12500000000E+03 0.  0.
</event>
<event>
 5    0  0.5822326E-005  0.2873076E+03  0.7546771E-02  0.1091763E+00
         21   -1    0    0  502  501  0.00000000000E+00  0.00000000000E+00  0.78352271979E+03  0.78352271979E+03  0.00000000000E+00 0. -1.
         21   -1    0    0  501  502 -0.00000000000E+00 -0.00000000000E+00 -0.10535199734E+03  0.10535199734E+03  0.00000000000E+00 0. -1.
         25    1    1    2    0    0 -0.42937449655E+02 -0.40076231814E+02  0.37061197731E+03  0.39550975546E+03  0.12500000000E+03 0.  0.
         25    1    1    2    0    0 -0.12157165787E+03  0.31563809957E+01  0.16122435998E+03  0.23750352626E+03  0.12500000000E+03 0.  0.
         25    1    1    2    0    0  0.16450910752E+03  0.36919850819E+02  0.14633438517E+03  0.25586143540E+03  0.12500000000E+03 0.  0.
</event>
<event>
 5    0  0.5822326E-005  0.3020012E+03  0.7546771E-02  0.1084244E+00
         21   -1    0    0  502  501  0.00000000000E+00  0.00000000000E+00  0.14462927503E+03  0.14462927503E+03  0.00000000000E+00 0.  1.
         21   -1    0    0  501  502 -0.00000000000E+00 -0.00000000000E+00 -0.63061033639E+03  0.63061033639E+03  0.00000000000E+00 0.  1.
         25    1    1    2    0    0  0.18721049267E+01  0.26580964530E+02 -0.26425259932E+02  0.13051186465E+03  0.12500000000E+03 0.  0.
         25    1    1    2    0    0  0.51060587063E+02  0.16256141507E+03 -0.27957573095E+03  0.35045825223E+03  0.12500000000E+03 0.  0.
         25    1    1    2    0    0 -0.52932691990E+02 -0.18914237960E+03 -0.17998007049E+03  0.29426949454E+03  0.12500000000E+03 0.  0.
</event>
<event>
 5    0  0.5822326E-005  0.3651883E+03  0.7546771E-02  0.1056548E+00
         21   -1    0    0  502  501  0.00000000000E+00  0.00000000000E+00  0.92053662877E+03  0.92053662877E+03  0.00000000000E+00 0.  1.
         21   -1    0    0  501  502 -0.00000000000E+00 -0.00000000000E+00 -0.14487474393E+03  0.14487474393E+03  0.00000000000E+00 0.  1.
         25    1    1    2    0    0 -0.74933195973E+02 -0.11271334529E+03  0.61159213496E+02  0.19412555592E+03  0.12500000000E+03 0.  0.
         25    1    1    2    0    0 -0.15183820266E+03  0.26395969208E+01  0.42111820917E+03  0.46478742814E+03  0.12500000000E+03 0.  0.
         25    1    1    2    0    0  0.22677139864E+03  0.11007374837E+03  0.29338446218E+03  0.40649838864E+03  0.12500000000E+03 0.  0.
</event>
<event>
 5    0  0.5822326E-005  0.2494618E+03  0.7546771E-02  0.1113645E+00
         21   -1    0    0  502  501  0.00000000000E+00  0.00000000000E+00  0.16971490129E+03  0.16971490129E+03  0.00000000000E+00 0.  1.
         21   -1    0    0  501  502 -0.00000000000E+00 -0.00000000000E+00 -0.36668087865E+03  0.36668087865E+03  0.00000000000E+00 0.  1.
         25    1    1    2    0    0 -0.50975287247E+02 -0.31140467104E+02  0.40270040482E+02  0.14427364542E+03  0.12500000000E+03 0.  0.
         25    1    1    2    0    0  0.66351150772E+02 -0.11112953876E+02 -0.21469689285E+03  0.25738245618E+03  0.12500000000E+03 0.  0.
         25    1    1    2    0    0 -0.15375863524E+02  0.42253420980E+02 -0.22539125001E+02  0.13473967834E+03  0.12500000000E+03 0.  0.
</event>
<event>
 5    0  0.5822326E-005  0.3916653E+03  0.7546771E-02  0.1046704E+00
         21   -1    0    0  502  501  0.00000000000E+00  0.00000000000E+00  0.77325391045E+03  0.77325391045E+03  0.00000000000E+00 0.  1.
         21   -1    0    0  501  502 -0.00000000000E+00 -0.00000000000E+00 -0.19838467852E+03  0.19838467852E+03  0.00000000000E+00 0.  1.
         25    1    1    2    0    0  0.46337072820E+02  0.10238143973E+03  0.88414933120E+02  0.18992441633E+03  0.12500000000E+03 0.  0.
         25    1    1    2    0    0  0.20350588202E+03  0.47665744260E+02  0.37189680728E+03  0.44454347645E+03  0.12500000000E+03 0.  0.
         25    1    1    2    0    0 -0.24984295484E+03 -0.15004718399E+03  0.11455749154E+03  0.33717069620E+03  0.12500000000E+03 0.  0.
</event>
<event>
 5    0  0.5822326E-005  0.2769635E+03  0.7546771E-02  0.1097359E+00
         21   -1    0    0  502  501  0.00000000000E+00  0.00000000000E+00  0.29992232930E+03  0.29992232930E+03  0.00000000000E+00 0.  1.
         21   -1    0    0  501  502 -0.00000000000E+00 -0.00000000000E+00 -0.25576222441E+03  0.25576222441E+03  0.00000000000E+00 0.  1.
         25    1    1    2    0    0 -0.87190665153E+02  0.11541720997E+03  0.42455111766E+02  0.19583355423E+03  0.12500000000E+03 0.  0.
         25    1    1    2    0    0  0.48870316233E+02 -0.13156301529E+03 -0.80624444884E+02  0.20450534446E+03  0.12500000000E+03 0.  0.
         25    1    1    2    0    0  0.38320348920E+02  0.16145805322E+02  0.82329438008E+02  0.15534565502E+03  0.12500000000E+03 0.  0.
</event>
<event>
 5    0  0.5822326E-005  0.3514112E+03  0.7546771E-02  0.1062037E+00
         21   -1    0    0  502  501  0.00000000000E+00  0.00000000000E+00  0.60717678422E+02  0.60717678422E+02  0.00000000000E+00 0.  1.
         21   -1    0    0  501  502 -0.00000000000E+00 -0.00000000000E+00 -0.20338363631E+04  0.20338363631E+04  0.00000000000E+00 0.  1.
         25    1    1    2    0    0  0.26267564418E+03  0.28676152105E+01 -0.11550307869E+04  0.11911036210E+04  0.12500000000E+03 0.  0.
         25    1    1    2    0    0 -0.14781761999E+03 -0.57372480298E+02 -0.49168915284E+03  0.53153068895E+03  0.12500000000E+03 0.  0.
         25    1    1    2    0    0 -0.11485802418E+03  0.54504865087E+02 -0.32639874493E+03  0.37191973157E+03  0.12500000000E+03 0.  0.
</event>
<event>
 5    0  0.5822326E-005  0.3606897E+03  0.7546771E-02  0.1058311E+00
         21   -1    0    0  502  501  0.00000000000E+00  0.00000000000E+00  0.24382144240E+03  0.24382144240E+03  0.00000000000E+00 0. -1.
         21   -1    0    0  501  502 -0.00000000000E+00 -0.00000000000E+00 -0.53357525206E+03  0.53357525206E+03  0.00000000000E+00 0. -1.
         25    1    1    2    0    0 -0.16316306967E+03 -0.11787348546E+03 -0.21131572902E+03  0.31748335895E+03  0.12500000000E+03 0.  0.
         25    1    1    2    0    0 -0.36469528240E+02 -0.63384840914E+02 -0.74094167797E+02  0.16267332372E+03  0.12500000000E+03 0.  0.
         25    1    1    2    0    0  0.19963259791E+03  0.18125832637E+03 -0.43439128467E+01  0.29724001179E+03  0.12500000000E+03 0.  0.
</event>
<event>
 5    0  0.5822326E-005  0.3604918E+03  0.7546771E-02  0.1058389E+00
         21   -1    0    0  502  501  0.00000000000E+00  0.00000000000E+00  0.17482523651E+04  0.17482523651E+04  0.00000000000E+00 0.  1.
         21   -1    0    0  501  502 -0.00000000000E+00 -0.00000000000E+00 -0.74333850979E+02  0.74333850979E+02  0.00000000000E+00 0. -1.
         25    1    1    2    0    0 -0.27523605677E+01  0.24519525893E+03  0.44542634397E+03  0.52360091519E+03  0.12500000000E+03 0.  0.
         25    1    1    2    0    0  0.84878677951E+02 -0.29176039692E+02  0.35716194659E+03  0.38890267080E+03  0.12500000000E+03 0.  0.
         25    1    1    2    0    0 -0.82126317384E+02 -0.21601921924E+03  0.87133022358E+03  0.91008263010E+03  0.12500000000E+03 0.  0.
</event>
<event>
 5    0  0.5822326E-005  0.3328178E+03  0.7546771E-02  0.1069897E+00
         21   -1    0    0  502  501  0.00000000000E+00  0.00000000000E+00  0.10301254289E+03  0.10301254289E+03  0.00000000000E+00 0. -1.
         21   -1    0    0  501  502 -0.00000000000E+00 -0.00000000000E+00 -0.10752832111E+04  0.10752832111E+04  0.00000000000E+00 0. -1.
         25    1    1    2    0    0 -0.40827826596E+01 -0.18106443976E+03 -0.10058244563E+03  0.24195625396E+03  0.12500000000E+03 0.  0.
         25    1    1    2    0    0  0.70672199409E+02  0.10350324090E+03 -0.52130497845E+03  0.55053733861E+03  0.12500000000E+03 0.  0.
         25    1    1    2    0    0 -0.66589416749E+02  0.77561198865E+02 -0.35038324409E+03  0.38580216139E+03  0.12500000000E+03 0.  0.
</event>
<event>
 5    0  0.5822326E-005  0.3382977E+03  0.7546771E-02  0.1067523E+00
         21   -1    0    0  502  501  0.00000000000E+00  0.00000000000E+00  0.10519493342E+03  0.10519493342E+03  0.00000000000E+00 0. -1.
         21   -1    0    0  501  502 -0.00000000000E+00 -0.00000000000E+00 -0.10879359908E+04  0.10879359908E+04  0.00000000000E+00 0. -1.
         25    1    1    2    0    0  0.10658289441E+03  0.26017090759E+02 -0.12444846727E+03  0.20772391148E+03  0.12500000000E+03 0.  0.
         25    1    1    2    0    0 -0.21348685188E+03 -0.13854125465E+03 -0.46836458057E+03  0.54750405980E+03  0.12500000000E+03 0.  0.
         25    1    1    2    0    0  0.10690395746E+03  0.11252416389E+03 -0.38992800957E+03  0.43790295298E+03  0.12500000000E+03 0.  0.
</event>
<event>
 5    0  0.5822326E-005  0.3609357E+03  0.7546771E-02  0.1058214E+00
         21   -1    0    0  502  501  0.00000000000E+00  0.00000000000E+00  0.75913805226E+02  0.75913805226E+02  0.00000000000E+00 0. -1.
         21   -1    0    0  501  502 -0.00000000000E+00 -0.00000000000E+00 -0.17160852089E+04  0.17160852089E+04  0.00000000000E+00 0. -1.
         25    1    1    2    0    0  0.75516470159E+02  0.77642834770E+02 -0.59255416419E+02  0.17569106816E+03  0.12500000000E+03 0.  0.
         25    1    1    2    0    0 -0.13089348143E+03 -0.80749521303E+02 -0.86061168101E+03  0.88313705288E+03  0.12500000000E+03 0.  0.
         25    1    1    2    0    0  0.55377011270E+02  0.31066865337E+01 -0.72030430625E+03  0.73317089309E+03  0.12500000000E+03 0.  0.
</event>
<event>
 5    0  0.5822326E-005  0.2948461E+03  0.7546771E-02  0.1087846E+00
         21   -1    0    0  502  501  0.00000000000E+00  0.00000000000E+00  0.55492738777E+03  0.55492738777E+03  0.00000000000E+00 0. -1.
         21   -1    0    0  501  502 -0.00000000000E+00 -0.00000000000E+00 -0.15665873911E+03  0.15665873911E+03  0.00000000000E+00 0. -1.
         25    1    1    2    0    0  0.57928343887E+02  0.35927293241E+02  0.44041026827E+02  0.14903380646E+03  0.12500000000E+03 0.  0.
         25    1    1    2    0    0  0.82930247763E+02 -0.13852226590E+02  0.34062516561E+03  0.37245108890E+03  0.12500000000E+03 0.  0.
         25    1    1    2    0    0 -0.14085859165E+03 -0.22075066651E+02  0.13602456228E+02  0.19010123152E+03  0.12500000000E+03 0.  0.
</event>
<event>
 5    0  0.5822326E-005  0.4116201E+03  0.7546771E-02  0.1039829E+00
         21   -1    0    0  502  501  0.00000000000E+00  0.00000000000E+00  0.84332001830E+03  0.84332001830E+03  0.00000000000E+00 0.  1.
         21   -1    0    0  501  502 -0.00000000000E+00 -0.00000000000E+00 -0.20090966829E+03  0.20090966829E+03  0.00000000000E+00 0.  1.
         25    1    1    2    0    0 -0.18759651295E+02  0.71849509815E+02  0.35076903107E+02  0.14956492139E+03  0.12500000000E+03 0.  0.
         25    1    1    2    0    0  0.24733428165E+03 -0.12559160507E+03  0.97309458428E+02  0.31943955429E+03  0.12500000000E+03 0.  0.
         25    1    1    2    0    0 -0.22857463036E+03  0.53742095251E+02  0.51002398848E+03  0.57522521091E+03  0.12500000000E+03 0.  0.
</event>
<event>
 5    0  0.6523339E-005  0.2554749E+03  0.7546771E-02  0.1109893E+00
         21   -1    0    0  502  501  0.00000000000E+00  0.00000000000E+00  0.47747389228E+03  0.47747389228E+03  0.00000000000E+00 0.  1.
         21   -1    0    0  501  502 -0.00000000000E+00 -0.00000000000E+00 -0.13669319986E+03  0.13669319986E+03  0.00000000000E+00 0.  1.
         25    1    1    2    0    0 -0.68357710952E+02  0.29834734579E+02  0.56827440246E+02  0.15626018686E+03  0.12500000000E+03 0.  0.
         25    1    1    2    0    0  0.87324604201E+02 -0.12662921460E+03  0.13455198142E+03  0.23956164174E+03  0.12500000000E+03 0.  0.
         25    1    1    2    0    0 -0.18966893249E+02  0.96794480020E+02  0.14940127075E+03  0.21834526353E+03  0.12500000000E+03 0.  0.
</event>
<event>
 5    0  0.5822326E-005  0.3059759E+03  0.7546771E-02  0.1082291E+00
         21   -1    0    0  502  501  0.00000000000E+00  0.00000000000E+00  0.25775420538E+03  0.25775420538E+03  0.00000000000E+00 0. -1.
         21   -1    0    0  501  502 -0.00000000000E+00 -0.00000000000E+00 -0.36321904340E+03  0.36321904340E+03  0.00000000000E+00 0. -1.
         25    1    1    2    0    0 -0.12232341865E+02  0.10557781994E+03 -0.11125821760E+03  0.19824151239E+03  0.12500000000E+03 0.  0.
         25    1    1    2    0    0 -0.14670597137E+03 -0.82909481130E+01  0.36224716708E+02  0.19628706518E+03  0.12500000000E+03 0.  0.
         25    1    1    2    0    0  0.15893831324E+03 -0.97286871829E+02 -0.30431337134E+02  0.22644467122E+03  0.12500000000E+03 0.  0.
</event>
<event>
 5    0  0.5822326E-005  0.2181202E+03  0.7546771E-02  0.1135292E+00
         21   -1    0    0  502  501  0.00000000000E+00  0.00000000000E+00  0.13935254828E+04  0.13935254828E+04  0.00000000000E+00 0.  1.
         21   -1    0    0  501  502 -0.00000000000E+00 -0.00000000000E+00 -0.34141034596E+02  0.34141034596E+02  0.00000000000E+00 0.  1.
         25    1    1    2    0    0 -0.53705488388E+02  0.48589856207E+01  0.61968260493E+03  0.63445994363E+03  0.12500000000E+03 0.  0.
         25    1    1    2    0    0  0.46415698548E+02  0.48066508947E+02  0.47416529710E+03  0.49489648951E+03  0.12500000000E+03 0.  0.
         25    1    1    2    0    0  0.72897898402E+01 -0.52925494568E+02  0.26553654616E+03  0.29831008423E+03  0.12500000000E+03 0.  0.
</event>
<event>
 5    0  0.5822326E-005  0.3795451E+03  0.7546771E-02  0.1051102E+00
         21   -1    0    0  502  501  0.00000000000E+00  0.00000000000E+00  0.99662025333E+03  0.99662025333E+03  0.00000000000E+00 0.  1.
         21   -1    0    0  501  502 -0.00000000000E+00 -0.00000000000E+00 -0.14454301871E+03  0.14454301871E+03  0.00000000000E+00 0.  1.
         25    1    1    2    0    0 -0.26181110604E+03 -0.10985981268E+02  0.53567640936E+03  0.60929464348E+03  0.12500000000E+03 0.  0.
         25    1    1    2    0    0  0.52355627588E+02  0.17511344181E+02  0.56473214567E+01  0.13676494856E+03  0.12500000000E+03 0.  0.
         25    1    1    2    0    0  0.20945547846E+03 -0.65253629131E+01  0.31075350381E+03  0.39510368000E+03  0.12500000000E+03 0.  0.
</event>
<event>
 5    0  0.5822326E-005  0.2537771E+03  0.7546771E-02  0.1110941E+00
         21   -1    0    0  502  501  0.00000000000E+00  0.00000000000E+00  0.88032480946E+02  0.88032480946E+02  0.00000000000E+00 0.  1.
         21   -1    0    0  501  502 -0.00000000000E+00 -0.00000000000E+00 -0.73158024364E+03  0.73158024364E+03  0.00000000000E+00 0.  1.
         25    1    1    2    0    0  0.50641689054E+01  0.48839117807E+02 -0.28094651703E+03  0.31139500745E+03  0.12500000000E+03 0.  0.
         25    1    1    2    0    0  0.56257648934E+01  0.80293072865E+02 -0.26390061186E+03  0.30289793614E+03  0.12500000000E+03 0.  0.
         25    1    1    2    0    0 -0.10689933799E+02 -0.12913219067E+03 -0.98700633807E+02  0.20531978099E+03  0.12500000000E+03 0.  0.
</event>
<event>
 5    0  0.5822326E-005  0.2414779E+03  0.7546771E-02  0.1118812E+00
         21   -1    0    0  502  501  0.00000000000E+00  0.00000000000E+00  0.20098682157E+03  0.20098682157E+03  0.00000000000E+00 0. -1.
         21   -1    0    0  501  502 -0.00000000000E+00 -0.00000000000E+00 -0.29012633460E+03  0.29012633460E+03  0.00000000000E+00 0. -1.
         25    1    1    2    0    0 -0.18036068539E+02  0.79284656626E+02 -0.77113868670E+02  0.16787764975E+03  0.12500000000E+03 0.  0.
         25    1    1    2    0    0 -0.64605363651E+02  0.18778412350E+02 -0.23039595037E+02  0.14381343721E+03  0.12500000000E+03 0.  0.
         25    1    1    2    0    0  0.82641432190E+02 -0.98063068975E+02  0.11013950673E+02  0.17942206921E+03  0.12500000000E+03 0.  0.
</event>
<event>
 5    0  0.5822326E-005  0.3087554E+03  0.7546771E-02  0.1080944E+00
         21   -1    0    0  502  501  0.00000000000E+00  0.00000000000E+00  0.11307396906E+03  0.11307396906E+03  0.00000000000E+00 0. -1.
         21   -1    0    0  501  502 -0.00000000000E+00 -0.00000000000E+00 -0.84307544645E+03  0.84307544645E+03  0.00000000000E+00 0. -1.
         25    1    1    2    0    0 -0.87975101203E+02 -0.23863384232E+02 -0.77157225263E+02  0.17287948678E+03  0.12500000000E+03 0.  0.
         25    1    1    2    0    0  0.62885865871E+02 -0.14605723174E+03 -0.43108560726E+03  0.47617974323E+03  0.12500000000E+03 0.  0.
         25    1    1    2    0    0  0.25089235332E+02  0.16992061598E+03 -0.22175864486E+03  0.30709018551E+03  0.12500000000E+03 0.  0.
</event>
<event>
 5    0  0.5822326E-005  0.3455459E+03  0.7546771E-02  0.1064458E+00
         21   -1    0    0  502  501  0.00000000000E+00  0.00000000000E+00  0.18604231071E+03  0.18604231071E+03  0.00000000000E+00 0.  1.
         21   -1    0    0  501  502 -0.00000000000E+00 -0.00000000000E+00 -0.64180023396E+03  0.64180023396E+03  0.00000000000E+00 0.  1.
         25    1    1    2    0    0 -0.20193117144E+03  0.29399946604E+02 -0.38373192140E+03  0.45223416762E+03  0.12500000000E+03 0.  0.
         25    1    1    2    0    0  0.17049791718E+03  0.57873538126E+01  0.21408684509E+02  0.21257084702E+03  0.12500000000E+03 0.  0.
         25    1    1    2    0    0  0.31433254254E+02 -0.35187300417E+02 -0.93434686357E+02  0.16303753003E+03  0.12500000000E+03 0.  0.
</event>
<event>
 5    0  0.5822326E-005  0.2662116E+03  0.7546771E-02  0.1103468E+00
         21   -1    0    0  502  501  0.00000000000E+00  0.00000000000E+00  0.28687982709E+04  0.28687982709E+04  0.00000000000E+00 0. -1.
         21   -1    0    0  501  502 -0.00000000000E+00 -0.00000000000E+00 -0.24703247695E+02  0.24703247695E+02  0.00000000000E+00 0. -1.
         25    1    1    2    0    0 -0.15118950995E+03 -0.57446134455E+02  0.90249346106E+03  0.92535278329E+03  0.12500000000E+03 0.  0.
         25    1    1    2    0    0  0.77519677313E+02  0.87902275248E+02  0.11633834283E+04  0.11759345695E+04  0.12500000000E+03 0.  0.
         25    1    1    2    0    0  0.73669832639E+02 -0.30456140792E+02  0.77821813385E+03  0.79221416587E+03  0.12500000000E+03 0.  0.
</event>
<event>
 5    0  0.5822326E-005  0.3164079E+03  0.7546771E-02  0.1077314E+00
         21   -1    0    0  502  501  0.00000000000E+00  0.00000000000E+00  0.23524621338E+03  0.23524621338E+03  0.00000000000E+00 0. -1.
         21   -1    0    0  501  502 -0.00000000000E+00 -0.00000000000E+00 -0.42557105824E+03  0.42557105824E+03  0.00000000000E+00 0. -1.
         25    1    1    2    0    0 -0.26715960063E+02 -0.80244779776E+02 -0.16733648551E+03  0.22534299764E+03  0.12500000000E+03 0.  0.
         25    1    1    2    0    0  0.13985771260E+03 -0.76183617166E+02 -0.33655242451E+02  0.20523595846E+03  0.12500000000E+03 0.  0.
         25    1    1    2    0    0 -0.11314175254E+03  0.15642839694E+03  0.10666883106E+02  0.23023831552E+03  0.12500000000E+03 0.  0.
</event>
<event>
 5    0  0.6404302E-005  0.2815233E+03  0.7546771E-02  0.1094860E+00
         21   -1    0    0  502  501  0.00000000000E+00  0.00000000000E+00  0.66584322378E+03  0.66584322378E+03  0.00000000000E+00 0. -1.
         21   -1    0    0  501  502 -0.00000000000E+00 -0.00000000000E+00 -0.11903004366E+03  0.11903004366E+03  0.00000000000E+00 0. -1.
         25    1    1    2    0    0 -0.90178417411E+02 -0.77216469265E+02  0.18843042989E+03  0.25539294626E+03  0.12500000000E+03 0.  0.
         25    1    1    2    0    0 -0.29338674092E+02 -0.78041967830E+02  0.92958571965E+02  0.17668503797E+03  0.12500000000E+03 0.  0.
         25    1    1    2    0    0  0.11951709150E+03  0.15525843709E+03  0.26542417827E+03  0.35279528322E+03  0.12500000000E+03 0.  0.
</event>
<event>
 5    0  0.5822326E-005  0.3619541E+03  0.7546771E-02  0.1057813E+00
         21   -1    0    0  502  501  0.00000000000E+00  0.00000000000E+00  0.11859313136E+04  0.11859313136E+04  0.00000000000E+00 0. -1.
         21   -1    0    0  501  502 -0.00000000000E+00 -0.00000000000E+00 -0.11047078727E+03  0.11047078727E+03  0.00000000000E+00 0. -1.
         25    1    1    2    0    0  0.53088085928E+02 -0.21883080122E+02  0.25977984184E+03  0.29395200337E+03  0.12500000000E+03 0.  0.
         25    1    1    2    0    0  0.13609646096E+03 -0.10574568025E+03  0.67262368646E+03  0.70551542801E+03  0.12500000000E+03 0.  0.
         25    1    1    2    0    0 -0.18918454689E+03  0.12762876037E+03  0.14305699802E+03  0.29693466947E+03  0.12500000000E+03 0.  0.
</event>
<event>
 5    0  0.5822326E-005  0.2839374E+03  0.7546771E-02  0.1093558E+00
         21   -1    0    0  502  501  0.00000000000E+00  0.00000000000E+00  0.94999834759E+02  0.94999834759E+02  0.00000000000E+00 0.  1.
         21   -1    0    0  501  502 -0.00000000000E+00 -0.00000000000E+00 -0.84863788933E+03  0.84863788933E+03  0.00000000000E+00 0.  1.
         25    1    1    2    0    0 -0.10500980091E+03 -0.11867530400E+02 -0.10147389169E+03  0.19258724584E+03  0.12500000000E+03 0.  0.
         25    1    1    2    0    0  0.10865800767E+03  0.86882879910E+02 -0.52586011310E+03  0.55812996336E+03  0.12500000000E+03 0.  0.
         25    1    1    2    0    0 -0.36482067653E+01 -0.75015349510E+02 -0.12630404978E+03  0.19292051489E+03  0.12500000000E+03 0.  0.
</event>
<event>
 5    0  0.5822326E-005  0.2971882E+03  0.7546771E-02  0.1086655E+00
         21   -1    0    0  502  501  0.00000000000E+00  0.00000000000E+00  0.14854224634E+04  0.14854224634E+04  0.00000000000E+00 0.  1.
         21   -1    0    0  501  502 -0.00000000000E+00 -0.00000000000E+00 -0.59458400065E+02  0.59458400065E+02  0.00000000000E+00 0.  1.
         25    1    1    2    0    0 -0.29889416636E+01  0.63371513286E+02  0.11894093829E+03  0.18383913966E+03  0.12500000000E+03 0.  0.
         25    1    1    2    0    0  0.10530481381E+03  0.52897034471E+02  0.75317415197E+03  0.77251763945E+03  0.12500000000E+03 0.  0.
         25    1    1    2    0    0 -0.10231587215E+03 -0.11626854776E+03  0.55384897309E+03  0.58852408437E+03  0.12500000000E+03 0.  0.
</event>
<event>
 5    0  0.5822326E-005  0.3594969E+03  0.7546771E-02  0.1058783E+00
         21   -1    0    0  502  501  0.00000000000E+00  0.00000000000E+00  0.12582666388E+04  0.12582666388E+04  0.00000000000E+00 0.  1.
         21   -1    0    0  501  502 -0.00000000000E+00 -0.00000000000E+00 -0.10271114731E+03  0.10271114731E+03  0.00000000000E+00 0.  1.
         25    1    1    2    0    0 -0.13615254885E+03  0.10175737069E+03  0.28474748987E+03  0.35439838041E+03  0.12500000000E+03 0.  0.
         25    1    1    2    0    0  0.91533073156E+02 -0.24569833787E+03  0.38104930680E+03  0.47913416798E+03  0.12500000000E+03 0.  0.
         25    1    1    2    0    0  0.44619475699E+02  0.14394096718E+03  0.48975869483E+03  0.52744523773E+03  0.12500000000E+03 0.  0.
</event>
<event>
 5    0  0.5822326E-005  0.3126949E+03  0.7546771E-02  0.1079061E+00
         21   -1    0    0  502  501  0.00000000000E+00  0.00000000000E+00  0.60714682276E+03  0.60714682276E+03  0.00000000000E+00 0.  1.
         21   -1    0    0  501  502 -0.00000000000E+00 -0.00000000000E+00 -0.16104523845E+03  0.16104523845E+03  0.00000000000E+00 0.  1.
         25    1    1    2    0    0  0.26052117627E+02  0.36916338043E+02  0.39964215048E+02  0.13879361416E+03  0.12500000000E+03 0.  0.
         25    1    1    2    0    0 -0.12480251502E+03 -0.83356629409E+02  0.50948559562E+01  0.19538411650E+03  0.12500000000E+03 0.  0.
         25    1    1    2    0    0  0.98750397393E+02  0.46440291366E+02  0.40104251331E+03  0.43401433055E+03  0.12500000000E+03 0.  0.
</event>
<event>
 5    0  0.5822326E-005  0.3125390E+03  0.7546771E-02  0.1079135E+00
         21   -1    0    0  502  501  0.00000000000E+00  0.00000000000E+00  0.22577171673E+03  0.22577171673E+03  0.00000000000E+00 0. -1.
         21   -1    0    0  501  502 -0.00000000000E+00 -0.00000000000E+00 -0.43265226111E+03  0.43265226111E+03  0.00000000000E+00 0. -1.
         25    1    1    2    0    0  0.34514049605E+02  0.16836495448E+03 -0.15155000239E+02  0.21305551283E+03  0.12500000000E+03 0.  0.
         25    1    1    2    0    0  0.77595368103E+02 -0.10141438091E+03  0.42671565704E+01  0.17874318569E+03  0.12500000000E+03 0.  0.
         25    1    1    2    0    0 -0.11210941771E+03 -0.66950573564E+02 -0.19599270071E+03  0.26662527932E+03  0.12500000000E+03 0.  0.
</event>
<event>
 5    0  0.5822326E-005  0.2819751E+03  0.7546771E-02  0.1094615E+00
         21   -1    0    0  502  501  0.00000000000E+00  0.00000000000E+00  0.12696685973E+04  0.12696685973E+04  0.00000000000E+00 0.  1.
         21   -1    0    0  501  502 -0.00000000000E+00 -0.00000000000E+00 -0.62622586928E+02  0.62622586928E+02  0.00000000000E+00 0.  1.
         25    1    1    2    0    0  0.17516868043E+02 -0.29858555190E+02  0.77696718684E+02  0.15119574755E+03  0.12500000000E+03 0.  0.
         25    1    1    2    0    0  0.75578773183E+01  0.49224922710E+02  0.18933704011E+03  0.23227942071E+03  0.12500000000E+03 0.  0.
         25    1    1    2    0    0 -0.25074745361E+02 -0.19366367521E+02  0.94001225158E+03  0.94881601598E+03  0.12500000000E+03 0.  0.
</event>
<event>
 5    0  0.5822326E-005  0.4567683E+03  0.7546771E-02  0.1025723E+00
         21   -1    0    0  502  501  0.00000000000E+00  0.00000000000E+00  0.60350656408E+03  0.60350656408E+03  0.00000000000E+00 0.  1.
         21   -1    0    0  501  502 -0.00000000000E+00 -0.00000000000E+00 -0.34570845197E+03  0.34570845197E+03  0.00000000000E+00 0.  1.
         25    1    1    2    0    0  0.17912873353E+03  0.88279524710E+02  0.36359973451E+03  0.43325528801E+03  0.12500000000E+03 0.  0.
         25    1    1    2    0    0  0.91733748594E+02 -0.10722107083E+03 -0.10756235196E+03  0.21703939324E+03  0.12500000000E+03 0.  0.
         25    1    1    2    0    0 -0.27086248212E+03  0.18941546118E+02  0.17607295602E+01  0.29892033480E+03  0.12500000000E+03 0.  0.
</event>
<event>
 5    0  0.5822326E-005  0.3039301E+03  0.7546771E-02  0.1083292E+00
         21   -1    0    0  502  501  0.00000000000E+00  0.00000000000E+00  0.30743918202E+03  0.30743918202E+03  0.00000000000E+00 0. -1.
         21   -1    0    0  501  502 -0.00000000000E+00 -0.00000000000E+00 -0.30046097280E+03  0.30046097280E+03  0.00000000000E+00 0. -1.
         25    1    1    2    0    0 -0.18013854072E+02  0.50743577505E+02 -0.62931189808E+02  0.14994913887E+03  0.12500000000E+03 0.  0.
         25    1    1    2    0    0  0.42205984254E+02  0.20787637784E+02  0.21434555315E+03  0.25255194940E+03  0.12500000000E+03 0.  0.
         25    1    1    2    0    0 -0.24192130183E+02 -0.71531215289E+02 -0.14443615413E+03  0.20539906656E+03  0.12500000000E+03 0.  0.
</event>
<event>
 5    0  0.5822326E-005  0.4036360E+03  0.7546771E-02  0.1042528E+00
         21   -1    0    0  502  501  0.00000000000E+00  0.00000000000E+00  0.16045092305E+04  0.16045092305E+04  0.00000000000E+00 0.  1.
         21   -1    0    0  501  502 -0.00000000000E+00 -0.00000000000E+00 -0.10154009796E+03  0.10154009796E+03  0.00000000000E+00 0.  1.
         25    1    1    2    0    0  0.13018818164E+03 -0.16325160287E+03  0.55902686154E+03  0.60970163228E+03  0.12500000000E+03 0.  0.
         25    1    1    2    0    0  0.97760505242E+02  0.11504585132E+03  0.11723850763E+03  0.22839118188E+03  0.12500000000E+03 0.  0.
         25    1    1    2    0    0 -0.22794868688E+03  0.48205751547E+02  0.82670376333E+03  0.86795651426E+03  0.12500000000E+03 0.  0.
</event>
<event>
 5    0  0.5822326E-005  0.3954124E+03  0.7546771E-02  0.1045380E+00
         21   -1    0    0  502  501  0.00000000000E+00  0.00000000000E+00  0.12789430206E+03  0.12789430206E+03  0.00000000000E+00 0.  1.
         21   -1    0    0  501  502 -0.00000000000E+00 -0.00000000000E+00 -0.12225011819E+04  0.12225011819E+04  0.00000000000E+00 0.  1.
         25    1    1    2    0    0 -0.14473379655E+03  0.90136941659E+02 -0.73622102028E+03  0.76597580303E+03  0.12500000000E+03 0.  0.
         25    1    1    2    0    0 -0.83931041544E+01 -0.91748990501E+02 -0.35415105048E+03  0.38669922164E+03  0.12500000000E+03 0.  0.
         25    1    1    2    0    0  0.15312690070E+03  0.16120488417E+01 -0.42348090757E+01  0.19772045930E+03  0.12500000000E+03 0.  0.
</event>
<event>
 5    0  0.5822326E-005  0.3552165E+03  0.7546771E-02  0.1060494E+00
         21   -1    0    0  502  501  0.00000000000E+00  0.00000000000E+00  0.11907732293E+03  0.11907732293E+03  0.00000000000E+00 0.  1.
         21   -1    0    0  501  502 -0.00000000000E+00 -0.00000000000E+00 -0.10596372255E+04  0.10596372255E+04  0.00000000000E+00 0.  1.
         25    1    1    2    0    0  0.43526213431E+02 -0.96145397282E+02 -0.26796611218E+03  0.31395749067E+03  0.12500000000E+03 0.  0.
         25    1    1    2    0    0 -0.16480619668E+03  0.11483411159E+03 -0.84649254074E+02  0.25127365931E+03  0.12500000000E+03 0.  0.
         25    1    1    2    0    0  0.12127998325E+03 -0.18688714307E+02 -0.58794453631E+03  0.61348339844E+03  0.12500000000E+03 0.  0.
</event>
<event>
 5    0  0.5822326E-005  0.2358601E+03  0.7546771E-02  0.1122582E+00
         21   -1    0    0  502  501  0.00000000000E+00  0.00000000000E+00  0.12955426881E+03  0.12955426881E+03  0.00000000000E+00 0.  1.
         21   -1    0    0  501  502 -0.00000000000E+00 -0.00000000000E+00 -0.42939520943E+03  0.42939520943E+03  0.00000000000E+00 0.  1.
         25    1    1    2    0    0  0.27962997005E+01  0.23322051015E+02  0.36943169543E+02  0.13244446055E+03  0.12500000000E+03 0.  0.
         25    1    1    2    0    0 -0.33022272757E+02  0.39325135827E+01 -0.18456740771E+03  0.22537981975E+03  0.12500000000E+03 0.  0.
         25    1    1    2    0    0  0.30225973056E+02 -0.27254564598E+02 -0.15221670246E+03  0.20112519794E+03  0.12500000000E+03 0.  0.
</event>
<event>
 5    0  0.5822326E-005  0.2949035E+03  0.7546771E-02  0.1087816E+00
         21   -1    0    0  502  501  0.00000000000E+00  0.00000000000E+00  0.32510150439E+02  0.32510150439E+02  0.00000000000E+00 0. -1.
         21   -1    0    0  501  502 -0.00000000000E+00 -0.00000000000E+00 -0.26751053931E+04  0.26751053931E+04  0.00000000000E+00 0. -1.
         25    1    1    2    0    0  0.17917975078E+02 -0.23271697218E+02 -0.15145813401E+03  0.19856281646E+03  0.12500000000E+03 0.  0.
         25    1    1    2    0    0  0.47838844944E+02  0.69178500498E+02 -0.12907766316E+04  0.12995397388E+04  0.12500000000E+03 0.  0.
         25    1    1    2    0    0 -0.65756820023E+02 -0.45906803280E+02 -0.12003604771E+04  0.12095129883E+04  0.12500000000E+03 0.  0.
</event>
<event>
 5    0  0.5822326E-005  0.2872419E+03  0.7546771E-02  0.1091798E+00
         21   -1    0    0  502  501  0.00000000000E+00  0.00000000000E+00  0.14281398085E+04  0.14281398085E+04  0.00000000000E+00 0. -1.
         21   -1    0    0  501  502 -0.00000000000E+00 -0.00000000000E+00 -0.57772993822E+02  0.57772993822E+02  0.00000000000E+00 0. -1.
         25    1    1    2    0    0 -0.94411824428E+02 -0.86907833161E+02  0.17950592549E+03  0.25360193482E+03  0.12500000000E+03 0.  0.
         25    1    1    2    0    0  0.83934687259E+02  0.10200523909E+03  0.55560091271E+03  0.58460882198E+03  0.12500000000E+03 0.  0.
         25    1    1    2    0    0  0.10477137170E+02 -0.15097405927E+02  0.63525997644E+03  0.64770204549E+03  0.12500000000E+03 0.  0.
</event>
<event>
 5    0  0.5822326E-005  0.4288696E+03  0.7546771E-02  0.1034218E+00
         21   -1    0    0  502  501  0.00000000000E+00  0.00000000000E+00  0.15666934180E+04  0.15666934180E+04  0.00000000000E+00 0. -1.
         21   -1    0    0  501  502 -0.00000000000E+00 -0.00000000000E+00 -0.11739958194E+03  0.11739958194E+03  0.00000000000E+00 0. -1.
         25    1    1    2    0    0 -0.10214115454E+03 -0.12562320683E+03  0.78687034212E+02  0.21915897175E+03  0.12500000000E+03 0.  0.
         25    1    1    2    0    0  0.12675634496E+03  0.24078630209E+03  0.11320812276E+04  0.11710158496E+04  0.12500000000E+03 0.  0.
         25    1    1    2    0    0 -0.24615190426E+02 -0.11516309525E+03  0.23852557433E+03  0.29391817861E+03  0.12500000000E+03 0.  0.
</event>
<event>
 5    0  0.5822326E-005  0.2500711E+03  0.7546771E-02  0.1113260E+00
         21   -1    0    0  502  501  0.00000000000E+00  0.00000000000E+00  0.46608309110E+03  0.46608309110E+03  0.00000000000E+00 0.  1.
         21   -1    0    0  501  502 -0.00000000000E+00 -0.00000000000E+00 -0.13417259172E+03  0.13417259172E+03  0.00000000000E+00 0.  1.
         25    1    1    2    0    0  0.84670982896E+02 -0.61221480074E+01  0.12916538333E+03  0.19878468827E+03  0.12500000000E+03 0.  0.
         25    1    1    2    0    0  0.53783667077E+02 -0.52998509960E+02  0.12000974654E+03  0.18902080353E+03  0.12500000000E+03 0.  0.
         25    1    1    2    0    0 -0.13845464997E+03  0.59120657968E+02  0.82735369513E+02  0.21245019102E+03  0.12500000000E+03 0.  0.
</event>
<event>
 5    0  0.5822326E-005  0.3484481E+03  0.7546771E-02  0.1063254E+00
         21   -1    0    0  502  501  0.00000000000E+00  0.00000000000E+00  0.28052016738E+03  0.28052016738E+03  0.00000000000E+00 0. -1.
         21   -1    0    0  501  502 -0.00000000000E+00 -0.00000000000E+00 -0.43282481234E+03  0.43282481234E+03  0.00000000000E+00 0. -1.
         25    1    1    2    0    0 -0.27327889022E+02  0.79900526564E+02 -0.27819267318E+02  0.15339432616E+03  0.12500000000E+03 0.  0.
         25    1    1    2    0    0  0.13083897266E+02  0.17714132244E+03  0.52515771817E+02  0.22345725044E+03  0.12500000000E+03 0.  0.
         25    1    1    2    0    0  0.14243991757E+02 -0.25704184900E+03 -0.17700114946E+03  0.33649340313E+03  0.12500000000E+03 0.  0.
</event>
<event>
 5    0  0.5822326E-005  0.2248130E+03  0.7546771E-02  0.1130345E+00
         21   -1    0    0  502  501  0.00000000000E+00  0.00000000000E+00  0.10586087533E+04  0.10586087533E+04  0.00000000000E+00 0. -1.
         21   -1    0    0  501  502 -0.00000000000E+00 -0.00000000000E+00 -0.47742751786E+02  0.47742751786E+02  0.00000000000E+00 0. -1.
         25    1    1    2    0    0  0.61422818657E+02 -0.78059028403E+02  0.23647236462E+03  0.28532464631E+03  0.12500000000E+03 0.  0.
         25    1    1    2    0    0 -0.30588193833E+02  0.30055730570E+02  0.31707650945E+03  0.34351346027E+03  0.12500000000E+03 0.  0.
         25    1    1    2    0    0 -0.30834624824E+02  0.48003297832E+02  0.45731712742E+03  0.47751339847E+03  0.12500000000E+03 0.  0.
</event>
<event>
 5    0  0.5822326E-005  0.3030076E+03  0.7546771E-02  0.1083747E+00
         21   -1    0    0  502  501  0.00000000000E+00  0.00000000000E+00  0.87597822491E+03  0.87597822491E+03  0.00000000000E+00 0. -1.
         21   -1    0    0  501  502 -0.00000000000E+00 -0.00000000000E+00 -0.10481266675E+03  0.10481266675E+03  0.00000000000E+00 0. -1.
         25    1    1    2    0    0 -0.19997177205E+01 -0.99795735665E+02  0.56148041980E+03  0.58382227565E+03  0.12500000000E+03 0.  0.
         25    1    1    2    0    0 -0.23672476268E+02  0.10924926758E+03  0.21034407408E+03  0.26900821195E+03  0.12500000000E+03 0.  0.
         25    1    1    2    0    0  0.25672193989E+02 -0.94535319118E+01 -0.65893572338E+00  0.12796040406E+03  0.12500000000E+03 0.  0.
</event>
<event>
 5    0  0.5822326E-005  0.3189890E+03  0.7546771E-02  0.1076116E+00
         21   -1    0    0  502  501  0.00000000000E+00  0.00000000000E+00  0.12659205985E+04  0.12659205985E+04  0.00000000000E+00 0.  1.
         21   -1    0    0  501  502 -0.00000000000E+00 -0.00000000000E+00 -0.80379458203E+02  0.80379458203E+02  0.00000000000E+00 0.  1.
         25    1    1    2    0    0 -0.73803245124E+02  0.47446725146E+02  0.70192501456E+03  0.71834659934E+03  0.12500000000E+03 0.  0.
         25    1    1    2    0    0  0.78004900784E+02 -0.33169890192E+02  0.47871621652E+03  0.50197532023E+03  0.12500000000E+03 0.  0.
         25    1    1    2    0    0 -0.42016556605E+01 -0.14276834954E+02  0.48999092246E+01  0.12597813714E+03  0.12500000000E+03 0.  0.
</event>
<event>
 5    0  0.5822326E-005  0.2288548E+03  0.7546771E-02  0.1127448E+00
         21   -1    0    0  502  501  0.00000000000E+00  0.00000000000E+00  0.49039145255E+03  0.49039145255E+03  0.00000000000E+00 0. -1.
         21   -1    0    0  501  502 -0.00000000000E+00 -0.00000000000E+00 -0.10680147260E+03  0.10680147260E+03  0.00000000000E+00 0. -1.
         25    1    1    2    0    0 -0.11236009167E+02 -0.84181591954E+02  0.62906024013E+02  0.16369164970E+03  0.12500000000E+03 0.  0.
         25    1    1    2    0    0 -0.27910999400E+02  0.82049694191E+02  0.22365905555E+03  0.27048021986E+03  0.12500000000E+03 0.  0.
         25    1    1    2    0    0  0.39147008567E+02  0.21318977628E+01  0.97024900392E+02  0.16302105558E+03  0.12500000000E+03 0.  0.
</event>
<event>
 5    0  0.5822326E-005  0.2976791E+03  0.7546771E-02  0.1086407E+00
         21   -1    0    0  502  501  0.00000000000E+00  0.00000000000E+00  0.16061648017E+03  0.16061648017E+03  0.00000000000E+00 0.  1.
         21   -1    0    0  501  502 -0.00000000000E+00 -0.00000000000E+00 -0.55170459713E+03  0.55170459713E+03  0.00000000000E+00 0.  1.
         25    1    1    2    0    0  0.40935693930E+02  0.18923493956E+03 -0.15851049362E+03  0.27970729339E+03  0.12500000000E+03 0.  0.
         25    1    1    2    0    0 -0.25610309415E+02 -0.15930335936E+02 -0.16248255027E+03  0.20720821097E+03  0.12500000000E+03 0.  0.
         25    1    1    2    0    0 -0.15325384515E+02 -0.17330460362E+03 -0.70095073075E+02  0.22540557295E+03  0.12500000000E+03 0.  0.
</event>
<event>
 5    0  0.5822326E-005  0.4073896E+03  0.7546771E-02  0.1041251E+00
         21   -1    0    0  502  501  0.00000000000E+00  0.00000000000E+00  0.22786498850E+03  0.22786498850E+03  0.00000000000E+00 0. -1.
         21   -1    0    0  501  502 -0.00000000000E+00 -0.00000000000E+00 -0.72835360118E+03  0.72835360118E+03  0.00000000000E+00 0. -1.
         25    1    1    2    0    0  0.77153230845E+02 -0.20509478964E+03 -0.54150982291E+03  0.59738964009E+03  0.12500000000E+03 0.  0.
         25    1    1    2    0    0 -0.10174166111E+03  0.89715827531E+02  0.26248933774E+02  0.18631774429E+03  0.12500000000E+03 0.  0.
         25    1    1    2    0    0  0.24588430260E+02  0.11537896211E+03  0.14772276467E+02  0.17251120530E+03  0.12500000000E+03 0.  0.
</event>
<event>
 5    0  0.5822326E-005  0.3303470E+03  0.7546771E-02  0.1070983E+00
         21   -1    0    0  502  501  0.00000000000E+00  0.00000000000E+00  0.18003543387E+04  0.18003543387E+04  0.00000000000E+00 0.  1.
         21   -1    0    0  501  502 -0.00000000000E+00 -0.00000000000E+00 -0.60615360118E+02  0.60615360118E+02  0.00000000000E+00 0.  1.
         25    1    1    2    0    0  0.49136346387E+02 -0.10052668834E+02  0.66116556383E+03  0.67474464761E+03  0.12500000000E+03 0.  0.
         25    1    1    2    0    0  0.20808691048E+02 -0.35590632193E+02  0.41063625709E+02  0.13788007862E+03  0.12500000000E+03 0.  0.
         25    1    1    2    0    0 -0.69945037435E+02  0.45643301027E+02  0.10375097891E+04  0.10483449726E+04  0.12500000000E+03 0.  0.
</event>
<event>
 5    0  0.5822326E-005  0.3498695E+03  0.7546771E-02  0.1062669E+00
         21   -1    0    0  502  501  0.00000000000E+00  0.00000000000E+00  0.54550593948E+03  0.54550593948E+03  0.00000000000E+00 0.  1.
         21   -1    0    0  501  502 -0.00000000000E+00 -0.00000000000E+00 -0.22439478765E+03  0.22439478765E+03  0.00000000000E+00 0.  1.
         25    1    1    2    0    0  0.11308776500E+02 -0.87241202927E+02 -0.16452685250E+02  0.15373550913E+03  0.12500000000E+03 0.  0.
         25    1    1    2    0    0  0.36323582904E+02 -0.15619550190E+02  0.41154044855E+03  0.43191887412E+03  0.12500000000E+03 0.  0.
         25    1    1    2    0    0 -0.47632359404E+02  0.10286075312E+03 -0.73976611473E+02  0.18424634390E+03  0.12500000000E+03 0.  0.
</event>
<event>
 5    0  0.5822326E-005  0.3753914E+03  0.7546771E-02  0.1052650E+00
         21   -1    0    0  502  501  0.00000000000E+00  0.00000000000E+00  0.32712778162E+03  0.32712778162E+03  0.00000000000E+00 0.  1.
         21   -1    0    0  501  502 -0.00000000000E+00 -0.00000000000E+00 -0.43077573439E+03  0.43077573439E+03  0.00000000000E+00 0.  1.
         25    1    1    2    0    0  0.16559215425E+03  0.34434048637E+02  0.10622925086E+03  0.23561858796E+03  0.12500000000E+03 0.  0.
         25    1    1    2    0    0  0.10593317581E+03 -0.33371245970E+02 -0.13295105222E+03  0.21362691797E+03  0.12500000000E+03 0.  0.
         25    1    1    2    0    0 -0.27152533006E+03 -0.10628026661E+01 -0.76926151417E+02  0.30865801008E+03  0.12500000000E+03 0.  0.
</event>
<event>
 5    0  0.5822326E-005  0.2658929E+03  0.7546771E-02  0.1103653E+00
         21   -1    0    0  502  501  0.00000000000E+00  0.00000000000E+00  0.12422197723E+04  0.12422197723E+04  0.00000000000E+00 0. -1.
         21   -1    0    0  501  502 -0.00000000000E+00 -0.00000000000E+00 -0.56913451519E+02  0.56913451519E+02  0.00000000000E+00 0. -1.
         25    1    1    2    0    0 -0.54539865093E+02  0.42667371127E+02  0.15653572434E+03  0.21195172667E+03  0.12500000000E+03 0.  0.
         25    1    1    2    0    0 -0.81864066702E+02  0.14902607634E+02  0.56374975944E+03  0.58340603733E+03  0.12500000000E+03 0.  0.
         25    1    1    2    0    0  0.13640393180E+03 -0.57569978761E+02  0.46502083698E+03  0.50377545980E+03  0.12500000000E+03 0.  0.
</event>
<event>
 5    0  0.5822326E-005  0.2707666E+03  0.7546771E-02  0.1100842E+00
         21   -1    0    0  502  501  0.00000000000E+00  0.00000000000E+00  0.83840244371E+03  0.83840244371E+03  0.00000000000E+00 0. -1.
         21   -1    0    0  501  502 -0.00000000000E+00 -0.00000000000E+00 -0.87445538438E+02  0.87445538438E+02  0.00000000000E+00 0. -1.
         25    1    1    2    0    0 -0.53084231133E+01  0.10757450307E+02  0.18789991916E+03  0.22599841086E+03  0.12500000000E+03 0.  0.
         25    1    1    2    0    0  0.13499993705E+02 -0.29557073012E+02  0.55834807903E+03  0.57309113390E+03  0.12500000000E+03 0.  0.
         25    1    1    2    0    0 -0.81915705918E+01  0.18799622705E+02  0.47089070830E+01  0.12675843739E+03  0.12500000000E+03 0.  0.
</event>
<event>
 5    0  0.5822326E-005  0.2826810E+03  0.7546771E-02  0.1094234E+00
         21   -1    0    0  502  501  0.00000000000E+00  0.00000000000E+00  0.61218866572E+03  0.61218866572E+03  0.00000000000E+00 0. -1.
         21   -1    0    0  501  502 -0.00000000000E+00 -0.00000000000E+00 -0.13052924131E+03  0.13052924131E+03  0.00000000000E+00 0. -1.
         25    1    1    2    0    0 -0.13442312018E+03 -0.17102458749E+02  0.18073868086E+03  0.25817346900E+03  0.12500000000E+03 0.  0.
         25    1    1    2    0    0  0.29495504120E+02 -0.11257033807E+03  0.14848724998E+03  0.22630848235E+03  0.12500000000E+03 0.  0.
         25    1    1    2    0    0  0.10492761606E+03  0.12967279682E+03  0.15243349356E+03  0.25823595568E+03  0.12500000000E+03 0.  0.
</event>
<event>
 5    0  0.5822326E-005  0.3194210E+03  0.7546771E-02  0.1075916E+00
         21   -1    0    0  502  501  0.00000000000E+00  0.00000000000E+00  0.10067779087E+03  0.10067779087E+03  0.00000000000E+00 0. -1.
         21   -1    0    0  501  502 -0.00000000000E+00 -0.00000000000E+00 -0.10134291000E+04  0.10134291000E+04  0.00000000000E+00 0. -1.
         25    1    1    2    0    0  0.11653757393E+03 -0.15584591085E+03 -0.22365977378E+03  0.32174158648E+03  0.12500000000E+03 0.  0.
         25    1    1    2    0    0 -0.96664342515E+02 -0.33771104041E+02 -0.25120716966E+03  0.29868800557E+03  0.12500000000E+03 0.  0.
         25    1    1    2    0    0 -0.19873231418E+02  0.18961701489E+03 -0.43788436570E+03  0.49367729884E+03  0.12500000000E+03 0.  0.
</event>
<event>
 5    0  0.5822326E-005  0.4737501E+03  0.7546771E-02  0.1020867E+00
         21   -1    0    0  502  501  0.00000000000E+00  0.00000000000E+00  0.13205005330E+04  0.13205005330E+04  0.00000000000E+00 0. -1.
         21   -1    0    0  501  502 -0.00000000000E+00 -0.00000000000E+00 -0.16996520637E+03  0.16996520637E+03  0.00000000000E+00 0. -1.
         25    1    1    2    0    0 -0.14862622954E+02  0.24843635558E+03  0.17139802593E+03  0.32702263473E+03  0.12500000000E+03 0.  0.
         25    1    1    2    0    0  0.63104692238E+01 -0.29713946103E+03  0.97718577283E+03  0.10290037492E+04  0.12500000000E+03 0.  0.
         25    1    1    2    0    0  0.85521537306E+01  0.48703105451E+02  0.19515278545E+01  0.13443935538E+03  0.12500000000E+03 0.  0.
</event>
<event>
 5    0  0.5822326E-005  0.4997176E+03  0.7546771E-02  0.1013853E+00
         21   -1    0    0  502  501  0.00000000000E+00  0.00000000000E+00  0.27921903705E+04  0.27921903705E+04  0.00000000000E+00 0. -1.
         21   -1    0    0  501  502 -0.00000000000E+00 -0.00000000000E+00 -0.89434341822E+02  0.89434341822E+02  0.00000000000E+00 0. -1.
         25    1    1    2    0    0  0.10072006383E+02  0.12312608784E+03  0.64841749976E+03  0.67181227498E+03  0.12500000000E+03 0.  0.
         25    1    1    2    0    0  0.30790680889E+03 -0.23679501103E+03  0.14501286682E+04  0.15064450320E+04  0.12500000000E+03 0.  0.
         25    1    1    2    0    0 -0.31797881528E+03  0.11366892320E+03  0.60420986077E+03  0.70336740536E+03  0.12500000000E+03 0.  0.
</event>
<event>
 5    0  0.5822326E-005  0.3744917E+03  0.7546771E-02  0.1052989E+00
         21   -1    0    0  502  501  0.00000000000E+00  0.00000000000E+00  0.19017251356E+03  0.19017251356E+03  0.00000000000E+00 0. -1.
         21   -1    0    0  501  502 -0.00000000000E+00 -0.00000000000E+00 -0.73745696437E+03  0.73745696437E+03  0.00000000000E+00 0. -1.
         25    1    1    2    0    0  0.69132996947E+02 -0.38574516411E+02 -0.43041577114E+03  0.45513745246E+03  0.12500000000E+03 0.  0.
         25    1    1    2    0    0  0.48719930922E+01 -0.16540029071E+03 -0.54970191444E+02  0.21454070577E+03  0.12500000000E+03 0.  0.
         25    1    1    2    0    0 -0.74004990039E+02  0.20397480712E+03 -0.61898488218E+02  0.25795131970E+03  0.12500000000E+03 0.  0.
</event>
<event>
 5    0  0.5822326E-005  0.2441827E+03  0.7546771E-02  0.1117037E+00
         21   -1    0    0  502  501  0.00000000000E+00  0.00000000000E+00  0.13283036425E+03  0.13283036425E+03  0.00000000000E+00 0.  1.
         21   -1    0    0  501  502 -0.00000000000E+00 -0.00000000000E+00 -0.44888228028E+03  0.44888228028E+03  0.00000000000E+00 0.  1.
         25    1    1    2    0    0  0.27069779299E+02  0.97836540493E+01 -0.12797591863E+03  0.18119417371E+03  0.12500000000E+03 0.  0.
         25    1    1    2    0    0 -0.80767642267E+02  0.69225129102E+02 -0.17910550942E+03  0.24293891010E+03  0.12500000000E+03 0.  0.
         25    1    1    2    0    0  0.53697862968E+02 -0.79008783151E+02 -0.89704879821E+01  0.15757956072E+03  0.12500000000E+03 0.  0.
</event>
<event>
 5    0  0.5822326E-005  0.5365670E+03  0.7546771E-02  0.1004652E+00
         21   -1    0    0  502  501  0.00000000000E+00  0.00000000000E+00  0.76635116271E+03  0.76635116271E+03  0.00000000000E+00 0.  1.
         21   -1    0    0  501  502 -0.00000000000E+00 -0.00000000000E+00 -0.37568179394E+03  0.37568179394E+03  0.00000000000E+00 0.  1.
         25    1    1    2    0    0 -0.16788563989E+03 -0.11144364160E+03  0.25289372356E+03  0.34667781692E+03  0.12500000000E+03 0.  0.
         25    1    1    2    0    0 -0.25326049230E+03  0.15515586995E+03  0.14607207679E+03  0.35380258981E+03  0.12500000000E+03 0.  0.
         25    1    1    2    0    0  0.42114613219E+03 -0.43712228354E+02 -0.82964315723E+01  0.44155254992E+03  0.12500000000E+03 0.  0.
</event>
<event>
 5    0  0.5822326E-005  0.2851951E+03  0.7546771E-02  0.1092885E+00
         21   -1    0    0  502  501  0.00000000000E+00  0.00000000000E+00  0.11336335401E+03  0.11336335401E+03  0.00000000000E+00 0. -1.
         21   -1    0    0  501  502 -0.00000000000E+00 -0.00000000000E+00 -0.71748276982E+03  0.71748276982E+03  0.00000000000E+00 0. -1.
         25    1    1    2    0    0 -0.48713499562E+02 -0.55838290041E+02 -0.20214891557E+03  0.24895803610E+03  0.12500000000E+03 0.  0.
         25    1    1    2    0    0  0.60561197778E+02  0.12162801187E+03 -0.39951845558E+03  0.44011478991E+03  0.12500000000E+03 0.  0.
         25    1    1    2    0    0 -0.11847698216E+02 -0.65789721831E+02 -0.24520446607E+01  0.14177329782E+03  0.12500000000E+03 0.  0.
</event>
<event>
 5    0  0.5822326E-005  0.2587313E+03  0.7546771E-02  0.1107908E+00
         21   -1    0    0  502  501  0.00000000000E+00  0.00000000000E+00  0.69302361620E+02  0.69302361620E+02  0.00000000000E+00 0.  1.
         21   -1    0    0  501  502 -0.00000000000E+00 -0.00000000000E+00 -0.96593955381E+03  0.96593955381E+03  0.00000000000E+00 0.  1.
         25    1    1    2    0    0 -0.14497717612E+02 -0.42181082595E+02 -0.32146443294E+03  0.34778414166E+03  0.12500000000E+03 0.  0.
         25    1    1    2    0    0  0.59580477137E+02 -0.53169870071E+02 -0.85531615734E+02  0.17122361294E+03  0.12500000000E+03 0.  0.
         25    1    1    2    0    0 -0.45082759525E+02  0.95350952666E+02 -0.48964114351E+03  0.51623416082E+03  0.12500000000E+03 0.  0.
</event>
<event>
 5    0  0.5822326E-005  0.3884435E+03  0.7546771E-02  0.1047856E+00
         21   -1    0    0  502  501  0.00000000000E+00  0.00000000000E+00  0.48831690177E+03  0.48831690177E+03  0.00000000000E+00 0.  1.
         21   -1    0    0  501  502 -0.00000000000E+00 -0.00000000000E+00 -0.30899681488E+03  0.30899681488E+03  0.00000000000E+00 0.  1.
         25    1    1    2    0    0 -0.94386023163E+01  0.14790641699E+03  0.22072989804E+02  0.19513485665E+03  0.12500000000E+03 0.  0.
         25    1    1    2    0    0  0.22513694796E+03 -0.17209721723E+03  0.16629515563E+03  0.35154398914E+03  0.12500000000E+03 0.  0.
         25    1    1    2    0    0 -0.21569834564E+03  0.24190800244E+02 -0.90480585428E+01  0.25063487086E+03  0.12500000000E+03 0.  0.
</event>
<event>
 5    0  0.5822326E-005  0.3200060E+03  0.7546771E-02  0.1075647E+00
         21   -1    0    0  502  501  0.00000000000E+00  0.00000000000E+00  0.58821022429E+03  0.58821022429E+03  0.00000000000E+00 0.  1.
         21   -1    0    0  501  502 -0.00000000000E+00 -0.00000000000E+00 -0.17409394374E+03  0.17409394374E+03  0.00000000000E+00 0.  1.
         25    1    1    2    0    0 -0.54357884336E+02 -0.73539180730E+02  0.16385060352E+01  0.15488859026E+03  0.12500000000E+03 0.  0.
         25    1    1    2    0    0  0.46015005033E+02  0.26760084192E+02 -0.35070670977E+02  0.14031548295E+03  0.12500000000E+03 0.  0.
         25    1    1    2    0    0  0.83428793034E+01  0.46779096538E+02  0.44754844549E+03  0.46710009481E+03  0.12500000000E+03 0.  0.
</event>
<event>
 5    0  0.5822326E-005  0.4216478E+03  0.7546771E-02  0.1036531E+00
         21   -1    0    0  502  501  0.00000000000E+00  0.00000000000E+00  0.94835451642E+03  0.94835451642E+03  0.00000000000E+00 0. -1.
         21   -1    0    0  501  502 -0.00000000000E+00 -0.00000000000E+00 -0.18746875458E+03  0.18746875458E+03  0.00000000000E+00 0. -1.
         25    1    1    2    0    0 -0.17105962736E+02 -0.28531873245E+02  0.41695997014E+02  0.13590525346E+03  0.12500000000E+03 0.  0.
         25    1    1    2    0    0  0.29952695087E+03  0.10055521524E+03  0.20814275744E+03  0.39846725472E+03  0.12500000000E+03 0.  0.
         25    1    1    2    0    0 -0.28242098813E+03 -0.72023341997E+02  0.51104700738E+03  0.60145076281E+03  0.12500000000E+03 0.  0.
</event>
<event>
 5    0  0.5822326E-005  0.2659350E+03  0.7546771E-02  0.1103629E+00
         21   -1    0    0  502  501  0.00000000000E+00  0.00000000000E+00  0.24008997433E+03  0.24008997433E+03  0.00000000000E+00 0. -1.
         21   -1    0    0  501  502 -0.00000000000E+00 -0.00000000000E+00 -0.29456225813E+03  0.29456225813E+03  0.00000000000E+00 0. -1.
         25    1    1    2    0    0 -0.11166078910E+03 -0.12816795473E+02 -0.44941238362E+02  0.17400320966E+03  0.12500000000E+03 0.  0.
         25    1    1    2    0    0  0.17729076365E+03  0.26982761165E+02 -0.82123430751E+01  0.21875220423E+03  0.12500000000E+03 0.  0.
         25    1    1    2    0    0 -0.65629974555E+02 -0.14165965692E+02 -0.13187023578E+01  0.14189681857E+03  0.12500000000E+03 0.  0.
</event>
<event>
 5    0  0.5822326E-005  0.4647223E+03  0.7546771E-02  0.1023420E+00
         21   -1    0    0  502  501  0.00000000000E+00  0.00000000000E+00  0.54753773756E+03  0.54753773756E+03  0.00000000000E+00 0. -1.
         21   -1    0    0  501  502 -0.00000000000E+00 -0.00000000000E+00 -0.39443279163E+03  0.39443279163E+03  0.00000000000E+00 0. -1.
         25    1    1    2    0    0 -0.17685079774E+03  0.12305688052E+03  0.31734085409E+03  0.40342213397E+03  0.12500000000E+03 0.  0.
         25    1    1    2    0    0 -0.67022026880E+02 -0.11268512491E+03  0.52945945863E+02  0.18872774742E+03  0.12500000000E+03 0.  0.
         25    1    1    2    0    0  0.24387282462E+03 -0.10371755604E+02 -0.21718185403E+03  0.34982064779E+03  0.12500000000E+03 0.  0.
</event>
<event>
 5    0  0.5822326E-005  0.4113322E+03  0.7546771E-02  0.1039925E+00
         21   -1    0    0  502  501  0.00000000000E+00  0.00000000000E+00  0.13833221140E+03  0.13833221140E+03  0.00000000000E+00 0.  1.
         21   -1    0    0  501  502 -0.00000000000E+00 -0.00000000000E+00 -0.12231004227E+04  0.12231004227E+04  0.00000000000E+00 0.  1.
         25    1    1    2    0    0 -0.14396158895E+03 -0.12838011909E+03 -0.69396699673E+03  0.73104143974E+03  0.12500000000E+03 0.  0.
         25    1    1    2    0    0  0.23247296363E+03  0.31559291120E+01 -0.10788266459E+03  0.28516189793E+03  0.12500000000E+03 0.  0.
         25    1    1    2    0    0 -0.88511374685E+02  0.12522418997E+03 -0.28291855001E+03  0.34522929648E+03  0.12500000000E+03 0.  0.
</event>
<event>
 5    0  0.5822326E-005  0.2233386E+03  0.7546771E-02  0.1131418E+00
         21   -1    0    0  502  501  0.00000000000E+00  0.00000000000E+00  0.21669526454E+03  0.21669526454E+03  0.00000000000E+00 0. -1.
         21   -1    0    0  501  502 -0.00000000000E+00 -0.00000000000E+00 -0.23018550303E+03  0.23018550303E+03  0.00000000000E+00 0. -1.
         25    1    1    2    0    0  0.25150936691E+02 -0.14774016232E+01 -0.45868567579E+02  0.13551264821E+03  0.12500000000E+03 0.  0.
         25    1    1    2    0    0 -0.40450435115E+02  0.63684167571E+01 -0.69995022576E+02  0.14900032758E+03  0.12500000000E+03 0.  0.
         25    1    1    2    0    0  0.15299498424E+02 -0.48910151339E+01  0.10237335166E+03  0.16236779179E+03  0.12500000000E+03 0.  0.
</event>
<event>
 5    0  0.5822326E-005  0.4476361E+03  0.7546771E-02  0.1028429E+00
         21   -1    0    0  502  501  0.00000000000E+00  0.00000000000E+00  0.13745456691E+04  0.13745456691E+04  0.00000000000E+00 0.  1.
         21   -1    0    0  501  502 -0.00000000000E+00 -0.00000000000E+00 -0.14577767580E+03  0.14577767580E+03  0.00000000000E+00 0.  1.
         25    1    1    2    0    0  0.47329024921E+02  0.14846609106E+03  0.84630248896E+03  0.86956030246E+03  0.12500000000E+03 0.  0.
         25    1    1    2    0    0  0.14334986651E+03 -0.17130740489E+03  0.73902856044E+02  0.26642455467E+03  0.12500000000E+03 0.  0.
         25    1    1    2    0    0 -0.19067889143E+03  0.22841313836E+02  0.30856264830E+03  0.38433848777E+03  0.12500000000E+03 0.  0.
</event>
<event>
 5    0  0.5822326E-005  0.2712321E+03  0.7546771E-02  0.1100577E+00
         21   -1    0    0  502  501  0.00000000000E+00  0.00000000000E+00  0.75901533062E+02  0.75901533062E+02  0.00000000000E+00 0. -1.
         21   -1    0    0  501  502 -0.00000000000E+00 -0.00000000000E+00 -0.96924049023E+03  0.96924049023E+03  0.00000000000E+00 0. -1.
         25    1    1    2    0    0 -0.92140025648E+02  0.36275168667E+02 -0.59157053514E+03  0.61268782446E+03  0.12500000000E+03 0.  0.
         25    1    1    2    0    0  0.10214501234E+03 -0.13779009721E+02 -0.90045497078E+02  0.18535548602E+03  0.12500000000E+03 0.  0.
         25    1    1    2    0    0 -0.10004986691E+02 -0.22496158946E+02 -0.21172292495E+03  0.24709871282E+03  0.12500000000E+03 0.  0.
</event>
<event>
 5    0  0.5822326E-005  0.5127523E+03  0.7546771E-02  0.1010503E+00
         21   -1    0    0  502  501  0.00000000000E+00  0.00000000000E+00  0.17884451966E+03  0.17884451966E+03  0.00000000000E+00 0.  1.
         21   -1    0    0  501  502 -0.00000000000E+00 -0.00000000000E+00 -0.14700756063E+04  0.14700756063E+04  0.00000000000E+00 0.  1.
         25    1    1    2    0    0 -0.52129984172E+02 -0.19568855850E+03 -0.28487708649E+03  0.37120277691E+03  0.12500000000E+03 0.  0.
         25    1    1    2    0    0 -0.13785246238E+03 -0.13295040541E+03 -0.40253397008E+02  0.23221638110E+03  0.12500000000E+03 0.  0.
         25    1    1    2    0    0  0.18998244655E+03  0.32863896391E+03 -0.96610060315E+03  0.10455009680E+04  0.12500000000E+03 0.  0.
</event>
<event>
 5    0  0.5822326E-005  0.3192578E+03  0.7546771E-02  0.1075991E+00
         21   -1    0    0  502  501  0.00000000000E+00  0.00000000000E+00  0.18392725164E+03  0.18392725164E+03  0.00000000000E+00 0.  1.
         21   -1    0    0  501  502 -0.00000000000E+00 -0.00000000000E+00 -0.55416236845E+03  0.55416236845E+03  0.00000000000E+00 0.  1.
         25    1    1    2    0    0  0.88488456228E+02  0.19453201184E+03 -0.26485305481E+03  0.36255351489E+03  0.12500000000E+03 0.  0.
         25    1    1    2    0    0 -0.78167598365E+01 -0.30399147656E+02 -0.82062357949E+02  0.15278887559E+03  0.12500000000E+03 0.  0.
         25    1    1    2    0    0 -0.80671696392E+02 -0.16413286418E+03 -0.23319704059E+02  0.22274722962E+03  0.12500000000E+03 0.  0.
</event>
<event>
 5    0  0.5822326E-005  0.3414484E+03  0.7546771E-02  0.1066181E+00
         21   -1    0    0  502  501  0.00000000000E+00  0.00000000000E+00  0.36061487693E+03  0.36061487693E+03  0.00000000000E+00 0. -1.
         21   -1    0    0  501  502 -0.00000000000E+00 -0.00000000000E+00 -0.32330069597E+03  0.32330069597E+03  0.00000000000E+00 0. -1.
         25    1    1    2    0    0 -0.56426644653E+02  0.62695535351E+02 -0.77316746799E+02  0.16946260861E+03  0.12500000000E+03 0.  0.
         25    1    1    2    0    0  0.16071254586E+03 -0.39086376694E+02  0.23293676124E+03  0.31183457470E+03  0.12500000000E+03 0.  0.
         25    1    1    2    0    0 -0.10428590121E+03 -0.23609158657E+02 -0.11830583349E+03  0.20261838959E+03  0.12500000000E+03 0.  0.
</event>
<event>
 5    0  0.5822326E-005  0.4004763E+03  0.7546771E-02  0.1043615E+00
         21   -1    0    0  502  501  0.00000000000E+00  0.00000000000E+00  0.36806530748E+03  0.36806530748E+03  0.00000000000E+00 0.  1.
         21   -1    0    0  501  502 -0.00000000000E+00 -0.00000000000E+00 -0.43574132572E+03  0.43574132572E+03  0.00000000000E+00 0.  1.
         25    1    1    2    0    0  0.24794372246E+03  0.10934296855E+03  0.10201270597E+03  0.31537844958E+03  0.12500000000E+03 0.  0.
         25    1    1    2    0    0 -0.17809098382E+02 -0.12063937552E+03  0.27650815536E+01  0.17465299478E+03  0.12500000000E+03 0.  0.
         25    1    1    2    0    0 -0.23013462407E+03  0.11296406967E+02 -0.17245380576E+03  0.31377518884E+03  0.12500000000E+03 0.  0.
</event>
<event>
 5    0  0.5822326E-005  0.2761327E+03  0.7546771E-02  0.1097820E+00
         21   -1    0    0  502  501  0.00000000000E+00  0.00000000000E+00  0.33877450188E+03  0.33877450188E+03  0.00000000000E+00 0.  1.
         21   -1    0    0  501  502 -0.00000000000E+00 -0.00000000000E+00 -0.22507381319E+03  0.22507381319E+03  0.00000000000E+00 0.  1.
         25    1    1    2    0    0  0.12398677909E+03 -0.14505216131E+02  0.11463715276E+03  0.21059392080E+03  0.12500000000E+03 0.  0.
         25    1    1    2    0    0 -0.10175463930E+03  0.10207390494E+03  0.37203598136E+02  0.19437642965E+03  0.12500000000E+03 0.  0.
         25    1    1    2    0    0 -0.22232139791E+02 -0.87568688804E+02 -0.38140062207E+02  0.15887796463E+03  0.12500000000E+03 0.  0.
</event>
<event>
 5    0  0.5822326E-005  0.4262076E+03  0.7546771E-02  0.1035065E+00
         21   -1    0    0  502  501  0.00000000000E+00  0.00000000000E+00  0.10878600734E+04  0.10878600734E+04  0.00000000000E+00 0. -1.
         21   -1    0    0  501  502 -0.00000000000E+00 -0.00000000000E+00 -0.16698190872E+03  0.16698190872E+03  0.00000000000E+00 0. -1.
         25    1    1    2    0    0 -0.28014159813E+03 -0.12532401207E+02  0.76348712915E+03  0.82290581020E+03  0.12500000000E+03 0.  0.
         25    1    1    2    0    0  0.13359895760E+03 -0.64963024715E+02  0.65602878503E+02  0.20493319331E+03  0.12500000000E+03 0.  0.
         25    1    1    2    0    0  0.14654264054E+03  0.77495425921E+02  0.91788157046E+02  0.22700297863E+03  0.12500000000E+03 0.  0.
</event>
<event>
 5    0  0.5870406E-005  0.2886873E+03  0.7546771E-02  0.1091036E+00
         21   -1    0    0  502  501  0.00000000000E+00  0.00000000000E+00  0.50245274375E+03  0.50245274375E+03  0.00000000000E+00 0. -1.
         21   -1    0    0  501  502 -0.00000000000E+00 -0.00000000000E+00 -0.16586709617E+03  0.16586709617E+03  0.00000000000E+00 0. -1.
         25    1    1    2    0    0 -0.34988736623E+02 -0.14008487837E+03  0.47098233136E+02  0.19670086020E+03  0.12500000000E+03 0.  0.
         25    1    1    2    0    0  0.12568038667E+03  0.12218321626E+03  0.18919760310E+03  0.28660954441E+03  0.12500000000E+03 0.  0.
         25    1    1    2    0    0 -0.90691650043E+02  0.17901662108E+02  0.10028981134E+03  0.18500943531E+03  0.12500000000E+03 0.  0.
</event>
<event>
 5    0  0.5822326E-005  0.3258057E+03  0.7546771E-02  0.1073008E+00
         21   -1    0    0  502  501  0.00000000000E+00  0.00000000000E+00  0.90192717496E+03  0.90192717496E+03  0.00000000000E+00 0. -1.
         21   -1    0    0  501  502 -0.00000000000E+00 -0.00000000000E+00 -0.11769172953E+03  0.11769172953E+03  0.00000000000E+00 0. -1.
         25    1    1    2    0    0 -0.47537236247E+02  0.12155591350E+03  0.21532927832E+03  0.28111799487E+03  0.12500000000E+03 0.  0.
         25    1    1    2    0    0 -0.80236276605E+02 -0.19243984510E+03  0.17300894163E+03  0.29837568257E+03  0.12500000000E+03 0.  0.
         25    1    1    2    0    0  0.12777351285E+03  0.70883931599E+02  0.39589722548E+03  0.44012522705E+03  0.12500000000E+03 0.  0.
</event>
<event>
 5    0  0.5822326E-005  0.3366910E+03  0.7546771E-02  0.1068214E+00
         21   -1    0    0  502  501  0.00000000000E+00  0.00000000000E+00  0.10388963970E+04  0.10388963970E+04  0.00000000000E+00 0.  1.
         21   -1    0    0  501  502 -0.00000000000E+00 -0.00000000000E+00 -0.10911661522E+03  0.10911661522E+03  0.00000000000E+00 0.  1.
         25    1    1    2    0    0 -0.10655654920E+03 -0.16906101915E+03  0.17125534045E+03  0.29135771485E+03  0.12500000000E+03 0.  0.
         25    1    1    2    0    0 -0.61259708254E+02  0.64046309441E+02  0.40113385075E+03  0.42940429414E+03  0.12500000000E+03 0.  0.
         25    1    1    2    0    0  0.16781625746E+03  0.10501470970E+03  0.35739059063E+03  0.42725100327E+03  0.12500000000E+03 0.  0.
</event>
<event>
 5    0  0.5822326E-005  0.4579647E+03  0.7546771E-02  0.1025373E+00
         21   -1    0    0  502  501  0.00000000000E+00  0.00000000000E+00  0.19980162756E+03  0.19980162756E+03  0.00000000000E+00 0.  1.
         21   -1    0    0  501  502 -0.00000000000E+00 -0.00000000000E+00 -0.10496996976E+04  0.10496996976E+04  0.00000000000E+00 0.  1.
         25    1    1    2    0    0  0.24926987676E+03 -0.23041832857E+03 -0.13429679065E+03  0.38586099256E+03  0.12500000000E+03 0.  0.
         25    1    1    2    0    0 -0.26422414493E+03  0.14490914638E+03 -0.54351851446E+03  0.63391674140E+03  0.12500000000E+03 0.  0.
         25    1    1    2    0    0  0.14954268166E+02  0.85509182191E+02 -0.17208276497E+03  0.22972359124E+03  0.12500000000E+03 0.  0.
</event>
<event>
 5    0  0.5822326E-005  0.2468243E+03  0.7546771E-02  0.1115328E+00
         21   -1    0    0  502  501  0.00000000000E+00  0.00000000000E+00  0.42150855796E+02  0.42150855796E+02  0.00000000000E+00 0.  1.
         21   -1    0    0  501  502 -0.00000000000E+00 -0.00000000000E+00 -0.14453380543E+04  0.14453380543E+04  0.00000000000E+00 0.  1.
         25    1    1    2    0    0  0.29057343487E+02 -0.26473952003E+02 -0.41163639977E+03  0.43198926487E+03  0.12500000000E+03 0.  0.
         25    1    1    2    0    0  0.11328977195E+03  0.95199226672E+01 -0.40331794516E+03  0.43728202141E+03  0.12500000000E+03 0.  0.
         25    1    1    2    0    0 -0.14234711544E+03  0.16954029336E+02 -0.58823285361E+03  0.61821762386E+03  0.12500000000E+03 0.  0.
</event>
<event>
 5    0  0.5822326E-005  0.3481540E+03  0.7546771E-02  0.1063375E+00
         21   -1    0    0  502  501  0.00000000000E+00  0.00000000000E+00  0.11941871080E+04  0.11941871080E+04  0.00000000000E+00 0.  1.
         21   -1    0    0  501  502 -0.00000000000E+00 -0.00000000000E+00 -0.10150101684E+03  0.10150101684E+03  0.00000000000E+00 0.  1.
         25    1    1    2    0    0  0.96090811750E+02  0.17917566614E+02  0.23977300287E+02  0.16048175667E+03  0.12500000000E+03 0.  0.
         25    1    1    2    0    0  0.28423867096E+02 -0.11343608286E+03  0.62922905261E+03  0.65209651262E+03  0.12500000000E+03 0.  0.
         25    1    1    2    0    0 -0.12451467885E+03  0.95518516246E+02  0.43947973829E+03  0.48310985558E+03  0.12500000000E+03 0.  0.
</event>
<event>
 5    0  0.5822326E-005  0.2740569E+03  0.7546771E-02  0.1098980E+00
         21   -1    0    0  502  501  0.00000000000E+00  0.00000000000E+00  0.13037241002E+03  0.13037241002E+03  0.00000000000E+00 0. -1.
         21   -1    0    0  501  502 -0.00000000000E+00 -0.00000000000E+00 -0.57609708902E+03  0.57609708902E+03  0.00000000000E+00 0. -1.
         25    1    1    2    0    0  0.10125737430E+03  0.94499663521E+02 -0.13214972618E+03  0.22863025256E+03  0.12500000000E+03 0.  0.
         25    1    1    2    0    0 -0.15315461493E+03 -0.10558542608E+03 -0.20890573889E+03  0.30638411515E+03  0.12500000000E+03 0.  0.
         25    1    1    2    0    0  0.51897240628E+02  0.11085762561E+02 -0.10466921392E+03  0.17145513133E+03  0.12500000000E+03 0.  0.
</event>
<event>
 5    0  0.5822326E-005  0.2637685E+03  0.7546771E-02  0.1104900E+00
         21   -1    0    0  502  501  0.00000000000E+00  0.00000000000E+00  0.16751042121E+03  0.16751042121E+03  0.00000000000E+00 0. -1.
         21   -1    0    0  501  502 -0.00000000000E+00 -0.00000000000E+00 -0.41534032930E+03  0.41534032930E+03  0.00000000000E+00 0. -1.
         25    1    1    2    0    0  0.46650701877E+02 -0.11914919741E+02 -0.84746031103E+02  0.15850912619E+03  0.12500000000E+03 0.  0.
         25    1    1    2    0    0 -0.96884382587E+02 -0.12355195075E+03 -0.85234570630E+02  0.21804036359E+03  0.12500000000E+03 0.  0.
         25    1    1    2    0    0  0.50233680709E+02  0.13546687049E+03 -0.77849306364E+02  0.20630126073E+03  0.12500000000E+03 0.  0.
</event>
<event>
 5    0  0.5822326E-005  0.3983857E+03  0.7546771E-02  0.1044340E+00
         21   -1    0    0  502  501  0.00000000000E+00  0.00000000000E+00  0.55474977643E+03  0.55474977643E+03  0.00000000000E+00 0.  1.
         21   -1    0    0  501  502 -0.00000000000E+00 -0.00000000000E+00 -0.28609500704E+03  0.28609500704E+03  0.00000000000E+00 0.  1.
         25    1    1    2    0    0 -0.30971984418E+03 -0.11615517566E+03  0.22684496178E+03  0.42012146267E+03  0.12500000000E+03 0.  0.
         25    1    1    2    0    0  0.17132363163E+03  0.85170688189E+02  0.37720910580E+02  0.23163268330E+03  0.12500000000E+03 0.  0.
         25    1    1    2    0    0  0.13839621255E+03  0.30984487471E+02  0.40888970303E+01  0.18909063750E+03  0.12500000000E+03 0.  0.
</event>
<event>
 5    0  0.5822326E-005  0.2338457E+03  0.7546771E-02  0.1123962E+00
         21   -1    0    0  502  501  0.00000000000E+00  0.00000000000E+00  0.72137895225E+02  0.72137895225E+02  0.00000000000E+00 0. -1.
         21   -1    0    0  501  502 -0.00000000000E+00 -0.00000000000E+00 -0.75804526928E+03  0.75804526928E+03  0.00000000000E+00 0. -1.
         25    1    1    2    0    0  0.10864480519E+02 -0.63000370806E+02 -0.84581325130E+02  0.16390876798E+03  0.12500000000E+03 0.  0.
         25    1    1    2    0    0  0.20669028043E+02  0.29334227043E+01 -0.40133585396E+03  0.42086967266E+03  0.12500000000E+03 0.  0.
         25    1    1    2    0    0 -0.31533508562E+02  0.60066948102E+02 -0.19999019496E+03  0.24540472387E+03  0.12500000000E+03 0.  0.
</event>
<event>
 5    0  0.5822326E-005  0.2736968E+03  0.7546771E-02  0.1099182E+00
         21   -1    0    0  502  501  0.00000000000E+00  0.00000000000E+00  0.23956181936E+03  0.23956181936E+03  0.00000000000E+00 0. -1.
         21   -1    0    0  501  502 -0.00000000000E+00 -0.00000000000E+00 -0.31269557277E+03  0.31269557277E+03  0.00000000000E+00 0. -1.
         25    1    1    2    0    0  0.42682329216E+02 -0.12922225102E+03  0.96093915573E+02  0.20827676778E+03  0.12500000000E+03 0.  0.
         25    1    1    2    0    0 -0.61478201642E+02  0.46800153312E+02 -0.10136336292E+03  0.17851990077E+03  0.12500000000E+03 0.  0.
         25    1    1    2    0    0  0.18795872425E+02  0.82422097708E+02 -0.67864306069E+02  0.16546072358E+03  0.12500000000E+03 0.  0.
</event>
<event>
 5    0  0.5822326E-005  0.2161809E+03  0.7546771E-02  0.1136763E+00
         21   -1    0    0  502  501  0.00000000000E+00  0.00000000000E+00  0.30510633820E+03  0.30510633820E+03  0.00000000000E+00 0.  1.
         21   -1    0    0  501  502 -0.00000000000E+00 -0.00000000000E+00 -0.15317349090E+03  0.15317349090E+03  0.00000000000E+00 0.  1.
         25    1    1    2    0    0 -0.33677537618E+02  0.18805390875E+02  0.55417863779E+02  0.14207026041E+03  0.12500000000E+03 0.  0.
         25    1    1    2    0    0  0.20366020989E+02 -0.10959806865E+02 -0.37262354928E+02  0.13247028071E+03  0.12500000000E+03 0.  0.
         25    1    1    2    0    0  0.13311516629E+02 -0.78455840103E+01  0.13377733845E+03  0.18373928798E+03  0.12500000000E+03 0.  0.
</event>
<event>
 5    0  0.5822326E-005  0.2199349E+03  0.7546771E-02  0.1133932E+00
         21   -1    0    0  502  501  0.00000000000E+00  0.00000000000E+00  0.11146492243E+03  0.11146492243E+03  0.00000000000E+00 0. -1.
         21   -1    0    0  501  502 -0.00000000000E+00 -0.00000000000E+00 -0.43396026868E+03  0.43396026868E+03  0.00000000000E+00 0. -1.
         25    1    1    2    0    0 -0.29989787251E+02  0.93542522581E+02 -0.77814116990E+02  0.17700177308E+03  0.12500000000E+03 0.  0.
         25    1    1    2    0    0  0.36443698472E+02 -0.29664225260E+02 -0.13762831109E+03  0.19176720635E+03  0.12500000000E+03 0.  0.
         25    1    1    2    0    0 -0.64539112201E+01 -0.63878297321E+02 -0.10705291817E+03  0.17665621168E+03  0.12500000000E+03 0.  0.
</event>
<event>
 5    0  0.5822326E-005  0.3864630E+03  0.7546771E-02  0.1048571E+00
         21   -1    0    0  502  501  0.00000000000E+00  0.00000000000E+00  0.71872652447E+03  0.71872652447E+03  0.00000000000E+00 0.  1.
         21   -1    0    0  501  502 -0.00000000000E+00 -0.00000000000E+00 -0.20780312520E+03  0.20780312520E+03  0.00000000000E+00 0.  1.
         25    1    1    2    0    0  0.21124380739E+03 -0.55659314470E+02 -0.81304000504E+00  0.25168942465E+03  0.12500000000E+03 0.  0.
         25    1    1    2    0    0 -0.58145007382E+02  0.12217499510E+03  0.39502277247E+03  0.43586186124E+03  0.12500000000E+03 0.  0.
         25    1    1    2    0    0 -0.15309880001E+03 -0.66515680632E+02  0.11671366681E+03  0.23897836378E+03  0.12500000000E+03 0.  0.
</event>
<event>
 5    0  0.5822326E-005  0.2397854E+03  0.7546771E-02  0.1119936E+00
         21   -1    0    0  502  501  0.00000000000E+00  0.00000000000E+00  0.77282383558E+02  0.77282383558E+02  0.00000000000E+00 0. -1.
         21   -1    0    0  501  502 -0.00000000000E+00 -0.00000000000E+00 -0.74398657057E+03  0.74398657057E+03  0.00000000000E+00 0. -1.
         25    1    1    2    0    0 -0.96153965654E+00 -0.14151388805E+02 -0.82593261999E+02  0.15049197085E+03  0.12500000000E+03 0.  0.
         25    1    1    2    0    0 -0.14858981189E+02 -0.30735426386E+02 -0.49098705178E+03  0.50779793302E+03  0.12500000000E+03 0.  0.
         25    1    1    2    0    0  0.15820520846E+02  0.44886815192E+02 -0.93123873232E+02  0.16297905026E+03  0.12500000000E+03 0.  0.
</event>
<event>
 5    0  0.5822326E-005  0.4813086E+03  0.7546771E-02  0.1018776E+00
         21   -1    0    0  502  501  0.00000000000E+00  0.00000000000E+00  0.22302773699E+03  0.22302773699E+03  0.00000000000E+00 0.  1.
         21   -1    0    0  501  502 -0.00000000000E+00 -0.00000000000E+00 -0.10386957662E+04  0.10386957662E+04  0.00000000000E+00 0.  1.
         25    1    1    2    0    0 -0.22883240291E+03  0.93976089834E+02  0.70782229592E+02  0.28606100417E+03  0.12500000000E+03 0.  0.
         25    1    1    2    0    0  0.11783065593E+03 -0.12067890376E+03 -0.30645956999E+03  0.37146995750E+03  0.12500000000E+03 0.  0.
         25    1    1    2    0    0  0.11100174699E+03  0.26702813923E+02 -0.57999068881E+03  0.60419254151E+03  0.12500000000E+03 0.  0.
</event>
<event>
 5    0  0.5822326E-005  0.2576111E+03  0.7546771E-02  0.1108587E+00
         21   -1    0    0  502  501  0.00000000000E+00  0.00000000000E+00  0.50268750435E+03  0.50268750435E+03  0.00000000000E+00 0.  1.
         21   -1    0    0  501  502 -0.00000000000E+00 -0.00000000000E+00 -0.13201737350E+03  0.13201737350E+03  0.00000000000E+00 0.  1.
         25    1    1    2    0    0  0.89803834817E+01 -0.13891302371E+03  0.11846306686E+03  0.22144067750E+03  0.12500000000E+03 0.  0.
         25    1    1    2    0    0  0.24672397743E+02  0.38544538110E+02  0.28721937780E+02  0.13617767195E+03  0.12500000000E+03 0.  0.
         25    1    1    2    0    0 -0.33652781224E+02  0.10036848560E+03  0.22348512621E+03  0.27708652840E+03  0.12500000000E+03 0.  0.
</event>
<event>
 5    0  0.5822326E-005  0.3059551E+03  0.7546771E-02  0.1082301E+00
         21   -1    0    0  502  501  0.00000000000E+00  0.00000000000E+00  0.21219352283E+03  0.21219352283E+03  0.00000000000E+00 0. -1.
         21   -1    0    0  501  502 -0.00000000000E+00 -0.00000000000E+00 -0.44114698043E+03  0.44114698043E+03  0.00000000000E+00 0. -1.
         25    1    1    2    0    0 -0.84939541694E+02 -0.31130906712E+02 -0.60645593031E+02  0.16579127555E+03  0.12500000000E+03 0.  0.
         25    1    1    2    0    0 -0.79398393917E+02 -0.11863312799E+03 -0.15889398912E+02  0.19040850036E+03  0.12500000000E+03 0.  0.
         25    1    1    2    0    0  0.16433793561E+03  0.14976403470E+03 -0.15241846565E+03  0.29714072734E+03  0.12500000000E+03 0.  0.
</event>
<event>
 5    0  0.5822326E-005  0.2605231E+03  0.7546771E-02  0.1106829E+00
         21   -1    0    0  502  501  0.00000000000E+00  0.00000000000E+00  0.26604174571E+03  0.26604174571E+03  0.00000000000E+00 0. -1.
         21   -1    0    0  501  502 -0.00000000000E+00 -0.00000000000E+00 -0.25511898498E+03  0.25511898498E+03  0.00000000000E+00 0. -1.
         25    1    1    2    0    0 -0.71084238205E+01 -0.66232898391E+02 -0.96809028841E+01  0.14197199160E+03  0.12500000000E+03 0.  0.
         25    1    1    2    0    0  0.50075827502E+02  0.23403446986E+02  0.14024741176E+03  0.19583065730E+03  0.12500000000E+03 0.  0.
         25    1    1    2    0    0 -0.42967403682E+02  0.42829451405E+02 -0.11964374815E+03  0.18335808179E+03  0.12500000000E+03 0.  0.
</event>
<event>
 5    0  0.5822326E-005  0.2190571E+03  0.7546771E-02  0.1134588E+00
         21   -1    0    0  502  501  0.00000000000E+00  0.00000000000E+00  0.14649073308E+03  0.14649073308E+03  0.00000000000E+00 0.  1.
         21   -1    0    0  501  502 -0.00000000000E+00 -0.00000000000E+00 -0.32757040668E+03  0.32757040668E+03  0.00000000000E+00 0.  1.
         25    1    1    2    0    0 -0.39660692649E+02  0.58743488615E+02 -0.85229375947E+02  0.16707128574E+03  0.12500000000E+03 0.  0.
         25    1    1    2    0    0 -0.33120282035E+02 -0.59983436174E+02 -0.74280109976E+02  0.16074047541E+03  0.12500000000E+03 0.  0.
         25    1    1    2    0    0  0.72780974684E+02  0.12399475584E+01 -0.21570187681E+02  0.14624937861E+03  0.12500000000E+03 0.  0.
</event>
<event>
 5    0  0.5822326E-005  0.5707224E+03  0.7546771E-02  0.9968081E-01
         21   -1    0    0  502  501  0.00000000000E+00  0.00000000000E+00  0.45058378061E+03  0.45058378061E+03  0.00000000000E+00 0.  1.
         21   -1    0    0  501  502 -0.00000000000E+00 -0.00000000000E+00 -0.72289344707E+03  0.72289344707E+03  0.00000000000E+00 0.  1.
         25    1    1    2    0    0 -0.27835164577E+03 -0.18040584468E+03 -0.21390148728E+03  0.41401057204E+03  0.12500000000E+03 0.  0.
         25    1    1    2    0    0  0.43101579044E+03 -0.29127953314E+02  0.48747272516E+02  0.45235422608E+03  0.12500000000E+03 0.  0.
         25    1    1    2    0    0 -0.15266414467E+03  0.20953379799E+03 -0.10715545170E+03  0.30711242957E+03  0.12500000000E+03 0.  0.
</event>
<event>
 5    0  0.5822326E-005  0.4798338E+03  0.7546771E-02  0.1019181E+00
         21   -1    0    0  502  501  0.00000000000E+00  0.00000000000E+00  0.63215648553E+03  0.63215648553E+03  0.00000000000E+00 0. -1.
         21   -1    0    0  501  502 -0.00000000000E+00 -0.00000000000E+00 -0.36421433101E+03  0.36421433101E+03  0.00000000000E+00 0. -1.
         25    1    1    2    0    0 -0.11994777892E+03  0.21222898146E+02  0.63735924055E+02  0.18580944295E+03  0.12500000000E+03 0.  0.
         25    1    1    2    0    0 -0.64221828465E+02 -0.17186523088E+03 -0.21730165052E+03  0.31065593211E+03  0.12500000000E+03 0.  0.
         25    1    1    2    0    0  0.18416960738E+03  0.15064233274E+03  0.42150788098E+03  0.49990544149E+03  0.12500000000E+03 0.  0.
</event>
<event>
 5    0  0.5822326E-005  0.2302708E+03  0.7546771E-02  0.1126449E+00
         21   -1    0    0  502  501  0.00000000000E+00  0.00000000000E+00  0.27609055492E+04  0.27609055492E+04  0.00000000000E+00 0.  1.
         21   -1    0    0  501  502 -0.00000000000E+00 -0.00000000000E+00 -0.19205519965E+02  0.19205519965E+02  0.00000000000E+00 0.  1.
         25    1    1    2    0    0  0.71808164142E+01  0.14783657239E+02  0.46613376708E+03  0.48288281131E+03  0.12500000000E+03 0.  0.
         25    1    1    2    0    0  0.63335145801E+02 -0.74470001438E+02  0.12208751255E+04  0.12311450742E+04  0.12500000000E+03 0.  0.
         25    1    1    2    0    0 -0.70515962216E+02  0.59686344199E+02  0.10546911367E+04  0.10660831836E+04  0.12500000000E+03 0.  0.
</event>
<event>
 5    0  0.6187781E-005  0.2671616E+03  0.7546771E-02  0.1102915E+00
         21   -1    0    0  502  501  0.00000000000E+00  0.00000000000E+00  0.53599256338E+03  0.53599256338E+03  0.00000000000E+00 0.  1.
         21   -1    0    0  501  502 -0.00000000000E+00 -0.00000000000E+00 -0.13316475727E+03  0.13316475727E+03  0.00000000000E+00 0.  1.
         25    1    1    2    0    0  0.25455987089E+02 -0.49979524801E+01  0.28412771692E+03  0.31149084470E+03  0.12500000000E+03 0.  0.
         25    1    1    2    0    0 -0.37269458487E+02  0.73635894121E+02 -0.28392438901E+02  0.15245454413E+03  0.12500000000E+03 0.  0.
         25    1    1    2    0    0  0.11813471398E+02 -0.68637941640E+02  0.14709252809E+03  0.20521193182E+03  0.12500000000E+03 0.  0.
</event>
<event>
 5    0  0.5822326E-005  0.2768719E+03  0.7546771E-02  0.1097410E+00
         21   -1    0    0  502  501  0.00000000000E+00  0.00000000000E+00  0.84344584045E+02  0.84344584045E+02  0.00000000000E+00 0. -1.
         21   -1    0    0  501  502 -0.00000000000E+00 -0.00000000000E+00 -0.90886739778E+03  0.90886739778E+03  0.00000000000E+00 0. -1.
         25    1    1    2    0    0 -0.64832876652E+02 -0.43349086696E+02 -0.12232796003E+03  0.19149823763E+03  0.12500000000E+03 0.  0.
         25    1    1    2    0    0  0.13118240761E+03 -0.80359378123E+02 -0.38417712705E+03  0.43230026448E+03  0.12500000000E+03 0.  0.
         25    1    1    2    0    0 -0.66349530961E+02  0.12370846482E+03 -0.31801772666E+03  0.36941347972E+03  0.12500000000E+03 0.  0.
</event>
<event>
 5    0  0.5822326E-005  0.2793510E+03  0.7546771E-02  0.1096044E+00
         21   -1    0    0  502  501  0.00000000000E+00  0.00000000000E+00  0.29900926560E+03  0.29900926560E+03  0.00000000000E+00 0.  1.
         21   -1    0    0  501  502 -0.00000000000E+00 -0.00000000000E+00 -0.26098516409E+03  0.26098516409E+03  0.00000000000E+00 0.  1.
         25    1    1    2    0    0  0.12133923345E+03  0.48745398457E+02  0.40979509628E+02  0.18548219228E+03  0.12500000000E+03 0.  0.
         25    1    1    2    0    0 -0.79216305612E+02  0.32985842517E+02 -0.10885195043E+03  0.18664682155E+03  0.12500000000E+03 0.  0.
         25    1    1    2    0    0 -0.42122927835E+02 -0.81731240974E+02  0.10589654232E+03  0.18786541586E+03  0.12500000000E+03 0.  0.
</event>
<event>
 5    0  0.5822326E-005  0.3313814E+03  0.7546771E-02  0.1070527E+00
         21   -1    0    0  502  501  0.00000000000E+00  0.00000000000E+00  0.46470526315E+03  0.46470526315E+03  0.00000000000E+00 0.  1.
         21   -1    0    0  501  502 -0.00000000000E+00 -0.00000000000E+00 -0.23630818662E+03  0.23630818662E+03  0.00000000000E+00 0.  1.
         25    1    1    2    0    0  0.65529592870E+02  0.25584252587E+03  0.97651568267E+02  0.30807524141E+03  0.12500000000E+03 0.  0.
         25    1    1    2    0    0 -0.24257513384E+02 -0.15161032739E+03  0.39675670569E+02  0.20192393905E+03  0.12500000000E+03 0.  0.
         25    1    1    2    0    0 -0.41272079486E+02 -0.10423219848E+03  0.91069837698E+02  0.19101426932E+03  0.12500000000E+03 0.  0.
</event>
<event>
 5    0  0.5822326E-005  0.2812636E+03  0.7546771E-02  0.1095001E+00
         21   -1    0    0  502  501  0.00000000000E+00  0.00000000000E+00  0.14912023205E+04  0.14912023205E+04  0.00000000000E+00 0.  1.
         21   -1    0    0  501  502 -0.00000000000E+00 -0.00000000000E+00 -0.53050619259E+02  0.53050619259E+02  0.00000000000E+00 0.  1.
         25    1    1    2    0    0  0.38596385712E+02 -0.10186662823E+03  0.61481510651E+03  0.63678026519E+03  0.12500000000E+03 0.  0.
         25    1    1    2    0    0 -0.80636988401E+02  0.88720557790E+02  0.17683600249E+03  0.24752703499E+03  0.12500000000E+03 0.  0.
         25    1    1    2    0    0  0.42040602688E+02  0.13146070440E+02  0.64650059227E+03  0.65994563962E+03  0.12500000000E+03 0.  0.
</event>
<event>
 5    0  0.5822326E-005  0.2714660E+03  0.7546771E-02  0.1100444E+00
         21   -1    0    0  502  501  0.00000000000E+00  0.00000000000E+00  0.21006725528E+03  0.21006725528E+03  0.00000000000E+00 0.  1.
         21   -1    0    0  501  502 -0.00000000000E+00 -0.00000000000E+00 -0.35081039186E+03  0.35081039186E+03  0.00000000000E+00 0.  1.
         25    1    1    2    0    0  0.72857054543E+02 -0.39061302346E+02 -0.12413414478E+03  0.19459758898E+03  0.12500000000E+03 0.  0.
         25    1    1    2    0    0  0.19047295444E+02  0.13193780042E+03 -0.29003885473E+02  0.18503137035E+03  0.12500000000E+03 0.  0.
         25    1    1    2    0    0 -0.91904349988E+02 -0.92876498072E+02  0.12394893673E+02  0.18124868780E+03  0.12500000000E+03 0.  0.
</event>
<event>
 5    0  0.5822326E-005  0.3591435E+03  0.7546771E-02  0.1058924E+00
         21   -1    0    0  502  501  0.00000000000E+00  0.00000000000E+00  0.34935648583E+03  0.34935648583E+03  0.00000000000E+00 0.  1.
         21   -1    0    0  501  502 -0.00000000000E+00 -0.00000000000E+00 -0.36920458970E+03  0.36920458970E+03  0.00000000000E+00 0.  1.
         25    1    1    2    0    0  0.43933887817E+01  0.27991183951E+03 -0.30839673458E+02  0.30813312906E+03  0.12500000000E+03 0.  0.
         25    1    1    2    0    0 -0.61742824722E+02 -0.18350630021E+03 -0.42121420475E+02  0.23427751212E+03  0.12500000000E+03 0.  0.
         25    1    1    2    0    0  0.57349435941E+02 -0.96405539298E+02  0.53112990067E+02  0.17615043436E+03  0.12500000000E+03 0.  0.
</event>
<event>
 5    0  0.5956000E-005  0.2766046E+03  0.7546771E-02  0.1097558E+00
         21   -1    0    0  502  501  0.00000000000E+00  0.00000000000E+00  0.28705537498E+03  0.28705537498E+03  0.00000000000E+00 0. -1.
         21   -1    0    0  501  502 -0.00000000000E+00 -0.00000000000E+00 -0.26653436394E+03  0.26653436394E+03  0.00000000000E+00 0. -1.
         25    1    1    2    0    0 -0.34363217885E+02  0.46830735852E+02 -0.67722676904E+02  0.15357509411E+03  0.12500000000E+03 0.  0.
         25    1    1    2    0    0 -0.24429871060E+02 -0.72104536395E+02 -0.90976598938E+02  0.17232998672E+03  0.12500000000E+03 0.  0.
         25    1    1    2    0    0  0.58793088944E+02  0.25273800543E+02  0.17922028688E+03  0.22768465809E+03  0.12500000000E+03 0.  0.
</event>
<event>
 5    0  0.5822326E-005  0.3702254E+03  0.7546771E-02  0.1054607E+00
         21   -1    0    0  502  501  0.00000000000E+00  0.00000000000E+00  0.26707246343E+03  0.26707246343E+03  0.00000000000E+00 0.  1.
         21   -1    0    0  501  502 -0.00000000000E+00 -0.00000000000E+00 -0.51321956439E+03  0.51321956439E+03  0.00000000000E+00 0.  1.
         25    1    1    2    0    0 -0.54874355075E+02  0.23628393553E+03 -0.63959585245E+01  0.27296007275E+03  0.12500000000E+03 0.  0.
         25    1    1    2    0    0 -0.58200153579E+02 -0.20073442242E+02  0.55643274399E+01  0.13944949874E+03  0.12500000000E+03 0.  0.
         25    1    1    2    0    0  0.11307450865E+03 -0.21621049328E+03 -0.24531546987E+03  0.36788245633E+03  0.12500000000E+03 0.  0.
</event>
<event>
 5    0  0.5822326E-005  0.3837284E+03  0.7546771E-02  0.1049564E+00
         21   -1    0    0  502  501  0.00000000000E+00  0.00000000000E+00  0.79179396372E+02  0.79179396372E+02  0.00000000000E+00 0. -1.
         21   -1    0    0  501  502 -0.00000000000E+00 -0.00000000000E+00 -0.18596695083E+04  0.18596695083E+04  0.00000000000E+00 0. -1.
         25    1    1    2    0    0 -0.29307094981E+03 -0.92220303966E+02 -0.77655653020E+03  0.84442892578E+03  0.12500000000E+03 0.  0.
         25    1    1    2    0    0  0.12017088330E+03  0.12872115757E+02 -0.23390217768E+03  0.29144804216E+03  0.12500000000E+03 0.  0.
         25    1    1    2    0    0  0.17290006651E+03  0.79348188209E+02 -0.77003140407E+03  0.80297193676E+03  0.12500000000E+03 0.  0.
</event>
<event>
 5    0  0.5822326E-005  0.2383702E+03  0.7546771E-02  0.1120883E+00
         21   -1    0    0  502  501  0.00000000000E+00  0.00000000000E+00  0.99534046534E+02  0.99534046534E+02  0.00000000000E+00 0.  1.
         21   -1    0    0  501  502 -0.00000000000E+00 -0.00000000000E+00 -0.57086361487E+03  0.57086361487E+03  0.00000000000E+00 0.  1.
         25    1    1    2    0    0 -0.68542264441E+02 -0.36718870334E+02 -0.34901683564E+03  0.37879291046E+03  0.12500000000E+03 0.  0.
         25    1    1    2    0    0  0.31082312633E+02  0.28386231363E+01 -0.72789093670E+02  0.14797776893E+03  0.12500000000E+03 0.  0.
         25    1    1    2    0    0  0.37459951808E+02  0.33880247197E+02 -0.49523639020E+02  0.14362698201E+03  0.12500000000E+03 0.  0.
</event>
<event>
 5    0  0.5910912E-005  0.5647930E+03  0.7546771E-02  0.9981268E-01
         21   -1    0    0  502  501  0.00000000000E+00  0.00000000000E+00  0.82053098487E+03  0.82053098487E+03  0.00000000000E+00 0. -1.
         21   -1    0    0  501  502 -0.00000000000E+00 -0.00000000000E+00 -0.38876176825E+03  0.38876176825E+03  0.00000000000E+00 0. -1.
         25    1    1    2    0    0 -0.10117016221E+03 -0.21792065298E+03 -0.86269807988E+02  0.28423985028E+03  0.12500000000E+03 0.  0.
         25    1    1    2    0    0  0.36376656155E+03  0.74435916010E+02  0.44451372405E+03  0.59252364321E+03  0.12500000000E+03 0.  0.
         25    1    1    2    0    0 -0.26259639934E+03  0.14348473697E+03  0.73525300562E+02  0.33252925963E+03  0.12500000000E+03 0.  0.
</event>
<event>
 5    0  0.5822326E-005  0.3101530E+03  0.7546771E-02  0.1080273E+00
         21   -1    0    0  502  501  0.00000000000E+00  0.00000000000E+00  0.99162427101E+02  0.99162427101E+02  0.00000000000E+00 0.  1.
         21   -1    0    0  501  502 -0.00000000000E+00 -0.00000000000E+00 -0.97007386117E+03  0.97007386117E+03  0.00000000000E+00 0.  1.
         25    1    1    2    0    0  0.39056936700E+02  0.10732327075E+03 -0.64414196252E+02  0.18115716223E+03  0.12500000000E+03 0.  0.
         25    1    1    2    0    0  0.20009687010E+02 -0.14805567737E+03 -0.27245092190E+03  0.33492592616E+03  0.12500000000E+03 0.  0.
         25    1    1    2    0    0 -0.59066623710E+02  0.40732406614E+02 -0.53404631592E+03  0.55315319988E+03  0.12500000000E+03 0.  0.
</event>
<event>
 5    0  0.5822326E-005  0.3116045E+03  0.7546771E-02  0.1079579E+00
         21   -1    0    0  502  501  0.00000000000E+00  0.00000000000E+00  0.10269480254E+03  0.10269480254E+03  0.00000000000E+00 0.  1.
         21   -1    0    0  501  502 -0.00000000000E+00 -0.00000000000E+00 -0.94549430673E+03  0.94549430673E+03  0.00000000000E+00 0.  1.
         25    1    1    2    0    0 -0.17280993314E+03  0.13241226256E+03 -0.25448576497E+03  0.35746927818E+03  0.12500000000E+03 0.  0.
         25    1    1    2    0    0  0.42143909558E+02 -0.35593163315E+02 -0.35321451709E+03  0.37871952349E+03  0.12500000000E+03 0.  0.
         25    1    1    2    0    0  0.13066602359E+03 -0.96819099248E+02 -0.23509922213E+03  0.31200030760E+03  0.12500000000E+03 0.  0.
</event>
<event>
 5    0  0.5822326E-005  0.2647850E+03  0.7546771E-02  0.1104302E+00
         21   -1    0    0  502  501  0.00000000000E+00  0.00000000000E+00  0.21561782732E+03  0.21561782732E+03  0.00000000000E+00 0. -1.
         21   -1    0    0  501  502 -0.00000000000E+00 -0.00000000000E+00 -0.32516379524E+03  0.32516379524E+03  0.00000000000E+00 0. -1.
         25    1    1    2    0    0  0.67146011702E+02  0.95176255555E+02  0.27637469533E+02  0.17307783287E+03  0.12500000000E+03 0.  0.
         25    1    1    2    0    0 -0.33134693028E+02 -0.14781133019E+03 -0.11051368341E+03  0.22535388045E+03  0.12500000000E+03 0.  0.
         25    1    1    2    0    0 -0.34011318675E+02  0.52635074634E+02 -0.26669754052E+02  0.14234990924E+03  0.12500000000E+03 0.  0.
</event>
<event>
 5    0  0.5822326E-005  0.2157199E+03  0.7546771E-02  0.1137115E+00
         21   -1    0    0  502  501  0.00000000000E+00  0.00000000000E+00  0.13079076627E+03  0.13079076627E+03  0.00000000000E+00 0.  1.
         21   -1    0    0  501  502 -0.00000000000E+00 -0.00000000000E+00 -0.35579795606E+03  0.35579795606E+03  0.00000000000E+00 0.  1.
         25    1    1    2    0    0  0.62856910496E+02  0.42514072751E+02 -0.28373807698E+02  0.14895808317E+03  0.12500000000E+03 0.  0.
         25    1    1    2    0    0 -0.34457115297E+02 -0.11763462167E+02 -0.47502197641E+02  0.13858979262E+03  0.12500000000E+03 0.  0.
         25    1    1    2    0    0 -0.28399795199E+02 -0.30750610584E+02 -0.14913118445E+03  0.19904084655E+03  0.12500000000E+03 0.  0.
</event>
<event>
 5    0  0.5822326E-005  0.3086776E+03  0.7546771E-02  0.1080981E+00
         21   -1    0    0  502  501  0.00000000000E+00  0.00000000000E+00  0.12832581492E+03  0.12832581492E+03  0.00000000000E+00 0. -1.
         21   -1    0    0  501  502 -0.00000000000E+00 -0.00000000000E+00 -0.74249956655E+03  0.74249956655E+03  0.00000000000E+00 0. -1.
         25    1    1    2    0    0  0.85839488977E+02  0.21074039875E+02 -0.39379803194E+03  0.42250967206E+03  0.12500000000E+03 0.  0.
         25    1    1    2    0    0 -0.12441718238E+03 -0.97978647367E+02 -0.21732361727E+03  0.29653668447E+03  0.12500000000E+03 0.  0.
         25    1    1    2    0    0  0.38577693404E+02  0.76904607492E+02 -0.30521024086E+01  0.15177902494E+03  0.12500000000E+03 0.  0.
</event>
<event>
 5    0  0.5822326E-005  0.2457998E+03  0.7546771E-02  0.1115988E+00
         21   -1    0    0  502  501  0.00000000000E+00  0.00000000000E+00  0.57806233257E+03  0.57806233257E+03  0.00000000000E+00 0. -1.
         21   -1    0    0  501  502 -0.00000000000E+00 -0.00000000000E+00 -0.10451732993E+03  0.10451732993E+03  0.00000000000E+00 0. -1.
         25    1    1    2    0    0 -0.84682906719E+02 -0.40450583936E+02  0.10712272571E+03  0.18949333179E+03  0.12500000000E+03 0.  0.
         25    1    1    2    0    0 -0.20256567245E+02 -0.56337034031E+02  0.13094880169E+03  0.19067453575E+03  0.12500000000E+03 0.  0.
         25    1    1    2    0    0  0.10493947396E+03  0.96787617967E+02  0.23547347524E+03  0.30241179496E+03  0.12500000000E+03 0.  0.
</event>
<event>
 5    0  0.5822326E-005  0.3053168E+03  0.7546771E-02  0.1082613E+00
         21   -1    0    0  502  501  0.00000000000E+00  0.00000000000E+00  0.24732014791E+03  0.24732014791E+03  0.00000000000E+00 0.  1.
         21   -1    0    0  501  502 -0.00000000000E+00 -0.00000000000E+00 -0.37691366585E+03  0.37691366585E+03  0.00000000000E+00 0.  1.
         25    1    1    2    0    0 -0.18230231447E+02  0.84515022393E+02 -0.24074321632E+03  0.28470585971E+03  0.12500000000E+03 0.  0.
         25    1    1    2    0    0 -0.77137912672E+02 -0.37214585186E+02  0.83560034208E+02  0.17303890383E+03  0.12500000000E+03 0.  0.
         25    1    1    2    0    0  0.95368144120E+02 -0.47300437207E+02  0.27589664184E+02  0.16648905022E+03  0.12500000000E+03 0.  0.
</event>
<event>
 5    0  0.5822326E-005  0.2828041E+03  0.7546771E-02  0.1094167E+00
         21   -1    0    0  502  501  0.00000000000E+00  0.00000000000E+00  0.63741824207E+03  0.63741824207E+03  0.00000000000E+00 0. -1.
         21   -1    0    0  501  502 -0.00000000000E+00 -0.00000000000E+00 -0.12547204280E+03  0.12547204280E+03  0.00000000000E+00 0. -1.
         25    1    1    2    0    0 -0.18438279789E+02  0.14149204177E+03  0.32411334378E+03  0.37554550677E+03  0.12500000000E+03 0.  0.
         25    1    1    2    0    0 -0.43811496645E+02 -0.86250744568E+02  0.15589420682E+02  0.15882905343E+03  0.12500000000E+03 0.  0.
         25    1    1    2    0    0  0.62249776434E+02 -0.55241297199E+02  0.17224343481E+03  0.22851572466E+03  0.12500000000E+03 0.  0.
</event>
<event>
 5    0  0.6277131E-005  0.4318023E+03  0.7546771E-02  0.1033292E+00
         21   -1    0    0  502  501  0.00000000000E+00  0.00000000000E+00  0.50257636896E+03  0.50257636896E+03  0.00000000000E+00 0.  1.
         21   -1    0    0  501  502 -0.00000000000E+00 -0.00000000000E+00 -0.37099477369E+03  0.37099477369E+03  0.00000000000E+00 0.  1.
         25    1    1    2    0    0  0.55843328262E+02 -0.24850101853E+03 -0.19221747515E+02  0.28436896648E+03  0.12500000000E+03 0.  0.
         25    1    1    2    0    0  0.87687707195E+01 -0.34558127201E+02  0.22922479596E+03  0.26351501395E+03  0.12500000000E+03 0.  0.
         25    1    1    2    0    0 -0.64612098981E+02  0.28305914573E+03 -0.78421453174E+02  0.32568716222E+03  0.12500000000E+03 0.  0.
</event>
<event>
 5    0  0.5822326E-005  0.3585993E+03  0.7546771E-02  0.1059140E+00
         21   -1    0    0  502  501  0.00000000000E+00  0.00000000000E+00  0.65352569937E+02  0.65352569937E+02  0.00000000000E+00 0.  1.
         21   -1    0    0  501  502 -0.00000000000E+00 -0.00000000000E+00 -0.19676883361E+04  0.19676883361E+04  0.00000000000E+00 0.  1.
         25    1    1    2    0    0 -0.11883828979E+03  0.40994568516E+02 -0.13563826295E+04  0.13679188322E+04  0.12500000000E+03 0.  0.
         25    1    1    2    0    0 -0.16700331436E+02 -0.11930995219E+03 -0.19549766398E+03  0.26145382457E+03  0.12500000000E+03 0.  0.
         25    1    1    2    0    0  0.13553862122E+03  0.78315383670E+02 -0.35045547266E+03  0.40366824928E+03  0.12500000000E+03 0.  0.
</event>
<event>
 5    0  0.5822326E-005  0.2696215E+03  0.7546771E-02  0.1101496E+00
         21   -1    0    0  502  501  0.00000000000E+00  0.00000000000E+00  0.33906840587E+03  0.33906840587E+03  0.00000000000E+00 0.  1.
         21   -1    0    0  501  502 -0.00000000000E+00 -0.00000000000E+00 -0.21439852777E+03  0.21439852777E+03  0.00000000000E+00 0.  1.
         25    1    1    2    0    0  0.55287320334E+01  0.78718661217E+02 -0.11249079660E+02  0.14825227248E+03  0.12500000000E+03 0.  0.
         25    1    1    2    0    0 -0.57764434312E+02  0.66065717261E+02  0.13957235517E+03  0.20689816624E+03  0.12500000000E+03 0.  0.
         25    1    1    2    0    0  0.52235702278E+02 -0.14478437848E+03 -0.36533974025E+01  0.19831649492E+03  0.12500000000E+03 0.  0.
</event>
<event>
 5    0  0.5822326E-005  0.2508120E+03  0.7546771E-02  0.1112793E+00
         21   -1    0    0  502  501  0.00000000000E+00  0.00000000000E+00  0.18846077518E+03  0.18846077518E+03  0.00000000000E+00 0. -1.
         21   -1    0    0  501  502 -0.00000000000E+00 -0.00000000000E+00 -0.33379182983E+03  0.33379182983E+03  0.00000000000E+00 0. -1.
         25    1    1    2    0    0 -0.91936884941E+01 -0.29419017651E+02 -0.11811073145E+03  0.17471447390E+03  0.12500000000E+03 0.  0.
         25    1    1    2    0    0 -0.14243612062E+02  0.13220296067E+03 -0.54910994313E+01  0.18258054515E+03  0.12500000000E+03 0.  0.
         25    1    1    2    0    0  0.23437300556E+02 -0.10278394302E+03 -0.21729223773E+02  0.16495758596E+03  0.12500000000E+03 0.  0.
</event>
<event>
 5    0  0.6015685E-005  0.2995438E+03  0.7546771E-02  0.1085469E+00
         21   -1    0    0  502  501  0.00000000000E+00  0.00000000000E+00  0.41670156490E+03  0.41670156490E+03  0.00000000000E+00 0.  1.
         21   -1    0    0  501  502 -0.00000000000E+00 -0.00000000000E+00 -0.21532554824E+03  0.21532554824E+03  0.00000000000E+00 0.  1.
         25    1    1    2    0    0  0.13226124383E+03  0.43059241259E+02 -0.26292650121E+02  0.18884765905E+03  0.12500000000E+03 0.  0.
         25    1    1    2    0    0 -0.37193318390E+02  0.58328654005E+02  0.21193240167E+03  0.25558935363E+03  0.12500000000E+03 0.  0.
         25    1    1    2    0    0 -0.95067925437E+02 -0.10138789526E+03  0.15736265116E+02  0.18759010047E+03  0.12500000000E+03 0.  0.
</event>
<event>
 5    0  0.5822326E-005  0.5669873E+03  0.7546771E-02  0.9976368E-01
         21   -1    0    0  502  501  0.00000000000E+00  0.00000000000E+00  0.52423362897E+03  0.52423362897E+03  0.00000000000E+00 0.  1.
         21   -1    0    0  501  502 -0.00000000000E+00 -0.00000000000E+00 -0.61322775322E+03  0.61322775322E+03  0.00000000000E+00 0.  1.
         25    1    1    2    0    0 -0.31585459017E+03  0.18617413028E+03  0.16851391094E+03  0.42242971853E+03  0.12500000000E+03 0.  0.
         25    1    1    2    0    0 -0.31732311428E+02 -0.70054052654E+02  0.10827024738E+03  0.18237860716E+03  0.12500000000E+03 0.  0.
         25    1    1    2    0    0  0.34758690160E+03 -0.11612007763E+03 -0.36577828257E+03  0.53265305649E+03  0.12500000000E+03 0.  0.
</event>
<event>
 5    0  0.5822326E-005  0.2548888E+03  0.7546771E-02  0.1110254E+00
         21   -1    0    0  502  501  0.00000000000E+00  0.00000000000E+00  0.55791705566E+03  0.55791705566E+03  0.00000000000E+00 0. -1.
         21   -1    0    0  501  502 -0.00000000000E+00 -0.00000000000E+00 -0.11644793654E+03  0.11644793654E+03  0.00000000000E+00 0. -1.
         25    1    1    2    0    0  0.56127040573E+02  0.23824513852E+02  0.10244043399E+03  0.17273359447E+03  0.12500000000E+03 0.  0.
         25    1    1    2    0    0 -0.29075800192E+02 -0.12538049010E+03  0.82372971398E+02  0.19742334176E+03  0.12500000000E+03 0.  0.
         25    1    1    2    0    0 -0.27051240382E+02  0.10155597625E+03  0.25665571374E+03  0.30420805597E+03  0.12500000000E+03 0.  0.
</event>
<event>
 5    0  0.5822326E-005  0.2870663E+03  0.7546771E-02  0.1091891E+00
         21   -1    0    0  502  501  0.00000000000E+00  0.00000000000E+00  0.24074373095E+03  0.24074373095E+03  0.00000000000E+00 0. -1.
         21   -1    0    0  501  502 -0.00000000000E+00 -0.00000000000E+00 -0.34230206049E+03  0.34230206049E+03  0.00000000000E+00 0. -1.
         25    1    1    2    0    0 -0.66221536402E+02 -0.17840852441E+03 -0.19838685826E+02  0.22854642181E+03  0.12500000000E+03 0.  0.
         25    1    1    2    0    0  0.65601317787E+02  0.15444229312E+03 -0.88171546028E+02  0.22705764979E+03  0.12500000000E+03 0.  0.
         25    1    1    2    0    0  0.62021861514E+00  0.23966231289E+02  0.64519023142E+01  0.12744171984E+03  0.12500000000E+03 0.  0.
</event>
<event>
 5    0  0.5822326E-005  0.3280721E+03  0.7546771E-02  0.1071993E+00
         21   -1    0    0  502  501  0.00000000000E+00  0.00000000000E+00  0.11313400396E+04  0.11313400396E+04  0.00000000000E+00 0.  1.
         21   -1    0    0  501  502 -0.00000000000E+00 -0.00000000000E+00 -0.95136143824E+02  0.95136143824E+02  0.00000000000E+00 0.  1.
         25    1    1    2    0    0 -0.89156651763E+02 -0.50239885643E+02  0.51433343826E+03  0.53910744790E+03  0.12500000000E+03 0.  0.
         25    1    1    2    0    0  0.27604043095E+02 -0.98708999289E-01 -0.16423106552E+02  0.12906088241E+03  0.12500000000E+03 0.  0.
         25    1    1    2    0    0  0.61552608668E+02  0.50338594642E+02  0.53829356410E+03  0.55830785316E+03  0.12500000000E+03 0.  0.
</event>
<event>
 5    0  0.5822326E-005  0.3171434E+03  0.7546771E-02  0.1076972E+00
         21   -1    0    0  502  501  0.00000000000E+00  0.00000000000E+00  0.15447301292E+03  0.15447301292E+03  0.00000000000E+00 0. -1.
         21   -1    0    0  501  502 -0.00000000000E+00 -0.00000000000E+00 -0.65111658629E+03  0.65111658629E+03  0.00000000000E+00 0. -1.
         25    1    1    2    0    0  0.60505439944E+02 -0.44360935002E+02  0.43010755896E+02  0.15199909848E+03  0.12500000000E+03 0.  0.
         25    1    1    2    0    0 -0.31816264000E+01  0.19582286013E+02 -0.36980008340E+02  0.13185639798E+03  0.12500000000E+03 0.  0.
         25    1    1    2    0    0 -0.57323813544E+02  0.24778648989E+02 -0.50267432092E+03  0.52173410274E+03  0.12500000000E+03 0.  0.
</event>
<event>
 5    0  0.5822326E-005  0.5010128E+03  0.7546771E-02  0.1013515E+00
         21   -1    0    0  502  501  0.00000000000E+00  0.00000000000E+00  0.78092136011E+03  0.78092136011E+03  0.00000000000E+00 0. -1.
         21   -1    0    0  501  502 -0.00000000000E+00 -0.00000000000E+00 -0.32143296142E+03  0.32143296142E+03  0.00000000000E+00 0. -1.
         25    1    1    2    0    0 -0.15542522653E+03 -0.10058413701E+03 -0.98751260283E+02  0.24423550329E+03  0.12500000000E+03 0.  0.
         25    1    1    2    0    0  0.34225559040E+03  0.18272428651E+03  0.30059259799E+03  0.50646615287E+03  0.12500000000E+03 0.  0.
         25    1    1    2    0    0 -0.18683036387E+03 -0.82140149501E+02  0.25764706098E+03  0.35165266536E+03  0.12500000000E+03 0.  0.
</event>
<event>
 5    0  0.5822326E-005  0.3239969E+03  0.7546771E-02  0.1073824E+00
         21   -1    0    0  502  501  0.00000000000E+00  0.00000000000E+00  0.15896610830E+03  0.15896610830E+03  0.00000000000E+00 0. -1.
         21   -1    0    0  501  502 -0.00000000000E+00 -0.00000000000E+00 -0.66035472748E+03  0.66035472748E+03  0.00000000000E+00 0. -1.
         25    1    1    2    0    0 -0.13735894633E+03 -0.16955193788E+03 -0.15526444450E+03  0.29554591438E+03  0.12500000000E+03 0.  0.
         25    1    1    2    0    0  0.47272599692E+02  0.63464702374E+02 -0.22042591069E+02  0.14957721401E+03  0.12500000000E+03 0.  0.
         25    1    1    2    0    0  0.90086346641E+02  0.10608723551E+03 -0.32408158361E+03  0.37419770740E+03  0.12500000000E+03 0.  0.
</event>
<event>
 5    0  0.5840276E-005  0.3250618E+03  0.7546771E-02  0.1073343E+00
         21   -1    0    0  502  501  0.00000000000E+00  0.00000000000E+00  0.24416841816E+03  0.24416841816E+03  0.00000000000E+00 0.  1.
         21   -1    0    0  501  502 -0.00000000000E+00 -0.00000000000E+00 -0.43275517163E+03  0.43275517163E+03  0.00000000000E+00 0.  1.
         25    1    1    2    0    0  0.10738787112E+03 -0.83150359962E+02 -0.42846678653E+02  0.18949135890E+03  0.12500000000E+03 0.  0.
         25    1    1    2    0    0 -0.75141154077E+02  0.51839500268E+02 -0.26631824149E+03  0.30803235638E+03  0.12500000000E+03 0.  0.
         25    1    1    2    0    0 -0.32246717045E+02  0.31310859695E+02  0.12057816668E+03  0.17939987451E+03  0.12500000000E+03 0.  0.
</event>
<event>
 5    0  0.5822326E-005  0.3171714E+03  0.7546771E-02  0.1076959E+00
         21   -1    0    0  502  501  0.00000000000E+00  0.00000000000E+00  0.52831254290E+03  0.52831254290E+03  0.00000000000E+00 0. -1.
         21   -1    0    0  501  502 -0.00000000000E+00 -0.00000000000E+00 -0.19041317340E+03  0.19041317340E+03  0.00000000000E+00 0. -1.
         25    1    1    2    0    0  0.84274976079E+02  0.89781099944E+02 -0.35254589492E+02  0.17897151612E+03  0.12500000000E+03 0.  0.
         25    1    1    2    0    0  0.22328075368E+02 -0.16032282675E+03  0.14903480253E+03  0.25305794612E+03  0.12500000000E+03 0.  0.
         25    1    1    2    0    0 -0.10660305145E+03  0.70541726809E+02  0.22411915646E+03  0.28669625406E+03  0.12500000000E+03 0.  0.
</event>
<event>
 5    0  0.5822326E-005  0.3428846E+03  0.7546771E-02  0.1065574E+00
         21   -1    0    0  502  501  0.00000000000E+00  0.00000000000E+00  0.31620354311E+03  0.31620354311E+03  0.00000000000E+00 0. -1.
         21   -1    0    0  501  502 -0.00000000000E+00 -0.00000000000E+00 -0.37181691863E+03  0.37181691863E+03  0.00000000000E+00 0. -1.
         25    1    1    2    0    0 -0.41965970509E+02  0.38532105293E+02 -0.11441104716E+02  0.13784688860E+03  0.12500000000E+03 0.  0.
         25    1    1    2    0    0 -0.37732254130E+02  0.15010749686E+03 -0.18525506116E+03  0.27184631927E+03  0.12500000000E+03 0.  0.
         25    1    1    2    0    0  0.79698224639E+02 -0.18863960216E+03  0.14108279035E+03  0.27832725387E+03  0.12500000000E+03 0.  0.
</event>
<event>
 5    0  0.5937549E-005  0.4505481E+03  0.7546771E-02  0.1027559E+00
         21   -1    0    0  502  501  0.00000000000E+00  0.00000000000E+00  0.26372337624E+03  0.26372337624E+03  0.00000000000E+00 0. -1.
         21   -1    0    0  501  502 -0.00000000000E+00 -0.00000000000E+00 -0.76972177726E+03  0.76972177726E+03  0.00000000000E+00 0. -1.
         25    1    1    2    0    0  0.23995414977E+03  0.52153600022E+02 -0.37435530367E+03  0.46482780185E+03  0.12500000000E+03 0.  0.
         25    1    1    2    0    0 -0.19421208334E+03 -0.22828391495E+03 -0.12432551957E+03  0.34772649303E+03  0.12500000000E+03 0.  0.
         25    1    1    2    0    0 -0.45742066426E+02  0.17613031493E+03 -0.73175777850E+01  0.22089085862E+03  0.12500000000E+03 0.  0.
</event>
<event>
 5    0  0.5822326E-005  0.2583526E+03  0.7546771E-02  0.1108137E+00
         21   -1    0    0  502  501  0.00000000000E+00  0.00000000000E+00  0.96096123030E+02  0.96096123030E+02  0.00000000000E+00 0. -1.
         21   -1    0    0  501  502 -0.00000000000E+00 -0.00000000000E+00 -0.69457603434E+03  0.69457603434E+03  0.00000000000E+00 0. -1.
         25    1    1    2    0    0  0.42458506021E+02  0.68077567022E+02 -0.12046092784E+03  0.19124098672E+03  0.12500000000E+03 0.  0.
         25    1    1    2    0    0  0.65671967894E+02 -0.22633422683E+02 -0.37037030408E+03  0.39701919517E+03  0.12500000000E+03 0.  0.
         25    1    1    2    0    0 -0.10813047392E+03 -0.45444144339E+02 -0.10764867940E+03  0.20241197549E+03  0.12500000000E+03 0.  0.
</event>
<event>
 5    0  0.5822326E-005  0.2257890E+03  0.7546771E-02  0.1129639E+00
         21   -1    0    0  502  501  0.00000000000E+00  0.00000000000E+00  0.30651419625E+03  0.30651419625E+03  0.00000000000E+00 0.  1.
         21   -1    0    0  501  502 -0.00000000000E+00 -0.00000000000E+00 -0.16632408447E+03  0.16632408447E+03  0.00000000000E+00 0.  1.
         25    1    1    2    0    0  0.28493028059E+02 -0.40819685631E+01  0.50814365407E+02  0.13796961567E+03  0.12500000000E+03 0.  0.
         25    1    1    2    0    0 -0.46533884593E+02 -0.69431688334E+02 -0.20874011181E+02  0.15181200909E+03  0.12500000000E+03 0.  0.
         25    1    1    2    0    0  0.18040856533E+02  0.73513656898E+02  0.11024975755E+03  0.18305665597E+03  0.12500000000E+03 0.  0.
</event>
<event>
 5    0  0.6089489E-005  0.3456594E+03  0.7546771E-02  0.1064411E+00
         21   -1    0    0  502  501  0.00000000000E+00  0.00000000000E+00  0.15727869995E+03  0.15727869995E+03  0.00000000000E+00 0. -1.
         21   -1    0    0  501  502 -0.00000000000E+00 -0.00000000000E+00 -0.75967338268E+03  0.75967338268E+03  0.00000000000E+00 0. -1.
         25    1    1    2    0    0  0.12616921814E+03 -0.53203056154E+02 -0.90991609720E+02  0.20652774591E+03  0.12500000000E+03 0.  0.
         25    1    1    2    0    0  0.61327804089E+02 -0.21558709823E+02 -0.44073562473E+03  0.46270808122E+03  0.12500000000E+03 0.  0.
         25    1    1    2    0    0 -0.18749702223E+03  0.74761765977E+02 -0.70667448285E+02  0.24771625551E+03  0.12500000000E+03 0.  0.
</event>
<event>
 5    0  0.5822326E-005  0.2032348E+03  0.7546771E-02  0.1147038E+00
         21   -1    0    0  502  501  0.00000000000E+00  0.00000000000E+00  0.43306496097E+02  0.43306496097E+02  0.00000000000E+00 0.  1.
         21   -1    0    0  501  502 -0.00000000000E+00 -0.00000000000E+00 -0.95376855839E+03  0.95376855839E+03  0.00000000000E+00 0.  1.
         25    1    1    2    0    0 -0.24198382944E+02 -0.90302081428E+00 -0.28373902389E+03  0.31099712356E+03  0.12500000000E+03 0.  0.
         25    1    1    2    0    0  0.30393904801E+02  0.25513886585E+02 -0.18824785018E+03  0.22942755055E+03  0.12500000000E+03 0.  0.
         25    1    1    2    0    0 -0.61955218569E+01 -0.24610865770E+02 -0.43847518823E+03  0.45665038037E+03  0.12500000000E+03 0.  0.
</event>
<event>
 5    0  0.6041961E-005  0.3027013E+03  0.7546771E-02  0.1083898E+00
         21   -1    0    0  502  501  0.00000000000E+00  0.00000000000E+00  0.55419838751E+03  0.55419838751E+03  0.00000000000E+00 0.  1.
         21   -1    0    0  501  502 -0.00000000000E+00 -0.00000000000E+00 -0.16533443612E+03  0.16533443612E+03  0.00000000000E+00 0.  1.
         25    1    1    2    0    0 -0.94448426328E+02 -0.24653958313E+02  0.18711214653E+03  0.24528407668E+03  0.12500000000E+03 0.  0.
         25    1    1    2    0    0  0.61285537770E+02  0.13976688156E+03 -0.13824927952E+02  0.19775446128E+03  0.12500000000E+03 0.  0.
         25    1    1    2    0    0  0.33162888558E+02 -0.11511292325E+03  0.21557673281E+03  0.27649428567E+03  0.12500000000E+03 0.  0.
</event>
<event>
 5    0  0.5822326E-005  0.5070404E+03  0.7546771E-02  0.1011957E+00
         21   -1    0    0  502  501  0.00000000000E+00  0.00000000000E+00  0.60376832550E+03  0.60376832550E+03  0.00000000000E+00 0.  1.
         21   -1    0    0  501  502 -0.00000000000E+00 -0.00000000000E+00 -0.42580895721E+03  0.42580895721E+03  0.00000000000E+00 0.  1.
         25    1    1    2    0    0 -0.84215601550E+01 -0.24188743901E+02 -0.27295045924E+03  0.30130212613E+03  0.12500000000E+03 0.  0.
         25    1    1    2    0    0  0.31399234951E+02  0.21312407572E+03  0.43343753604E+03  0.49990087143E+03  0.12500000000E+03 0.  0.
         25    1    1    2    0    0 -0.22977674796E+02 -0.18893533182E+03  0.17472291490E+02  0.22837428515E+03  0.12500000000E+03 0.  0.
</event>
<event>
 5    0  0.5822326E-005  0.3116493E+03  0.7546771E-02  0.1079558E+00
         21   -1    0    0  502  501  0.00000000000E+00  0.00000000000E+00  0.10267968327E+04  0.10267968327E+04  0.00000000000E+00 0.  1.
         21   -1    0    0  501  502 -0.00000000000E+00 -0.00000000000E+00 -0.94590563625E+02  0.94590563625E+02  0.00000000000E+00 0.  1.
         25    1    1    2    0    0  0.31202354068E+02  0.11169672285E+03  0.26689701636E+03  0.31671558556E+03  0.12500000000E+03 0.  0.
         25    1    1    2    0    0 -0.13245834652E+02 -0.83121085341E+02  0.65794969151E+03  0.67498693581E+03  0.12500000000E+03 0.  0.
         25    1    1    2    0    0 -0.17956519416E+02 -0.28575637511E+02  0.73595612020E+01  0.12968487495E+03  0.12500000000E+03 0.  0.
</event>
<event>
 5    0  0.5822326E-005  0.3403904E+03  0.7546771E-02  0.1066630E+00
         21   -1    0    0  502  501  0.00000000000E+00  0.00000000000E+00  0.30877867715E+03  0.30877867715E+03  0.00000000000E+00 0. -1.
         21   -1    0    0  501  502 -0.00000000000E+00 -0.00000000000E+00 -0.37523845254E+03  0.37523845254E+03  0.00000000000E+00 0. -1.
         25    1    1    2    0    0  0.18032511040E+03 -0.52384323991E+02  0.11898750742E+03  0.25503782026E+03  0.12500000000E+03 0.  0.
         25    1    1    2    0    0 -0.16155902665E+02 -0.52216527457E+02 -0.66341113534E+01  0.13658912974E+03  0.12500000000E+03 0.  0.
         25    1    1    2    0    0 -0.16416920774E+03  0.10460085145E+03 -0.17881317145E+03  0.29239017969E+03  0.12500000000E+03 0.  0.
</event>
<event>
 5    0  0.5822326E-005  0.4140447E+03  0.7546771E-02  0.1039022E+00
         21   -1    0    0  502  501  0.00000000000E+00  0.00000000000E+00  0.11887579476E+04  0.11887579476E+04  0.00000000000E+00 0. -1.
         21   -1    0    0  501  502 -0.00000000000E+00 -0.00000000000E+00 -0.14421187729E+03  0.14421187729E+03  0.00000000000E+00 0. -1.
         25    1    1    2    0    0  0.22578179702E+03  0.18911914324E+03  0.53912904214E+03  0.62691992653E+03  0.12500000000E+03 0.  0.
         25    1    1    2    0    0  0.79002071078E+01 -0.17169548094E+01  0.29162060663E+03  0.31738452927E+03  0.12500000000E+03 0.  0.
         25    1    1    2    0    0 -0.23368200413E+03 -0.18740218843E+03  0.21379642159E+03  0.38866536913E+03  0.12500000000E+03 0.  0.
</event>
<event>
 5    0  0.5822326E-005  0.5034293E+03  0.7546771E-02  0.1012888E+00
         21   -1    0    0  502  501  0.00000000000E+00  0.00000000000E+00  0.17635250063E+04  0.17635250063E+04  0.00000000000E+00 0. -1.
         21   -1    0    0  501  502 -0.00000000000E+00 -0.00000000000E+00 -0.14371274674E+03  0.14371274674E+03  0.00000000000E+00 0. -1.
         25    1    1    2    0    0 -0.35945984202E+03 -0.26956901941E+03  0.94725982369E+03  0.10558432686E+04  0.12500000000E+03 0.  0.
         25    1    1    2    0    0  0.13447297685E+03  0.70490084024E+02  0.25105007864E+03  0.31890903944E+03  0.12500000000E+03 0.  0.
         25    1    1    2    0    0  0.22498686517E+03  0.19907893539E+03  0.42150235725E+03  0.53248544505E+03  0.12500000000E+03 0.  0.
</event>
<event>
 5    0  0.5822326E-005  0.3416483E+03  0.7546771E-02  0.1066096E+00
         21   -1    0    0  502  501  0.00000000000E+00  0.00000000000E+00  0.47202309093E+03  0.47202309093E+03  0.00000000000E+00 0. -1.
         21   -1    0    0  501  502 -0.00000000000E+00 -0.00000000000E+00 -0.24728354630E+03  0.24728354630E+03  0.00000000000E+00 0. -1.
         25    1    1    2    0    0 -0.90441511806E+02 -0.39933845947E+02 -0.96319658904E+02  0.18621722746E+03  0.12500000000E+03 0.  0.
         25    1    1    2    0    0  0.18124985730E+03 -0.36678403242E+02  0.27577806845E+03  0.35478917553E+03  0.12500000000E+03 0.  0.
         25    1    1    2    0    0 -0.90808345494E+02  0.76612249189E+02  0.45281135094E+02  0.17830023425E+03  0.12500000000E+03 0.  0.
</event>
<event>
 5    0  0.5822326E-005  0.3717448E+03  0.7546771E-02  0.1054028E+00
         21   -1    0    0  502  501  0.00000000000E+00  0.00000000000E+00  0.12300467326E+04  0.12300467326E+04  0.00000000000E+00 0. -1.
         21   -1    0    0  501  502 -0.00000000000E+00 -0.00000000000E+00 -0.11234871690E+03  0.11234871690E+03  0.00000000000E+00 0. -1.
         25    1    1    2    0    0  0.18746803249E+03  0.11723495135E+03  0.64305780478E+03  0.69140193615E+03  0.12500000000E+03 0.  0.
         25    1    1    2    0    0 -0.10961076791E+03  0.65908487702E+02  0.89915570342E+02  0.20017057472E+03  0.12500000000E+03 0.  0.
         25    1    1    2    0    0 -0.77857264578E+02 -0.18314343905E+03  0.38472464055E+03  0.45082293860E+03  0.12500000000E+03 0.  0.
</event>
<event>
 5    0  0.5822326E-005  0.2484492E+03  0.7546771E-02  0.1114289E+00
         21   -1    0    0  502  501  0.00000000000E+00  0.00000000000E+00  0.16861764734E+03  0.16861764734E+03  0.00000000000E+00 0.  1.
         21   -1    0    0  501  502 -0.00000000000E+00 -0.00000000000E+00 -0.36607674517E+03  0.36607674517E+03  0.00000000000E+00 0.  1.
         25    1    1    2    0    0  0.17833487630E+02  0.70801360312E+02 -0.83698660203E+02  0.16721642151E+03  0.12500000000E+03 0.  0.
         25    1    1    2    0    0 -0.12495620223E+03 -0.45487945453E+02 -0.51094023699E+02  0.18952257099E+03  0.12500000000E+03 0.  0.
         25    1    1    2    0    0  0.10712271460E+03 -0.25313414859E+02 -0.62666413932E+02  0.17795540000E+03  0.12500000000E+03 0.  0.
</event>
<event>
 5    0  0.5822326E-005  0.3638063E+03  0.7546771E-02  0.1057087E+00
         21   -1    0    0  502  501  0.00000000000E+00  0.00000000000E+00  0.46303327338E+03  0.46303327338E+03  0.00000000000E+00 0.  1.
         21   -1    0    0  501  502 -0.00000000000E+00 -0.00000000000E+00 -0.28584343974E+03  0.28584343974E+03  0.00000000000E+00 0.  1.
         25    1    1    2    0    0 -0.18106680766E+03 -0.53699688464E+02  0.19688213316E+02  0.22733559141E+03  0.12500000000E+03 0.  0.
         25    1    1    2    0    0  0.19492224504E+03  0.17224279028E+03  0.19021725057E+03  0.34564412743E+03  0.12500000000E+03 0.  0.
         25    1    1    2    0    0 -0.13855437379E+02 -0.11854310181E+03 -0.32715630258E+02  0.17589699428E+03  0.12500000000E+03 0.  0.
</event>
<event>
 5    0  0.5822326E-005  0.3609230E+03  0.7546771E-02  0.1058219E+00
         21   -1    0    0  502  501  0.00000000000E+00  0.00000000000E+00  0.11199224537E+04  0.11199224537E+04  0.00000000000E+00 0.  1.
         21   -1    0    0  501  502 -0.00000000000E+00 -0.00000000000E+00 -0.11631642944E+03  0.11631642944E+03  0.00000000000E+00 0.  1.
         25    1    1    2    0    0 -0.15380463888E+03  0.98928562738E+02  0.28556404809E+03  0.36140635444E+03  0.12500000000E+03 0.  0.
         25    1    1    2    0    0  0.14672109510E+03 -0.80481563392E+02  0.78898809451E+02  0.22328095290E+03  0.12500000000E+03 0.  0.
         25    1    1    2    0    0  0.70835437808E+01 -0.18446999346E+02  0.63914316669E+03  0.65155157578E+03  0.12500000000E+03 0.  0.
</event>
<event>
 5    0  0.5822326E-005  0.2246405E+03  0.7546771E-02  0.1130470E+00
         21   -1    0    0  502  501  0.00000000000E+00  0.00000000000E+00  0.42014318869E+02  0.42014318869E+02  0.00000000000E+00 0.  1.
         21   -1    0    0  501  502 -0.00000000000E+00 -0.00000000000E+00 -0.12010985513E+04  0.12010985513E+04  0.00000000000E+00 0.  1.
         25    1    1    2    0    0  0.66510226944E+01  0.10054841634E+03 -0.56452694569E+03  0.58691557531E+03  0.12500000000E+03 0.  0.
         25    1    1    2    0    0  0.18458749329E+02 -0.24546877762E+02 -0.29611391797E+03  0.32288036027E+03  0.12500000000E+03 0.  0.
         25    1    1    2    0    0 -0.25109772024E+02 -0.76001538580E+02 -0.29844336877E+03  0.33331693458E+03  0.12500000000E+03 0.  0.
</event>
<event>
 5    0  0.5822326E-005  0.2907548E+03  0.7546771E-02  0.1089956E+00
         21   -1    0    0  502  501  0.00000000000E+00  0.00000000000E+00  0.10970317649E+04  0.10970317649E+04  0.00000000000E+00 0. -1.
         21   -1    0    0  501  502 -0.00000000000E+00 -0.00000000000E+00 -0.77061004803E+02  0.77061004803E+02  0.00000000000E+00 0. -1.
         25    1    1    2    0    0  0.11826984270E+03  0.62927979976E+02  0.39092886515E+03  0.43173842077E+03  0.12500000000E+03 0.  0.
         25    1    1    2    0    0 -0.94395294997E+02 -0.58157033390E+02  0.92654173772E+02  0.19105629581E+03  0.12500000000E+03 0.  0.
         25    1    1    2    0    0 -0.23874547706E+02 -0.47709465865E+01  0.53638772120E+03  0.55129805316E+03  0.12500000000E+03 0.  0.
</event>
<event>
 5    0  0.5822326E-005  0.3116986E+03  0.7546771E-02  0.1079535E+00
         21   -1    0    0  502  501  0.00000000000E+00  0.00000000000E+00  0.99000406881E+02  0.99000406881E+02  0.00000000000E+00 0. -1.
         21   -1    0    0  501  502 -0.00000000000E+00 -0.00000000000E+00 -0.98137016213E+03  0.98137016213E+03  0.00000000000E+00 0. -1.
         25    1    1    2    0    0  0.13228945660E+03  0.94944385428E+02 -0.49410069645E+03  0.53504713333E+03  0.12500000000E+03 0.  0.
         25    1    1    2    0    0 -0.20812936712E+02 -0.12949544767E+03 -0.30584340332E+03  0.35548197796E+03  0.12500000000E+03 0.  0.
         25    1    1    2    0    0 -0.11147651989E+03  0.34551062245E+02 -0.82425655492E+02  0.18984145773E+03  0.12500000000E+03 0.  0.
</event>
<event>
 5    0  0.6413297E-005  0.2919682E+03  0.7546771E-02  0.1089326E+00
         21   -1    0    0  502  501  0.00000000000E+00  0.00000000000E+00  0.87878884595E+02  0.87878884595E+02  0.00000000000E+00 0.  1.
         21   -1    0    0  501  502 -0.00000000000E+00 -0.00000000000E+00 -0.97003293346E+03  0.97003293346E+03  0.00000000000E+00 0.  1.
         25    1    1    2    0    0  0.11635233426E+03 -0.12017637688E+03 -0.18571042204E+03  0.27945230023E+03  0.12500000000E+03 0.  0.
         25    1    1    2    0    0 -0.10841812703E+03 -0.99434788035E+01 -0.36861725581E+03  0.40417452210E+03  0.12500000000E+03 0.  0.
         25    1    1    2    0    0 -0.79342072348E+01  0.13011985569E+03 -0.32782637102E+03  0.37428499572E+03  0.12500000000E+03 0.  0.
</event>
<event>
 5    0  0.5822326E-005  0.7157324E+03  0.7546771E-02  0.9690700E-01
         21   -1    0    0  502  501  0.00000000000E+00  0.00000000000E+00  0.15138975508E+04  0.15138975508E+04  0.00000000000E+00 0. -1.
         21   -1    0    0  501  502 -0.00000000000E+00 -0.00000000000E+00 -0.33838009947E+03  0.33838009947E+03  0.00000000000E+00 0. -1.
         25    1    1    2    0    0  0.27991894167E+03  0.48781730621E+03  0.90588143458E+03  0.10735765048E+04  0.12500000000E+03 0.  0.
         25    1    1    2    0    0 -0.18073029856E+03 -0.26174908241E+01  0.80806699288E+02  0.23414742092E+03  0.12500000000E+03 0.  0.
         25    1    1    2    0    0 -0.99188643110E+02 -0.48519981538E+03  0.18882931744E+03  0.54455372453E+03  0.12500000000E+03 0.  0.
</event>
<event>
 5    0  0.5822326E-005  0.3489055E+03  0.7546771E-02  0.1063065E+00
         21   -1    0    0  502  501  0.00000000000E+00  0.00000000000E+00  0.70562080753E+03  0.70562080753E+03  0.00000000000E+00 0.  1.
         21   -1    0    0  501  502 -0.00000000000E+00 -0.00000000000E+00 -0.17252193748E+03  0.17252193748E+03  0.00000000000E+00 0.  1.
         25    1    1    2    0    0 -0.18844653186E+03 -0.66381293040E+02  0.11757108614E+03  0.26337526788E+03  0.12500000000E+03 0.  0.
         25    1    1    2    0    0 -0.71974633307E+01 -0.93260080294E+02  0.22792552810E+03  0.27626851507E+03  0.12500000000E+03 0.  0.
         25    1    1    2    0    0  0.19564399519E+03  0.15964137333E+03  0.18760225581E+03  0.33849896207E+03  0.12500000000E+03 0.  0.
</event>
<event>
 5    0  0.5822326E-005  0.5723588E+03  0.7546771E-02  0.9964472E-01
         21   -1    0    0  502  501  0.00000000000E+00  0.00000000000E+00  0.40316947496E+03  0.40316947496E+03  0.00000000000E+00 0. -1.
         21   -1    0    0  501  502 -0.00000000000E+00 -0.00000000000E+00 -0.81254823056E+03  0.81254823056E+03  0.00000000000E+00 0. -1.
         25    1    1    2    0    0  0.16741774869E+03  0.39648966301E+03 -0.52821000230E+02  0.45127354622E+03  0.12500000000E+03 0.  0.
         25    1    1    2    0    0  0.85665705263E+01  0.47419867288E+02 -0.21079283664E+03  0.24976118578E+03  0.12500000000E+03 0.  0.
         25    1    1    2    0    0 -0.17598431922E+03 -0.44390953030E+03 -0.14576491874E+03  0.51468297353E+03  0.12500000000E+03 0.  0.
</event>
<event>
 5    0  0.5822326E-005  0.3561064E+03  0.7546771E-02  0.1060136E+00
         21   -1    0    0  502  501  0.00000000000E+00  0.00000000000E+00  0.33149141814E+03  0.33149141814E+03  0.00000000000E+00 0.  1.
         21   -1    0    0  501  502 -0.00000000000E+00 -0.00000000000E+00 -0.38254924964E+03  0.38254924964E+03  0.00000000000E+00 0.  1.
         25    1    1    2    0    0 -0.13538862092E+03 -0.51272760479E+02 -0.25675828383E+03  0.32016994075E+03  0.12500000000E+03 0.  0.
         25    1    1    2    0    0  0.11502027532E+03  0.81298436266E+02  0.18137229917E+03  0.26145747337E+03  0.12500000000E+03 0.  0.
         25    1    1    2    0    0  0.20368345603E+02 -0.30025675787E+02  0.24328153154E+02  0.13241325366E+03  0.12500000000E+03 0.  0.
</event>
<event>
 5    0  0.5822326E-005  0.2606200E+03  0.7546771E-02  0.1106771E+00
         21   -1    0    0  502  501  0.00000000000E+00  0.00000000000E+00  0.59191271515E+03  0.59191271515E+03  0.00000000000E+00 0. -1.
         21   -1    0    0  501  502 -0.00000000000E+00 -0.00000000000E+00 -0.11475138845E+03  0.11475138845E+03  0.00000000000E+00 0. -1.
         25    1    1    2    0    0  0.24769116445E+02  0.29548047331E+02  0.12696429290E+03  0.18229516697E+03  0.12500000000E+03 0.  0.
         25    1    1    2    0    0 -0.47823117738E+02  0.87854162865E+02  0.33614191644E+02  0.16358581357E+03  0.12500000000E+03 0.  0.
         25    1    1    2    0    0  0.23054001293E+02 -0.11740221020E+03  0.31658284216E+03  0.36078312306E+03  0.12500000000E+03 0.  0.
</event>
<event>
 5    0  0.5950801E-005  0.2602181E+03  0.7546771E-02  0.1107012E+00
         21   -1    0    0  502  501  0.00000000000E+00  0.00000000000E+00  0.72911684658E+02  0.72911684658E+02  0.00000000000E+00 0. -1.
         21   -1    0    0  501  502 -0.00000000000E+00 -0.00000000000E+00 -0.92870496458E+03  0.92870496458E+03  0.00000000000E+00 0. -1.
         25    1    1    2    0    0  0.54706439580E+02 -0.84238213295E+01 -0.65353026534E+02  0.15152482758E+03  0.12500000000E+03 0.  0.
         25    1    1    2    0    0  0.58010643424E+02 -0.91986848346E+01 -0.27777781688E+03  0.31021825559E+03  0.12500000000E+03 0.  0.
         25    1    1    2    0    0 -0.11271708300E+03  0.17622506164E+02 -0.51266243651E+03  0.53987356606E+03  0.12500000000E+03 0.  0.
</event>
<event>
 5    0  0.5822326E-005  0.3016867E+03  0.7546771E-02  0.1084400E+00
         21   -1    0    0  502  501  0.00000000000E+00  0.00000000000E+00  0.34828847215E+03  0.34828847215E+03  0.00000000000E+00 0.  1.
         21   -1    0    0  501  502 -0.00000000000E+00 -0.00000000000E+00 -0.26132039061E+03  0.26132039061E+03  0.00000000000E+00 0.  1.
         25    1    1    2    0    0 -0.19681934557E+03  0.71852388206E+02  0.11381681243E+03  0.26922088937E+03  0.12500000000E+03 0.  0.
         25    1    1    2    0    0  0.89121733335E+02 -0.64338927759E+02  0.22589168517E+02  0.16798050932E+03  0.12500000000E+03 0.  0.
         25    1    1    2    0    0  0.10769761223E+03 -0.75134604474E+01 -0.49437899412E+02  0.17240746407E+03  0.12500000000E+03 0.  0.
</event>
<event>
 5    0  0.5822326E-005  0.3863772E+03  0.7546771E-02  0.1048602E+00
         21   -1    0    0  502  501  0.00000000000E+00  0.00000000000E+00  0.90206538391E+03  0.90206538391E+03  0.00000000000E+00 0. -1.
         21   -1    0    0  501  502 -0.00000000000E+00 -0.00000000000E+00 -0.16549507136E+03  0.16549507136E+03  0.00000000000E+00 0. -1.
         25    1    1    2    0    0  0.41895450054E+02 -0.25078195654E+03  0.15912356205E+03  0.32494942139E+03  0.12500000000E+03 0.  0.
         25    1    1    2    0    0 -0.55410894793E+02  0.86148450249E+02  0.39797860257E+02  0.16643555036E+03  0.12500000000E+03 0.  0.
         25    1    1    2    0    0  0.13515444739E+02  0.16463350629E+03  0.53764889024E+03  0.57617548353E+03  0.12500000000E+03 0.  0.
</event>
<event>
 5    0  0.5822326E-005  0.2765649E+03  0.7546771E-02  0.1097580E+00
         21   -1    0    0  502  501  0.00000000000E+00  0.00000000000E+00  0.81887722222E+03  0.81887722222E+03  0.00000000000E+00 0.  1.
         21   -1    0    0  501  502 -0.00000000000E+00 -0.00000000000E+00 -0.93406094170E+02  0.93406094170E+02  0.00000000000E+00 0.  1.
         25    1    1    2    0    0  0.41152394082E+02  0.11321542948E+03  0.12789909071E+03  0.21562567198E+03  0.12500000000E+03 0.  0.
         25    1    1    2    0    0  0.49521573773E+02 -0.10500317489E+03  0.45650438846E+03  0.48733900900E+03  0.12500000000E+03 0.  0.
         25    1    1    2    0    0 -0.90673967855E+02 -0.82122545850E+01  0.14106764887E+03  0.20931863541E+03  0.12500000000E+03 0.  0.
</event>
<event>
 5    0  0.5822326E-005  0.2803344E+03  0.7546771E-02  0.1095506E+00
         21   -1    0    0  502  501  0.00000000000E+00  0.00000000000E+00  0.45304280946E+02  0.45304280946E+02  0.00000000000E+00 0. -1.
         21   -1    0    0  501  502 -0.00000000000E+00 -0.00000000000E+00 -0.17346563737E+04  0.17346563737E+04  0.00000000000E+00 0. -1.
         25    1    1    2    0    0 -0.70629965097E+02 -0.17481479753E+03 -0.57062164499E+03  0.61382641450E+03  0.12500000000E+03 0.  0.
         25    1    1    2    0    0  0.81595248468E+02  0.12047126969E+03 -0.61987236200E+03  0.64887429951E+03  0.12500000000E+03 0.  0.
         25    1    1    2    0    0 -0.10965283371E+02  0.54343527837E+02 -0.49885808580E+03  0.51725994067E+03  0.12500000000E+03 0.  0.
</event>
<event>
 5    0  0.5822326E-005  0.5256005E+03  0.7546771E-02  0.1007305E+00
         21   -1    0    0  502  501  0.00000000000E+00  0.00000000000E+00  0.10655418642E+03  0.10655418642E+03  0.00000000000E+00 0.  1.
         21   -1    0    0  501  502 -0.00000000000E+00 -0.00000000000E+00 -0.25926324801E+04  0.25926324801E+04  0.00000000000E+00 0.  1.
         25    1    1    2    0    0 -0.15289616730E+03 -0.57570244033E+01 -0.16424993608E+04  0.16543396059E+04  0.12500000000E+03 0.  0.
         25    1    1    2    0    0 -0.15231002539E+02  0.22499966038E+03 -0.17762892982E+03  0.31310360477E+03  0.12500000000E+03 0.  0.
         25    1    1    2    0    0  0.16812716984E+03 -0.21924263598E+03 -0.66595000303E+03  0.73174345587E+03  0.12500000000E+03 0.  0.
</event>
<event>
 5    0  0.5822326E-005  0.3816462E+03  0.7546771E-02  0.1050327E+00
         21   -1    0    0  502  501  0.00000000000E+00  0.00000000000E+00  0.93584148814E+03  0.93584148814E+03  0.00000000000E+00 0.  1.
         21   -1    0    0  501  502 -0.00000000000E+00 -0.00000000000E+00 -0.15563938322E+03  0.15563938322E+03  0.00000000000E+00 0.  1.
         25    1    1    2    0    0  0.42680248489E+01 -0.66241312161E+02  0.47276052063E+03  0.49349127383E+03  0.12500000000E+03 0.  0.
         25    1    1    2    0    0 -0.12247975500E+03 -0.65267984251E+02  0.33110237199E+03  0.38015126054E+03  0.12500000000E+03 0.  0.
         25    1    1    2    0    0  0.11821173015E+03  0.13150929641E+03 -0.23660787703E+02  0.21783833699E+03  0.12500000000E+03 0.  0.
</event>
<event>
 5    0  0.5822326E-005  0.2700937E+03  0.7546771E-02  0.1101226E+00
         21   -1    0    0  502  501  0.00000000000E+00  0.00000000000E+00  0.41186759674E+03  0.41186759674E+03  0.00000000000E+00 0.  1.
         21   -1    0    0  501  502 -0.00000000000E+00 -0.00000000000E+00 -0.17712150645E+03  0.17712150645E+03  0.00000000000E+00 0.  1.
         25    1    1    2    0    0  0.60810321779E+02  0.12684148336E+02  0.26935854962E+03  0.30337734112E+03  0.12500000000E+03 0.  0.
         25    1    1    2    0    0  0.18236756532E+02  0.16235972425E+02 -0.43672197872E+02  0.13464192124E+03  0.12500000000E+03 0.  0.
         25    1    1    2    0    0 -0.79047078311E+02 -0.28920120762E+02  0.90597385482E+01  0.15096984082E+03  0.12500000000E+03 0.  0.
</event>
<event>
 5    0  0.5822326E-005  0.3796361E+03  0.7546771E-02  0.1051068E+00
         21   -1    0    0  502  501  0.00000000000E+00  0.00000000000E+00  0.81682911381E+02  0.81682911381E+02  0.00000000000E+00 0. -1.
         21   -1    0    0  501  502 -0.00000000000E+00 -0.00000000000E+00 -0.17644272074E+04  0.17644272074E+04  0.00000000000E+00 0. -1.
         25    1    1    2    0    0 -0.71243649613E+02 -0.20314871928E+03 -0.22556947858E+03  0.33593399564E+03  0.12500000000E+03 0.  0.
         25    1    1    2    0    0 -0.22964283385E+02 -0.15098197441E+02 -0.47701327889E+03  0.49388458380E+03  0.12500000000E+03 0.  0.
         25    1    1    2    0    0  0.94207932998E+02  0.21824691672E+03 -0.98016153855E+03  0.10162915393E+04  0.12500000000E+03 0.  0.
</event>
<event>
 5    0  0.5822326E-005  0.2396233E+03  0.7546771E-02  0.1120044E+00
         21   -1    0    0  502  501  0.00000000000E+00  0.00000000000E+00  0.46241828536E+03  0.46241828536E+03  0.00000000000E+00 0.  1.
         21   -1    0    0  501  502 -0.00000000000E+00 -0.00000000000E+00 -0.12417180978E+03  0.12417180978E+03  0.00000000000E+00 0.  1.
         25    1    1    2    0    0  0.10172709520E+03 -0.25628277112E+02  0.12792649425E+03  0.20735331783E+03  0.12500000000E+03 0.  0.
         25    1    1    2    0    0  0.12851315312E+02 -0.42714731646E+02  0.85888938319E+02  0.15808736297E+03  0.12500000000E+03 0.  0.
         25    1    1    2    0    0 -0.11457841051E+03  0.68343008758E+02  0.12443104300E+03  0.22114941434E+03  0.12500000000E+03 0.  0.
</event>
<event>
 5    0  0.5822326E-005  0.3584762E+03  0.7546771E-02  0.1059189E+00
         21   -1    0    0  502  501  0.00000000000E+00  0.00000000000E+00  0.12847390081E+03  0.12847390081E+03  0.00000000000E+00 0.  1.
         21   -1    0    0  501  502 -0.00000000000E+00 -0.00000000000E+00 -0.10002436796E+04  0.10002436796E+04  0.00000000000E+00 0.  1.
         25    1    1    2    0    0 -0.95458157069E+02  0.46505475430E+02 -0.25810503015E+03  0.30580749760E+03  0.12500000000E+03 0.  0.
         25    1    1    2    0    0  0.96144411632E+02  0.15914695996E+03 -0.51718613594E+03  0.56362931255E+03  0.12500000000E+03 0.  0.
         25    1    1    2    0    0 -0.68625456333E+00 -0.20565243539E+03 -0.96478612709E+02  0.25928077028E+03  0.12500000000E+03 0.  0.
</event>
<event>
 5    0  0.5822326E-005  0.7559775E+03  0.7546771E-02  0.9626019E-01
         21   -1    0    0  502  501  0.00000000000E+00  0.00000000000E+00  0.33102425184E+04  0.33102425184E+04  0.00000000000E+00 0.  1.
         21   -1    0    0  501  502 -0.00000000000E+00 -0.00000000000E+00 -0.17264658015E+03  0.17264658015E+03  0.00000000000E+00 0.  1.
         25    1    1    2    0    0 -0.42293329174E+02 -0.71014536098E+02  0.21469151347E+04  0.21521387933E+04  0.12500000000E+03 0.  0.
         25    1    1    2    0    0  0.37104772913E+03  0.72289520036E+01  0.86898852332E+03  0.95314989834E+03  0.12500000000E+03 0.  0.
         25    1    1    2    0    0 -0.32875439995E+03  0.63785584094E+02  0.12169228023E+03  0.37760040690E+03  0.12500000000E+03 0.  0.
</event>
<event>
 5    0  0.5822326E-005  0.2211268E+03  0.7546771E-02  0.1133046E+00
         21   -1    0    0  502  501  0.00000000000E+00  0.00000000000E+00  0.29011930535E+02  0.29011930535E+02  0.00000000000E+00 0.  1.
         21   -1    0    0  501  502 -0.00000000000E+00 -0.00000000000E+00 -0.16854126190E+04  0.16854126190E+04  0.00000000000E+00 0.  1.
         25    1    1    2    0    0  0.43764088660E+02  0.56645890008E+02 -0.30984631477E+03  0.34169253882E+03  0.12500000000E+03 0.  0.
         25    1    1    2    0    0 -0.13515320427E+02 -0.10688532139E+02 -0.52841370293E+03  0.54327060481E+03  0.12500000000E+03 0.  0.
         25    1    1    2    0    0 -0.30248768233E+02 -0.45957357869E+02 -0.81814067073E+03  0.82946140587E+03  0.12500000000E+03 0.  0.
</event>
<event>
 5    0  0.5822326E-005  0.2495887E+03  0.7546771E-02  0.1113565E+00
         21   -1    0    0  502  501  0.00000000000E+00  0.00000000000E+00  0.16349029786E+03  0.16349029786E+03  0.00000000000E+00 0. -1.
         21   -1    0    0  501  502 -0.00000000000E+00 -0.00000000000E+00 -0.38102874006E+03  0.38102874006E+03  0.00000000000E+00 0. -1.
         25    1    1    2    0    0 -0.10048293976E+02 -0.25229576014E+02 -0.86597136563E+02  0.15447188669E+03  0.12500000000E+03 0.  0.
         25    1    1    2    0    0  0.40444539358E+01 -0.96601609777E+01 -0.20512752796E+03  0.24044121744E+03  0.12500000000E+03 0.  0.
         25    1    1    2    0    0  0.60038400401E+01  0.34889736991E+02  0.74186222316E+02  0.14960593379E+03  0.12500000000E+03 0.  0.
</event>
<event>
 5    0  0.5822326E-005  0.3030346E+03  0.7546771E-02  0.1083733E+00
         21   -1    0    0  502  501  0.00000000000E+00  0.00000000000E+00  0.38238615974E+03  0.38238615974E+03  0.00000000000E+00 0. -1.
         21   -1    0    0  501  502 -0.00000000000E+00 -0.00000000000E+00 -0.24014978468E+03  0.24014978468E+03  0.00000000000E+00 0. -1.
         25    1    1    2    0    0 -0.61463557682E+02  0.72898545405E+01  0.25007589216E+01  0.13950686255E+03  0.12500000000E+03 0.  0.
         25    1    1    2    0    0  0.22215737609E+03  0.22588919871E+02  0.64231568565E+02  0.26384626860E+03  0.12500000000E+03 0.  0.
         25    1    1    2    0    0 -0.16069381841E+03 -0.29878774411E+02  0.75504047572E+02  0.21918281328E+03  0.12500000000E+03 0.  0.
</event>
<event>
 5    0  0.5822326E-005  0.3748046E+03  0.7546771E-02  0.1052871E+00
         21   -1    0    0  502  501  0.00000000000E+00  0.00000000000E+00  0.11102990948E+03  0.11102990948E+03  0.00000000000E+00 0. -1.
         21   -1    0    0  501  502 -0.00000000000E+00 -0.00000000000E+00 -0.12652308025E+04  0.12652308025E+04  0.00000000000E+00 0. -1.
         25    1    1    2    0    0 -0.26608034347E+03 -0.45785483766E+02 -0.43429301297E+03  0.52643183872E+03  0.12500000000E+03 0.  0.
         25    1    1    2    0    0  0.92768273728E+02  0.14549778678E+03 -0.38844015255E+03  0.44304210938E+03  0.12500000000E+03 0.  0.
         25    1    1    2    0    0  0.17331206974E+03 -0.99712303016E+02 -0.33146772752E+03  0.40678676390E+03  0.12500000000E+03 0.  0.
</event>
<event>
 5    0  0.5822326E-005  0.3474616E+03  0.7546771E-02  0.1063662E+00
         21   -1    0    0  502  501  0.00000000000E+00  0.00000000000E+00  0.15042811018E+03  0.15042811018E+03  0.00000000000E+00 0.  1.
         21   -1    0    0  501  502 -0.00000000000E+00 -0.00000000000E+00 -0.80257315610E+03  0.80257315610E+03  0.00000000000E+00 0. -1.
         25    1    1    2    0    0 -0.25295594628E+03  0.11956216993E+03 -0.23790623483E+03  0.38795128535E+03  0.12500000000E+03 0.  0.
         25    1    1    2    0    0  0.10128268159E+03 -0.87125116678E+02 -0.22815626854E+03  0.29245384323E+03  0.12500000000E+03 0.  0.
         25    1    1    2    0    0  0.15167326469E+03 -0.32437053250E+02 -0.18608254256E+03  0.27259613770E+03  0.12500000000E+03 0.  0.
</event>
<event>
 5    0  0.5822326E-005  0.2510864E+03  0.7546771E-02  0.1112620E+00
         21   -1    0    0  502  501  0.00000000000E+00  0.00000000000E+00  0.99896687223E+03  0.99896687223E+03  0.00000000000E+00 0.  1.
         21   -1    0    0  501  502 -0.00000000000E+00 -0.00000000000E+00 -0.63109566043E+02  0.63109566043E+02  0.00000000000E+00 0.  1.
         25    1    1    2    0    0  0.23990876907E+02  0.10144716467E+03  0.37590415618E+03  0.40962912985E+03  0.12500000000E+03 0.  0.
         25    1    1    2    0    0 -0.32705273151E+02 -0.83296242343E+02  0.47680386836E+03  0.50097387932E+03  0.12500000000E+03 0.  0.
         25    1    1    2    0    0  0.87143962438E+01 -0.18150922329E+02  0.83149281652E+02  0.15147342910E+03  0.12500000000E+03 0.  0.
</event>
<event>
 5    0  0.5822326E-005  0.2565808E+03  0.7546771E-02  0.1109215E+00
         21   -1    0    0  502  501  0.00000000000E+00  0.00000000000E+00  0.74651331472E+03  0.74651331472E+03  0.00000000000E+00 0. -1.
         21   -1    0    0  501  502 -0.00000000000E+00 -0.00000000000E+00 -0.88188275257E+02  0.88188275257E+02  0.00000000000E+00 0. -1.
         25    1    1    2    0    0 -0.43755402016E+02  0.18972364829E+02  0.47059347829E+02  0.14182407430E+03  0.12500000000E+03 0.  0.
         25    1    1    2    0    0  0.21170615065E+02 -0.45094470248E+02  0.10617762105E+03  0.17140709846E+03  0.12500000000E+03 0.  0.
         25    1    1    2    0    0  0.22584786951E+02  0.26122105418E+02  0.50508807058E+03  0.52147041722E+03  0.12500000000E+03 0.  0.
</event>
<event>
 5    0  0.5822326E-005  0.4412234E+03  0.7546771E-02  0.1030372E+00
         21   -1    0    0  502  501  0.00000000000E+00  0.00000000000E+00  0.13277306287E+03  0.13277306287E+03  0.00000000000E+00 0.  1.
         21   -1    0    0  501  502 -0.00000000000E+00 -0.00000000000E+00 -0.14662469393E+04  0.14662469393E+04  0.00000000000E+00 0.  1.
         25    1    1    2    0    0  0.33908481137E+03 -0.15454725417E+03 -0.62767225505E+03  0.74058140865E+03  0.12500000000E+03 0.  0.
         25    1    1    2    0    0 -0.30095872458E+03  0.14661433974E+03 -0.50173124281E+03  0.61597983614E+03  0.12500000000E+03 0.  0.
         25    1    1    2    0    0 -0.38126086788E+02  0.79329144340E+01 -0.20407037860E+03  0.24245875741E+03  0.12500000000E+03 0.  0.
</event>
<event>
 5    0  0.5822326E-005  0.2510059E+03  0.7546771E-02  0.1112671E+00
         21   -1    0    0  502  501  0.00000000000E+00  0.00000000000E+00  0.97710056215E+02  0.97710056215E+02  0.00000000000E+00 0. -1.
         21   -1    0    0  501  502 -0.00000000000E+00 -0.00000000000E+00 -0.64480515347E+03  0.64480515347E+03  0.00000000000E+00 0. -1.
         25    1    1    2    0    0  0.68203256052E+02  0.72757761781E+02 -0.24355216152E+03  0.29135550693E+03  0.12500000000E+03 0.  0.
         25    1    1    2    0    0 -0.72587690894E+02 -0.77635492921E+02 -0.27890193525E+03  0.32358543249E+03  0.12500000000E+03 0.  0.
         25    1    1    2    0    0  0.43844348415E+01  0.48777311405E+01 -0.24641000479E+02  0.12757427027E+03  0.12500000000E+03 0.  0.
</event>
<event>
 5    0  0.5822326E-005  0.2453961E+03  0.7546771E-02  0.1116249E+00
         21   -1    0    0  502  501  0.00000000000E+00  0.00000000000E+00  0.50666926279E+03  0.50666926279E+03  0.00000000000E+00 0. -1.
         21   -1    0    0  501  502 -0.00000000000E+00 -0.00000000000E+00 -0.11885320131E+03  0.11885320131E+03  0.00000000000E+00 0. -1.
         25    1    1    2    0    0 -0.10275898393E+03  0.12324579313E+02  0.27042175899E+03  0.31537950436E+03  0.12500000000E+03 0.  0.
         25    1    1    2    0    0  0.28079230781E+01  0.10145724175E+02  0.52365115923E+02  0.13593353345E+03  0.12500000000E+03 0.  0.
         25    1    1    2    0    0  0.99951060849E+02 -0.22470303488E+02  0.65029186562E+02  0.17420942629E+03  0.12500000000E+03 0.  0.
</event>
<event>
 5    0  0.5822326E-005  0.2986331E+03  0.7546771E-02  0.1085926E+00
         21   -1    0    0  502  501  0.00000000000E+00  0.00000000000E+00  0.34791571889E+03  0.34791571889E+03  0.00000000000E+00 0.  1.
         21   -1    0    0  501  502 -0.00000000000E+00 -0.00000000000E+00 -0.25633148057E+03  0.25633148057E+03  0.00000000000E+00 0.  1.
         25    1    1    2    0    0  0.83909045618E+02 -0.68482442654E+02 -0.65376041230E+02  0.17784712439E+03  0.12500000000E+03 0.  0.
         25    1    1    2    0    0 -0.18285461384E+03  0.81399361198E+02  0.10438573484E+03  0.25803691101E+03  0.12500000000E+03 0.  0.
         25    1    1    2    0    0  0.98945568223E+02 -0.12916918544E+02  0.52574544705E+02  0.16836316404E+03  0.12500000000E+03 0.  0.
</event>
<event>
 5    0  0.5822326E-005  0.3275834E+03  0.7546771E-02  0.1072211E+00
         21   -1    0    0  502  501  0.00000000000E+00  0.00000000000E+00  0.74914510427E+03  0.74914510427E+03  0.00000000000E+00 0. -1.
         21   -1    0    0  501  502 -0.00000000000E+00 -0.00000000000E+00 -0.14324442687E+03  0.14324442687E+03  0.00000000000E+00 0. -1.
         25    1    1    2    0    0  0.14571092218E+03  0.13590628323E+03  0.70232279096E+02  0.24547864202E+03  0.12500000000E+03 0.  0.
         25    1    1    2    0    0  0.80876522128E+01 -0.27678911700E+02  0.13006272856E+03  0.18268236267E+03  0.12500000000E+03 0.  0.
         25    1    1    2    0    0 -0.15379857439E+03 -0.10822737153E+03  0.40560566974E+03  0.46422852644E+03  0.12500000000E+03 0.  0.
</event>
<event>
 5    0  0.5822326E-005  0.3160543E+03  0.7546771E-02  0.1077480E+00
         21   -1    0    0  502  501  0.00000000000E+00  0.00000000000E+00  0.42661479488E+03  0.42661479488E+03  0.00000000000E+00 0. -1.
         21   -1    0    0  501  502 -0.00000000000E+00 -0.00000000000E+00 -0.23414639075E+03  0.23414639075E+03  0.00000000000E+00 0. -1.
         25    1    1    2    0    0 -0.52076968895E+02 -0.12775819604E+03  0.21747191860E+03  0.28627469801E+03  0.12500000000E+03 0.  0.
         25    1    1    2    0    0  0.74455497087E+02 -0.14326546642E+02 -0.91714993342E+02  0.17258479362E+03  0.12500000000E+03 0.  0.
         25    1    1    2    0    0 -0.22378528192E+02  0.14208474268E+03  0.66711478874E+02  0.20190169400E+03  0.12500000000E+03 0.  0.
</event>
<event>
 5    0  0.5822326E-005  0.3193479E+03  0.7546771E-02  0.1075950E+00
         21   -1    0    0  502  501  0.00000000000E+00  0.00000000000E+00  0.17198990831E+03  0.17198990831E+03  0.00000000000E+00 0.  1.
         21   -1    0    0  501  502 -0.00000000000E+00 -0.00000000000E+00 -0.59295963576E+03  0.59295963576E+03  0.00000000000E+00 0.  1.
         25    1    1    2    0    0 -0.50258267344E+02  0.10118579038E+03  0.10308430365E+02  0.16880675741E+03  0.12500000000E+03 0.  0.
         25    1    1    2    0    0 -0.21969817226E+02 -0.15423320085E+03 -0.84672969519E+02  0.21694484295E+03  0.12500000000E+03 0.  0.
         25    1    1    2    0    0  0.72228084570E+02  0.53047410473E+02 -0.34660518830E+03  0.37919794371E+03  0.12500000000E+03 0.  0.
</event>
<event>
 5    0  0.5822326E-005  0.3893176E+03  0.7546771E-02  0.1047543E+00
         21   -1    0    0  502  501  0.00000000000E+00  0.00000000000E+00  0.26859006768E+03  0.26859006768E+03  0.00000000000E+00 0.  1.
         21   -1    0    0  501  502 -0.00000000000E+00 -0.00000000000E+00 -0.56431059282E+03  0.56431059282E+03  0.00000000000E+00 0.  1.
         25    1    1    2    0    0  0.13951371293E+03 -0.56579432516E+02  0.16705692259E+03  0.25729034896E+03  0.12500000000E+03 0.  0.
         25    1    1    2    0    0 -0.40280007228E+02 -0.58313845708E+02 -0.16552565092E+03  0.21919563111E+03  0.12500000000E+03 0.  0.
         25    1    1    2    0    0 -0.99233705707E+02  0.11489327822E+03 -0.29725179681E+03  0.35641468044E+03  0.12500000000E+03 0.  0.
</event>
<event>
 5    0  0.5822326E-005  0.2127470E+03  0.7546771E-02  0.1139409E+00
         21   -1    0    0  502  501  0.00000000000E+00  0.00000000000E+00  0.63828939441E+03  0.63828939441E+03  0.00000000000E+00 0.  1.
         21   -1    0    0  501  502 -0.00000000000E+00 -0.00000000000E+00 -0.70910309848E+02  0.70910309848E+02  0.00000000000E+00 0.  1.
         25    1    1    2    0    0  0.40070893661E+02 -0.59014693437E+02  0.13832938738E+03  0.19962071529E+03  0.12500000000E+03 0.  0.
         25    1    1    2    0    0 -0.45618488320E+02 -0.73958319546E+01  0.20620889248E+03  0.24552566494E+03  0.12500000000E+03 0.  0.
         25    1    1    2    0    0  0.55475946587E+01  0.66410525392E+02  0.22284080471E+03  0.26405332403E+03  0.12500000000E+03 0.  0.
</event>
<event>
 5    0  0.5822326E-005  0.4645981E+03  0.7546771E-02  0.1023456E+00
         21   -1    0    0  502  501  0.00000000000E+00  0.00000000000E+00  0.71511746519E+03  0.71511746519E+03  0.00000000000E+00 0.  1.
         21   -1    0    0  501  502 -0.00000000000E+00 -0.00000000000E+00 -0.30184044915E+03  0.30184044915E+03  0.00000000000E+00 0.  1.
         25    1    1    2    0    0  0.41911969285E+02  0.19877740177E+03 -0.48642462320E+02  0.24343409327E+03  0.12500000000E+03 0.  0.
         25    1    1    2    0    0  0.20547421042E+03  0.36056052957E+02  0.26737188443E+03  0.36143106492E+03  0.12500000000E+03 0.  0.
         25    1    1    2    0    0 -0.24738617970E+03 -0.23483345473E+03  0.19454759393E+03  0.41209275615E+03  0.12500000000E+03 0.  0.
</event>
<event>
 5    0  0.5822326E-005  0.2974189E+03  0.7546771E-02  0.1086538E+00
         21   -1    0    0  502  501  0.00000000000E+00  0.00000000000E+00  0.25659788927E+03  0.25659788927E+03  0.00000000000E+00 0. -1.
         21   -1    0    0  501  502 -0.00000000000E+00 -0.00000000000E+00 -0.34473402112E+03  0.34473402112E+03  0.00000000000E+00 0. -1.
         25    1    1    2    0    0  0.27559864417E+02 -0.10005381778E+03  0.12457858380E+03  0.20473186396E+03  0.12500000000E+03 0.  0.
         25    1    1    2    0    0 -0.67435140372E+02  0.22361752568E+02 -0.11644269777E+02  0.14425025183E+03  0.12500000000E+03 0.  0.
         25    1    1    2    0    0  0.39875275956E+02  0.77692065214E+02 -0.20107044588E+03  0.25234979460E+03  0.12500000000E+03 0.  0.
</event>
<event>
 5    0  0.5822326E-005  0.4647628E+03  0.7546771E-02  0.1023409E+00
         21   -1    0    0  502  501  0.00000000000E+00  0.00000000000E+00  0.31001602501E+03  0.31001602501E+03  0.00000000000E+00 0. -1.
         21   -1    0    0  501  502 -0.00000000000E+00 -0.00000000000E+00 -0.69675245585E+03  0.69675245585E+03  0.00000000000E+00 0. -1.
         25    1    1    2    0    0 -0.15291068527E+03  0.11279704444E+02  0.14893855139E+03  0.24762189219E+03  0.12500000000E+03 0.  0.
         25    1    1    2    0    0 -0.12825450883E+03 -0.10480454678E+03 -0.27883546367E+03  0.34757362940E+03  0.12500000000E+03 0.  0.
         25    1    1    2    0    0  0.28116519409E+03  0.93524842334E+02 -0.25683951857E+03  0.41157295927E+03  0.12500000000E+03 0.  0.
</event>
<event>
 5    0  0.5822326E-005  0.4994787E+03  0.7546771E-02  0.1013915E+00
         21   -1    0    0  502  501  0.00000000000E+00  0.00000000000E+00  0.28558424337E+04  0.28558424337E+04  0.00000000000E+00 0. -1.
         21   -1    0    0  501  502 -0.00000000000E+00 -0.00000000000E+00 -0.87357410813E+02  0.87357410813E+02  0.00000000000E+00 0. -1.
         25    1    1    2    0    0  0.26693189247E+03  0.97036095240E+02  0.30514787222E+03  0.43521128537E+03  0.12500000000E+03 0.  0.
         25    1    1    2    0    0  0.35459842803E+02 -0.37448185768E+01  0.75274705620E+03  0.76388778937E+03  0.12500000000E+03 0.  0.
         25    1    1    2    0    0 -0.30239173527E+03 -0.93291276663E+02  0.17105900945E+04  0.17441007698E+04  0.12500000000E+03 0.  0.
</event>
<event>
 5    0  0.5822326E-005  0.5111024E+03  0.7546771E-02  0.1010921E+00
         21   -1    0    0  502  501  0.00000000000E+00  0.00000000000E+00  0.16041638864E+04  0.16041638864E+04  0.00000000000E+00 0.  1.
         21   -1    0    0  501  502 -0.00000000000E+00 -0.00000000000E+00 -0.16284224859E+03  0.16284224859E+03  0.00000000000E+00 0.  1.
         25    1    1    2    0    0 -0.15600439619E+03  0.20007023288E+03  0.10259580665E+04  0.10642276184E+04  0.12500000000E+03 0.  0.
         25    1    1    2    0    0  0.25592186946E+03 -0.23854422197E+03  0.38572475498E+03  0.53554452262E+03  0.12500000000E+03 0.  0.
         25    1    1    2    0    0 -0.99917473264E+02  0.38473989090E+02  0.29638816408E+02  0.16723399397E+03  0.12500000000E+03 0.  0.
</event>
<event>
 5    0  0.5822326E-005  0.3089898E+03  0.7546771E-02  0.1080831E+00
         21   -1    0    0  502  501  0.00000000000E+00  0.00000000000E+00  0.32958172747E+03  0.32958172747E+03  0.00000000000E+00 0. -1.
         21   -1    0    0  501  502 -0.00000000000E+00 -0.00000000000E+00 -0.28968450535E+03  0.28968450535E+03  0.00000000000E+00 0. -1.
         25    1    1    2    0    0  0.93494378961E+02 -0.12107346805E+02 -0.13506831625E+03  0.20677581289E+03  0.12500000000E+03 0.  0.
         25    1    1    2    0    0 -0.80062204955E+02 -0.11857210246E+03  0.11196241271E+03  0.22052184020E+03  0.12500000000E+03 0.  0.
         25    1    1    2    0    0 -0.13432174006E+02  0.13067944927E+03  0.63003125656E+02  0.19196857973E+03  0.12500000000E+03 0.  0.
</event>
<event>
 5    0  0.5822326E-005  0.5272076E+03  0.7546771E-02  0.1006912E+00
         21   -1    0    0  502  501  0.00000000000E+00  0.00000000000E+00  0.35252643447E+03  0.35252643447E+03  0.00000000000E+00 0. -1.
         21   -1    0    0  501  502 -0.00000000000E+00 -0.00000000000E+00 -0.78844530598E+03  0.78844530598E+03  0.00000000000E+00 0. -1.
         25    1    1    2    0    0  0.92577862665E+02 -0.10116843709E+03 -0.21391667317E+03  0.28318025422E+03  0.12500000000E+03 0.  0.
         25    1    1    2    0    0  0.12755554612E+03  0.29215970222E+03  0.14578978427E+03  0.37216578315E+03  0.12500000000E+03 0.  0.
         25    1    1    2    0    0 -0.22013340878E+03 -0.19099126513E+03 -0.36779198261E+03  0.48562570308E+03  0.12500000000E+03 0.  0.
</event>
<event>
 5    0  0.5822326E-005  0.3656136E+03  0.7546771E-02  0.1056383E+00
         21   -1    0    0  502  501  0.00000000000E+00  0.00000000000E+00  0.36254690837E+04  0.36254690837E+04  0.00000000000E+00 0.  1.
         21   -1    0    0  501  502 -0.00000000000E+00 -0.00000000000E+00 -0.36870619915E+02  0.36870619915E+02  0.00000000000E+00 0.  1.
         25    1    1    2    0    0  0.21486505738E+02 -0.24042635910E+02  0.28420456776E+03  0.31214893017E+03  0.12500000000E+03 0.  0.
         25    1    1    2    0    0  0.98174647328E+02 -0.29643848224E+02  0.29279997768E+04  0.29324605218E+04  0.12500000000E+03 0.  0.
         25    1    1    2    0    0 -0.11966115307E+03  0.53686484134E+02  0.37639411923E+03  0.41773025162E+03  0.12500000000E+03 0.  0.
</event>
<event>
 5    0  0.5822326E-005  0.2444551E+03  0.7546771E-02  0.1116860E+00
         21   -1    0    0  502  501  0.00000000000E+00  0.00000000000E+00  0.13593961744E+04  0.13593961744E+04  0.00000000000E+00 0. -1.
         21   -1    0    0  501  502 -0.00000000000E+00 -0.00000000000E+00 -0.43959427268E+02  0.43959427268E+02  0.00000000000E+00 0. -1.
         25    1    1    2    0    0 -0.59366497686E+01 -0.69711116794E+02  0.29129640384E+03  0.32461281321E+03  0.12500000000E+03 0.  0.
         25    1    1    2    0    0 -0.43822567838E+02 -0.54140093197E+02  0.30791314232E+03  0.33953949749E+03  0.12500000000E+03 0.  0.
         25    1    1    2    0    0  0.49759217607E+02  0.12385120999E+03  0.71622720100E+03  0.73920329099E+03  0.12500000000E+03 0.  0.
</event>
<event>
 5    0  0.5822326E-005  0.2786411E+03  0.7546771E-02  0.1096433E+00
         21   -1    0    0  502  501  0.00000000000E+00  0.00000000000E+00  0.33724781965E+03  0.33724781965E+03  0.00000000000E+00 0. -1.
         21   -1    0    0  501  502 -0.00000000000E+00 -0.00000000000E+00 -0.23021900106E+03  0.23021900106E+03  0.00000000000E+00 0. -1.
         25    1    1    2    0    0  0.26918480282E+02  0.66035928081E+02  0.13586220992E+03  0.19791131464E+03  0.12500000000E+03 0.  0.
         25    1    1    2    0    0 -0.11595814943E+03 -0.72572647897E+02  0.56638663707E+02  0.19376795367E+03  0.12500000000E+03 0.  0.
         25    1    1    2    0    0  0.89039669147E+02  0.65367198155E+01 -0.85472055038E+02  0.17578755240E+03  0.12500000000E+03 0.  0.
</event>
<event>
 5    0  0.6521837E-005  0.3144855E+03  0.7546771E-02  0.1078216E+00
         21   -1    0    0  502  501  0.00000000000E+00  0.00000000000E+00  0.63704221658E+03  0.63704221658E+03  0.00000000000E+00 0. -1.
         21   -1    0    0  501  502 -0.00000000000E+00 -0.00000000000E+00 -0.15525046240E+03  0.15525046240E+03  0.00000000000E+00 0. -1.
         25    1    1    2    0    0 -0.10072998157E+03  0.37846763841E+02  0.50264226501E+02  0.17242505383E+03  0.12500000000E+03 0.  0.
         25    1    1    2    0    0  0.20757144478E+02  0.97443340053E+02  0.38044826153E+03  0.41266444391E+03  0.12500000000E+03 0.  0.
         25    1    1    2    0    0  0.79972837095E+02 -0.13529010389E+03  0.51079266153E+02  0.20720318124E+03  0.12500000000E+03 0.  0.
</event>
<event>
 5    0  0.5822326E-005  0.4616107E+03  0.7546771E-02  0.1024315E+00
         21   -1    0    0  502  501  0.00000000000E+00  0.00000000000E+00  0.15888483424E+03  0.15888483424E+03  0.00000000000E+00 0. -1.
         21   -1    0    0  501  502 -0.00000000000E+00 -0.00000000000E+00 -0.13411253146E+04  0.13411253146E+04  0.00000000000E+00 0. -1.
         25    1    1    2    0    0  0.98717963244E+02  0.13398740319E+03 -0.47968565017E+03  0.52289691476E+03  0.12500000000E+03 0.  0.
         25    1    1    2    0    0 -0.20407091168E+03 -0.26557201534E+03 -0.15300053021E+03  0.38885420735E+03  0.12500000000E+03 0.  0.
         25    1    1    2    0    0  0.10535294844E+03  0.13158461215E+03 -0.54955430000E+03  0.58825902675E+03  0.12500000000E+03 0.  0.
</event>
<event>
 5    0  0.5822326E-005  0.5981740E+03  0.7546771E-02  0.9909202E-01
         21   -1    0    0  502  501  0.00000000000E+00  0.00000000000E+00  0.14425464140E+04  0.14425464140E+04  0.00000000000E+00 0. -1.
         21   -1    0    0  501  502 -0.00000000000E+00 -0.00000000000E+00 -0.24804203563E+03  0.24804203563E+03  0.00000000000E+00 0. -1.
         25    1    1    2    0    0 -0.93157319448E+02  0.26460683682E+03  0.51014976400E+03  0.59546019680E+03  0.12500000000E+03 0.  0.
         25    1    1    2    0    0  0.10412210617E+03 -0.19847355864E+03  0.84366002440E+03  0.88182787620E+03  0.12500000000E+03 0.  0.
         25    1    1    2    0    0 -0.10964786719E+02 -0.66133278182E+02 -0.15930541000E+03  0.21330037667E+03  0.12500000000E+03 0.  0.
</event>
<event>
 5    0  0.5822326E-005  0.2471625E+03  0.7546771E-02  0.1115111E+00
         21   -1    0    0  502  501  0.00000000000E+00  0.00000000000E+00  0.36014442177E+03  0.36014442177E+03  0.00000000000E+00 0. -1.
         21   -1    0    0  501  502 -0.00000000000E+00 -0.00000000000E+00 -0.16962445281E+03  0.16962445281E+03  0.00000000000E+00 0. -1.
         25    1    1    2    0    0  0.45475213310E+02  0.55527912482E+02  0.35663173719E+00  0.14414045676E+03  0.12500000000E+03 0.  0.
         25    1    1    2    0    0  0.31092402678E+02 -0.11355804354E+03  0.62403775963E+02  0.18270576896E+03  0.12500000000E+03 0.  0.
         25    1    1    2    0    0 -0.76567615988E+02  0.58030131056E+02  0.12775956126E+03  0.20292264886E+03  0.12500000000E+03 0.  0.
</event>
<event>
 5    0  0.5822326E-005  0.5053629E+03  0.7546771E-02  0.1012389E+00
         21   -1    0    0  502  501  0.00000000000E+00  0.00000000000E+00  0.92979817906E+02  0.92979817906E+02  0.00000000000E+00 0.  1.
         21   -1    0    0  501  502 -0.00000000000E+00 -0.00000000000E+00 -0.27467426088E+04  0.27467426088E+04  0.00000000000E+00 0.  1.
         25    1    1    2    0    0  0.83698215611E+01 -0.34751586241E+02 -0.95094112710E+03  0.95978734826E+03  0.12500000000E+03 0.  0.
         25    1    1    2    0    0  0.10103465303E+03 -0.13053262486E+03 -0.53237666540E+02  0.21378965458E+03  0.12500000000E+03 0.  0.
         25    1    1    2    0    0 -0.10940447460E+03  0.16528421110E+03 -0.16495839973E+04  0.16661454239E+04  0.12500000000E+03 0.  0.
</event>
<event>
 5    0  0.5822326E-005  0.2508744E+03  0.7546771E-02  0.1112753E+00
         21   -1    0    0  502  501  0.00000000000E+00  0.00000000000E+00  0.54411604258E+03  0.54411604258E+03  0.00000000000E+00 0. -1.
         21   -1    0    0  501  502 -0.00000000000E+00 -0.00000000000E+00 -0.11567008808E+03  0.11567008808E+03  0.00000000000E+00 0. -1.
         25    1    1    2    0    0 -0.65169249907E+01  0.30175149776E+02  0.18264568958E+02  0.13004462486E+03  0.12500000000E+03 0.  0.
         25    1    1    2    0    0 -0.77730818011E+02  0.15808077489E+02  0.30851437803E+03  0.34219599185E+03  0.12500000000E+03 0.  0.
         25    1    1    2    0    0  0.84247743002E+02 -0.45983227265E+02  0.10166700751E+03  0.18754551396E+03  0.12500000000E+03 0.  0.
</event>
<event>
 5    0  0.5985310E-005  0.2665489E+03  0.7546771E-02  0.1103271E+00
         21   -1    0    0  502  501  0.00000000000E+00  0.00000000000E+00  0.40237394341E+03  0.40237394341E+03  0.00000000000E+00 0. -1.
         21   -1    0    0  501  502 -0.00000000000E+00 -0.00000000000E+00 -0.17657282754E+03  0.17657282754E+03  0.00000000000E+00 0. -1.
         25    1    1    2    0    0 -0.67102712477E+02  0.79549739642E+01  0.17512117886E+03  0.22551825407E+03  0.12500000000E+03 0.  0.
         25    1    1    2    0    0 -0.99452610267E+01 -0.90382668854E+02 -0.43383383580E+02  0.16054610869E+03  0.12500000000E+03 0.  0.
         25    1    1    2    0    0  0.77047973504E+02  0.82427694890E+02  0.94063320596E+02  0.19288240819E+03  0.12500000000E+03 0.  0.
</event>
<event>
 5    0  0.5822326E-005  0.2878742E+03  0.7546771E-02  0.1091464E+00
         21   -1    0    0  502  501  0.00000000000E+00  0.00000000000E+00  0.30599629055E+03  0.30599629055E+03  0.00000000000E+00 0.  1.
         21   -1    0    0  501  502 -0.00000000000E+00 -0.00000000000E+00 -0.27082540510E+03  0.27082540510E+03  0.00000000000E+00 0.  1.
         25    1    1    2    0    0  0.13011814559E+02 -0.76698721319E+02  0.21930742311E+02  0.14885549580E+03  0.12500000000E+03 0.  0.
         25    1    1    2    0    0  0.50954172242E+02  0.12606398802E+03 -0.12645346152E+03  0.22383908210E+03  0.12500000000E+03 0.  0.
         25    1    1    2    0    0 -0.63965986801E+02 -0.49365266701E+02  0.13969360466E+03  0.20412711776E+03  0.12500000000E+03 0.  0.
</event>
<event>
 5    0  0.5822326E-005  0.2455275E+03  0.7546771E-02  0.1116164E+00
         21   -1    0    0  502  501  0.00000000000E+00  0.00000000000E+00  0.14032456709E+03  0.14032456709E+03  0.00000000000E+00 0.  1.
         21   -1    0    0  501  502 -0.00000000000E+00 -0.00000000000E+00 -0.42960218988E+03  0.42960218988E+03  0.00000000000E+00 0.  1.
         25    1    1    2    0    0 -0.61191886882E+01 -0.26731597457E+02 -0.27839437073E+03  0.30639916519E+03  0.12500000000E+03 0.  0.
         25    1    1    2    0    0 -0.19468421892E+02  0.30171929509E+02  0.21560740472E+02  0.13183030877E+03  0.12500000000E+03 0.  0.
         25    1    1    2    0    0  0.25587610580E+02 -0.34403320528E+01 -0.32443992531E+02  0.13169728301E+03  0.12500000000E+03 0.  0.
</event>
<event>
 5    0  0.5822326E-005  0.3542911E+03  0.7546771E-02  0.1060867E+00
         21   -1    0    0  502  501  0.00000000000E+00  0.00000000000E+00  0.11814335655E+03  0.11814335655E+03  0.00000000000E+00 0.  1.
         21   -1    0    0  501  502 -0.00000000000E+00 -0.00000000000E+00 -0.10624564041E+04  0.10624564041E+04  0.00000000000E+00 0.  1.
         25    1    1    2    0    0 -0.57653060155E+02  0.55996072947E+02 -0.18233047251E+03  0.23522082547E+03  0.12500000000E+03 0.  0.
         25    1    1    2    0    0  0.56970989976E+02  0.21537102048E+03 -0.41678891828E+03  0.48884391432E+03  0.12500000000E+03 0.  0.
         25    1    1    2    0    0  0.68207017899E+00 -0.27136709343E+03 -0.34519365678E+03  0.45653502089E+03  0.12500000000E+03 0.  0.
</event>
<event>
 5    0  0.5822326E-005  0.3362330E+03  0.7546771E-02  0.1068412E+00
         21   -1    0    0  502  501  0.00000000000E+00  0.00000000000E+00  0.16326922781E+03  0.16326922781E+03  0.00000000000E+00 0. -1.
         21   -1    0    0  501  502 -0.00000000000E+00 -0.00000000000E+00 -0.69243068047E+03  0.69243068047E+03  0.00000000000E+00 0. -1.
         25    1    1    2    0    0 -0.14935224788E+03  0.18885642807E+01 -0.42617506556E+03  0.46857213653E+03  0.12500000000E+03 0.  0.
         25    1    1    2    0    0  0.59129602268E+02 -0.53225973775E+02  0.57325154497E+02  0.15887255108E+03  0.12500000000E+03 0.  0.
         25    1    1    2    0    0  0.90222645616E+02  0.51337409494E+02 -0.16031154160E+03  0.22825522067E+03  0.12500000000E+03 0.  0.
</event>
<event>
 5    0  0.5822326E-005  0.4931258E+03  0.7546771E-02  0.1015589E+00
         21   -1    0    0  502  501  0.00000000000E+00  0.00000000000E+00  0.27057873292E+03  0.27057873292E+03  0.00000000000E+00 0. -1.
         21   -1    0    0  501  502 -0.00000000000E+00 -0.00000000000E+00 -0.89871472185E+03  0.89871472185E+03  0.00000000000E+00 0. -1.
         25    1    1    2    0    0 -0.32195926820E+03 -0.24391759416E+03 -0.18825696175E+03  0.46283825119E+03  0.12500000000E+03 0.  0.
         25    1    1    2    0    0  0.25455158326E+03  0.16786223469E+03 -0.43440974126E+03  0.54526237874E+03  0.12500000000E+03 0.  0.
         25    1    1    2    0    0  0.67407684934E+02  0.76055359470E+02 -0.54692859294E+01  0.16119282484E+03  0.12500000000E+03 0.  0.
</event>
<event>
 5    0  0.5822326E-005  0.2676990E+03  0.7546771E-02  0.1102604E+00
         21   -1    0    0  502  501  0.00000000000E+00  0.00000000000E+00  0.14591640939E+03  0.14591640939E+03  0.00000000000E+00 0.  1.
         21   -1    0    0  501  502 -0.00000000000E+00 -0.00000000000E+00 -0.49112199335E+03  0.49112199335E+03  0.00000000000E+00 0.  1.
         25    1    1    2    0    0 -0.71501333251E+02  0.23335369928E+02  0.53779075023E+01  0.14598254017E+03  0.12500000000E+03 0.  0.
         25    1    1    2    0    0 -0.21427072744E+02  0.54189463275E+02 -0.55837561561E+02  0.14878995483E+03  0.12500000000E+03 0.  0.
         25    1    1    2    0    0  0.92928405994E+02 -0.77524833202E+02 -0.29474592990E+03  0.34226590773E+03  0.12500000000E+03 0.  0.
</event>
<event>
 5    0  0.5822326E-005  0.3692575E+03  0.7546771E-02  0.1054977E+00
         21   -1    0    0  502  501  0.00000000000E+00  0.00000000000E+00  0.40007054856E+03  0.40007054856E+03  0.00000000000E+00 0.  1.
         21   -1    0    0  501  502 -0.00000000000E+00 -0.00000000000E+00 -0.34081763281E+03  0.34081763281E+03  0.00000000000E+00 0.  1.
         25    1    1    2    0    0  0.77044912017E+02  0.83741465254E+02 -0.24333823040E+01  0.16905464448E+03  0.12500000000E+03 0.  0.
         25    1    1    2    0    0  0.13828166085E+03  0.74442169140E+02 -0.11166336149E+03  0.22968926961E+03  0.12500000000E+03 0.  0.
         25    1    1    2    0    0 -0.21532657286E+03 -0.15818363439E+03  0.17334965954E+03  0.34214426728E+03  0.12500000000E+03 0.  0.
</event>
<event>
 5    0  0.5822326E-005  0.4054476E+03  0.7546771E-02  0.1041910E+00
         21   -1    0    0  502  501  0.00000000000E+00  0.00000000000E+00  0.83380825389E+03  0.83380825389E+03  0.00000000000E+00 0.  1.
         21   -1    0    0  501  502 -0.00000000000E+00 -0.00000000000E+00 -0.19715295215E+03  0.19715295215E+03  0.00000000000E+00 0.  1.
         25    1    1    2    0    0  0.19923772062E+02 -0.25779030884E+03  0.82269759784E+02  0.29874088003E+03  0.12500000000E+03 0.  0.
         25    1    1    2    0    0 -0.88335779944E+02  0.85557927675E+02  0.45493241936E+03  0.48755704814E+03  0.12500000000E+03 0.  0.
         25    1    1    2    0    0  0.68412007881E+02  0.17223238117E+03  0.99453122596E+02  0.24466327787E+03  0.12500000000E+03 0.  0.
</event>
<event>
 5    0  0.5822326E-005  0.5003606E+03  0.7546771E-02  0.1013685E+00
         21   -1    0    0  502  501  0.00000000000E+00  0.00000000000E+00  0.15014282001E+03  0.15014282001E+03  0.00000000000E+00 0. -1.
         21   -1    0    0  501  502 -0.00000000000E+00 -0.00000000000E+00 -0.16674841022E+04  0.16674841022E+04  0.00000000000E+00 0. -1.
         25    1    1    2    0    0 -0.81197540546E+02  0.18542633938E+03 -0.63012779048E+02  0.24611293800E+03  0.12500000000E+03 0.  0.
         25    1    1    2    0    0 -0.85232576684E+02 -0.14520548464E+03 -0.12799525129E+04  0.12970168311E+04  0.12500000000E+03 0.  0.
         25    1    1    2    0    0  0.16643011723E+03 -0.40220854738E+02 -0.17437599021E+03  0.27449715306E+03  0.12500000000E+03 0.  0.
</event>
<event>
 5    0  0.5822326E-005  0.3032560E+03  0.7546771E-02  0.1083624E+00
         21   -1    0    0  502  501  0.00000000000E+00  0.00000000000E+00  0.34518405219E+03  0.34518405219E+03  0.00000000000E+00 0.  1.
         21   -1    0    0  501  502 -0.00000000000E+00 -0.00000000000E+00 -0.26642082181E+03  0.26642082181E+03  0.00000000000E+00 0.  1.
         25    1    1    2    0    0 -0.77894518238E+01 -0.21978951102E+03  0.10987492437E+03  0.27579993423E+03  0.12500000000E+03 0.  0.
         25    1    1    2    0    0  0.15980004293E+02  0.12251717040E+03 -0.15683899331E+02  0.17645623332E+03  0.12500000000E+03 0.  0.
         25    1    1    2    0    0 -0.81905524690E+01  0.97272340623E+02 -0.15427794661E+02  0.15934870645E+03  0.12500000000E+03 0.  0.
</event>
<event>
 5    0  0.5822326E-005  0.4581149E+03  0.7546771E-02  0.1025329E+00
         21   -1    0    0  502  501  0.00000000000E+00  0.00000000000E+00  0.31154980063E+03  0.31154980063E+03  0.00000000000E+00 0.  1.
         21   -1    0    0  501  502 -0.00000000000E+00 -0.00000000000E+00 -0.67362983479E+03  0.67362983479E+03  0.00000000000E+00 0.  1.
         25    1    1    2    0    0  0.58623684539E+02  0.20443499116E+03 -0.14901475665E+02  0.24713853600E+03  0.12500000000E+03 0.  0.
         25    1    1    2    0    0  0.14581128275E+03  0.12330563640E+02 -0.36691027618E+03  0.41432007403E+03  0.12500000000E+03 0.  0.
         25    1    1    2    0    0 -0.20443496729E+03 -0.21676555480E+03  0.19731717689E+02  0.32372102539E+03  0.12500000000E+03 0.  0.
</event>
<event>
 5    0  0.5822326E-005  0.2875731E+03  0.7546771E-02  0.1091623E+00
         21   -1    0    0  502  501  0.00000000000E+00  0.00000000000E+00  0.10311926420E+04  0.10311926420E+04  0.00000000000E+00 0. -1.
         21   -1    0    0  501  502 -0.00000000000E+00 -0.00000000000E+00 -0.80196744788E+02  0.80196744788E+02  0.00000000000E+00 0. -1.
         25    1    1    2    0    0  0.80129755556E+02  0.90156038683E+02  0.22944856395E+03  0.28778556693E+03  0.12500000000E+03 0.  0.
         25    1    1    2    0    0 -0.48474751659E+02  0.71757928036E+02  0.48987773979E+03  0.51293683990E+03  0.12500000000E+03 0.  0.
         25    1    1    2    0    0 -0.31655003897E+02 -0.16191396672E+03  0.23166959345E+03  0.31066697993E+03  0.12500000000E+03 0.  0.
</event>
<event>
 5    0  0.5822326E-005  0.2206468E+03  0.7546771E-02  0.1133402E+00
         21   -1    0    0  502  501  0.00000000000E+00  0.00000000000E+00  0.16338817865E+04  0.16338817865E+04  0.00000000000E+00 0. -1.
         21   -1    0    0  501  502 -0.00000000000E+00 -0.00000000000E+00 -0.29797140443E+02  0.29797140443E+02  0.00000000000E+00 0. -1.
         25    1    1    2    0    0  0.38915303707E+02  0.37425943338E+01  0.33793903361E+03  0.36243095662E+03  0.12500000000E+03 0.  0.
         25    1    1    2    0    0  0.58599603738E+02 -0.20971992111E+02  0.64676474360E+03  0.66166711538E+03  0.12500000000E+03 0.  0.
         25    1    1    2    0    0 -0.97514907445E+02  0.17229397777E+02  0.61938086881E+03  0.63958085491E+03  0.12500000000E+03 0.  0.
</event>
<event>
 5    0  0.5822326E-005  0.3735036E+03  0.7546771E-02  0.1053361E+00
         21   -1    0    0  502  501  0.00000000000E+00  0.00000000000E+00  0.48852246087E+02  0.48852246087E+02  0.00000000000E+00 0.  1.
         21   -1    0    0  501  502 -0.00000000000E+00 -0.00000000000E+00 -0.28556510763E+04  0.28556510763E+04  0.00000000000E+00 0.  1.
         25    1    1    2    0    0 -0.59324207544E+02 -0.28465151968E+02 -0.16758935034E+03  0.21918215444E+03  0.12500000000E+03 0.  0.
         25    1    1    2    0    0 -0.82771523147E+02  0.19321982989E+03 -0.13156288404E+04  0.13381663848E+04  0.12500000000E+03 0.  0.
         25    1    1    2    0    0  0.14209573069E+03 -0.16475467792E+03 -0.13235806395E+04  0.13471547832E+04  0.12500000000E+03 0.  0.
</event>
<event>
 5    0  0.5822326E-005  0.3754850E+03  0.7546771E-02  0.1052615E+00
         21   -1    0    0  502  501  0.00000000000E+00  0.00000000000E+00  0.46293199464E+03  0.46293199464E+03  0.00000000000E+00 0. -1.
         21   -1    0    0  501  502 -0.00000000000E+00 -0.00000000000E+00 -0.30455661569E+03  0.30455661569E+03  0.00000000000E+00 0. -1.
         25    1    1    2    0    0 -0.20016149485E+02 -0.59847406090E+02 -0.13966226779E+02  0.14072104941E+03  0.12500000000E+03 0.  0.
         25    1    1    2    0    0  0.10564183181E+03 -0.73478580911E+02 -0.15839296429E+03  0.23931700654E+03  0.12500000000E+03 0.  0.
         25    1    1    2    0    0 -0.85625682321E+02  0.13332598700E+03  0.33073457002E+03  0.38745055438E+03  0.12500000000E+03 0.  0.
</event>
<event>
 5    0  0.5822326E-005  0.3120410E+03  0.7546771E-02  0.1079372E+00
         21   -1    0    0  502  501  0.00000000000E+00  0.00000000000E+00  0.15678822618E+04  0.15678822618E+04  0.00000000000E+00 0.  1.
         21   -1    0    0  501  502 -0.00000000000E+00 -0.00000000000E+00 -0.62102620174E+02  0.62102620174E+02  0.00000000000E+00 0.  1.
         25    1    1    2    0    0 -0.15594100229E+02 -0.81536300185E+02  0.48679516086E+03  0.50939755873E+03  0.12500000000E+03 0.  0.
         25    1    1    2    0    0 -0.51519456691E+02  0.11594885954E+02  0.59529358294E+02  0.14818043156E+03  0.12500000000E+03 0.  0.
         25    1    1    2    0    0  0.67113556920E+02  0.69941414231E+02  0.95945512251E+03  0.97240689172E+03  0.12500000000E+03 0.  0.
</event>
<event>
 5    0  0.5822326E-005  0.4099174E+03  0.7546771E-02  0.1040399E+00
         21   -1    0    0  502  501  0.00000000000E+00  0.00000000000E+00  0.32461612013E+03  0.32461612013E+03  0.00000000000E+00 0. -1.
         21   -1    0    0  501  502 -0.00000000000E+00 -0.00000000000E+00 -0.51763368218E+03  0.51763368218E+03  0.00000000000E+00 0. -1.
         25    1    1    2    0    0  0.13742106886E+03  0.15423817920E+03  0.40209711675E+02  0.24477701486E+03  0.12500000000E+03 0.  0.
         25    1    1    2    0    0 -0.87739843198E+02 -0.30913102918E+03 -0.13998339203E+03  0.37212984740E+03  0.12500000000E+03 0.  0.
         25    1    1    2    0    0 -0.49681225664E+02  0.15489284998E+03 -0.93243881692E+02  0.22534294005E+03  0.12500000000E+03 0.  0.
</event>
<event>
 5    0  0.5822326E-005  0.3852882E+03  0.7546771E-02  0.1048996E+00
         21   -1    0    0  502  501  0.00000000000E+00  0.00000000000E+00  0.62670168800E+03  0.62670168800E+03  0.00000000000E+00 0.  1.
         21   -1    0    0  501  502 -0.00000000000E+00 -0.00000000000E+00 -0.23687031900E+03  0.23687031900E+03  0.00000000000E+00 0.  1.
         25    1    1    2    0    0 -0.23379250094E+03  0.12211055647E+03  0.13994930420E+03  0.32369851597E+03  0.12500000000E+03 0.  0.
         25    1    1    2    0    0  0.19161654734E+03 -0.13758936705E+03  0.29661350278E+03  0.39906428701E+03  0.12500000000E+03 0.  0.
         25    1    1    2    0    0  0.42175953598E+02  0.15478810581E+02 -0.46731437985E+02  0.14080920401E+03  0.12500000000E+03 0.  0.
</event>
<event>
 5    0  0.5911582E-005  0.3787291E+03  0.7546771E-02  0.1051404E+00
         21   -1    0    0  502  501  0.00000000000E+00  0.00000000000E+00  0.16170040483E+03  0.16170040483E+03  0.00000000000E+00 0.  1.
         21   -1    0    0  501  502 -0.00000000000E+00 -0.00000000000E+00 -0.88704635353E+03  0.88704635353E+03  0.00000000000E+00 0.  1.
         25    1    1    2    0    0  0.49975228226E+02 -0.21600187702E+03 -0.19077492737E+03  0.31807924677E+03  0.12500000000E+03 0.  0.
         25    1    1    2    0    0 -0.11140063854E+03  0.13294830398E+03 -0.52655979631E+03  0.56830939890E+03  0.12500000000E+03 0.  0.
         25    1    1    2    0    0  0.61425410318E+02  0.83053573044E+02 -0.80112250318E+01  0.16235811268E+03  0.12500000000E+03 0.  0.
</event>
<event>
 5    0  0.5822326E-005  0.3905971E+03  0.7546771E-02  0.1047085E+00
         21   -1    0    0  502  501  0.00000000000E+00  0.00000000000E+00  0.12180124363E+04  0.12180124363E+04  0.00000000000E+00 0.  1.
         21   -1    0    0  501  502 -0.00000000000E+00 -0.00000000000E+00 -0.12525822350E+03  0.12525822350E+03  0.00000000000E+00 0.  1.
         25    1    1    2    0    0  0.10483678662E+03  0.82908004739E+02  0.28967180884E+03  0.34263573356E+03  0.12500000000E+03 0.  0.
         25    1    1    2    0    0  0.58516093608E+01  0.52390036874E+02  0.77160589907E+03  0.78344088531E+03  0.12500000000E+03 0.  0.
         25    1    1    2    0    0 -0.11068839598E+03 -0.13529804161E+03  0.31476504938E+02  0.21719404097E+03  0.12500000000E+03 0.  0.
</event>
<event>
 5    0  0.5822326E-005  0.4151287E+03  0.7546771E-02  0.1038663E+00
         21   -1    0    0  502  501  0.00000000000E+00  0.00000000000E+00  0.49809843786E+03  0.49809843786E+03  0.00000000000E+00 0.  1.
         21   -1    0    0  501  502 -0.00000000000E+00 -0.00000000000E+00 -0.34597952022E+03  0.34597952022E+03  0.00000000000E+00 0.  1.
         25    1    1    2    0    0 -0.13756011211E+03  0.27237929051E+02  0.29292432184E+02  0.19012557904E+03  0.12500000000E+03 0.  0.
         25    1    1    2    0    0  0.20049905102E+03  0.23358497205E+03  0.13275981891E+03  0.35778761597E+03  0.12500000000E+03 0.  0.
         25    1    1    2    0    0 -0.62938938901E+02 -0.26082290110E+03 -0.99333334616E+01  0.29616476306E+03  0.12500000000E+03 0.  0.
</event>
<event>
 5    0  0.5822326E-005  0.2995813E+03  0.7546771E-02  0.1085450E+00
         21   -1    0    0  502  501  0.00000000000E+00  0.00000000000E+00  0.48968830800E+02  0.48968830800E+02  0.00000000000E+00 0. -1.
         21   -1    0    0  501  502 -0.00000000000E+00 -0.00000000000E+00 -0.18327766887E+04  0.18327766887E+04  0.00000000000E+00 0. -1.
         25    1    1    2    0    0  0.11318901217E+03 -0.16032614683E+03 -0.95309013176E+03  0.98108206847E+03  0.12500000000E+03 0.  0.
         25    1    1    2    0    0  0.14344609800E+02  0.46267168646E+02 -0.37052875088E+03  0.39403422942E+03  0.12500000000E+03 0.  0.
         25    1    1    2    0    0 -0.12753362197E+03  0.11405897818E+03 -0.46018897530E+03  0.50662922165E+03  0.12500000000E+03 0.  0.
</event>
<event>
 5    0  0.5822326E-005  0.3275244E+03  0.7546771E-02  0.1072238E+00
         21   -1    0    0  502  501  0.00000000000E+00  0.00000000000E+00  0.81321518373E+03  0.81321518373E+03  0.00000000000E+00 0. -1.
         21   -1    0    0  501  502 -0.00000000000E+00 -0.00000000000E+00 -0.13191126252E+03  0.13191126252E+03  0.00000000000E+00 0. -1.
         25    1    1    2    0    0 -0.14618595594E+03 -0.10614226303E+03  0.13468510538E+03  0.25768506229E+03  0.12500000000E+03 0.  0.
         25    1    1    2    0    0  0.15626075452E+03  0.94395051932E+01  0.47124616452E+03  0.51205905444E+03  0.12500000000E+03 0.  0.
         25    1    1    2    0    0 -0.10074798581E+02  0.96702757835E+02  0.75372651311E+02  0.17538232951E+03  0.12500000000E+03 0.  0.
</event>
<event>
 5    0  0.5822326E-005  0.4109126E+03  0.7546771E-02  0.1040065E+00
         21   -1    0    0  502  501  0.00000000000E+00  0.00000000000E+00  0.27312077719E+04  0.27312077719E+04  0.00000000000E+00 0.  1.
         21   -1    0    0  501  502 -0.00000000000E+00 -0.00000000000E+00 -0.61822154656E+02  0.61822154656E+02  0.00000000000E+00 0.  1.
         25    1    1    2    0    0  0.26076005460E+03 -0.65762694554E+02  0.87633007546E+03  0.92514860386E+03  0.12500000000E+03 0.  0.
         25    1    1    2    0    0 -0.22633681156E+02 -0.13167014789E+03  0.49812718184E+03  0.53066467817E+03  0.12500000000E+03 0.  0.
         25    1    1    2    0    0 -0.23812637345E+03  0.19743284245E+03  0.12949283599E+04  0.13372166445E+04  0.12500000000E+03 0.  0.
</event>
<event>
 5    0  0.5822326E-005  0.2929133E+03  0.7546771E-02  0.1088838E+00
         21   -1    0    0  502  501  0.00000000000E+00  0.00000000000E+00  0.50552150470E+03  0.50552150470E+03  0.00000000000E+00 0. -1.
         21   -1    0    0  501  502 -0.00000000000E+00 -0.00000000000E+00 -0.16972212519E+03  0.16972212519E+03  0.00000000000E+00 0. -1.
         25    1    1    2    0    0 -0.20346054254E+02 -0.16174379728E+03  0.75518740758E+02  0.21886776393E+03  0.12500000000E+03 0.  0.
         25    1    1    2    0    0  0.84065432913E+02  0.67461896525E+02  0.23240612577E+03  0.28505387524E+03  0.12500000000E+03 0.  0.
         25    1    1    2    0    0 -0.63719378659E+02  0.94281900759E+02  0.27874512989E+02  0.17132199071E+03  0.12500000000E+03 0.  0.
</event>
<event>
 5    0  0.5924717E-005  0.2984874E+03  0.7546771E-02  0.1085999E+00
         21   -1    0    0  502  501  0.00000000000E+00  0.00000000000E+00  0.12117023814E+03  0.12117023814E+03  0.00000000000E+00 0. -1.
         21   -1    0    0  501  502 -0.00000000000E+00 -0.00000000000E+00 -0.73528580191E+03  0.73528580191E+03  0.00000000000E+00 0. -1.
         25    1    1    2    0    0  0.21039349909E+02 -0.53291300072E+02 -0.39809304810E+03  0.42117180800E+03  0.12500000000E+03 0.  0.
         25    1    1    2    0    0 -0.79910687936E+02  0.10207731603E+03 -0.22533965567E+03  0.28845876120E+03  0.12500000000E+03 0.  0.
         25    1    1    2    0    0  0.58871338027E+02 -0.48786015958E+02  0.93171400078E+01  0.14682547086E+03  0.12500000000E+03 0.  0.
</event>
<event>
 5    0  0.6054875E-005  0.2993049E+03  0.7546771E-02  0.1085589E+00
         21   -1    0    0  502  501  0.00000000000E+00  0.00000000000E+00  0.39133352345E+03  0.39133352345E+03  0.00000000000E+00 0.  1.
         21   -1    0    0  501  502 -0.00000000000E+00 -0.00000000000E+00 -0.22891840183E+03  0.22891840183E+03  0.00000000000E+00 0.  1.
         25    1    1    2    0    0 -0.20782143175E+03 -0.24585955524E+02  0.62952468560E+02  0.25175827693E+03  0.12500000000E+03 0.  0.
         25    1    1    2    0    0  0.11744734096E+03  0.77113571327E+02  0.26341994407E+02  0.18989281569E+03  0.12500000000E+03 0.  0.
         25    1    1    2    0    0  0.90374090786E+02 -0.52527615803E+02  0.73120658654E+02  0.17860083267E+03  0.12500000000E+03 0.  0.
</event>
<event>
 5    0  0.5822326E-005  0.3185742E+03  0.7546771E-02  0.1076307E+00
         21   -1    0    0  502  501  0.00000000000E+00  0.00000000000E+00  0.34465881435E+03  0.34465881435E+03  0.00000000000E+00 0.  1.
         21   -1    0    0  501  502 -0.00000000000E+00 -0.00000000000E+00 -0.29446370692E+03  0.29446370692E+03  0.00000000000E+00 0.  1.
         25    1    1    2    0    0  0.22335388569E+02 -0.11222110818E+03  0.27680245105E+01  0.16948483314E+03  0.12500000000E+03 0.  0.
         25    1    1    2    0    0  0.72419828977E+02  0.22041818301E+03  0.81939392561E+02  0.27598527331E+03  0.12500000000E+03 0.  0.
         25    1    1    2    0    0 -0.94755217546E+02 -0.10819707483E+03 -0.34512309641E+02  0.19365241483E+03  0.12500000000E+03 0.  0.
</event>
<event>
 5    0  0.5822326E-005  0.3051974E+03  0.7546771E-02  0.1082671E+00
         21   -1    0    0  502  501  0.00000000000E+00  0.00000000000E+00  0.58788808939E+03  0.58788808939E+03  0.00000000000E+00 0.  1.
         21   -1    0    0  501  502 -0.00000000000E+00 -0.00000000000E+00 -0.15844082008E+03  0.15844082008E+03  0.00000000000E+00 0.  1.
         25    1    1    2    0    0  0.65495816296E+02  0.15599551386E+03  0.23425045522E+03  0.31483738353E+03  0.12500000000E+03 0.  0.
         25    1    1    2    0    0 -0.50479454673E+02  0.42547874275E+02  0.30970234235E+02  0.14471576403E+03  0.12500000000E+03 0.  0.
         25    1    1    2    0    0 -0.15016361623E+02 -0.19854338814E+03  0.16422657985E+03  0.28677576191E+03  0.12500000000E+03 0.  0.
</event>
<event>
 5    0  0.5822326E-005  0.3454978E+03  0.7546771E-02  0.1064478E+00
         21   -1    0    0  502  501  0.00000000000E+00  0.00000000000E+00  0.17026189122E+03  0.17026189122E+03  0.00000000000E+00 0. -1.
         21   -1    0    0  501  502 -0.00000000000E+00 -0.00000000000E+00 -0.70108874430E+03  0.70108874430E+03  0.00000000000E+00 0. -1.
         25    1    1    2    0    0  0.13124758983E+02  0.18279712775E+03 -0.27886397882E+03  0.35633855797E+03  0.12500000000E+03 0.  0.
         25    1    1    2    0    0 -0.10531679691E+03  0.44061253859E+02 -0.59633360158E+02  0.17948303387E+03  0.12500000000E+03 0.  0.
         25    1    1    2    0    0  0.92192037931E+02 -0.22685838161E+03 -0.19232951410E+03  0.33552904369E+03  0.12500000000E+03 0.  0.
</event>
<event>
 5    0  0.5822326E-005  0.3566857E+03  0.7546771E-02  0.1059904E+00
         21   -1    0    0  502  501  0.00000000000E+00  0.00000000000E+00  0.20952631662E+03  0.20952631662E+03  0.00000000000E+00 0. -1.
         21   -1    0    0  501  502 -0.00000000000E+00 -0.00000000000E+00 -0.60720160571E+03  0.60720160571E+03  0.00000000000E+00 0. -1.
         25    1    1    2    0    0  0.12392436007E+03  0.13352943748E+03 -0.24502094952E+03  0.32992063196E+03  0.12500000000E+03 0.  0.
         25    1    1    2    0    0  0.11531993265E+02  0.17305878901E+02 -0.20682283519E+03  0.24255548946E+03  0.12500000000E+03 0.  0.
         25    1    1    2    0    0 -0.13545635333E+03 -0.15083531638E+03  0.54168495625E+02  0.24425180090E+03  0.12500000000E+03 0.  0.
</event>
<event>
 5    0  0.5822326E-005  0.5534652E+03  0.7546771E-02  0.1000695E+00
         21   -1    0    0  502  501  0.00000000000E+00  0.00000000000E+00  0.47656260250E+03  0.47656260250E+03  0.00000000000E+00 0.  1.
         21   -1    0    0  501  502 -0.00000000000E+00 -0.00000000000E+00 -0.64277745515E+03  0.64277745515E+03  0.00000000000E+00 0.  1.
         25    1    1    2    0    0 -0.26790376722E+03 -0.25432941970E+02 -0.17797972929E+03  0.34600729337E+03  0.12500000000E+03 0.  0.
         25    1    1    2    0    0  0.15228587442E+03 -0.99993036626E+02  0.32644986861E+03  0.39418791412E+03  0.12500000000E+03 0.  0.
         25    1    1    2    0    0  0.11561789280E+03  0.12542597860E+03 -0.31468499196E+03  0.37914485016E+03  0.12500000000E+03 0.  0.
</event>
<event>
 5    0  0.5822326E-005  0.2684249E+03  0.7546771E-02  0.1102184E+00
         21   -1    0    0  502  501  0.00000000000E+00  0.00000000000E+00  0.10499755490E+04  0.10499755490E+04  0.00000000000E+00 0. -1.
         21   -1    0    0  501  502 -0.00000000000E+00 -0.00000000000E+00 -0.68622505718E+02  0.68622505718E+02  0.00000000000E+00 0. -1.
         25    1    1    2    0    0 -0.15545489201E+01  0.11520728915E+03  0.22825791440E+03  0.28460817202E+03  0.12500000000E+03 0.  0.
         25    1    1    2    0    0  0.16566403933E+01 -0.16780621227E+03  0.56176146252E+03  0.59946860644E+03  0.12500000000E+03 0.  0.
         25    1    1    2    0    0 -0.10209147323E+00  0.52598923120E+02  0.19133366641E+03  0.23452127630E+03  0.12500000000E+03 0.  0.
</event>
<event>
 5    0  0.5822326E-005  0.3965744E+03  0.7546771E-02  0.1044972E+00
         21   -1    0    0  502  501  0.00000000000E+00  0.00000000000E+00  0.66747764111E+03  0.66747764111E+03  0.00000000000E+00 0. -1.
         21   -1    0    0  501  502 -0.00000000000E+00 -0.00000000000E+00 -0.23562022574E+03  0.23562022574E+03  0.00000000000E+00 0. -1.
         25    1    1    2    0    0 -0.68299562180E+02  0.15658165784E+03 -0.18180008086E+02  0.21245742741E+03  0.12500000000E+03 0.  0.
         25    1    1    2    0    0 -0.15289362003E+03 -0.40571428012E+02  0.58941530726E+02  0.21005143146E+03  0.12500000000E+03 0.  0.
         25    1    1    2    0    0  0.22119318221E+03 -0.11601022983E+03  0.39109589273E+03  0.48058900798E+03  0.12500000000E+03 0.  0.
</event>
<event>
 5    0  0.5822326E-005  0.3322789E+03  0.7546771E-02  0.1070133E+00
         21   -1    0    0  502  501  0.00000000000E+00  0.00000000000E+00  0.69358885210E+02  0.69358885210E+02  0.00000000000E+00 0. -1.
         21   -1    0    0  501  502 -0.00000000000E+00 -0.00000000000E+00 -0.15918550432E+04  0.15918550432E+04  0.00000000000E+00 0. -1.
         25    1    1    2    0    0  0.45790839248E+02  0.75349750975E+02 -0.12996489697E+04  0.13086202009E+04  0.12500000000E+03 0.  0.
         25    1    1    2    0    0 -0.47607235972E+02 -0.26293091675E+02 -0.13664180639E+03  0.19301232821E+03  0.12500000000E+03 0.  0.
         25    1    1    2    0    0  0.18163967241E+01 -0.49056659300E+02 -0.86205381931E+02  0.15958139927E+03  0.12500000000E+03 0.  0.
</event>
<event>
 5    0  0.5822326E-005  0.2682902E+03  0.7546771E-02  0.1102262E+00
         21   -1    0    0  502  501  0.00000000000E+00  0.00000000000E+00  0.15431586147E+03  0.15431586147E+03  0.00000000000E+00 0.  1.
         21   -1    0    0  501  502 -0.00000000000E+00 -0.00000000000E+00 -0.46644342971E+03  0.46644342971E+03  0.00000000000E+00 0.  1.
         25    1    1    2    0    0 -0.15659302866E+02  0.91509399821E+02 -0.10665181546E+03  0.18872941944E+03  0.12500000000E+03 0.  0.
         25    1    1    2    0    0  0.52897570552E+02 -0.16638600220E+03 -0.17851233796E+03  0.27923844560E+03  0.12500000000E+03 0.  0.
         25    1    1    2    0    0 -0.37238267686E+02  0.74876602375E+02 -0.26963414818E+02  0.15279142614E+03  0.12500000000E+03 0.  0.
</event>
<event>
 5    0  0.5822326E-005  0.4094552E+03  0.7546771E-02  0.1040554E+00
         21   -1    0    0  502  501  0.00000000000E+00  0.00000000000E+00  0.52203775486E+03  0.52203775486E+03  0.00000000000E+00 0. -1.
         21   -1    0    0  501  502 -0.00000000000E+00 -0.00000000000E+00 -0.32115216160E+03  0.32115216160E+03  0.00000000000E+00 0. -1.
         25    1    1    2    0    0 -0.10527628722E+03 -0.11829141932E+03 -0.98082623683E+02  0.22432377851E+03  0.12500000000E+03 0.  0.
         25    1    1    2    0    0 -0.55853721542E+02  0.25142701772E+03  0.22565680004E+03  0.36452870238E+03  0.12500000000E+03 0.  0.
         25    1    1    2    0    0  0.16113000876E+03 -0.13313559840E+03  0.73311416909E+02  0.25433743557E+03  0.12500000000E+03 0.  0.
</event>
<event>
 5    0  0.5822326E-005  0.2215158E+03  0.7546771E-02  0.1132758E+00
         21   -1    0    0  502  501  0.00000000000E+00  0.00000000000E+00  0.67683448006E+02  0.67683448006E+02  0.00000000000E+00 0.  1.
         21   -1    0    0  501  502 -0.00000000000E+00 -0.00000000000E+00 -0.72498166722E+03  0.72498166722E+03  0.00000000000E+00 0.  1.
         25    1    1    2    0    0 -0.34316800408E+02  0.50489959375E+02 -0.14903551339E+03  0.20387119227E+03  0.12500000000E+03 0.  0.
         25    1    1    2    0    0  0.44658075973E+02 -0.39464805417E+02 -0.12929575034E+03  0.18945766195E+03  0.12500000000E+03 0.  0.
         25    1    1    2    0    0 -0.10341275565E+02 -0.11025153958E+02 -0.37896695549E+03  0.39933626100E+03  0.12500000000E+03 0.  0.
</event>
<event>
 5    0  0.5822326E-005  0.4146912E+03  0.7546771E-02  0.1038808E+00
         21   -1    0    0  502  501  0.00000000000E+00  0.00000000000E+00  0.16350899719E+03  0.16350899719E+03  0.00000000000E+00 0.  1.
         21   -1    0    0  501  502 -0.00000000000E+00 -0.00000000000E+00 -0.10517388953E+04  0.10517388953E+04  0.00000000000E+00 0.  1.
         25    1    1    2    0    0 -0.19191901039E+03 -0.11188034751E+03 -0.42262693089E+02  0.25838199228E+03  0.12500000000E+03 0.  0.
         25    1    1    2    0    0  0.26550879370E+02 -0.39259765882E+02 -0.96965418095E+02  0.16514711841E+03  0.12500000000E+03 0.  0.
         25    1    1    2    0    0  0.16536813102E+03  0.15114011340E+03 -0.74900178694E+03  0.79171878181E+03  0.12500000000E+03 0.  0.
</event>
<event>
 5    0  0.5822326E-005  0.2238433E+03  0.7546771E-02  0.1131050E+00
         21   -1    0    0  502  501  0.00000000000E+00  0.00000000000E+00  0.12065347357E+03  0.12065347357E+03  0.00000000000E+00 0.  1.
         21   -1    0    0  501  502 -0.00000000000E+00 -0.00000000000E+00 -0.41528706933E+03  0.41528706933E+03  0.00000000000E+00 0.  1.
         25    1    1    2    0    0 -0.80654815404E+01  0.88789396698E+02 -0.14924553149E+03  0.21412108170E+03  0.12500000000E+03 0.  0.
         25    1    1    2    0    0  0.51981422463E+02 -0.63438226013E+02 -0.98380733019E+02  0.17896995678E+03  0.12500000000E+03 0.  0.
         25    1    1    2    0    0 -0.43915940922E+02 -0.25351170685E+02 -0.47007331258E+02  0.14284950442E+03  0.12500000000E+03 0.  0.
</event>
<event>
 5    0  0.5822326E-005  0.2426783E+03  0.7546771E-02  0.1118021E+00
         21   -1    0    0  502  501  0.00000000000E+00  0.00000000000E+00  0.23092060322E+03  0.23092060322E+03  0.00000000000E+00 0. -1.
         21   -1    0    0  501  502 -0.00000000000E+00 -0.00000000000E+00 -0.25503475904E+03  0.25503475904E+03  0.00000000000E+00 0. -1.
         25    1    1    2    0    0  0.79311805799E+02  0.38440452320E+02 -0.62540275434E+01  0.15307561456E+03  0.12500000000E+03 0.  0.
         25    1    1    2    0    0 -0.10596912026E+02 -0.15656989498E+02  0.87792324587E+02  0.15391532776E+03  0.12500000000E+03 0.  0.
         25    1    1    2    0    0 -0.68714893773E+02 -0.22783462821E+02 -0.10565245286E+03  0.17896441993E+03  0.12500000000E+03 0.  0.
</event>
<event>
 5    0  0.5822326E-005  0.2794713E+03  0.7546771E-02  0.1095978E+00
         21   -1    0    0  502  501  0.00000000000E+00  0.00000000000E+00  0.52257953111E+02  0.52257953111E+02  0.00000000000E+00 0. -1.
         21   -1    0    0  501  502 -0.00000000000E+00 -0.00000000000E+00 -0.14945898864E+04  0.14945898864E+04  0.00000000000E+00 0. -1.
         25    1    1    2    0    0  0.44746760392E+01 -0.46381811443E+02 -0.33209983476E+03  0.35789187670E+03  0.12500000000E+03 0.  0.
         25    1    1    2    0    0  0.17991326138E+02  0.12563485540E+03 -0.96174177959E+03  0.97810022765E+03  0.12500000000E+03 0.  0.
         25    1    1    2    0    0 -0.22466002177E+02 -0.79253043961E+02 -0.14849031891E+03  0.21085573514E+03  0.12500000000E+03 0.  0.
</event>
<event>
 5    0  0.5822326E-005  0.2898543E+03  0.7546771E-02  0.1090425E+00
         21   -1    0    0  502  501  0.00000000000E+00  0.00000000000E+00  0.82789505792E+03  0.82789505792E+03  0.00000000000E+00 0. -1.
         21   -1    0    0  501  502 -0.00000000000E+00 -0.00000000000E+00 -0.10148088561E+03  0.10148088561E+03  0.00000000000E+00 0. -1.
         25    1    1    2    0    0 -0.12264748166E+02  0.92381640478E+02  0.28483689309E+03  0.32471810423E+03  0.12500000000E+03 0.  0.
         25    1    1    2    0    0 -0.11021996625E+03 -0.14962904497E+03  0.19533028480E+03  0.29718043714E+03  0.12500000000E+03 0.  0.
         25    1    1    2    0    0  0.12248471442E+03  0.57247404492E+02  0.24624699441E+03  0.30747740216E+03  0.12500000000E+03 0.  0.
</event>
<event>
 5    0  0.5822326E-005  0.3137347E+03  0.7546771E-02  0.1078569E+00
         21   -1    0    0  502  501  0.00000000000E+00  0.00000000000E+00  0.40573652282E+03  0.40573652282E+03  0.00000000000E+00 0.  1.
         21   -1    0    0  501  502 -0.00000000000E+00 -0.00000000000E+00 -0.24259454940E+03  0.24259454940E+03  0.00000000000E+00 0.  1.
         25    1    1    2    0    0 -0.18786338544E+03 -0.87281293658E+01 -0.63733697603E+01  0.22590806022E+03  0.12500000000E+03 0.  0.
         25    1    1    2    0    0 -0.35942469621E+02  0.54499051390E+01  0.48402054575E+02  0.13888600173E+03  0.12500000000E+03 0.  0.
         25    1    1    2    0    0  0.22380585506E+03  0.32782242268E+01  0.12111328861E+03  0.28353701027E+03  0.12500000000E+03 0.  0.
</event>
<event>
 5    0  0.5822326E-005  0.4091556E+03  0.7546771E-02  0.1040655E+00
         21   -1    0    0  502  501  0.00000000000E+00  0.00000000000E+00  0.35261698712E+03  0.35261698712E+03  0.00000000000E+00 0. -1.
         21   -1    0    0  501  502 -0.00000000000E+00 -0.00000000000E+00 -0.47475951541E+03  0.47475951541E+03  0.00000000000E+00 0. -1.
         25    1    1    2    0    0 -0.13888369690E+03  0.20691854568E+03 -0.19279461523E+02  0.27946495925E+03  0.12500000000E+03 0.  0.
         25    1    1    2    0    0  0.85754652779E+02  0.11258246519E+03 -0.12842125470E+02  0.18925800413E+03  0.12500000000E+03 0.  0.
         25    1    1    2    0    0  0.53129044122E+02 -0.31950101087E+03 -0.90020941301E+02  0.35865353915E+03  0.12500000000E+03 0.  0.
</event>
<event>
 5    0  0.5822326E-005  0.4723466E+03  0.7546771E-02  0.1021260E+00
         21   -1    0    0  502  501  0.00000000000E+00  0.00000000000E+00  0.13113235898E+03  0.13113235898E+03  0.00000000000E+00 0. -1.
         21   -1    0    0  501  502 -0.00000000000E+00 -0.00000000000E+00 -0.17014209385E+04  0.17014209385E+04  0.00000000000E+00 0. -1.
         25    1    1    2    0    0  0.39884624530E+01  0.48116360068E+02 -0.11720337745E+03  0.17802450287E+03  0.12500000000E+03 0.  0.
         25    1    1    2    0    0 -0.19975543360E+03  0.18253832523E+02 -0.13829294574E+04  0.14029805130E+04  0.12500000000E+03 0.  0.
         25    1    1    2    0    0  0.19576697115E+03 -0.66370192591E+02 -0.70155744623E+02  0.25154828157E+03  0.12500000000E+03 0.  0.
</event>
<event>
 5    0  0.5822326E-005  0.3090028E+03  0.7546771E-02  0.1080825E+00
         21   -1    0    0  502  501  0.00000000000E+00  0.00000000000E+00  0.28583959031E+04  0.28583959031E+04  0.00000000000E+00 0. -1.
         21   -1    0    0  501  502 -0.00000000000E+00 -0.00000000000E+00 -0.33404304449E+02  0.33404304449E+02  0.00000000000E+00 0. -1.
         25    1    1    2    0    0  0.68183496165E+02  0.37867422254E+02  0.37786614711E+03  0.40557459973E+03  0.12500000000E+03 0.  0.
         25    1    1    2    0    0  0.17416590001E+01  0.13590773491E+03  0.67331865626E+03  0.69818117896E+03  0.12500000000E+03 0.  0.
         25    1    1    2    0    0 -0.69925155165E+02 -0.17377515717E+03  0.17738067952E+04  0.17880444288E+04  0.12500000000E+03 0.  0.
</event>
<event>
 5    0  0.5822326E-005  0.4658536E+03  0.7546771E-02  0.1023097E+00
         21   -1    0    0  502  501  0.00000000000E+00  0.00000000000E+00  0.29320923069E+03  0.29320923069E+03  0.00000000000E+00 0.  1.
         21   -1    0    0  501  502 -0.00000000000E+00 -0.00000000000E+00 -0.74015255311E+03  0.74015255311E+03  0.00000000000E+00 0.  1.
         25    1    1    2    0    0 -0.11929400891E+03  0.67143278711E+02  0.29769430735E+02  0.18775116363E+03  0.12500000000E+03 0.  0.
         25    1    1    2    0    0  0.22960105570E+03 -0.10470704214E+03 -0.58083116008E+03  0.64549984196E+03  0.12500000000E+03 0.  0.
         25    1    1    2    0    0 -0.11030704679E+03  0.37563763427E+02  0.10411840692E+03  0.20011077821E+03  0.12500000000E+03 0.  0.
</event>
<event>
 5    0  0.5822326E-005  0.3782158E+03  0.7546771E-02  0.1051595E+00
         21   -1    0    0  502  501  0.00000000000E+00  0.00000000000E+00  0.15016491711E+04  0.15016491711E+04  0.00000000000E+00 0. -1.
         21   -1    0    0  501  502 -0.00000000000E+00 -0.00000000000E+00 -0.95260043300E+02  0.95260043300E+02  0.00000000000E+00 0. -1.
         25    1    1    2    0    0  0.43375468401E+02  0.40740243845E+02  0.16196997622E+03  0.21307386495E+03  0.12500000000E+03 0.  0.
         25    1    1    2    0    0  0.11835059868E+02  0.23930782908E+03  0.77170386898E+03  0.81765528623E+03  0.12500000000E+03 0.  0.
         25    1    1    2    0    0 -0.55210528269E+02 -0.28004807293E+03  0.47271528258E+03  0.56618006320E+03  0.12500000000E+03 0.  0.
</event>
<event>
 5    0  0.5822326E-005  0.2935346E+03  0.7546771E-02  0.1088518E+00
         21   -1    0    0  502  501  0.00000000000E+00  0.00000000000E+00  0.33902367616E+03  0.33902367616E+03  0.00000000000E+00 0. -1.
         21   -1    0    0  501  502 -0.00000000000E+00 -0.00000000000E+00 -0.25414911539E+03  0.25414911539E+03  0.00000000000E+00 0. -1.
         25    1    1    2    0    0  0.10769142468E+03 -0.84400678999E+02  0.17815865764E+03  0.25707280070E+03  0.12500000000E+03 0.  0.
         25    1    1    2    0    0 -0.11050499154E+03  0.99262145329E+02 -0.78170465728E+02  0.20928437200E+03  0.12500000000E+03 0.  0.
         25    1    1    2    0    0  0.28135668585E+01 -0.14861466330E+02 -0.15113631147E+02  0.12681561886E+03  0.12500000000E+03 0.  0.
</event>
<event>
 5    0  0.5822326E-005  0.2584389E+03  0.7546771E-02  0.1108085E+00
         21   -1    0    0  502  501  0.00000000000E+00  0.00000000000E+00  0.84358708489E+02  0.84358708489E+02  0.00000000000E+00 0.  1.
         21   -1    0    0  501  502 -0.00000000000E+00 -0.00000000000E+00 -0.79174623447E+03  0.79174623447E+03  0.00000000000E+00 0.  1.
         25    1    1    2    0    0  0.67366609597E+02  0.31687170325E+02 -0.24408522861E+03  0.28415653376E+03  0.12500000000E+03 0.  0.
         25    1    1    2    0    0 -0.12635255807E+03 -0.99007283664E+01 -0.10354072110E+03  0.20593366476E+03  0.12500000000E+03 0.  0.
         25    1    1    2    0    0  0.58985948476E+02 -0.21786441958E+02 -0.35976157627E+03  0.38601474444E+03  0.12500000000E+03 0.  0.
</event>
<event>
 5    0  0.5822326E-005  0.3090895E+03  0.7546771E-02  0.1080783E+00
         21   -1    0    0  502  501  0.00000000000E+00  0.00000000000E+00  0.12064466766E+04  0.12064466766E+04  0.00000000000E+00 0.  1.
         21   -1    0    0  501  502 -0.00000000000E+00 -0.00000000000E+00 -0.79188159009E+02  0.79188159009E+02  0.00000000000E+00 0.  1.
         25    1    1    2    0    0  0.25735475733E+02 -0.36005165656E+02  0.55133218572E+03  0.56705455264E+03  0.12500000000E+03 0.  0.
         25    1    1    2    0    0  0.11592807417E+03  0.26713692415E+02  0.84772612942E+02  0.19226111320E+03  0.12500000000E+03 0.  0.
         25    1    1    2    0    0 -0.14166354990E+03  0.92914732409E+01  0.49115371894E+03  0.52631916978E+03  0.12500000000E+03 0.  0.
</event>
<event>
 5    0  0.5822326E-005  0.2596359E+03  0.7546771E-02  0.1107362E+00
         21   -1    0    0  502  501  0.00000000000E+00  0.00000000000E+00  0.88982364848E+03  0.88982364848E+03  0.00000000000E+00 0.  1.
         21   -1    0    0  501  502 -0.00000000000E+00 -0.00000000000E+00 -0.75757511933E+02  0.75757511933E+02  0.00000000000E+00 0.  1.
         25    1    1    2    0    0  0.86664684809E+02 -0.13183106989E+03  0.38065176552E+03  0.43059373564E+03  0.12500000000E+03 0.  0.
         25    1    1    2    0    0 -0.68828692003E+02  0.20341711415E+02  0.22174685999E+03  0.26447654713E+03  0.12500000000E+03 0.  0.
         25    1    1    2    0    0 -0.17835992807E+02  0.11148935848E+03  0.21166751104E+03  0.27051087764E+03  0.12500000000E+03 0.  0.
</event>
<event>
 5    0  0.5822326E-005  0.3326963E+03  0.7546771E-02  0.1069950E+00
         21   -1    0    0  502  501  0.00000000000E+00  0.00000000000E+00  0.24345130004E+04  0.24345130004E+04  0.00000000000E+00 0. -1.
         21   -1    0    0  501  502 -0.00000000000E+00 -0.00000000000E+00 -0.45465700752E+02  0.45465700752E+02  0.00000000000E+00 0. -1.
         25    1    1    2    0    0 -0.94610819519E+02 -0.46168569763E+02  0.24786268051E+03  0.29688996681E+03  0.12500000000E+03 0.  0.
         25    1    1    2    0    0 -0.24463462834E+01  0.17242816526E+03  0.13344145152E+04  0.13513047603E+04  0.12500000000E+03 0.  0.
         25    1    1    2    0    0  0.97057165803E+02 -0.12625959550E+03  0.80677010393E+03  0.83178397404E+03  0.12500000000E+03 0.  0.
</event>
<event>
 5    0  0.5822326E-005  0.3495380E+03  0.7546771E-02  0.1062805E+00
         21   -1    0    0  502  501  0.00000000000E+00  0.00000000000E+00  0.24277974354E+03  0.24277974354E+03  0.00000000000E+00 0. -1.
         21   -1    0    0  501  502 -0.00000000000E+00 -0.00000000000E+00 -0.50324150801E+03  0.50324150801E+03  0.00000000000E+00 0. -1.
         25    1    1    2    0    0 -0.15447022563E+03  0.13170800766E+03 -0.21533760099E+02  0.23936740111E+03  0.12500000000E+03 0.  0.
         25    1    1    2    0    0  0.11295031196E+03 -0.11373786590E+03 -0.29837192923E+03  0.36103307780E+03  0.12500000000E+03 0.  0.
         25    1    1    2    0    0  0.41519913669E+02 -0.17970141765E+02  0.59443924853E+02  0.14562077265E+03  0.12500000000E+03 0.  0.
</event>
<event>
 5    0  0.5822326E-005  0.3083291E+03  0.7546771E-02  0.1081150E+00
         21   -1    0    0  502  501  0.00000000000E+00  0.00000000000E+00  0.18199860056E+03  0.18199860056E+03  0.00000000000E+00 0.  1.
         21   -1    0    0  501  502 -0.00000000000E+00 -0.00000000000E+00 -0.52234925153E+03  0.52234925153E+03  0.00000000000E+00 0.  1.
         25    1    1    2    0    0 -0.74544259502E+02  0.77091940384E+02 -0.28523681746E+02  0.16714847985E+03  0.12500000000E+03 0.  0.
         25    1    1    2    0    0  0.10481975386E+02 -0.16498349917E+03 -0.30827732996E+03  0.37146916288E+03  0.12500000000E+03 0.  0.
         25    1    1    2    0    0  0.64062284116E+02  0.87891558789E+02 -0.35496392648E+01  0.16573020935E+03  0.12500000000E+03 0.  0.
</event>
<event>
 5    0  0.5822326E-005  0.2972119E+03  0.7546771E-02  0.1086643E+00
         21   -1    0    0  502  501  0.00000000000E+00  0.00000000000E+00  0.13843864110E+03  0.13843864110E+03  0.00000000000E+00 0.  1.
         21   -1    0    0  501  502 -0.00000000000E+00 -0.00000000000E+00 -0.63807981502E+03  0.63807981502E+03  0.00000000000E+00 0.  1.
         25    1    1    2    0    0  0.14736343287E+03 -0.94025664686E+02 -0.32134769158E+03  0.38658265073E+03  0.12500000000E+03 0.  0.
         25    1    1    2    0    0  0.11466773576E+02  0.12938564546E+02 -0.89724599706E+02  0.15483667893E+03  0.12500000000E+03 0.  0.
         25    1    1    2    0    0 -0.15883020645E+03  0.81087100140E+02 -0.88568882642E+02  0.23509912646E+03  0.12500000000E+03 0.  0.
</event>
<event>
 5    0  0.5822326E-005  0.3773725E+03  0.7546771E-02  0.1051909E+00
         21   -1    0    0  502  501  0.00000000000E+00  0.00000000000E+00  0.85339037493E+03  0.85339037493E+03  0.00000000000E+00 0.  1.
         21   -1    0    0  501  502 -0.00000000000E+00 -0.00000000000E+00 -0.16687554253E+03  0.16687554253E+03  0.00000000000E+00 0.  1.
         25    1    1    2    0    0 -0.23490925056E+03 -0.18660640867E+03  0.43668025772E+03  0.54435186712E+03  0.12500000000E+03 0.  0.
         25    1    1    2    0    0  0.64792762475E+02  0.36787082639E+02  0.10324591101E+03  0.17842676273E+03  0.12500000000E+03 0.  0.
         25    1    1    2    0    0  0.17011648809E+03  0.14981932603E+03  0.14658866367E+03  0.29748728761E+03  0.12500000000E+03 0.  0.
</event>
<event>
 5    0  0.5822326E-005  0.2252416E+03  0.7546771E-02  0.1130035E+00
         21   -1    0    0  502  501  0.00000000000E+00  0.00000000000E+00  0.23430849310E+03  0.23430849310E+03  0.00000000000E+00 0.  1.
         21   -1    0    0  501  502 -0.00000000000E+00 -0.00000000000E+00 -0.21652549945E+03  0.21652549945E+03  0.00000000000E+00 0.  1.
         25    1    1    2    0    0  0.53333946808E+02 -0.33212603743E+02 -0.24464821264E+02  0.14202504853E+03  0.12500000000E+03 0.  0.
         25    1    1    2    0    0 -0.59761316162E+02  0.22854685515E+02 -0.54133122134E+02  0.15049633375E+03  0.12500000000E+03 0.  0.
         25    1    1    2    0    0  0.64273693532E+01  0.10357918229E+02  0.96380937050E+02  0.15831261028E+03  0.12500000000E+03 0.  0.
</event>
<event>
 5    0  0.5822326E-005  0.2626809E+03  0.7546771E-02  0.1105543E+00
         21   -1    0    0  502  501  0.00000000000E+00  0.00000000000E+00  0.11452513189E+03  0.11452513189E+03  0.00000000000E+00 0.  1.
         21   -1    0    0  501  502 -0.00000000000E+00 -0.00000000000E+00 -0.60249872044E+03  0.60249872044E+03  0.00000000000E+00 0.  1.
         25    1    1    2    0    0  0.32819751144E+02  0.57583691880E+02 -0.20354255375E+03  0.24788624170E+03  0.12500000000E+03 0.  0.
         25    1    1    2    0    0  0.80205895922E+02  0.56358837206E+02 -0.70085989076E+02  0.17362704322E+03  0.12500000000E+03 0.  0.
         25    1    1    2    0    0 -0.11302564707E+03 -0.11394252909E+03 -0.21434504572E+03  0.29551056741E+03  0.12500000000E+03 0.  0.
</event>
<event>
 5    0  0.5822326E-005  0.2292991E+03  0.7546771E-02  0.1127134E+00
         21   -1    0    0  502  501  0.00000000000E+00  0.00000000000E+00  0.57291420321E+02  0.57291420321E+02  0.00000000000E+00 0. -1.
         21   -1    0    0  501  502 -0.00000000000E+00 -0.00000000000E+00 -0.91772999572E+03  0.91772999572E+03  0.00000000000E+00 0. -1.
         25    1    1    2    0    0  0.27291767058E+02 -0.13827082696E+02 -0.26603782852E+03  0.29552860262E+03  0.12500000000E+03 0.  0.
         25    1    1    2    0    0 -0.11345052588E+03  0.32921935929E+00 -0.23721981119E+03  0.29115179723E+03  0.12500000000E+03 0.  0.
         25    1    1    2    0    0  0.86158758820E+02  0.13497863336E+02 -0.35718093569E+03  0.38834101619E+03  0.12500000000E+03 0.  0.
</event>
<event>
 5    0  0.5822326E-005  0.2549837E+03  0.7546771E-02  0.1110195E+00
         21   -1    0    0  502  501  0.00000000000E+00  0.00000000000E+00  0.32737485161E+03  0.32737485161E+03  0.00000000000E+00 0.  1.
         21   -1    0    0  501  502 -0.00000000000E+00 -0.00000000000E+00 -0.19860019489E+03  0.19860019489E+03  0.00000000000E+00 0.  1.
         25    1    1    2    0    0  0.73218503449E+02 -0.11356926510E+02  0.72848516334E+02  0.16254794788E+03  0.12500000000E+03 0.  0.
         25    1    1    2    0    0 -0.58526716646E+02  0.64905053493E+02  0.13649776283E+03  0.20468190391E+03  0.12500000000E+03 0.  0.
         25    1    1    2    0    0 -0.14691786803E+02 -0.53548126983E+02 -0.80571622438E+02  0.15874519471E+03  0.12500000000E+03 0.  0.
</event>
<event>
 5    0  0.5822326E-005  0.3107616E+03  0.7546771E-02  0.1079981E+00
         21   -1    0    0  502  501  0.00000000000E+00  0.00000000000E+00  0.24149006783E+04  0.24149006783E+04  0.00000000000E+00 0.  1.
         21   -1    0    0  501  502 -0.00000000000E+00 -0.00000000000E+00 -0.39990377661E+02  0.39990377661E+02  0.00000000000E+00 0.  1.
         25    1    1    2    0    0 -0.67050718044E+02  0.53020141535E+02  0.16292811838E+04  0.16363034896E+04  0.12500000000E+03 0.  0.
         25    1    1    2    0    0  0.72397394241E+02 -0.12670773965E+03  0.44593321665E+03  0.48556942623E+03  0.12500000000E+03 0.  0.
         25    1    1    2    0    0 -0.53466761969E+01  0.73687598117E+02  0.29969590019E+03  0.33301814013E+03  0.12500000000E+03 0.  0.
</event>
<event>
 5    0  0.5822326E-005  0.2866481E+03  0.7546771E-02  0.1092112E+00
         21   -1    0    0  502  501  0.00000000000E+00  0.00000000000E+00  0.24852601816E+03  0.24852601816E+03  0.00000000000E+00 0. -1.
         21   -1    0    0  501  502 -0.00000000000E+00 -0.00000000000E+00 -0.33061772450E+03  0.33061772450E+03  0.00000000000E+00 0. -1.
         25    1    1    2    0    0 -0.10007867147E+02  0.35743540984E+01  0.77454751436E+02  0.14743531440E+03  0.12500000000E+03 0.  0.
         25    1    1    2    0    0  0.23592464288E+02  0.10913544874E+03 -0.19709605300E+03  0.25872573249E+03  0.12500000000E+03 0.  0.
         25    1    1    2    0    0 -0.13584597141E+02 -0.11270980284E+03  0.37549595231E+02  0.17298269577E+03  0.12500000000E+03 0.  0.
</event>
<event>
 5    0  0.5822326E-005  0.5150841E+03  0.7546771E-02  0.1009915E+00
         21   -1    0    0  502  501  0.00000000000E+00  0.00000000000E+00  0.53005690299E+03  0.53005690299E+03  0.00000000000E+00 0.  1.
         21   -1    0    0  501  502 -0.00000000000E+00 -0.00000000000E+00 -0.50053433325E+03  0.50053433325E+03  0.00000000000E+00 0.  1.
         25    1    1    2    0    0 -0.81356697670E+02  0.94185007216E+02 -0.21269226301E+03  0.27631997138E+03  0.12500000000E+03 0.  0.
         25    1    1    2    0    0  0.12462549147E+02 -0.34345879506E+03 -0.18740833465E+02  0.36619049397E+03  0.12500000000E+03 0.  0.
         25    1    1    2    0    0  0.68894148522E+02  0.24927378784E+03  0.26095566622E+03  0.38808077089E+03  0.12500000000E+03 0.  0.
</event>
<event>
 5    0  0.5822326E-005  0.2140721E+03  0.7546771E-02  0.1138381E+00
         21   -1    0    0  502  501  0.00000000000E+00  0.00000000000E+00  0.12458733956E+04  0.12458733956E+04  0.00000000000E+00 0. -1.
         21   -1    0    0  501  502 -0.00000000000E+00 -0.00000000000E+00 -0.36782926986E+02  0.36782926986E+02  0.00000000000E+00 0. -1.
         25    1    1    2    0    0  0.70585583762E+02 -0.18352610423E+02  0.37317088468E+03  0.40025073656E+03  0.12500000000E+03 0.  0.
         25    1    1    2    0    0  0.43946099700E+01  0.94047092262E+01  0.26626327540E+03  0.29432786647E+03  0.12500000000E+03 0.  0.
         25    1    1    2    0    0 -0.74980193732E+02  0.89479011966E+01  0.56965630850E+03  0.58807771952E+03  0.12500000000E+03 0.  0.
</event>
<event>
 5    0  0.5822326E-005  0.2336329E+03  0.7546771E-02  0.1124109E+00
         21   -1    0    0  502  501  0.00000000000E+00  0.00000000000E+00  0.47225506448E+03  0.47225506448E+03  0.00000000000E+00 0. -1.
         21   -1    0    0  501  502 -0.00000000000E+00 -0.00000000000E+00 -0.11558231309E+03  0.11558231309E+03  0.00000000000E+00 0. -1.
         25    1    1    2    0    0  0.51887459666E+02  0.80215352905E+00  0.10812548561E+03  0.17323126900E+03  0.12500000000E+03 0.  0.
         25    1    1    2    0    0  0.71113619247E+02 -0.34143479879E+01  0.56575622737E+02  0.15457880095E+03  0.12500000000E+03 0.  0.
         25    1    1    2    0    0 -0.12300107891E+03  0.26121944589E+01  0.19197164304E+03  0.26002730761E+03  0.12500000000E+03 0.  0.
</event>
<event>
 5    0  0.5822326E-005  0.7415653E+03  0.7546771E-02  0.9648677E-01
         21   -1    0    0  502  501  0.00000000000E+00  0.00000000000E+00  0.33642655683E+04  0.33642655683E+04  0.00000000000E+00 0.  1.
         21   -1    0    0  501  502 -0.00000000000E+00 -0.00000000000E+00 -0.16345886872E+03  0.16345886872E+03  0.00000000000E+00 0.  1.
         25    1    1    2    0    0  0.15605809402E+02 -0.71440610243E+00  0.20529525637E+04  0.20568138663E+04  0.12500000000E+03 0.  0.
         25    1    1    2    0    0  0.24675589635E+03 -0.31542906015E+03  0.28523450219E+03  0.50731418826E+03  0.12500000000E+03 0.  0.
         25    1    1    2    0    0 -0.26236170575E+03  0.31614346626E+03  0.86261963365E+03  0.96359638244E+03  0.12500000000E+03 0.  0.
</event>
<event>
 5    0  0.6165290E-005  0.3999836E+03  0.7546771E-02  0.1043785E+00
         21   -1    0    0  502  501  0.00000000000E+00  0.00000000000E+00  0.40557463860E+03  0.40557463860E+03  0.00000000000E+00 0. -1.
         21   -1    0    0  501  502 -0.00000000000E+00 -0.00000000000E+00 -0.39446961338E+03  0.39446961338E+03  0.00000000000E+00 0. -1.
         25    1    1    2    0    0 -0.15568208559E+03 -0.13690089128E+03  0.19357661414E+00  0.24208222421E+03  0.12500000000E+03 0.  0.
         25    1    1    2    0    0  0.15801240893E+03  0.44560403834E+02  0.21725557258E+03  0.29963066396E+03  0.12500000000E+03 0.  0.
         25    1    1    2    0    0 -0.23303233421E+01  0.92340487445E+02 -0.20634412398E+03  0.25833136381E+03  0.12500000000E+03 0.  0.
</event>
<event>
 5    0  0.5822326E-005  0.2790763E+03  0.7546771E-02  0.1096195E+00
         21   -1    0    0  502  501  0.00000000000E+00  0.00000000000E+00  0.59989984489E+03  0.59989984489E+03  0.00000000000E+00 0.  1.
         21   -1    0    0  501  502 -0.00000000000E+00 -0.00000000000E+00 -0.12982763488E+03  0.12982763488E+03  0.00000000000E+00 0.  1.
         25    1    1    2    0    0 -0.16512782691E+03 -0.36585283067E+01  0.10960656976E+03  0.23434842475E+03  0.12500000000E+03 0.  0.
         25    1    1    2    0    0  0.11854241673E+03  0.43656623245E+02  0.11059525887E+03  0.20931917399E+03  0.12500000000E+03 0.  0.
         25    1    1    2    0    0  0.46585410176E+02 -0.39998094938E+02  0.24987038138E+03  0.28605988102E+03  0.12500000000E+03 0.  0.
</event>
<event>
 5    0  0.5822326E-005  0.3151474E+03  0.7546771E-02  0.1077905E+00
         21   -1    0    0  502  501  0.00000000000E+00  0.00000000000E+00  0.74653342846E+02  0.74653342846E+02  0.00000000000E+00 0. -1.
         21   -1    0    0  501  502 -0.00000000000E+00 -0.00000000000E+00 -0.13303879924E+04  0.13303879924E+04  0.00000000000E+00 0. -1.
         25    1    1    2    0    0  0.82540205991E+02  0.20311677124E+02 -0.28935154936E+03  0.32645791298E+03  0.12500000000E+03 0.  0.
         25    1    1    2    0    0 -0.21067904482E+03  0.33867016135E+02 -0.31270497435E+03  0.39867535125E+03  0.12500000000E+03 0.  0.
         25    1    1    2    0    0  0.12813883883E+03 -0.54178693259E+02 -0.65367812580E+03  0.67990807097E+03  0.12500000000E+03 0.  0.
</event>
<event>
 5    0  0.5822326E-005  0.3513800E+03  0.7546771E-02  0.1062050E+00
         21   -1    0    0  502  501  0.00000000000E+00  0.00000000000E+00  0.12169450423E+03  0.12169450423E+03  0.00000000000E+00 0.  1.
         21   -1    0    0  501  502 -0.00000000000E+00 -0.00000000000E+00 -0.10145727098E+04  0.10145727098E+04  0.00000000000E+00 0.  1.
         25    1    1    2    0    0 -0.59044589470E+02  0.86417720799E+02 -0.10820352608E+02  0.16339022628E+03  0.12500000000E+03 0.  0.
         25    1    1    2    0    0  0.10529455642E+03 -0.14710141890E+03 -0.72729618353E+03  0.75980952194E+03  0.12500000000E+03 0.  0.
         25    1    1    2    0    0 -0.46249966946E+02  0.60683698106E+02 -0.15476166942E+03  0.21306746579E+03  0.12500000000E+03 0.  0.
</event>
<event>
 5    0  0.5822326E-005  0.2621062E+03  0.7546771E-02  0.1105884E+00
         21   -1    0    0  502  501  0.00000000000E+00  0.00000000000E+00  0.31015234451E+03  0.31015234451E+03  0.00000000000E+00 0. -1.
         21   -1    0    0  501  502 -0.00000000000E+00 -0.00000000000E+00 -0.22150286948E+03  0.22150286948E+03  0.00000000000E+00 0.  1.
         25    1    1    2    0    0 -0.72858902185E+02  0.99579842879E+02 -0.79040865587E+01  0.17581819963E+03  0.12500000000E+03 0.  0.
         25    1    1    2    0    0  0.33989153885E+02 -0.13757486142E+03  0.11036548525E+03  0.21883245969E+03  0.12500000000E+03 0.  0.
         25    1    1    2    0    0  0.38869748300E+02  0.37995018542E+02 -0.13811923672E+02  0.13700455468E+03  0.12500000000E+03 0.  0.
</event>
<event>
 5    0  0.5822326E-005  0.4034903E+03  0.7546771E-02  0.1042578E+00
         21   -1    0    0  502  501  0.00000000000E+00  0.00000000000E+00  0.24180664259E+03  0.24180664259E+03  0.00000000000E+00 0. -1.
         21   -1    0    0  501  502 -0.00000000000E+00 -0.00000000000E+00 -0.67328358418E+03  0.67328358418E+03  0.00000000000E+00 0. -1.
         25    1    1    2    0    0  0.40762828936E+02  0.31848105408E+03 -0.10893643382E+03  0.36136399467E+03  0.12500000000E+03 0.  0.
         25    1    1    2    0    0  0.81481365484E+01 -0.25772015531E+03 -0.13935591908E+03  0.31863951852E+03  0.12500000000E+03 0.  0.
         25    1    1    2    0    0 -0.48910965484E+02 -0.60760898771E+02 -0.18318458870E+03  0.23508671358E+03  0.12500000000E+03 0.  0.
</event>
<event>
 5    0  0.5822326E-005  0.2050691E+03  0.7546771E-02  0.1145531E+00
         21   -1    0    0  502  501  0.00000000000E+00  0.00000000000E+00  0.10259217447E+03  0.10259217447E+03  0.00000000000E+00 0.  1.
         21   -1    0    0  501  502 -0.00000000000E+00 -0.00000000000E+00 -0.40990798693E+03  0.40990798693E+03  0.00000000000E+00 0.  1.
         25    1    1    2    0    0 -0.12709537396E+01 -0.18647188537E+02 -0.90562559120E+02  0.15548604464E+03  0.12500000000E+03 0.  0.
         25    1    1    2    0    0 -0.44792022361E+02 -0.32658007714E+01 -0.16642712126E+03  0.21293186096E+03  0.12500000000E+03 0.  0.
         25    1    1    2    0    0  0.46062976101E+02  0.21912989309E+02 -0.50326132081E+02  0.14408225581E+03  0.12500000000E+03 0.  0.
</event>
<event>
 5    0  0.5822326E-005  0.2339008E+03  0.7546771E-02  0.1123924E+00
         21   -1    0    0  502  501  0.00000000000E+00  0.00000000000E+00  0.39729903871E+03  0.39729903871E+03  0.00000000000E+00 0.  1.
         21   -1    0    0  501  502 -0.00000000000E+00 -0.00000000000E+00 -0.13770374923E+03  0.13770374923E+03  0.00000000000E+00 0.  1.
         25    1    1    2    0    0  0.18500335941E+02 -0.39033459748E+02  0.12031995734E+03  0.17879531746E+03  0.12500000000E+03 0.  0.
         25    1    1    2    0    0 -0.27158220495E+01  0.49249616880E+02  0.17888938388E+03  0.22373938437E+03  0.12500000000E+03 0.  0.
         25    1    1    2    0    0 -0.15784513891E+02 -0.10216157132E+02 -0.39614051741E+02  0.13246808612E+03  0.12500000000E+03 0.  0.
</event>
<event>
 5    0  0.5822326E-005  0.2964979E+03  0.7546771E-02  0.1087005E+00
         21   -1    0    0  502  501  0.00000000000E+00  0.00000000000E+00  0.67894674520E+03  0.67894674520E+03  0.00000000000E+00 0. -1.
         21   -1    0    0  501  502 -0.00000000000E+00 -0.00000000000E+00 -0.12948141479E+03  0.12948141479E+03  0.00000000000E+00 0. -1.
         25    1    1    2    0    0 -0.92410073027E+02  0.10087212980E+03  0.11638143079E+03  0.21882514846E+03  0.12500000000E+03 0.  0.
         25    1    1    2    0    0 -0.51165150356E+02  0.60329588917E+02  0.19510648557E+03  0.24484499713E+03  0.12500000000E+03 0.  0.
         25    1    1    2    0    0  0.14357522338E+03 -0.16120171872E+03  0.23797741406E+03  0.34475801439E+03  0.12500000000E+03 0.  0.
</event>
<event>
 5    0  0.5822326E-005  0.3073501E+03  0.7546771E-02  0.1081623E+00
         21   -1    0    0  502  501  0.00000000000E+00  0.00000000000E+00  0.84361823839E+03  0.84361823839E+03  0.00000000000E+00 0.  1.
         21   -1    0    0  501  502 -0.00000000000E+00 -0.00000000000E+00 -0.11197492367E+03  0.11197492367E+03  0.00000000000E+00 0.  1.
         25    1    1    2    0    0 -0.99225360767E+02  0.11560742876E+03  0.31249925115E+03  0.36944760356E+03  0.12500000000E+03 0.  0.
         25    1    1    2    0    0  0.11929373237E+03  0.34096515345E+02  0.32273863386E+03  0.36766668699E+03  0.12500000000E+03 0.  0.
         25    1    1    2    0    0 -0.20068371599E+02 -0.14970394411E+03  0.96405429715E+02  0.21847887151E+03  0.12500000000E+03 0.  0.
</event>
<event>
 5    0  0.5822326E-005  0.3090053E+03  0.7546771E-02  0.1080824E+00
         21   -1    0    0  502  501  0.00000000000E+00  0.00000000000E+00  0.11310631737E+04  0.11310631737E+04  0.00000000000E+00 0.  1.
         21   -1    0    0  501  502 -0.00000000000E+00 -0.00000000000E+00 -0.84419904007E+02  0.84419904007E+02  0.00000000000E+00 0.  1.
         25    1    1    2    0    0 -0.48160542929E+01  0.21896464262E+03  0.28794788563E+03  0.38276323483E+03  0.12500000000E+03 0.  0.
         25    1    1    2    0    0  0.19828414262E+02 -0.63162358978E+02  0.35243126525E+03  0.37975708858E+03  0.12500000000E+03 0.  0.
         25    1    1    2    0    0 -0.15012359969E+02 -0.15580228365E+03  0.40626411879E+03  0.45296275427E+03  0.12500000000E+03 0.  0.
</event>
<event>
 5    0  0.6004541E-005  0.4362524E+03  0.7546771E-02  0.1031903E+00
         21   -1    0    0  502  501  0.00000000000E+00  0.00000000000E+00  0.10273735494E+04  0.10273735494E+04  0.00000000000E+00 0.  1.
         21   -1    0    0  501  502 -0.00000000000E+00 -0.00000000000E+00 -0.18524536117E+03  0.18524536117E+03  0.00000000000E+00 0.  1.
         25    1    1    2    0    0  0.10259795139E+03 -0.57962559254E+02 -0.14982273748E+02  0.17243974725E+03  0.12500000000E+03 0.  0.
         25    1    1    2    0    0 -0.24858753033E+03 -0.11498598070E+03  0.29523717786E+03  0.42167229834E+03  0.12500000000E+03 0.  0.
         25    1    1    2    0    0  0.14598957895E+03  0.17294853995E+03  0.56187328408E+03  0.61850686495E+03  0.12500000000E+03 0.  0.
</event>
<event>
 5    0  0.5822326E-005  0.3132711E+03  0.7546771E-02  0.1078788E+00
         21   -1    0    0  502  501  0.00000000000E+00  0.00000000000E+00  0.20666861551E+04  0.20666861551E+04  0.00000000000E+00 0. -1.
         21   -1    0    0  501  502 -0.00000000000E+00 -0.00000000000E+00 -0.47486050464E+02  0.47486050464E+02  0.00000000000E+00 0. -1.
         25    1    1    2    0    0 -0.13668184400E+03 -0.18595452369E+03  0.65505933843E+03  0.70568317836E+03  0.12500000000E+03 0.  0.
         25    1    1    2    0    0  0.74612567851E+02  0.75757394784E+02  0.50002731238E+03  0.52626849732E+03  0.12500000000E+03 0.  0.
         25    1    1    2    0    0  0.62069276145E+02  0.11019712891E+03  0.86411345387E+03  0.88222052992E+03  0.12500000000E+03 0.  0.
</event>
<event>
 5    0  0.5822326E-005  0.2298865E+03  0.7546771E-02  0.1126720E+00
         21   -1    0    0  502  501  0.00000000000E+00  0.00000000000E+00  0.24991253876E+03  0.24991253876E+03  0.00000000000E+00 0. -1.
         21   -1    0    0  501  502 -0.00000000000E+00 -0.00000000000E+00 -0.21146524204E+03  0.21146524204E+03  0.00000000000E+00 0. -1.
         25    1    1    2    0    0 -0.33521682770E+02  0.97956373857E+01 -0.29213499393E+02  0.13303415454E+03  0.12500000000E+03 0.  0.
         25    1    1    2    0    0  0.11057343206E+03 -0.27783659317E+02  0.62359057782E+02  0.18031103042E+03  0.12500000000E+03 0.  0.
         25    1    1    2    0    0 -0.77051749290E+02  0.17988021931E+02  0.53017383313E+01  0.14803259584E+03  0.12500000000E+03 0.  0.
</event>
<event>
 5    0  0.5822326E-005  0.2762497E+03  0.7546771E-02  0.1097755E+00
         21   -1    0    0  502  501  0.00000000000E+00  0.00000000000E+00  0.93596432826E+02  0.93596432826E+02  0.00000000000E+00 0. -1.
         21   -1    0    0  501  502 -0.00000000000E+00 -0.00000000000E+00 -0.81535047706E+03  0.81535047706E+03  0.00000000000E+00 0. -1.
         25    1    1    2    0    0  0.13732272047E+03 -0.11594637136E+02 -0.16389886518E+03  0.24795121128E+03  0.12500000000E+03 0.  0.
         25    1    1    2    0    0 -0.99932574447E+02 -0.66063577088E+02 -0.42622379865E+03  0.46004634787E+03  0.12500000000E+03 0.  0.
         25    1    1    2    0    0 -0.37390146018E+02  0.77658214224E+02 -0.13163138041E+03  0.20094935074E+03  0.12500000000E+03 0.  0.
</event>
<event>
 5    0  0.5822326E-005  0.2372257E+03  0.7546771E-02  0.1121655E+00
         21   -1    0    0  502  501  0.00000000000E+00  0.00000000000E+00  0.12547770963E+03  0.12547770963E+03  0.00000000000E+00 0.  1.
         21   -1    0    0  501  502 -0.00000000000E+00 -0.00000000000E+00 -0.44849413054E+03  0.44849413054E+03  0.00000000000E+00 0.  1.
         25    1    1    2    0    0 -0.25757902995E+02  0.54896551470E+02 -0.37151232358E+02  0.14381347293E+03  0.12500000000E+03 0.  0.
         25    1    1    2    0    0 -0.65300023922E+02 -0.57520382168E+02 -0.78167011300E+02  0.17119512010E+03  0.12500000000E+03 0.  0.
         25    1    1    2    0    0  0.91057926917E+02  0.26238306979E+01 -0.20769817725E+03  0.25896324715E+03  0.12500000000E+03 0.  0.
</event>
<event>
 5    0  0.5822326E-005  0.5409067E+03  0.7546771E-02  0.1003621E+00
         21   -1    0    0  502  501  0.00000000000E+00  0.00000000000E+00  0.26174904223E+03  0.26174904223E+03  0.00000000000E+00 0.  1.
         21   -1    0    0  501  502 -0.00000000000E+00 -0.00000000000E+00 -0.11177885269E+04  0.11177885269E+04  0.00000000000E+00 0.  1.
         25    1    1    2    0    0  0.12253297340E+03  0.16474205368E+03 -0.18675823828E+03  0.30439762382E+03  0.12500000000E+03 0.  0.
         25    1    1    2    0    0 -0.34602860439E+03  0.11312393607E+03 -0.56409110493E+03  0.68290306386E+03  0.12500000000E+03 0.  0.
         25    1    1    2    0    0  0.22349563099E+03 -0.27786598975E+03 -0.10519014150E+03  0.39223688149E+03  0.12500000000E+03 0.  0.
</event>
<event>
 5    0  0.5822326E-005  0.2506083E+03  0.7546771E-02  0.1112921E+00
         21   -1    0    0  502  501  0.00000000000E+00  0.00000000000E+00  0.59959579370E+03  0.59959579370E+03  0.00000000000E+00 0. -1.
         21   -1    0    0  501  502 -0.00000000000E+00 -0.00000000000E+00 -0.10474474997E+03  0.10474474997E+03  0.00000000000E+00 0. -1.
         25    1    1    2    0    0 -0.66378782546E+02 -0.10314592304E+02  0.57683236346E+02  0.15318253602E+03  0.12500000000E+03 0.  0.
         25    1    1    2    0    0  0.99235733788E+02 -0.43634742012E+02  0.11984582866E+03  0.20430306953E+03  0.12500000000E+03 0.  0.
         25    1    1    2    0    0 -0.32856951242E+02  0.53949334316E+02  0.31732197873E+03  0.34685493812E+03  0.12500000000E+03 0.  0.
</event>
<event>
 5    0  0.6094636E-005  0.3550711E+03  0.7546771E-02  0.1060553E+00
         21   -1    0    0  502  501  0.00000000000E+00  0.00000000000E+00  0.79756974883E+03  0.79756974883E+03  0.00000000000E+00 0.  1.
         21   -1    0    0  501  502 -0.00000000000E+00 -0.00000000000E+00 -0.15807455273E+03  0.15807455273E+03  0.00000000000E+00 0.  1.
         25    1    1    2    0    0 -0.24417698349E+03  0.20284832571E+02  0.39057094750E+03  0.47770758706E+03  0.12500000000E+03 0.  0.
         25    1    1    2    0    0  0.12979177830E+03 -0.84778827341E+02  0.21578723092E+03  0.29363665355E+03  0.12500000000E+03 0.  0.
         25    1    1    2    0    0  0.11438520519E+03  0.64493994770E+02  0.33137017689E+02  0.18430006096E+03  0.12500000000E+03 0.  0.
</event>
<event>
 5    0  0.5822326E-005  0.2946284E+03  0.7546771E-02  0.1087957E+00
         21   -1    0    0  502  501  0.00000000000E+00  0.00000000000E+00  0.31567583680E+02  0.31567583680E+02  0.00000000000E+00 0.  1.
         21   -1    0    0  501  502 -0.00000000000E+00 -0.00000000000E+00 -0.27498421500E+04  0.27498421500E+04  0.00000000000E+00 0.  1.
         25    1    1    2    0    0  0.26317390316E+02 -0.10194357801E+03 -0.75539958353E+03  0.77287685237E+03  0.12500000000E+03 0.  0.
         25    1    1    2    0    0 -0.23897890455E+02  0.21848322974E+03 -0.10724869726E+04  0.11018889859E+04  0.12500000000E+03 0.  0.
         25    1    1    2    0    0 -0.24194998611E+01 -0.11653965173E+03 -0.89038801020E+03  0.90664389542E+03  0.12500000000E+03 0.  0.
</event>
<event>
 5    0  0.5822326E-005  0.3229726E+03  0.7546771E-02  0.1074289E+00
         21   -1    0    0  502  501  0.00000000000E+00  0.00000000000E+00  0.79541700870E+03  0.79541700870E+03  0.00000000000E+00 0. -1.
         21   -1    0    0  501  502 -0.00000000000E+00 -0.00000000000E+00 -0.13114042438E+03  0.13114042438E+03  0.00000000000E+00 0. -1.
         25    1    1    2    0    0  0.84276640916E+02  0.18728238887E+03  0.16786412948E+03  0.29322450673E+03  0.12500000000E+03 0.  0.
         25    1    1    2    0    0 -0.15247963112E+03 -0.14346949766E+03  0.29289244114E+03  0.38110958626E+03  0.12500000000E+03 0.  0.
         25    1    1    2    0    0  0.68202990200E+02 -0.43812891204E+02  0.20352001371E+03  0.25222334010E+03  0.12500000000E+03 0.  0.
</event>
<event>
 5    0  0.5822326E-005  0.3355315E+03  0.7546771E-02  0.1068715E+00
         21   -1    0    0  502  501  0.00000000000E+00  0.00000000000E+00  0.19756144122E+03  0.19756144122E+03  0.00000000000E+00 0. -1.
         21   -1    0    0  501  502 -0.00000000000E+00 -0.00000000000E+00 -0.56985498025E+03  0.56985498025E+03  0.00000000000E+00 0. -1.
         25    1    1    2    0    0 -0.70399875327E+02 -0.70967065608E+02 -0.19085698225E+03  0.24908603839E+03  0.12500000000E+03 0.  0.
         25    1    1    2    0    0 -0.80767248258E+01 -0.14782664356E+03 -0.16397550691E+03  0.25383245832E+03  0.12500000000E+03 0.  0.
         25    1    1    2    0    0  0.78476600153E+02  0.21879370916E+03 -0.17461049866E+02  0.26449792476E+03  0.12500000000E+03 0.  0.
</event>
<event>
 5    0  0.8827717E-005  0.7095642E+03  0.7546771E-02  0.9701014E-01
         21   -1    0    0  502  501  0.00000000000E+00  0.00000000000E+00  0.67076864717E+03  0.67076864717E+03  0.00000000000E+00 0.  1.
         21   -1    0    0  501  502 -0.00000000000E+00 -0.00000000000E+00 -0.75060361274E+03  0.75060361274E+03  0.00000000000E+00 0.  1.
         25    1    1    2    0    0 -0.14507744328E+03  0.43956956044E+03  0.20632336027E+03  0.52198006859E+03  0.12500000000E+03 0.  0.
         25    1    1    2    0    0  0.23581771598E+03 -0.86138763466E+02 -0.40782289283E+03  0.49494887984E+03  0.12500000000E+03 0.  0.
         25    1    1    2    0    0 -0.90740272695E+02 -0.35343079698E+03  0.12166456699E+03  0.40444331148E+03  0.12500000000E+03 0.  0.
</event>
<event>
 5    0  0.5822326E-005  0.3364482E+03  0.7546771E-02  0.1068319E+00
         21   -1    0    0  502  501  0.00000000000E+00  0.00000000000E+00  0.15363868318E+04  0.15363868318E+04  0.00000000000E+00 0. -1.
         21   -1    0    0  501  502 -0.00000000000E+00 -0.00000000000E+00 -0.73677653206E+02  0.73677653206E+02  0.00000000000E+00 0. -1.
         25    1    1    2    0    0  0.15965876708E+03 -0.39889556315E+02  0.11057115570E+04  0.11248578336E+04  0.12500000000E+03 0.  0.
         25    1    1    2    0    0 -0.36065705193E+02 -0.38575144025E+02  0.15948329965E+03  0.20940081111E+03  0.12500000000E+03 0.  0.
         25    1    1    2    0    0 -0.12359306189E+03  0.78464700341E+02  0.19751432195E+03  0.27580584026E+03  0.12500000000E+03 0.  0.
</event>
<event>
 5    0  0.6655460E-005  0.3193913E+03  0.7546771E-02  0.1075930E+00
         21   -1    0    0  502  501  0.00000000000E+00  0.00000000000E+00  0.11786487777E+03  0.11786487777E+03  0.00000000000E+00 0.  1.
         21   -1    0    0  501  502 -0.00000000000E+00 -0.00000000000E+00 -0.86548932535E+03  0.86548932535E+03  0.00000000000E+00 0.  1.
         25    1    1    2    0    0 -0.36968242941E+02 -0.45387930538E+01 -0.16919269812E+02  0.13152381275E+03  0.12500000000E+03 0.  0.
         25    1    1    2    0    0  0.84782590444E+02 -0.14943901109E+03 -0.50337810813E+03  0.54638322213E+03  0.12500000000E+03 0.  0.
         25    1    1    2    0    0 -0.47814347503E+02  0.15397780414E+03 -0.22732706965E+03  0.30544716825E+03  0.12500000000E+03 0.  0.
</event>
<event>
 5    0  0.5822326E-005  0.2680446E+03  0.7546771E-02  0.1102404E+00
         21   -1    0    0  502  501  0.00000000000E+00  0.00000000000E+00  0.14856361336E+03  0.14856361336E+03  0.00000000000E+00 0.  1.
         21   -1    0    0  501  502 -0.00000000000E+00 -0.00000000000E+00 -0.48361723874E+03  0.48361723874E+03  0.00000000000E+00 0.  1.
         25    1    1    2    0    0 -0.11868759280E+03  0.48853181797E+02 -0.98519641014E+01  0.17943087597E+03  0.12500000000E+03 0.  0.
         25    1    1    2    0    0  0.19323419425E+02  0.12641797769E+02 -0.68927571460E+02  0.14460020642E+03  0.12500000000E+03 0.  0.
         25    1    1    2    0    0  0.99364173375E+02 -0.61494979565E+02 -0.25627408981E+03  0.30814976971E+03  0.12500000000E+03 0.  0.
</event>
<event>
 5    0  0.5822326E-005  0.4199334E+03  0.7546771E-02  0.1037088E+00
         21   -1    0    0  502  501  0.00000000000E+00  0.00000000000E+00  0.61560236062E+03  0.61560236062E+03  0.00000000000E+00 0.  1.
         21   -1    0    0  501  502 -0.00000000000E+00 -0.00000000000E+00 -0.28645780388E+03  0.28645780388E+03  0.00000000000E+00 0.  1.
         25    1    1    2    0    0  0.10559157116E+03  0.22854640345E+03 -0.11205301247E+03  0.30259530075E+03  0.12500000000E+03 0.  0.
         25    1    1    2    0    0 -0.78753023182E+02 -0.22711272165E+03  0.34904585505E+03  0.44185997321E+03  0.12500000000E+03 0.  0.
         25    1    1    2    0    0 -0.26838547978E+02 -0.14336818010E+01  0.92151714153E+02  0.15760489054E+03  0.12500000000E+03 0.  0.
</event>
<event>
 5    0  0.5822326E-005  0.1201719E+04  0.7546771E-02  0.9111353E-01
         21   -1    0    0  502  501  0.00000000000E+00  0.00000000000E+00  0.86868154385E+03  0.86868154385E+03  0.00000000000E+00 0. -1.
         21   -1    0    0  501  502 -0.00000000000E+00 -0.00000000000E+00 -0.16624384535E+04  0.16624384535E+04  0.00000000000E+00 0. -1.
         25    1    1    2    0    0 -0.59735457051E+02 -0.49081103923E+03 -0.11665727253E+04  0.12731774128E+04  0.12500000000E+03 0.  0.
         25    1    1    2    0    0  0.13214418280E+03  0.70259368065E+03  0.57942793255E+03  0.92868815765E+03  0.12500000000E+03 0.  0.
         25    1    1    2    0    0 -0.72408725745E+02 -0.21178264142E+03 -0.20661211685E+03  0.32925442684E+03  0.12500000000E+03 0.  0.
</event>
<event>
 5    0  0.5822326E-005  0.4637286E+03  0.7546771E-02  0.1023705E+00
         21   -1    0    0  502  501  0.00000000000E+00  0.00000000000E+00  0.34689351170E+03  0.34689351170E+03  0.00000000000E+00 0. -1.
         21   -1    0    0  501  502 -0.00000000000E+00 -0.00000000000E+00 -0.61991408500E+03  0.61991408500E+03  0.00000000000E+00 0. -1.
         25    1    1    2    0    0 -0.25974778254E+03 -0.22813397144E+03 -0.82804321010E+01  0.36770584033E+03  0.12500000000E+03 0.  0.
         25    1    1    2    0    0  0.15348077912E+03  0.25509705417E+03 -0.28618198707E+03  0.43145797748E+03  0.12500000000E+03 0.  0.
         25    1    1    2    0    0  0.10626700342E+03 -0.26963082732E+02  0.21441845876E+02  0.16764377889E+03  0.12500000000E+03 0.  0.
</event>
<event>
 5    0  0.5822326E-005  0.3034826E+03  0.7546771E-02  0.1083513E+00
         21   -1    0    0  502  501  0.00000000000E+00  0.00000000000E+00  0.33015199936E+03  0.33015199936E+03  0.00000000000E+00 0. -1.
         21   -1    0    0  501  502 -0.00000000000E+00 -0.00000000000E+00 -0.27896756026E+03  0.27896756026E+03  0.00000000000E+00 0. -1.
         25    1    1    2    0    0  0.15322946531E+03 -0.12626337695E+03  0.68820592730E+01  0.23472126478E+03  0.12500000000E+03 0.  0.
         25    1    1    2    0    0 -0.16911431956E+03  0.62685476320E+02  0.71239089856E+02  0.23071439042E+03  0.12500000000E+03 0.  0.
         25    1    1    2    0    0  0.15884854250E+02  0.63577900630E+02 -0.26936710033E+02  0.14368390442E+03  0.12500000000E+03 0.  0.
</event>
<event>
 5    0  0.5822326E-005  0.3368491E+03  0.7546771E-02  0.1068146E+00
         21   -1    0    0  502  501  0.00000000000E+00  0.00000000000E+00  0.32550851759E+03  0.32550851759E+03  0.00000000000E+00 0. -1.
         21   -1    0    0  501  502 -0.00000000000E+00 -0.00000000000E+00 -0.34858470246E+03  0.34858470246E+03  0.00000000000E+00 0. -1.
         25    1    1    2    0    0  0.10808706491E+02 -0.28813185087E+02 -0.10918104968E+03  0.16879730265E+03  0.12500000000E+03 0.  0.
         25    1    1    2    0    0  0.10613237482E+03 -0.15437517124E+03  0.11508066457E+03  0.25291171155E+03  0.12500000000E+03 0.  0.
         25    1    1    2    0    0 -0.11694108131E+03  0.18318835633E+03 -0.28975799754E+02  0.25238420585E+03  0.12500000000E+03 0.  0.
</event>
<event>
 5    0  0.5822326E-005  0.3396471E+03  0.7546771E-02  0.1066946E+00
         21   -1    0    0  502  501  0.00000000000E+00  0.00000000000E+00  0.14427425457E+04  0.14427425457E+04  0.00000000000E+00 0. -1.
         21   -1    0    0  501  502 -0.00000000000E+00 -0.00000000000E+00 -0.79958915574E+02  0.79958915574E+02  0.00000000000E+00 0. -1.
         25    1    1    2    0    0  0.17624819280E+02  0.82878856470E+02  0.39382847219E+03  0.42178834101E+03  0.12500000000E+03 0.  0.
         25    1    1    2    0    0 -0.46204976379E+02 -0.24949524073E+03  0.72860726297E+03  0.78158577177E+03  0.12500000000E+03 0.  0.
         25    1    1    2    0    0  0.28580157098E+02  0.16661638426E+03  0.24034789501E+03  0.31932734853E+03  0.12500000000E+03 0.  0.
</event>
<event>
 5    0  0.5822326E-005  0.3076829E+03  0.7546771E-02  0.1081462E+00
         21   -1    0    0  502  501  0.00000000000E+00  0.00000000000E+00  0.14269135666E+03  0.14269135666E+03  0.00000000000E+00 0.  1.
         21   -1    0    0  501  502 -0.00000000000E+00 -0.00000000000E+00 -0.66345123893E+03  0.66345123893E+03  0.00000000000E+00 0.  1.
         25    1    1    2    0    0 -0.13267494469E+03  0.56050779513E+02 -0.36816144714E+03  0.41462293954E+03  0.12500000000E+03 0.  0.
         25    1    1    2    0    0  0.17063600968E+03  0.14331947445E+02 -0.84029873377E+02  0.22805278366E+03  0.12500000000E+03 0.  0.
         25    1    1    2    0    0 -0.37961064987E+02 -0.70382726958E+02 -0.68568561752E+02  0.16346687239E+03  0.12500000000E+03 0.  0.
</event>
<event>
 5    0  0.5822326E-005  0.4001155E+03  0.7546771E-02  0.1043740E+00
         21   -1    0    0  502  501  0.00000000000E+00  0.00000000000E+00  0.36720279051E+03  0.36720279051E+03  0.00000000000E+00 0. -1.
         21   -1    0    0  501  502 -0.00000000000E+00 -0.00000000000E+00 -0.43597826221E+03  0.43597826221E+03  0.00000000000E+00 0. -1.
         25    1    1    2    0    0 -0.34242945466E+02  0.25568174532E+03 -0.33623155052E+02  0.28861956060E+03  0.12500000000E+03 0.  0.
         25    1    1    2    0    0 -0.96886989533E+02 -0.23366973539E+03  0.86636076853E+02  0.29516003081E+03  0.12500000000E+03 0.  0.
         25    1    1    2    0    0  0.13112993500E+03 -0.22012009932E+02 -0.12178839350E+03  0.21940146131E+03  0.12500000000E+03 0.  0.
</event>
<event>
 5    0  0.5822326E-005  0.2944255E+03  0.7546771E-02  0.1088061E+00
         21   -1    0    0  502  501  0.00000000000E+00  0.00000000000E+00  0.13789856032E+03  0.13789856032E+03  0.00000000000E+00 0.  1.
         21   -1    0    0  501  502 -0.00000000000E+00 -0.00000000000E+00 -0.62862420069E+03  0.62862420069E+03  0.00000000000E+00 0.  1.
         25    1    1    2    0    0  0.90786894355E+01  0.19556132467E+03 -0.13062903714E+03  0.26648752251E+03  0.12500000000E+03 0.  0.
         25    1    1    2    0    0  0.27714874640E+02 -0.22466840157E+02 -0.12524258124E+03  0.18050921677E+03  0.12500000000E+03 0.  0.
         25    1    1    2    0    0 -0.36793564075E+02 -0.17309448451E+03 -0.23485402198E+03  0.31952602173E+03  0.12500000000E+03 0.  0.
</event>
<event>
 5    0  0.5822326E-005  0.2359396E+03  0.7546771E-02  0.1122528E+00
         21   -1    0    0  502  501  0.00000000000E+00  0.00000000000E+00  0.15356540084E+03  0.15356540084E+03  0.00000000000E+00 0.  1.
         21   -1    0    0  501  502 -0.00000000000E+00 -0.00000000000E+00 -0.36250037242E+03  0.36250037242E+03  0.00000000000E+00 0.  1.
         25    1    1    2    0    0  0.34462152164E+02  0.42594628189E+01 -0.13936515288E+01  0.12974099283E+03  0.12500000000E+03 0.  0.
         25    1    1    2    0    0 -0.39427023804E+01  0.19975560695E+02 -0.22098351942E+03  0.25470234350E+03  0.12500000000E+03 0.  0.
         25    1    1    2    0    0 -0.30519449784E+02 -0.24235023514E+02  0.13442199371E+02  0.13162243693E+03  0.12500000000E+03 0.  0.
</event>
<event>
 5    0  0.5822326E-005  0.3324126E+03  0.7546771E-02  0.1070074E+00
         21   -1    0    0  502  501  0.00000000000E+00  0.00000000000E+00  0.19006385101E+03  0.19006385101E+03  0.00000000000E+00 0. -1.
         21   -1    0    0  501  502 -0.00000000000E+00 -0.00000000000E+00 -0.58137389768E+03  0.58137389768E+03  0.00000000000E+00 0. -1.
         25    1    1    2    0    0  0.85623852863E+02 -0.15096514415E+03 -0.17595705157E+01  0.21389253146E+03  0.12500000000E+03 0.  0.
         25    1    1    2    0    0 -0.11986687976E+03  0.16410338286E+03 -0.34581044137E+03  0.42012837382E+03  0.12500000000E+03 0.  0.
         25    1    1    2    0    0  0.34243026901E+02 -0.13138238717E+02 -0.43740034785E+02  0.13741684340E+03  0.12500000000E+03 0.  0.
</event>
<event>
 5    0  0.5822326E-005  0.4214553E+03  0.7546771E-02  0.1036594E+00
         21   -1    0    0  502  501  0.00000000000E+00  0.00000000000E+00  0.19128867462E+04  0.19128867462E+04  0.00000000000E+00 0.  1.
         21   -1    0    0  501  502 -0.00000000000E+00 -0.00000000000E+00 -0.92856829655E+02  0.92856829655E+02  0.00000000000E+00 0.  1.
         25    1    1    2    0    0 -0.43552627074E+02  0.15279789148E+03  0.17431929383E+03  0.26693865057E+03  0.12500000000E+03 0.  0.
         25    1    1    2    0    0 -0.27437595250E+02  0.94898128916E+02  0.11897111938E+04  0.12003317047E+04  0.12500000000E+03 0.  0.
         25    1    1    2    0    0  0.70990222324E+02 -0.24769602040E+03  0.45599942890E+03  0.53847322064E+03  0.12500000000E+03 0.  0.
</event>
<event>
 5    0  0.5822326E-005  0.3960478E+03  0.7546771E-02  0.1045157E+00
         21   -1    0    0  502  501  0.00000000000E+00  0.00000000000E+00  0.52090830400E+03  0.52090830400E+03  0.00000000000E+00 0. -1.
         21   -1    0    0  501  502 -0.00000000000E+00 -0.00000000000E+00 -0.30111609186E+03  0.30111609186E+03  0.00000000000E+00 0. -1.
         25    1    1    2    0    0 -0.14720021470E+03  0.62578044727E+02  0.16433675389E+02  0.20366389119E+03  0.12500000000E+03 0.  0.
         25    1    1    2    0    0  0.10641227192E+02  0.60641283341E+02  0.33297664284E+03  0.36095573916E+03  0.12500000000E+03 0.  0.
         25    1    1    2    0    0  0.13655898751E+03 -0.12321932807E+03 -0.12961810609E+03  0.25740476550E+03  0.12500000000E+03 0.  0.
</event>
<event>
 5    0  0.5822326E-005  0.2304837E+03  0.7546771E-02  0.1126300E+00
         21   -1    0    0  502  501  0.00000000000E+00  0.00000000000E+00  0.63068659012E+02  0.63068659012E+02  0.00000000000E+00 0. -1.
         21   -1    0    0  501  502 -0.00000000000E+00 -0.00000000000E+00 -0.84229981807E+03  0.84229981807E+03  0.00000000000E+00 0. -1.
         25    1    1    2    0    0 -0.24703228797E+02 -0.24115885737E+02 -0.18878644259E+03  0.22903525135E+03  0.12500000000E+03 0.  0.
         25    1    1    2    0    0  0.77415282199E+02 -0.63327233830E+02 -0.36974094017E+03  0.40291044576E+03  0.12500000000E+03 0.  0.
         25    1    1    2    0    0 -0.52712053402E+02  0.87443119567E+02 -0.22070377629E+03  0.27342277996E+03  0.12500000000E+03 0.  0.
</event>
<event>
 5    0  0.5822326E-005  0.2774711E+03  0.7546771E-02  0.1097078E+00
         21   -1    0    0  502  501  0.00000000000E+00  0.00000000000E+00  0.63764310805E+03  0.63764310805E+03  0.00000000000E+00 0. -1.
         21   -1    0    0  501  502 -0.00000000000E+00 -0.00000000000E+00 -0.12074182045E+03  0.12074182045E+03  0.00000000000E+00 0. -1.
         25    1    1    2    0    0 -0.31163057560E+02 -0.29035502193E+02 -0.83293852044E+01  0.13231997280E+03  0.12500000000E+03 0.  0.
         25    1    1    2    0    0 -0.79924561460E+02  0.75356816862E+02  0.27839399350E+03  0.32433748009E+03  0.12500000000E+03 0.  0.
         25    1    1    2    0    0  0.11108761902E+03 -0.46321314669E+02  0.24683667930E+03  0.30172747562E+03  0.12500000000E+03 0.  0.
</event>
<event>
 5    0  0.5822326E-005  0.3950225E+03  0.7546771E-02  0.1045517E+00
         21   -1    0    0  502  501  0.00000000000E+00  0.00000000000E+00  0.10121051191E+04  0.10121051191E+04  0.00000000000E+00 0.  1.
         21   -1    0    0  501  502 -0.00000000000E+00 -0.00000000000E+00 -0.15417648573E+03  0.15417648573E+03  0.00000000000E+00 0.  1.
         25    1    1    2    0    0  0.13057106802E+03 -0.68588160123E+02  0.75561006093E+03  0.77995173164E+03  0.12500000000E+03 0.  0.
         25    1    1    2    0    0 -0.78307091847E+02 -0.15741265852E+02 -0.58786466111E+02  0.15956389530E+03  0.12500000000E+03 0.  0.
         25    1    1    2    0    0 -0.52263976174E+02  0.84329425976E+02  0.16110503859E+03  0.22676597794E+03  0.12500000000E+03 0.  0.
</event>
<event>
 5    0  0.5822326E-005  0.2525504E+03  0.7546771E-02  0.1111704E+00
         21   -1    0    0  502  501  0.00000000000E+00  0.00000000000E+00  0.11703733243E+03  0.11703733243E+03  0.00000000000E+00 0.  1.
         21   -1    0    0  501  502 -0.00000000000E+00 -0.00000000000E+00 -0.54496881372E+03  0.54496881372E+03  0.00000000000E+00 0.  1.
         25    1    1    2    0    0 -0.11345069444E+01  0.10229860020E+03 -0.15781079291E+03  0.22582191450E+03  0.12500000000E+03 0.  0.
         25    1    1    2    0    0  0.19309618918E+02 -0.15555560552E+03 -0.19586029437E+03  0.28027961521E+03  0.12500000000E+03 0.  0.
         25    1    1    2    0    0 -0.18175111974E+02  0.53257005324E+02 -0.74260394002E+02  0.15590461644E+03  0.12500000000E+03 0.  0.
</event>
<event>
 5    0  0.5822326E-005  0.3712391E+03  0.7546771E-02  0.1054220E+00
         21   -1    0    0  502  501  0.00000000000E+00  0.00000000000E+00  0.33285989111E+03  0.33285989111E+03  0.00000000000E+00 0. -1.
         21   -1    0    0  501  502 -0.00000000000E+00 -0.00000000000E+00 -0.41404354432E+03  0.41404354432E+03  0.00000000000E+00 0. -1.
         25    1    1    2    0    0  0.63031288892E+02 -0.15082871131E+03 -0.30483679784E+03  0.36779439481E+03  0.12500000000E+03 0.  0.
         25    1    1    2    0    0 -0.23665932871E+02  0.11167851062E+03  0.12711384132E+03  0.21169575992E+03  0.12500000000E+03 0.  0.
         25    1    1    2    0    0 -0.39365356021E+02  0.39150200690E+02  0.96539303315E+02  0.16741328070E+03  0.12500000000E+03 0.  0.
</event>
<event>
 5    0  0.5822326E-005  0.3092876E+03  0.7546771E-02  0.1080688E+00
         21   -1    0    0  502  501  0.00000000000E+00  0.00000000000E+00  0.18284642549E+03  0.18284642549E+03  0.00000000000E+00 0.  1.
         21   -1    0    0  501  502 -0.00000000000E+00 -0.00000000000E+00 -0.52316488605E+03  0.52316488605E+03  0.00000000000E+00 0.  1.
         25    1    1    2    0    0 -0.62546593071E+02  0.50060789816E+02 -0.16833374920E+03  0.22445358118E+03  0.12500000000E+03 0.  0.
         25    1    1    2    0    0  0.12132854128E+03 -0.66955147060E+02 -0.25765356427E+03  0.31814142425E+03  0.12500000000E+03 0.  0.
         25    1    1    2    0    0 -0.58781948209E+02  0.16894357245E+02  0.85668852918E+02  0.16341630611E+03  0.12500000000E+03 0.  0.
</event>
<event>
 5    0  0.5822326E-005  0.4113322E+03  0.7546771E-02  0.1039925E+00
         21   -1    0    0  502  501  0.00000000000E+00  0.00000000000E+00  0.14832321123E+04  0.14832321123E+04  0.00000000000E+00 0. -1.
         21   -1    0    0  501  502 -0.00000000000E+00 -0.00000000000E+00 -0.11407129956E+03  0.11407129956E+03  0.00000000000E+00 0. -1.
         25    1    1    2    0    0 -0.13619889517E+03 -0.19910457135E+03  0.74071195720E+03  0.78896893027E+03  0.12500000000E+03 0.  0.
         25    1    1    2    0    0  0.18949482833E+03 -0.42220398276E+02  0.30417667726E+03  0.38188912394E+03  0.12500000000E+03 0.  0.
         25    1    1    2    0    0 -0.53295933156E+02  0.24132496963E+03  0.32427217826E+03  0.42644535764E+03  0.12500000000E+03 0.  0.
</event>
<event>
 5    0  0.5822326E-005  0.3917244E+03  0.7546771E-02  0.1046683E+00
         21   -1    0    0  502  501  0.00000000000E+00  0.00000000000E+00  0.13689130115E+04  0.13689130115E+04  0.00000000000E+00 0.  1.
         21   -1    0    0  501  502 -0.00000000000E+00 -0.00000000000E+00 -0.11209477005E+03  0.11209477005E+03  0.00000000000E+00 0.  1.
         25    1    1    2    0    0  0.72783512557E+01  0.18633109704E+03  0.21352731034E+03  0.30982440895E+03  0.12500000000E+03 0.  0.
         25    1    1    2    0    0  0.92498331277E+02  0.35925314132E+02  0.98578720988E+02  0.18758820250E+03  0.12500000000E+03 0.  0.
         25    1    1    2    0    0 -0.99776682533E+02 -0.22225641117E+03  0.94471221016E+03  0.98359517013E+03  0.12500000000E+03 0.  0.
</event>
<event>
 5    0  0.6757851E-005  0.7224366E+03  0.7546771E-02  0.9679614E-01
         21   -1    0    0  502  501  0.00000000000E+00  0.00000000000E+00  0.21871826405E+04  0.21871826405E+04  0.00000000000E+00 0.  1.
         21   -1    0    0  501  502 -0.00000000000E+00 -0.00000000000E+00 -0.23862416518E+03  0.23862416518E+03  0.00000000000E+00 0.  1.
         25    1    1    2    0    0  0.77724510749E+01 -0.46615666697E+03  0.78551310817E+03  0.92196436605E+03  0.12500000000E+03 0.  0.
         25    1    1    2    0    0 -0.32289216371E+03  0.23710380627E+03  0.95868678345E+03  0.10465098724E+04  0.12500000000E+03 0.  0.
         25    1    1    2    0    0  0.31511971264E+03  0.22905286070E+03  0.20435858369E+03  0.45733256719E+03  0.12500000000E+03 0.  0.
</event>
<event>
 5    0  0.5822326E-005  0.2612578E+03  0.7546771E-02  0.1106390E+00
         21   -1    0    0  502  501  0.00000000000E+00  0.00000000000E+00  0.18684956777E+03  0.18684956777E+03  0.00000000000E+00 0. -1.
         21   -1    0    0  501  502 -0.00000000000E+00 -0.00000000000E+00 -0.36529718672E+03  0.36529718672E+03  0.00000000000E+00 0. -1.
         25    1    1    2    0    0 -0.22038659627E+02 -0.16899673835E+02 -0.41976173867E+02  0.13475273899E+03  0.12500000000E+03 0.  0.
         25    1    1    2    0    0  0.66411095781E+02  0.58870839617E+02 -0.21002542568E+03  0.26002286213E+03  0.12500000000E+03 0.  0.
         25    1    1    2    0    0 -0.44372436155E+02 -0.41971165781E+02  0.73553980604E+02  0.15737115336E+03  0.12500000000E+03 0.  0.
</event>
<event>
 5    0  0.5822326E-005  0.2654010E+03  0.7546771E-02  0.1103941E+00
         21   -1    0    0  502  501  0.00000000000E+00  0.00000000000E+00  0.11408421255E+04  0.11408421255E+04  0.00000000000E+00 0. -1.
         21   -1    0    0  501  502 -0.00000000000E+00 -0.00000000000E+00 -0.61741837022E+02  0.61741837022E+02  0.00000000000E+00 0. -1.
         25    1    1    2    0    0  0.43851147427E+02  0.10067393862E+03  0.45611777504E+03  0.48551682747E+03  0.12500000000E+03 0.  0.
         25    1    1    2    0    0 -0.20388672876E+02 -0.14582090921E+03  0.22344069042E+03  0.29534755405E+03  0.12500000000E+03 0.  0.
         25    1    1    2    0    0 -0.23462474551E+02  0.45146970589E+02  0.39954182305E+03  0.42171958104E+03  0.12500000000E+03 0.  0.
</event>
<event>
 5    0  0.5822326E-005  0.3546807E+03  0.7546771E-02  0.1060710E+00
         21   -1    0    0  502  501  0.00000000000E+00  0.00000000000E+00  0.13613192341E+04  0.13613192341E+04  0.00000000000E+00 0.  1.
         21   -1    0    0  501  502 -0.00000000000E+00 -0.00000000000E+00 -0.92409196460E+02  0.92409196460E+02  0.00000000000E+00 0.  1.
         25    1    1    2    0    0  0.43292373604E+02  0.27258536377E+03  0.49357604817E+03  0.57915397390E+03  0.12500000000E+03 0.  0.
         25    1    1    2    0    0 -0.24802159506E+02 -0.35097473378E+02  0.31133279156E+03  0.33823081890E+03  0.12500000000E+03 0.  0.
         25    1    1    2    0    0 -0.18490214098E+02 -0.23748789040E+03  0.46400119790E+03  0.53634363775E+03  0.12500000000E+03 0.  0.
</event>
<event>
 5    0  0.5822326E-005  0.3077505E+03  0.7546771E-02  0.1081429E+00
         21   -1    0    0  502  501  0.00000000000E+00  0.00000000000E+00  0.73761655477E+02  0.73761655477E+02  0.00000000000E+00 0. -1.
         21   -1    0    0  501  502 -0.00000000000E+00 -0.00000000000E+00 -0.12840055220E+04  0.12840055220E+04  0.00000000000E+00 0. -1.
         25    1    1    2    0    0 -0.16875092667E+03  0.80906596803E+01 -0.81894190038E+03  0.84547807200E+03  0.12500000000E+03 0.  0.
         25    1    1    2    0    0  0.56939327805E+02  0.12551991921E+02 -0.83724177630E+02  0.16135171977E+03  0.12500000000E+03 0.  0.
         25    1    1    2    0    0  0.11181159886E+03 -0.20642651602E+02 -0.30757778851E+03  0.35093738571E+03  0.12500000000E+03 0.  0.
</event>
<event>
 5    0  0.5822326E-005  0.3759698E+03  0.7546771E-02  0.1052433E+00
         21   -1    0    0  502  501  0.00000000000E+00  0.00000000000E+00  0.13520741363E+03  0.13520741363E+03  0.00000000000E+00 0.  1.
         21   -1    0    0  501  502 -0.00000000000E+00 -0.00000000000E+00 -0.10454553308E+04  0.10454553308E+04  0.00000000000E+00 0.  1.
         25    1    1    2    0    0 -0.72541944649E+02  0.16579449898E+03 -0.14928326387E+03  0.26582069614E+03  0.12500000000E+03 0.  0.
         25    1    1    2    0    0  0.95994344796E+02 -0.25051748727E+03 -0.26992467319E+03  0.40057240901E+03  0.12500000000E+03 0.  0.
         25    1    1    2    0    0 -0.23452400147E+02  0.84722988299E+02 -0.49103998017E+03  0.51426963933E+03  0.12500000000E+03 0.  0.
</event>
<event>
 5    0  0.5822326E-005  0.3490526E+03  0.7546771E-02  0.1063005E+00
         21   -1    0    0  502  501  0.00000000000E+00  0.00000000000E+00  0.86013238499E+02  0.86013238499E+02  0.00000000000E+00 0. -1.
         21   -1    0    0  501  502 -0.00000000000E+00 -0.00000000000E+00 -0.14164994878E+04  0.14164994878E+04  0.00000000000E+00 0. -1.
         25    1    1    2    0    0  0.22334411055E+03 -0.15959267577E+03 -0.63079804232E+03  0.69920210532E+03  0.12500000000E+03 0.  0.
         25    1    1    2    0    0 -0.90013193802E+02  0.55726339049E+02 -0.43810564337E+03  0.46772786390E+03  0.12500000000E+03 0.  0.
         25    1    1    2    0    0 -0.13333091675E+03  0.10386633672E+03 -0.26158256363E+03  0.33558275710E+03  0.12500000000E+03 0.  0.
</event>
<event>
 5    0  0.5822326E-005  0.3159327E+03  0.7546771E-02  0.1077537E+00
         21   -1    0    0  502  501  0.00000000000E+00  0.00000000000E+00  0.39029270020E+02  0.39029270020E+02  0.00000000000E+00 0.  1.
         21   -1    0    0  501  502 -0.00000000000E+00 -0.00000000000E+00 -0.25574004058E+04  0.25574004058E+04  0.00000000000E+00 0.  1.
         25    1    1    2    0    0 -0.18216803161E+01 -0.40146802729E+02 -0.19107182421E+03  0.23183728409E+03  0.12500000000E+03 0.  0.
         25    1    1    2    0    0 -0.13281535537E+03 -0.11287377148E+02 -0.16758047527E+04  0.16857383820E+04  0.12500000000E+03 0.  0.
         25    1    1    2    0    0  0.13463703568E+03  0.51434179877E+02 -0.65149455894E+03  0.67885400976E+03  0.12500000000E+03 0.  0.
</event>
<event>
 5    0  0.6445070E-005  0.2721791E+03  0.7546771E-02  0.1100039E+00
         21   -1    0    0  502  501  0.00000000000E+00  0.00000000000E+00  0.20346992195E+03  0.20346992195E+03  0.00000000000E+00 0.  1.
         21   -1    0    0  501  502 -0.00000000000E+00 -0.00000000000E+00 -0.36409057244E+03  0.36409057244E+03  0.00000000000E+00 0.  1.
         25    1    1    2    0    0  0.43475100291E+02 -0.59875222914E+00  0.54611303461E+02  0.14317065801E+03  0.12500000000E+03 0.  0.
         25    1    1    2    0    0 -0.28876520666E+02  0.10134908719E+03 -0.20589006349E+03  0.26290912720E+03  0.12500000000E+03 0.  0.
         25    1    1    2    0    0 -0.14598579625E+02 -0.10075033496E+03 -0.93418904521E+01  0.16148070918E+03  0.12500000000E+03 0.  0.
</event>
<event>
 5    0  0.5822326E-005  0.3073297E+03  0.7546771E-02  0.1081633E+00
         21   -1    0    0  502  501  0.00000000000E+00  0.00000000000E+00  0.26006438290E+03  0.26006438290E+03  0.00000000000E+00 0. -1.
         21   -1    0    0  501  502 -0.00000000000E+00 -0.00000000000E+00 -0.36318531391E+03  0.36318531391E+03  0.00000000000E+00 0. -1.
         25    1    1    2    0    0 -0.41174248273E+01  0.96772988919E+01 -0.50402912383E+02  0.13518896729E+03  0.12500000000E+03 0.  0.
         25    1    1    2    0    0  0.19865072847E+03 -0.11611373000E+01  0.41273389036E+02  0.23831062252E+03  0.12500000000E+03 0.  0.
         25    1    1    2    0    0 -0.19453330364E+03 -0.85161615919E+01 -0.93991407656E+02  0.24975010700E+03  0.12500000000E+03 0.  0.
</event>
<event>
 5    0  0.6964870E-005  0.3021275E+03  0.7546771E-02  0.1084182E+00
         21   -1    0    0  502  501  0.00000000000E+00  0.00000000000E+00  0.34838634655E+03  0.34838634655E+03  0.00000000000E+00 0.  1.
         21   -1    0    0  501  502 -0.00000000000E+00 -0.00000000000E+00 -0.26201088023E+03  0.26201088023E+03  0.00000000000E+00 0.  1.
         25    1    1    2    0    0  0.77308248379E+02 -0.12394044666E+03  0.39245325655E+02  0.19622180096E+03  0.12500000000E+03 0.  0.
         25    1    1    2    0    0 -0.38603234842E+02  0.12883485351E+02  0.16126761517E+03  0.20805873603E+03  0.12500000000E+03 0.  0.
         25    1    1    2    0    0 -0.38705013537E+02  0.11105696131E+03 -0.11413747450E+03  0.20611668979E+03  0.12500000000E+03 0.  0.
</event>
<event>
 5    0  0.5822326E-005  0.2502065E+03  0.7546771E-02  0.1113174E+00
         21   -1    0    0  502  501  0.00000000000E+00  0.00000000000E+00  0.82720693656E+03  0.82720693656E+03  0.00000000000E+00 0.  1.
         21   -1    0    0  501  502 -0.00000000000E+00 -0.00000000000E+00 -0.75680357290E+02  0.75680357290E+02  0.00000000000E+00 0.  1.
         25    1    1    2    0    0  0.30877442493E+01  0.11547106926E+03  0.22105890057E+03  0.27898949716E+03  0.12500000000E+03 0.  0.
         25    1    1    2    0    0 -0.71787296082E+02 -0.97815932077E+02  0.21121027584E+03  0.27378121387E+03  0.12500000000E+03 0.  0.
         25    1    1    2    0    0  0.68699551832E+02 -0.17655137184E+02  0.31925740285E+03  0.35011658282E+03  0.12500000000E+03 0.  0.
</event>
<event>
 5    0  0.5822326E-005  0.3535138E+03  0.7546771E-02  0.1061182E+00
         21   -1    0    0  502  501  0.00000000000E+00  0.00000000000E+00  0.30257994483E+03  0.30257994483E+03  0.00000000000E+00 0. -1.
         21   -1    0    0  501  502 -0.00000000000E+00 -0.00000000000E+00 -0.41302146292E+03  0.41302146292E+03  0.00000000000E+00 0. -1.
         25    1    1    2    0    0  0.21206469954E+03  0.18642816584E+03 -0.30974548057E+02  0.31034065225E+03  0.12500000000E+03 0.  0.
         25    1    1    2    0    0 -0.16202110195E+03 -0.11929015528E+03 -0.92397856642E+02  0.25425055071E+03  0.12500000000E+03 0.  0.
         25    1    1    2    0    0 -0.50043597590E+02 -0.67138010560E+02  0.12930886610E+02  0.15101020479E+03  0.12500000000E+03 0.  0.
</event>
<event>
 5    0  0.6165686E-005  0.2951882E+03  0.7546771E-02  0.1087671E+00
         21   -1    0    0  502  501  0.00000000000E+00  0.00000000000E+00  0.94440409047E+02  0.94440409047E+02  0.00000000000E+00 0.  1.
         21   -1    0    0  501  502 -0.00000000000E+00 -0.00000000000E+00 -0.92265648542E+03  0.92265648542E+03  0.00000000000E+00 0.  1.
         25    1    1    2    0    0 -0.96402963764E+02  0.50185457543E+02 -0.12820114310E+03  0.20945797828E+03  0.12500000000E+03 0.  0.
         25    1    1    2    0    0  0.19798367764E+03 -0.54170458071E+02 -0.38598988072E+03  0.45469238300E+03  0.12500000000E+03 0.  0.
         25    1    1    2    0    0 -0.10158071388E+03  0.39850005283E+01 -0.31402505255E+03  0.35294653319E+03  0.12500000000E+03 0.  0.
</event>
<event>
 5    0  0.5822326E-005  0.3085485E+03  0.7546771E-02  0.1081044E+00
         21   -1    0    0  502  501  0.00000000000E+00  0.00000000000E+00  0.75860385933E+02  0.75860385933E+02  0.00000000000E+00 0.  1.
         21   -1    0    0  501  502 -0.00000000000E+00 -0.00000000000E+00 -0.12549659555E+04  0.12549659555E+04  0.00000000000E+00 0.  1.
         25    1    1    2    0    0 -0.96688860521E+02 -0.60298273034E+02 -0.62656502896E+03  0.64899410860E+03  0.12500000000E+03 0.  0.
         25    1    1    2    0    0 -0.88471595349E+02  0.75008136903E+02 -0.18612437829E+03  0.25242964956E+03  0.12500000000E+03 0.  0.
         25    1    1    2    0    0  0.18516045587E+03 -0.14709863869E+02 -0.36641616233E+03  0.42940258328E+03  0.12500000000E+03 0.  0.
</event>
<event>
 5    0  0.5822326E-005  0.2888414E+03  0.7546771E-02  0.1090956E+00
         21   -1    0    0  502  501  0.00000000000E+00  0.00000000000E+00  0.42731267501E+03  0.42731267501E+03  0.00000000000E+00 0. -1.
         21   -1    0    0  501  502 -0.00000000000E+00 -0.00000000000E+00 -0.19524193876E+03  0.19524193876E+03  0.00000000000E+00 0. -1.
         25    1    1    2    0    0  0.82714155301E+02  0.11808246305E+03  0.17776963437E+03  0.26079137729E+03  0.12500000000E+03 0.  0.
         25    1    1    2    0    0 -0.77295020245E+02 -0.16686890813E+03  0.46985311167E+02  0.22727158230E+03  0.12500000000E+03 0.  0.
         25    1    1    2    0    0 -0.54191350565E+01  0.48786445077E+02  0.73157907195E+01  0.13449165417E+03  0.12500000000E+03 0.  0.
</event>
<event>
 5    0  0.5822326E-005  0.3106147E+03  0.7546771E-02  0.1080052E+00
         21   -1    0    0  502  501  0.00000000000E+00  0.00000000000E+00  0.29845573301E+03  0.29845573301E+03  0.00000000000E+00 0. -1.
         21   -1    0    0  501  502 -0.00000000000E+00 -0.00000000000E+00 -0.32326910039E+03  0.32326910039E+03  0.00000000000E+00 0. -1.
         25    1    1    2    0    0  0.10760797094E+03 -0.45539468789E+02 -0.21699711142E+02  0.17247955267E+03  0.12500000000E+03 0.  0.
         25    1    1    2    0    0  0.23739523314E+02  0.68495137942E+02  0.15185710507E+03  0.20962044092E+03  0.12500000000E+03 0.  0.
         25    1    1    2    0    0 -0.13134749425E+03 -0.22955669153E+02 -0.15497076132E+03  0.23962483981E+03  0.12500000000E+03 0.  0.
</event>
<event>
 5    0  0.5822326E-005  0.2987442E+03  0.7546771E-02  0.1085870E+00
         21   -1    0    0  502  501  0.00000000000E+00  0.00000000000E+00  0.63931165493E+02  0.63931165493E+02  0.00000000000E+00 0.  1.
         21   -1    0    0  501  502 -0.00000000000E+00 -0.00000000000E+00 -0.13960033069E+04  0.13960033069E+04  0.00000000000E+00 0.  1.
         25    1    1    2    0    0 -0.74640493551E+02 -0.17071875201E+02 -0.31923616007E+03  0.35128247622E+03  0.12500000000E+03 0.  0.
         25    1    1    2    0    0  0.20537503835E+02 -0.10332641022E+03 -0.84684752103E+03  0.86248122298E+03  0.12500000000E+03 0.  0.
         25    1    1    2    0    0  0.54102989716E+02  0.12039828542E+03 -0.16598846034E+03  0.24617077323E+03  0.12500000000E+03 0.  0.
</event>
<event>
 5    0  0.5822326E-005  0.3042295E+03  0.7546771E-02  0.1083145E+00
         21   -1    0    0  502  501  0.00000000000E+00  0.00000000000E+00  0.39067132369E+02  0.39067132369E+02  0.00000000000E+00 0. -1.
         21   -1    0    0  501  502 -0.00000000000E+00 -0.00000000000E+00 -0.23691417279E+04  0.23691417279E+04  0.00000000000E+00 0. -1.
         25    1    1    2    0    0 -0.91295348249E+02 -0.19581413741E+03 -0.83220281120E+03  0.86882940557E+03  0.12500000000E+03 0.  0.
         25    1    1    2    0    0  0.16290665329E+02  0.14657403507E+03 -0.67015893850E+03  0.69748644172E+03  0.12500000000E+03 0.  0.
         25    1    1    2    0    0  0.75004682919E+02  0.49240102343E+02 -0.82771284579E+03  0.84189301294E+03  0.12500000000E+03 0.  0.
</event>
<event>
 5    0  0.5822326E-005  0.2402512E+03  0.7546771E-02  0.1119626E+00
         21   -1    0    0  502  501  0.00000000000E+00  0.00000000000E+00  0.13499885576E+03  0.13499885576E+03  0.00000000000E+00 0. -1.
         21   -1    0    0  501  502 -0.00000000000E+00 -0.00000000000E+00 -0.42756399945E+03  0.42756399945E+03  0.00000000000E+00 0. -1.
         25    1    1    2    0    0 -0.45959037951E+02 -0.25908540492E+01  0.24920748634E+02  0.13551748746E+03  0.12500000000E+03 0.  0.
         25    1    1    2    0    0  0.68957077028E+02  0.39781626326E+02 -0.20699406168E+03  0.25457650684E+03  0.12500000000E+03 0.  0.
         25    1    1    2    0    0 -0.22998039077E+02 -0.37190772277E+02 -0.11049183064E+03  0.17246886091E+03  0.12500000000E+03 0.  0.
</event>
<event>
 5    0  0.5822326E-005  0.2634644E+03  0.7546771E-02  0.1105079E+00
         21   -1    0    0  502  501  0.00000000000E+00  0.00000000000E+00  0.58724805441E+03  0.58724805441E+03  0.00000000000E+00 0. -1.
         21   -1    0    0  501  502 -0.00000000000E+00 -0.00000000000E+00 -0.11820130992E+03  0.11820130992E+03  0.00000000000E+00 0. -1.
         25    1    1    2    0    0 -0.60824498927E+02 -0.48496886534E+02  0.33960792519E+01  0.14726880534E+03  0.12500000000E+03 0.  0.
         25    1    1    2    0    0  0.17107445477E+01  0.73390073654E+02  0.13159964881E+03  0.19578686658E+03  0.12500000000E+03 0.  0.
         25    1    1    2    0    0  0.59113754379E+02 -0.24893187121E+02  0.33405101642E+03  0.36239369240E+03  0.12500000000E+03 0.  0.
</event>
<event>
 5    0  0.5822326E-005  0.3252093E+03  0.7546771E-02  0.1073276E+00
         21   -1    0    0  502  501  0.00000000000E+00  0.00000000000E+00  0.15345115908E+03  0.15345115908E+03  0.00000000000E+00 0. -1.
         21   -1    0    0  501  502 -0.00000000000E+00 -0.00000000000E+00 -0.68921681696E+03  0.68921681696E+03  0.00000000000E+00 0. -1.
         25    1    1    2    0    0  0.11073394127E+03  0.73397074546E+02 -0.88328878345E+02  0.20267246249E+03  0.12500000000E+03 0.  0.
         25    1    1    2    0    0 -0.14250662463E+03 -0.42175179168E+02 -0.23304748727E+02  0.19558884200E+03  0.12500000000E+03 0.  0.
         25    1    1    2    0    0  0.31772683358E+02 -0.31221895378E+02 -0.42413203081E+03  0.44440667155E+03  0.12500000000E+03 0.  0.
</event>
<event>
 5    0  0.6414357E-005  0.2828758E+03  0.7546771E-02  0.1094129E+00
         21   -1    0    0  502  501  0.00000000000E+00  0.00000000000E+00  0.13588036037E+03  0.13588036037E+03  0.00000000000E+00 0.  1.
         21   -1    0    0  501  502 -0.00000000000E+00 -0.00000000000E+00 -0.58889098601E+03  0.58889098601E+03  0.00000000000E+00 0.  1.
         25    1    1    2    0    0  0.67025273954E+02  0.26034592806E+02 -0.20559403510E+03  0.25112565508E+03  0.12500000000E+03 0.  0.
         25    1    1    2    0    0  0.19930939566E+02 -0.81263773484E+02  0.29073179751E+02  0.15320343669E+03  0.12500000000E+03 0.  0.
         25    1    1    2    0    0 -0.86956213520E+02  0.55229180678E+02 -0.27648977029E+03  0.32044225462E+03  0.12500000000E+03 0.  0.
</event>
<event>
 5    0  0.5822326E-005  0.2792484E+03  0.7546771E-02  0.1096100E+00
         21   -1    0    0  502  501  0.00000000000E+00  0.00000000000E+00  0.74204441804E+03  0.74204441804E+03  0.00000000000E+00 0.  1.
         21   -1    0    0  501  502 -0.00000000000E+00 -0.00000000000E+00 -0.10508762586E+03  0.10508762586E+03  0.00000000000E+00 0.  1.
         25    1    1    2    0    0  0.92503113082E+02  0.60938113402E+02  0.26417458202E+03  0.31254357997E+03  0.12500000000E+03 0.  0.
         25    1    1    2    0    0 -0.19945633518E+02 -0.10168064026E+03  0.34579774601E+03  0.38201814361E+03  0.12500000000E+03 0.  0.
         25    1    1    2    0    0 -0.72557479563E+02  0.40742526854E+02  0.26984464145E+02  0.15257032031E+03  0.12500000000E+03 0.  0.
</event>
<event>
 5    0  0.5822326E-005  0.2569706E+03  0.7546771E-02  0.1108977E+00
         21   -1    0    0  502  501  0.00000000000E+00  0.00000000000E+00  0.38439936856E+02  0.38439936856E+02  0.00000000000E+00 0. -1.
         21   -1    0    0  501  502 -0.00000000000E+00 -0.00000000000E+00 -0.17178458033E+04  0.17178458033E+04  0.00000000000E+00 0. -1.
         25    1    1    2    0    0 -0.15727665290E+02 -0.54309516310E+02 -0.16494751340E+03  0.21454501903E+03  0.12500000000E+03 0.  0.
         25    1    1    2    0    0 -0.23591456617E+02  0.65338154967E+02 -0.10248876887E+04  0.10348166049E+04  0.12500000000E+03 0.  0.
         25    1    1    2    0    0  0.39319121907E+02 -0.11028638657E+02 -0.48957066431E+03  0.50692411619E+03  0.12500000000E+03 0.  0.
</event>
<event>
 5    0  0.5822326E-005  0.2853712E+03  0.7546771E-02  0.1092791E+00
         21   -1    0    0  502  501  0.00000000000E+00  0.00000000000E+00  0.30136487447E+03  0.30136487447E+03  0.00000000000E+00 0.  1.
         21   -1    0    0  501  502 -0.00000000000E+00 -0.00000000000E+00 -0.27022632674E+03  0.27022632674E+03  0.00000000000E+00 0.  1.
         25    1    1    2    0    0  0.87873629690E+02 -0.14252527490E+03  0.12408080296E+03  0.24301496753E+03  0.12500000000E+03 0.  0.
         25    1    1    2    0    0  0.28316634923E+01  0.47364501432E+02 -0.36579551115E+02  0.13861629729E+03  0.12500000000E+03 0.  0.
         25    1    1    2    0    0 -0.90705293183E+02  0.95160773467E+02 -0.56362704115E+02  0.18995993639E+03  0.12500000000E+03 0.  0.
</event>
<event>
 5    0  0.5822326E-005  0.3676101E+03  0.7546771E-02  0.1055611E+00
         21   -1    0    0  502  501  0.00000000000E+00  0.00000000000E+00  0.33962335363E+03  0.33962335363E+03  0.00000000000E+00 0.  1.
         21   -1    0    0  501  502 -0.00000000000E+00 -0.00000000000E+00 -0.39790306821E+03  0.39790306821E+03  0.00000000000E+00 0.  1.
         25    1    1    2    0    0 -0.93151634431E+02 -0.70179167134E+02 -0.95157690482E+02  0.19565870426E+03  0.12500000000E+03 0.  0.
         25    1    1    2    0    0 -0.96236587234E+02 -0.14664389877E+03 -0.39199581150E+02  0.21892355043E+03  0.12500000000E+03 0.  0.
         25    1    1    2    0    0  0.18938822167E+03  0.21682306590E+03  0.76077557048E+02  0.32294416715E+03  0.12500000000E+03 0.  0.
</event>
<event>
 5    0  0.5822326E-005  0.3111148E+03  0.7546771E-02  0.1079813E+00
         21   -1    0    0  502  501  0.00000000000E+00  0.00000000000E+00  0.13715903126E+03  0.13715903126E+03  0.00000000000E+00 0.  1.
         21   -1    0    0  501  502 -0.00000000000E+00 -0.00000000000E+00 -0.70569495946E+03  0.70569495946E+03  0.00000000000E+00 0.  1.
         25    1    1    2    0    0 -0.27030303598E+02  0.52211898078E+02 -0.71770290498E+02  0.15566853957E+03  0.12500000000E+03 0.  0.
         25    1    1    2    0    0  0.97132164479E+02  0.47716770021E+02 -0.48462202464E+03  0.51204985527E+03  0.12500000000E+03 0.  0.
         25    1    1    2    0    0 -0.70101860880E+02 -0.99928668099E+02 -0.12143613058E+02  0.17513559588E+03  0.12500000000E+03 0.  0.
</event>
<event>
 5    0  0.5822326E-005  0.5461762E+03  0.7546771E-02  0.1002383E+00
         21   -1    0    0  502  501  0.00000000000E+00  0.00000000000E+00  0.88899267026E+03  0.88899267026E+03  0.00000000000E+00 0. -1.
         21   -1    0    0  501  502 -0.00000000000E+00 -0.00000000000E+00 -0.33555777858E+03  0.33555777858E+03  0.00000000000E+00 0. -1.
         25    1    1    2    0    0 -0.51945115211E+02 -0.21345562087E+01  0.12148110599E+03  0.18189422871E+03  0.12500000000E+03 0.  0.
         25    1    1    2    0    0  0.30389781761E+03 -0.17558355333E+03  0.57122139597E+03  0.68198412809E+03  0.12500000000E+03 0.  0.
         25    1    1    2    0    0 -0.25195270240E+03  0.17771810954E+03 -0.13926761028E+03  0.36067209204E+03  0.12500000000E+03 0.  0.
</event>
<event>
 5    0  0.5822326E-005  0.3398348E+03  0.7546771E-02  0.1066866E+00
         21   -1    0    0  502  501  0.00000000000E+00  0.00000000000E+00  0.43597764544E+03  0.43597764544E+03  0.00000000000E+00 0.  1.
         21   -1    0    0  501  502 -0.00000000000E+00 -0.00000000000E+00 -0.26489354048E+03  0.26489354048E+03  0.00000000000E+00 0.  1.
         25    1    1    2    0    0 -0.13993006760E+03 -0.50453066642E+02  0.16040974568E+03  0.25195678650E+03  0.12500000000E+03 0.  0.
         25    1    1    2    0    0  0.18804579036E+03  0.44403290151E+02  0.13437903086E+03  0.26648751450E+03  0.12500000000E+03 0.  0.
         25    1    1    2    0    0 -0.48115722756E+02  0.60497764910E+01 -0.12370467158E+03  0.18242688493E+03  0.12500000000E+03 0.  0.
</event>
<event>
 5    0  0.5822326E-005  0.4818369E+03  0.7546771E-02  0.1018632E+00
         21   -1    0    0  502  501  0.00000000000E+00  0.00000000000E+00  0.13320702364E+03  0.13320702364E+03  0.00000000000E+00 0.  1.
         21   -1    0    0  501  502 -0.00000000000E+00 -0.00000000000E+00 -0.17429022737E+04  0.17429022737E+04  0.00000000000E+00 0.  1.
         25    1    1    2    0    0 -0.76722523094E+02  0.17379725234E+03 -0.93099825644E+03  0.95837079670E+03  0.12500000000E+03 0.  0.
         25    1    1    2    0    0  0.13217142189E+03  0.16293073551E+03 -0.19384575796E+03  0.31179622707E+03  0.12500000000E+03 0.  0.
         25    1    1    2    0    0 -0.55448898797E+02 -0.33672798785E+03 -0.48485123566E+03  0.60594227357E+03  0.12500000000E+03 0.  0.
</event>
<event>
 5    0  0.5822326E-005  0.2776903E+03  0.7546771E-02  0.1096957E+00
         21   -1    0    0  502  501  0.00000000000E+00  0.00000000000E+00  0.36199512197E+03  0.36199512197E+03  0.00000000000E+00 0. -1.
         21   -1    0    0  501  502 -0.00000000000E+00 -0.00000000000E+00 -0.21301919798E+03  0.21301919798E+03  0.00000000000E+00 0. -1.
         25    1    1    2    0    0  0.31426274272E+02 -0.46681806699E+02  0.85429222581E+02  0.16152384921E+03  0.12500000000E+03 0.  0.
         25    1    1    2    0    0 -0.17015153238E+03  0.53508370609E+02  0.56954440713E+01  0.21788099453E+03  0.12500000000E+03 0.  0.
         25    1    1    2    0    0  0.13872525810E+03 -0.68265639102E+01  0.57851257332E+02  0.19560947622E+03  0.12500000000E+03 0.  0.
</event>
<event>
 5    0  0.5822326E-005  0.3049712E+03  0.7546771E-02  0.1082782E+00
         21   -1    0    0  502  501  0.00000000000E+00  0.00000000000E+00  0.12206677943E+03  0.12206677943E+03  0.00000000000E+00 0.  1.
         21   -1    0    0  501  502 -0.00000000000E+00 -0.00000000000E+00 -0.76193877948E+03  0.76193877948E+03  0.00000000000E+00 0.  1.
         25    1    1    2    0    0  0.87905609770E+02  0.13900138460E+03 -0.31341246754E+03  0.37536802735E+03  0.12500000000E+03 0.  0.
         25    1    1    2    0    0  0.53145681985E+02 -0.32816985205E+02 -0.32164773555E+02  0.14339104118E+03  0.12500000000E+03 0.  0.
         25    1    1    2    0    0 -0.14105129176E+03 -0.10618439940E+03 -0.29429475896E+03  0.36524649038E+03  0.12500000000E+03 0.  0.
</event>
<event>
 5    0  0.5822326E-005  0.2365536E+03  0.7546771E-02  0.1122110E+00
         21   -1    0    0  502  501  0.00000000000E+00  0.00000000000E+00  0.29366875595E+03  0.29366875595E+03  0.00000000000E+00 0.  1.
         21   -1    0    0  501  502 -0.00000000000E+00 -0.00000000000E+00 -0.19054663259E+03  0.19054663259E+03  0.00000000000E+00 0.  1.
         25    1    1    2    0    0 -0.82094624097E+02 -0.82028222469E+01  0.10524497575E+03  0.18305277523E+03  0.12500000000E+03 0.  0.
         25    1    1    2    0    0  0.11123317030E+03 -0.23430752091E+02 -0.32592864062E+00  0.16895835152E+03  0.12500000000E+03 0.  0.
         25    1    1    2    0    0 -0.29138546204E+02  0.31633574338E+02 -0.17969237460E+01  0.13220426179E+03  0.12500000000E+03 0.  0.
</event>
<event>
 5    0  0.5822326E-005  0.2945901E+03  0.7546771E-02  0.1087977E+00
         21   -1    0    0  502  501  0.00000000000E+00  0.00000000000E+00  0.89210043244E+03  0.89210043244E+03  0.00000000000E+00 0. -1.
         21   -1    0    0  501  502 -0.00000000000E+00 -0.00000000000E+00 -0.97279752918E+02  0.97279752918E+02  0.00000000000E+00 0. -1.
         25    1    1    2    0    0  0.68483067280E+02  0.40767695007E+02  0.25310674163E+03  0.29332568609E+03  0.12500000000E+03 0.  0.
         25    1    1    2    0    0 -0.14700874105E+03 -0.12845472352E+03  0.17276606130E+03  0.28911122060E+03  0.12500000000E+03 0.  0.
         25    1    1    2    0    0  0.78525673770E+02  0.87687028516E+02  0.36894787659E+03  0.40694327867E+03  0.12500000000E+03 0.  0.
</event>
<event>
 5    0  0.5822326E-005  0.3540821E+03  0.7546771E-02  0.1060952E+00
         21   -1    0    0  502  501  0.00000000000E+00  0.00000000000E+00  0.40589531914E+03  0.40589531914E+03  0.00000000000E+00 0.  1.
         21   -1    0    0  501  502 -0.00000000000E+00 -0.00000000000E+00 -0.30888289102E+03  0.30888289102E+03  0.00000000000E+00 0.  1.
         25    1    1    2    0    0  0.13912304311E+03  0.19588701286E+03  0.21823249304E+01  0.27084443039E+03  0.12500000000E+03 0.  0.
         25    1    1    2    0    0 -0.14099932490E+03  0.33904426683E+01  0.89490682458E+02  0.20862858618E+03  0.12500000000E+03 0.  0.
         25    1    1    2    0    0  0.18762817948E+01 -0.19927745553E+03  0.53394207348E+01  0.23530519359E+03  0.12500000000E+03 0.  0.
</event>
<event>
 5    0  0.5822326E-005  0.2283592E+03  0.7546771E-02  0.1127800E+00
         21   -1    0    0  502  501  0.00000000000E+00  0.00000000000E+00  0.47406023376E+03  0.47406023376E+03  0.00000000000E+00 0.  1.
         21   -1    0    0  501  502 -0.00000000000E+00 -0.00000000000E+00 -0.11000274180E+03  0.11000274180E+03  0.00000000000E+00 0.  1.
         25    1    1    2    0    0 -0.68829904314E+02 -0.42234323557E+02  0.76982789205E+02  0.16754892912E+03  0.12500000000E+03 0.  0.
         25    1    1    2    0    0 -0.62994607725E+01  0.82417830314E+02  0.12921853435E+03  0.19787574783E+03  0.12500000000E+03 0.  0.
         25    1    1    2    0    0  0.75129365087E+02 -0.40183506757E+02  0.15785616841E+03  0.21863829861E+03  0.12500000000E+03 0.  0.
</event>
<event>
 5    0  0.5822326E-005  0.3538918E+03  0.7546771E-02  0.1061029E+00
         21   -1    0    0  502  501  0.00000000000E+00  0.00000000000E+00  0.16777779406E+04  0.16777779406E+04  0.00000000000E+00 0.  1.
         21   -1    0    0  501  502 -0.00000000000E+00 -0.00000000000E+00 -0.74645994550E+02  0.74645994550E+02  0.00000000000E+00 0.  1.
         25    1    1    2    0    0  0.20697619985E+03  0.14095048254E+03  0.44871208614E+03  0.52884186870E+03  0.12500000000E+03 0.  0.
         25    1    1    2    0    0 -0.40420804162E+02 -0.19509102156E+01  0.61514772144E+03  0.62902254860E+03  0.12500000000E+03 0.  0.
         25    1    1    2    0    0 -0.16655539569E+03 -0.13899957233E+03  0.53927213851E+03  0.59455951789E+03  0.12500000000E+03 0.  0.
</event>
<event>
 5    0  0.5822326E-005  0.2773870E+03  0.7546771E-02  0.1097125E+00
         21   -1    0    0  502  501  0.00000000000E+00  0.00000000000E+00  0.20251813465E+04  0.20251813465E+04  0.00000000000E+00 0. -1.
         21   -1    0    0  501  502 -0.00000000000E+00 -0.00000000000E+00 -0.37993400088E+02  0.37993400088E+02  0.00000000000E+00 0. -1.
         25    1    1    2    0    0 -0.81462816014E+02  0.24140440677E+02  0.26741662633E+03  0.30717357195E+03  0.12500000000E+03 0.  0.
         25    1    1    2    0    0  0.28587712252E+02  0.10624260897E+03  0.83159933741E+03  0.84810801625E+03  0.12500000000E+03 0.  0.
         25    1    1    2    0    0  0.52875103761E+02 -0.13038304965E+03  0.88817198271E+03  0.90789315842E+03  0.12500000000E+03 0.  0.
</event>
<event>
 5    0  0.5822326E-005  0.2521008E+03  0.7546771E-02  0.1111984E+00
         21   -1    0    0  502  501  0.00000000000E+00  0.00000000000E+00  0.17349689878E+03  0.17349689878E+03  0.00000000000E+00 0. -1.
         21   -1    0    0  501  502 -0.00000000000E+00 -0.00000000000E+00 -0.36631678091E+03  0.36631678091E+03  0.00000000000E+00 0. -1.
         25    1    1    2    0    0 -0.60013352715E+02 -0.46946589465E+02  0.17374468333E+02  0.14741932342E+03  0.12500000000E+03 0.  0.
         25    1    1    2    0    0  0.10979452635E+03 -0.23306327010E+02 -0.16138373023E+03  0.23295435449E+03  0.12500000000E+03 0.  0.
         25    1    1    2    0    0 -0.49781173631E+02  0.70252916475E+02 -0.48810620229E+02  0.15944000178E+03  0.12500000000E+03 0.  0.
</event>
<event>
 5    0  0.5822326E-005  0.2963810E+03  0.7546771E-02  0.1087064E+00
         21   -1    0    0  502  501  0.00000000000E+00  0.00000000000E+00  0.99527854942E+02  0.99527854942E+02  0.00000000000E+00 0. -1.
         21   -1    0    0  501  502 -0.00000000000E+00 -0.00000000000E+00 -0.88258429214E+03  0.88258429214E+03  0.00000000000E+00 0. -1.
         25    1    1    2    0    0  0.11212834054E+02  0.87295382095E+02 -0.35734350112E+03  0.38867156981E+03  0.12500000000E+03 0.  0.
         25    1    1    2    0    0 -0.11466324140E+03 -0.72701590782E+02 -0.61622564593E+02  0.19456495239E+03  0.12500000000E+03 0.  0.
         25    1    1    2    0    0  0.10345040734E+03 -0.14593791313E+02 -0.36409037148E+03  0.39887562489E+03  0.12500000000E+03 0.  0.
</event>
<event>
 5    0  0.5822326E-005  0.5591877E+03  0.7546771E-02  0.9993894E-01
         21   -1    0    0  502  501  0.00000000000E+00  0.00000000000E+00  0.30214861839E+03  0.30214861839E+03  0.00000000000E+00 0. -1.
         21   -1    0    0  501  502 -0.00000000000E+00 -0.00000000000E+00 -0.10348911395E+04  0.10348911395E+04  0.00000000000E+00 0. -1.
         25    1    1    2    0    0 -0.30801520253E+02 -0.17840881766E+03  0.26195837527E+02  0.22156186895E+03  0.12500000000E+03 0.  0.
         25    1    1    2    0    0  0.16658259112E+03 -0.36709590835E+02  0.82945625513E+02  0.22716146353E+03  0.12500000000E+03 0.  0.
         25    1    1    2    0    0 -0.13578107087E+03  0.21511840849E+03 -0.84188398414E+03  0.88831642540E+03  0.12500000000E+03 0.  0.
</event>
<event>
 5    0  0.5822326E-005  0.2186762E+03  0.7546771E-02  0.1134874E+00
         21   -1    0    0  502  501  0.00000000000E+00  0.00000000000E+00  0.14156664092E+03  0.14156664092E+03  0.00000000000E+00 0. -1.
         21   -1    0    0  501  502 -0.00000000000E+00 -0.00000000000E+00 -0.33778644645E+03  0.33778644645E+03  0.00000000000E+00 0. -1.
         25    1    1    2    0    0  0.21118068375E+02 -0.68492793151E+02 -0.62719594092E+02  0.15714955618E+03  0.12500000000E+03 0.  0.
         25    1    1    2    0    0 -0.61402078431E+02  0.51293962493E+02 -0.23981840365E+02  0.15033766824E+03  0.12500000000E+03 0.  0.
         25    1    1    2    0    0  0.40284010057E+02  0.17198830658E+02 -0.10951837107E+03  0.17186586294E+03  0.12500000000E+03 0.  0.
</event>
<event>
 5    0  0.5822326E-005  0.3611460E+03  0.7546771E-02  0.1058131E+00
         21   -1    0    0  502  501  0.00000000000E+00  0.00000000000E+00  0.77085619956E+02  0.77085619956E+02  0.00000000000E+00 0.  1.
         21   -1    0    0  501  502 -0.00000000000E+00 -0.00000000000E+00 -0.16919687510E+04  0.16919687510E+04  0.00000000000E+00 0.  1.
         25    1    1    2    0    0 -0.31687766887E+02 -0.54783635407E+00 -0.16375586723E+03  0.20843559856E+03  0.12500000000E+03 0.  0.
         25    1    1    2    0    0 -0.20994967623E+03  0.29882069818E+02 -0.36286945107E+03  0.43848722121E+03  0.12500000000E+03 0.  0.
         25    1    1    2    0    0  0.24163744312E+03 -0.29334233464E+02 -0.10882578128E+04  0.11221315512E+04  0.12500000000E+03 0.  0.
</event>
<event>
 5    0  0.6760110E-005  0.2930026E+03  0.7546771E-02  0.1088792E+00
         21   -1    0    0  502  501  0.00000000000E+00  0.00000000000E+00  0.14346468272E+03  0.14346468272E+03  0.00000000000E+00 0.  1.
         21   -1    0    0  501  502 -0.00000000000E+00 -0.00000000000E+00 -0.59840886334E+03  0.59840886334E+03  0.00000000000E+00 0.  1.
         25    1    1    2    0    0 -0.50332567746E+02  0.40316544617E+02  0.36588121002E+02  0.14533575522E+03  0.12500000000E+03 0.  0.
         25    1    1    2    0    0 -0.74393724208E+02 -0.91910689522E+01 -0.30368787593E+03  0.33685342204E+03  0.12500000000E+03 0.  0.
         25    1    1    2    0    0  0.12472629195E+03 -0.31125475665E+02 -0.18784442569E+03  0.25968436880E+03  0.12500000000E+03 0.  0.
</event>
<event>
 5    0  0.5822326E-005  0.2668309E+03  0.7546771E-02  0.1103107E+00
         21   -1    0    0  502  501  0.00000000000E+00  0.00000000000E+00  0.12974106066E+03  0.12974106066E+03  0.00000000000E+00 0. -1.
         21   -1    0    0  501  502 -0.00000000000E+00 -0.00000000000E+00 -0.54877551691E+03  0.54877551691E+03  0.00000000000E+00 0. -1.
         25    1    1    2    0    0 -0.17549529776E+02  0.15599801824E+02 -0.24784520395E+03  0.27857420005E+03  0.12500000000E+03 0.  0.
         25    1    1    2    0    0 -0.10812173848E+03  0.56092821420E+01 -0.14417654776E+03  0.21939382695E+03  0.12500000000E+03 0.  0.
         25    1    1    2    0    0  0.12567126825E+03 -0.21209083966E+02 -0.27012704526E+02  0.18054855057E+03  0.12500000000E+03 0.  0.
</event>
<event>
 5    0  0.5822326E-005  0.3226126E+03  0.7546771E-02  0.1074453E+00
         21   -1    0    0  502  501  0.00000000000E+00  0.00000000000E+00  0.20256971175E+03  0.20256971175E+03  0.00000000000E+00 0.  1.
         21   -1    0    0  501  502 -0.00000000000E+00 -0.00000000000E+00 -0.51379307780E+03  0.51379307780E+03  0.00000000000E+00 0.  1.
         25    1    1    2    0    0  0.78059141888E+02 -0.89622079907E+02 -0.20230427250E+03  0.26585214972E+03  0.12500000000E+03 0.  0.
         25    1    1    2    0    0 -0.27623148915E+02  0.14678514527E+03 -0.19912569576E+03  0.27854076890E+03  0.12500000000E+03 0.  0.
         25    1    1    2    0    0 -0.50435992973E+02 -0.57163065358E+02  0.90206602202E+02  0.17196987093E+03  0.12500000000E+03 0.  0.
</event>
<event>
 5    0  0.5822326E-005  0.2797181E+03  0.7546771E-02  0.1095843E+00
         21   -1    0    0  502  501  0.00000000000E+00  0.00000000000E+00  0.26717526678E+03  0.26717526678E+03  0.00000000000E+00 0. -1.
         21   -1    0    0  501  502 -0.00000000000E+00 -0.00000000000E+00 -0.29284982140E+03  0.29284982140E+03  0.00000000000E+00 0. -1.
         25    1    1    2    0    0 -0.69643727483E+02 -0.33377690745E+02 -0.12082582383E+03  0.19023196030E+03  0.12500000000E+03 0.  0.
         25    1    1    2    0    0  0.90087634447E+02 -0.90759019341E+02  0.62710692595E+02  0.18950095630E+03  0.12500000000E+03 0.  0.
         25    1    1    2    0    0 -0.20443906964E+02  0.12413671009E+03  0.32440576608E+02  0.18029217158E+03  0.12500000000E+03 0.  0.
</event>
<event>
 5    0  0.5822326E-005  0.4785040E+03  0.7546771E-02  0.1019547E+00
         21   -1    0    0  502  501  0.00000000000E+00  0.00000000000E+00  0.42841751236E+03  0.42841751236E+03  0.00000000000E+00 0.  1.
         21   -1    0    0  501  502 -0.00000000000E+00 -0.00000000000E+00 -0.53444618022E+03  0.53444618022E+03  0.00000000000E+00 0.  1.
         25    1    1    2    0    0  0.32557173570E+02  0.34373195165E+03 -0.10133561480E+03  0.38092719903E+03  0.12500000000E+03 0.  0.
         25    1    1    2    0    0 -0.71512327428E+02 -0.78279812914E+02 -0.17555089009E+03  0.24017672055E+03  0.12500000000E+03 0.  0.
         25    1    1    2    0    0  0.38955153859E+02 -0.26545213873E+03  0.17085783703E+03  0.34175977300E+03  0.12500000000E+03 0.  0.
</event>
<event>
 5    0  0.5822326E-005  0.3752258E+03  0.7546771E-02  0.1052713E+00
         21   -1    0    0  502  501  0.00000000000E+00  0.00000000000E+00  0.32218308848E+03  0.32218308848E+03  0.00000000000E+00 0. -1.
         21   -1    0    0  501  502 -0.00000000000E+00 -0.00000000000E+00 -0.43700124391E+03  0.43700124391E+03  0.00000000000E+00 0. -1.
         25    1    1    2    0    0  0.45012153504E+02  0.20908900329E+03  0.94006031559E+02  0.26496497736E+03  0.12500000000E+03 0.  0.
         25    1    1    2    0    0 -0.13888465338E+03 -0.51258382346E+02 -0.66819033679E+01  0.19387113384E+03  0.12500000000E+03 0.  0.
         25    1    1    2    0    0  0.93872499874E+02 -0.15783062094E+03 -0.20214228362E+03  0.30034822118E+03  0.12500000000E+03 0.  0.
</event>
<event>
 5    0  0.5822326E-005  0.2421391E+03  0.7546771E-02  0.1118376E+00
         21   -1    0    0  502  501  0.00000000000E+00  0.00000000000E+00  0.31403370480E+03  0.31403370480E+03  0.00000000000E+00 0. -1.
         21   -1    0    0  501  502 -0.00000000000E+00 -0.00000000000E+00 -0.18670393749E+03  0.18670393749E+03  0.00000000000E+00 0. -1.
         25    1    1    2    0    0 -0.32031758292E+01  0.76684214022E+02  0.39097442639E+02  0.15180361997E+03  0.12500000000E+03 0.  0.
         25    1    1    2    0    0 -0.69586704697E+01  0.62192130708E+02  0.81236257845E+02  0.16168059193E+03  0.12500000000E+03 0.  0.
         25    1    1    2    0    0  0.10161846299E+02 -0.13887634473E+03  0.69960668247E+01  0.18725343040E+03  0.12500000000E+03 0.  0.
</event>
<event>
 5    0  0.5822326E-005  0.3217127E+03  0.7546771E-02  0.1074864E+00
         21   -1    0    0  502  501  0.00000000000E+00  0.00000000000E+00  0.13163912831E+04  0.13163912831E+04  0.00000000000E+00 0. -1.
         21   -1    0    0  501  502 -0.00000000000E+00 -0.00000000000E+00 -0.78623347617E+02  0.78623347617E+02  0.00000000000E+00 0. -1.
         25    1    1    2    0    0  0.10755679657E+03  0.71440956705E+02  0.84450150558E+02  0.19856762755E+03  0.12500000000E+03 0.  0.
         25    1    1    2    0    0 -0.54451344320E+02  0.18745723865E+02  0.72920000591E+03  0.74207412007E+03  0.12500000000E+03 0.  0.
         25    1    1    2    0    0 -0.53105452248E+02 -0.90186680570E+02  0.42411777897E+03  0.45437288305E+03  0.12500000000E+03 0.  0.
</event>
<event>
 5    0  0.5822326E-005  0.9103547E+03  0.7546771E-02  0.9412729E-01
         21   -1    0    0  502  501  0.00000000000E+00  0.00000000000E+00  0.42792929221E+03  0.42792929221E+03  0.00000000000E+00 0. -1.
         21   -1    0    0  501  502 -0.00000000000E+00 -0.00000000000E+00 -0.19366414553E+04  0.19366414553E+04  0.00000000000E+00 0. -1.
         25    1    1    2    0    0  0.90832570446E+02  0.12472189497E+03  0.32094043355E+03  0.37740411872E+03  0.12500000000E+03 0.  0.
         25    1    1    2    0    0 -0.31906181353E+03 -0.15441511655E+03 -0.46647149361E+03  0.59905352301E+03  0.12500000000E+03 0.  0.
         25    1    1    2    0    0  0.22822924309E+03  0.29693221573E+02 -0.13631811031E+04  0.13881131058E+04  0.12500000000E+03 0.  0.
</event>
<event>
 5    0  0.5822326E-005  0.3988382E+03  0.7546771E-02  0.1044183E+00
         21   -1    0    0  502  501  0.00000000000E+00  0.00000000000E+00  0.13825710506E+03  0.13825710506E+03  0.00000000000E+00 0. -1.
         21   -1    0    0  501  502 -0.00000000000E+00 -0.00000000000E+00 -0.11505514673E+04  0.11505514673E+04  0.00000000000E+00 0. -1.
         25    1    1    2    0    0 -0.21983502624E+03  0.84357170226E+02 -0.34695415693E+03  0.43754514960E+03  0.12500000000E+03 0.  0.
         25    1    1    2    0    0  0.22338741216E+03  0.12480569189E+03 -0.39966375257E+03  0.49074892945E+03  0.12500000000E+03 0.  0.
         25    1    1    2    0    0 -0.35523859281E+01 -0.20916286212E+03 -0.26567645271E+03  0.36051449327E+03  0.12500000000E+03 0.  0.
</event>
<event>
 5    0  0.5822326E-005  0.2837938E+03  0.7546771E-02  0.1093635E+00
         21   -1    0    0  502  501  0.00000000000E+00  0.00000000000E+00  0.15978967901E+03  0.15978967901E+03  0.00000000000E+00 0.  1.
         21   -1    0    0  501  502 -0.00000000000E+00 -0.00000000000E+00 -0.50403096599E+03  0.50403096599E+03  0.00000000000E+00 0.  1.
         25    1    1    2    0    0  0.37909845042E+02 -0.55987512507E+02 -0.43453280950E+02  0.14861004520E+03  0.12500000000E+03 0.  0.
         25    1    1    2    0    0 -0.12797802655E+03  0.61779200444E+01 -0.62636057404E+01  0.17911106814E+03  0.12500000000E+03 0.  0.
         25    1    1    2    0    0  0.90068181503E+02  0.49809592462E+02 -0.29452440028E+03  0.33609953166E+03  0.12500000000E+03 0.  0.
</event>
<event>
 5    0  0.5822326E-005  0.2806821E+03  0.7546771E-02  0.1095317E+00
         21   -1    0    0  502  501  0.00000000000E+00  0.00000000000E+00  0.28212042215E+03  0.28212042215E+03  0.00000000000E+00 0. -1.
         21   -1    0    0  501  502 -0.00000000000E+00 -0.00000000000E+00 -0.27925103520E+03  0.27925103520E+03  0.00000000000E+00 0. -1.
         25    1    1    2    0    0  0.17280034094E+03 -0.13990449128E+02 -0.80940544037E+02  0.22854334855E+03  0.12500000000E+03 0.  0.
         25    1    1    2    0    0 -0.92289753605E+02  0.58242523232E+02  0.29964328264E+02  0.16861924890E+03  0.12500000000E+03 0.  0.
         25    1    1    2    0    0 -0.80510587335E+02 -0.44252074104E+02  0.53845602726E+02  0.16420885990E+03  0.12500000000E+03 0.  0.
</event>
<event>
 5    0  0.5822326E-005  0.4196589E+03  0.7546771E-02  0.1037177E+00
         21   -1    0    0  502  501  0.00000000000E+00  0.00000000000E+00  0.62409719043E+03  0.62409719043E+03  0.00000000000E+00 0.  1.
         21   -1    0    0  501  502 -0.00000000000E+00 -0.00000000000E+00 -0.28218931529E+03  0.28218931529E+03  0.00000000000E+00 0.  1.
         25    1    1    2    0    0  0.12040023860E+03 -0.73740708456E+02  0.12708220553E+02  0.18899843494E+03  0.12500000000E+03 0.  0.
         25    1    1    2    0    0  0.33449929037E+01  0.71670959400E+02 -0.14927764721E+03  0.20750115989E+03  0.12500000000E+03 0.  0.
         25    1    1    2    0    0 -0.12374523150E+03  0.20697490555E+01  0.47847730180E+03  0.50978691089E+03  0.12500000000E+03 0.  0.
</event>
<event>
 5    0  0.5822326E-005  0.4853396E+03  0.7546771E-02  0.1017678E+00
         21   -1    0    0  502  501  0.00000000000E+00  0.00000000000E+00  0.11717468826E+04  0.11717468826E+04  0.00000000000E+00 0.  1.
         21   -1    0    0  501  502 -0.00000000000E+00 -0.00000000000E+00 -0.20102854614E+03  0.20102854614E+03  0.00000000000E+00 0. -1.
         25    1    1    2    0    0  0.41313521367E+03 -0.13066037373E+02  0.49479710407E+03  0.65673480211E+03  0.12500000000E+03 0.  0.
         25    1    1    2    0    0 -0.19287504958E+03 -0.41762343969E+02  0.88195628304E+02  0.24969650974E+03  0.12500000000E+03 0.  0.
         25    1    1    2    0    0 -0.22026016408E+03  0.54828381342E+02  0.38772560408E+03  0.46634411687E+03  0.12500000000E+03 0.  0.
</event>
<event>
 5    0  0.5822326E-005  0.3573550E+03  0.7546771E-02  0.1059636E+00
         21   -1    0    0  502  501  0.00000000000E+00  0.00000000000E+00  0.21771057784E+03  0.21771057784E+03  0.00000000000E+00 0.  1.
         21   -1    0    0  501  502 -0.00000000000E+00 -0.00000000000E+00 -0.58657060976E+03  0.58657060976E+03  0.00000000000E+00 0.  1.
         25    1    1    2    0    0 -0.29989584779E+02  0.16374711798E+03 -0.38209591770E+03  0.43512617040E+03  0.12500000000E+03 0.  0.
         25    1    1    2    0    0 -0.24305702849E+02 -0.13897721753E+03  0.92067655976E+02  0.20977818633E+03  0.12500000000E+03 0.  0.
         25    1    1    2    0    0  0.54295287627E+02 -0.24769900453E+02 -0.78831770191E+02  0.15937683087E+03  0.12500000000E+03 0.  0.
</event>
<event>
 5    0  0.5822326E-005  0.2313510E+03  0.7546771E-02  0.1125692E+00
         21   -1    0    0  502  501  0.00000000000E+00  0.00000000000E+00  0.17742555281E+03  0.17742555281E+03  0.00000000000E+00 0.  1.
         21   -1    0    0  501  502 -0.00000000000E+00 -0.00000000000E+00 -0.30166616708E+03  0.30166616708E+03  0.00000000000E+00 0.  1.
         25    1    1    2    0    0  0.22759020049E+02 -0.48752800574E+02  0.23724218086E+02  0.13813995469E+03  0.12500000000E+03 0.  0.
         25    1    1    2    0    0  0.13959484065E+02  0.67454998815E+02  0.26223707437E+00  0.14272390420E+03  0.12500000000E+03 0.  0.
         25    1    1    2    0    0 -0.36718504114E+02 -0.18702198241E+02 -0.14822706943E+03  0.19822786100E+03  0.12500000000E+03 0.  0.
</event>
<event>
 5    0  0.5822326E-005  0.2172757E+03  0.7546771E-02  0.1135931E+00
         21   -1    0    0  502  501  0.00000000000E+00  0.00000000000E+00  0.50681955167E+03  0.50681955167E+03  0.00000000000E+00 0. -1.
         21   -1    0    0  501  502 -0.00000000000E+00 -0.00000000000E+00 -0.93147042451E+02  0.93147042451E+02  0.00000000000E+00 0. -1.
         25    1    1    2    0    0 -0.86109097765E+02 -0.32229539052E+02  0.15282982940E+03  0.21779687018E+03  0.12500000000E+03 0.  0.
         25    1    1    2    0    0  0.85801565895E+02  0.26938391599E+02  0.15126455400E+03  0.21585539360E+03  0.12500000000E+03 0.  0.
         25    1    1    2    0    0  0.30753186960E+00  0.52911474535E+01  0.10957812582E+03  0.16631433034E+03  0.12500000000E+03 0.  0.
</event>
<event>
 5    0  0.5822326E-005  0.2489611E+03  0.7546771E-02  0.1113963E+00
         21   -1    0    0  502  501  0.00000000000E+00  0.00000000000E+00  0.55364027386E+03  0.55364027386E+03  0.00000000000E+00 0.  1.
         21   -1    0    0  501  502 -0.00000000000E+00 -0.00000000000E+00 -0.11195289690E+03  0.11195289690E+03  0.00000000000E+00 0.  1.
         25    1    1    2    0    0 -0.10125807257E+03  0.62561996122E+02  0.58853642404E+02  0.18236214476E+03  0.12500000000E+03 0.  0.
         25    1    1    2    0    0  0.91752912797E+02 -0.40304478128E+02  0.15899788741E+03  0.22571746978E+03  0.12500000000E+03 0.  0.
         25    1    1    2    0    0  0.95051597689E+01 -0.22257517994E+02  0.22383584715E+03  0.25751355622E+03  0.12500000000E+03 0.  0.
</event>
<event>
 5    0  0.5918930E-005  0.2809443E+03  0.7546771E-02  0.1095174E+00
         21   -1    0    0  502  501  0.00000000000E+00  0.00000000000E+00  0.18013540609E+03  0.18013540609E+03  0.00000000000E+00 0. -1.
         21   -1    0    0  501  502 -0.00000000000E+00 -0.00000000000E+00 -0.43816858708E+03  0.43816858708E+03  0.00000000000E+00 0. -1.
         25    1    1    2    0    0  0.71020351499E+02 -0.10161000017E+03 -0.66225914405E+02  0.18809400363E+03  0.12500000000E+03 0.  0.
         25    1    1    2    0    0  0.85483298167E+02  0.64372155301E+02 -0.24039551795E+02  0.16629512529E+03  0.12500000000E+03 0.  0.
         25    1    1    2    0    0 -0.15650364967E+03  0.37237844873E+02 -0.16776771478E+03  0.26391486425E+03  0.12500000000E+03 0.  0.
</event>
<event>
 5    0  0.5822326E-005  0.2908640E+03  0.7546771E-02  0.1089899E+00
         21   -1    0    0  502  501  0.00000000000E+00  0.00000000000E+00  0.57747437145E+03  0.57747437145E+03  0.00000000000E+00 0.  1.
         21   -1    0    0  501  502 -0.00000000000E+00 -0.00000000000E+00 -0.14650323944E+03  0.14650323944E+03  0.00000000000E+00 0.  1.
         25    1    1    2    0    0  0.81970221918E+02 -0.20283283984E+02  0.15314799134E+03  0.21496473232E+03  0.12500000000E+03 0.  0.
         25    1    1    2    0    0 -0.51737285094E+02 -0.12525002975E+03  0.25325267990E+03  0.31325107581E+03  0.12500000000E+03 0.  0.
         25    1    1    2    0    0 -0.30232936823E+02  0.14553331373E+03  0.24570460774E+02  0.19576180275E+03  0.12500000000E+03 0.  0.
</event>
<event>
 5    0  0.5822326E-005  0.2966790E+03  0.7546771E-02  0.1086913E+00
         21   -1    0    0  502  501  0.00000000000E+00  0.00000000000E+00  0.15130521073E+03  0.15130521073E+03  0.00000000000E+00 0.  1.
         21   -1    0    0  501  502 -0.00000000000E+00 -0.00000000000E+00 -0.58172768590E+03  0.58172768590E+03  0.00000000000E+00 0.  1.
         25    1    1    2    0    0 -0.79918064443E+02  0.18014372927E+02 -0.50085718413E+01  0.14953762218E+03  0.12500000000E+03 0.  0.
         25    1    1    2    0    0  0.43552106945E+02 -0.15632659283E+03 -0.17652765611E+03  0.27041043437E+03  0.12500000000E+03 0.  0.
         25    1    1    2    0    0  0.36365957498E+02  0.13831221990E+03 -0.24888624721E+03  0.31308484008E+03  0.12500000000E+03 0.  0.
</event>
<event>
 5    0  0.5822326E-005  0.3186377E+03  0.7546771E-02  0.1076278E+00
         21   -1    0    0  502  501  0.00000000000E+00  0.00000000000E+00  0.45693953396E+03  0.45693953396E+03  0.00000000000E+00 0.  1.
         21   -1    0    0  501  502 -0.00000000000E+00 -0.00000000000E+00 -0.22219562433E+03  0.22219562433E+03  0.00000000000E+00 0.  1.
         25    1    1    2    0    0  0.14797582730E+03  0.24959774715E+02  0.13014021422E+03  0.23469407998E+03  0.12500000000E+03 0.  0.
         25    1    1    2    0    0  0.73463772938E+02  0.34642225852E+02 -0.27769169459E+02  0.15163487896E+03  0.12500000000E+03 0.  0.
         25    1    1    2    0    0 -0.22143960024E+03 -0.59602000566E+02  0.13237286487E+03  0.29280619935E+03  0.12500000000E+03 0.  0.
</event>
<event>
 5    0  0.5822326E-005  0.1948966E+03  0.7546771E-02  0.1154118E+00
         21   -1    0    0  502  501  0.00000000000E+00  0.00000000000E+00  0.24759727764E+03  0.24759727764E+03  0.00000000000E+00 0. -1.
         21   -1    0    0  501  502 -0.00000000000E+00 -0.00000000000E+00 -0.15341320703E+03  0.15341320703E+03  0.00000000000E+00 0. -1.
         25    1    1    2    0    0 -0.43195395161E+02  0.75736205216E+01  0.54363469954E+02  0.14319074257E+03  0.12500000000E+03 0.  0.
         25    1    1    2    0    0  0.19893879478E+02 -0.14361340351E+02  0.19002627789E+02  0.12879485394E+03  0.12500000000E+03 0.  0.
         25    1    1    2    0    0  0.23301515683E+02  0.67877198290E+01  0.20817972868E+02  0.12902488817E+03  0.12500000000E+03 0.  0.
</event>
<event>
 5    0  0.5822326E-005  0.2920365E+03  0.7546771E-02  0.1089291E+00
         21   -1    0    0  502  501  0.00000000000E+00  0.00000000000E+00  0.21906758278E+03  0.21906758278E+03  0.00000000000E+00 0. -1.
         21   -1    0    0  501  502 -0.00000000000E+00 -0.00000000000E+00 -0.38931044111E+03  0.38931044111E+03  0.00000000000E+00 0. -1.
         25    1    1    2    0    0  0.59252225411E+02 -0.38840785424E+02 -0.57233602152E+02  0.15466130105E+03  0.12500000000E+03 0.  0.
         25    1    1    2    0    0 -0.21453496942E+02  0.95980482710E+02  0.10690887346E+03  0.19164293052E+03  0.12500000000E+03 0.  0.
         25    1    1    2    0    0 -0.37798728470E+02 -0.57139697286E+02 -0.21991812964E+03  0.26207379233E+03  0.12500000000E+03 0.  0.
</event>
<event>
 5    0  0.5822326E-005  0.2134073E+03  0.7546771E-02  0.1138896E+00
         21   -1    0    0  502  501  0.00000000000E+00  0.00000000000E+00  0.82629689048E+02  0.82629689048E+02  0.00000000000E+00 0.  1.
         21   -1    0    0  501  502 -0.00000000000E+00 -0.00000000000E+00 -0.55116603558E+03  0.55116603558E+03  0.00000000000E+00 0.  1.
         25    1    1    2    0    0 -0.36662063711E+02  0.21015831738E+01 -0.19746064722E+03  0.23656760296E+03  0.12500000000E+03 0.  0.
         25    1    1    2    0    0  0.58993702845E+02  0.55358870196E+02 -0.11618594517E+03  0.18886247732E+03  0.12500000000E+03 0.  0.
         25    1    1    2    0    0 -0.22331639134E+02 -0.57460453369E+02 -0.15488975414E+03  0.20836564435E+03  0.12500000000E+03 0.  0.
</event>
<event>
 5    0  0.5822326E-005  0.2859017E+03  0.7546771E-02  0.1092509E+00
         21   -1    0    0  502  501  0.00000000000E+00  0.00000000000E+00  0.32641637954E+03  0.32641637954E+03  0.00000000000E+00 0.  1.
         21   -1    0    0  501  502 -0.00000000000E+00 -0.00000000000E+00 -0.25041560913E+03  0.25041560913E+03  0.00000000000E+00 0.  1.
         25    1    1    2    0    0 -0.36258634722E+02 -0.38401433674E+02 -0.10441881380E+03  0.17122396846E+03  0.12500000000E+03 0.  0.
         25    1    1    2    0    0  0.27627527317E+02  0.52586654211E+02 -0.46505348403E+02  0.14600131471E+03  0.12500000000E+03 0.  0.
         25    1    1    2    0    0  0.86311074046E+01 -0.14185220537E+02  0.22692493262E+03  0.25960670550E+03  0.12500000000E+03 0.  0.
</event>
<event>
 5    0  0.5822326E-005  0.3681475E+03  0.7546771E-02  0.1055404E+00
         21   -1    0    0  502  501  0.00000000000E+00  0.00000000000E+00  0.51980620417E+03  0.51980620417E+03  0.00000000000E+00 0.  1.
         21   -1    0    0  501  502 -0.00000000000E+00 -0.00000000000E+00 -0.26073672746E+03  0.26073672746E+03  0.00000000000E+00 0.  1.
         25    1    1    2    0    0  0.15417596475E+03  0.74884681453E+02 -0.32411095169E+02  0.21460061210E+03  0.12500000000E+03 0.  0.
         25    1    1    2    0    0  0.24933114894E+02 -0.17000137503E+03  0.24306824603E+03  0.32284562868E+03  0.12500000000E+03 0.  0.
         25    1    1    2    0    0 -0.17910907964E+03  0.95116693577E+02  0.48412325844E+02  0.24309669085E+03  0.12500000000E+03 0.  0.
</event>
<event>
 5    0  0.5822326E-005  0.3619625E+03  0.7546771E-02  0.1057810E+00
         21   -1    0    0  502  501  0.00000000000E+00  0.00000000000E+00  0.33588066451E+03  0.33588066451E+03  0.00000000000E+00 0.  1.
         21   -1    0    0  501  502 -0.00000000000E+00 -0.00000000000E+00 -0.39006957787E+03  0.39006957787E+03  0.00000000000E+00 0.  1.
         25    1    1    2    0    0  0.14065321711E+03 -0.22338900689E+01  0.29873306594E+01  0.18820797510E+03  0.12500000000E+03 0.  0.
         25    1    1    2    0    0 -0.18487637927E+03  0.15823143005E+03  0.87301182290E+02  0.28716364237E+03  0.12500000000E+03 0.  0.
         25    1    1    2    0    0  0.44223162163E+02 -0.15599753998E+03 -0.14447742631E+03  0.25057862491E+03  0.12500000000E+03 0.  0.
</event>
<event>
 5    0  0.5822326E-005  0.2518996E+03  0.7546771E-02  0.1112110E+00
         21   -1    0    0  502  501  0.00000000000E+00  0.00000000000E+00  0.95788645969E+03  0.95788645969E+03  0.00000000000E+00 0.  1.
         21   -1    0    0  501  502 -0.00000000000E+00 -0.00000000000E+00 -0.66243137417E+02  0.66243137417E+02  0.00000000000E+00 0.  1.
         25    1    1    2    0    0 -0.34171066575E+02  0.31353037360E+02  0.50878241933E+03  0.52596123903E+03  0.12500000000E+03 0.  0.
         25    1    1    2    0    0 -0.49578823358E+02 -0.82729278796E+02  0.21760134947E+03  0.26884482623E+03  0.12500000000E+03 0.  0.
         25    1    1    2    0    0  0.83749889933E+02  0.51376241435E+02  0.16525955347E+03  0.22932353185E+03  0.12500000000E+03 0.  0.
</event>
<event>
 5    0  0.6662452E-005  0.2864044E+03  0.7546771E-02  0.1092242E+00
         21   -1    0    0  502  501  0.00000000000E+00  0.00000000000E+00  0.86394305076E+02  0.86394305076E+02  0.00000000000E+00 0.  1.
         21   -1    0    0  501  502 -0.00000000000E+00 -0.00000000000E+00 -0.94945441363E+03  0.94945441363E+03  0.00000000000E+00 0.  1.
         25    1    1    2    0    0  0.18446840466E+03  0.10983722417E+02 -0.53305950683E+03  0.57786388734E+03  0.12500000000E+03 0.  0.
         25    1    1    2    0    0 -0.93560806187E+02  0.26244300984E+02 -0.17392643314E+03  0.23519734678E+03  0.12500000000E+03 0.  0.
         25    1    1    2    0    0 -0.90907598469E+02 -0.37228023400E+02 -0.15607416858E+03  0.22278748457E+03  0.12500000000E+03 0.  0.
</event>
<event>
 5    0  0.5822326E-005  0.3887383E+03  0.7546771E-02  0.1047750E+00
         21   -1    0    0  502  501  0.00000000000E+00  0.00000000000E+00  0.25750572381E+03  0.25750572381E+03  0.00000000000E+00 0. -1.
         21   -1    0    0  501  502 -0.00000000000E+00 -0.00000000000E+00 -0.58685089422E+03  0.58685089422E+03  0.00000000000E+00 0. -1.
         25    1    1    2    0    0 -0.33482108410E+02 -0.84533342269E+02  0.69945352763E+02  0.16965933488E+03  0.12500000000E+03 0.  0.
         25    1    1    2    0    0  0.21262582645E+02  0.26200558036E+03 -0.34348991221E+03  0.45023254141E+03  0.12500000000E+03 0.  0.
         25    1    1    2    0    0  0.12219525765E+02 -0.17747223809E+03 -0.55800610964E+02  0.22446474174E+03  0.12500000000E+03 0.  0.
</event>
<event>
 5    0  0.5822326E-005  0.2623220E+03  0.7546771E-02  0.1105756E+00
         21   -1    0    0  502  501  0.00000000000E+00  0.00000000000E+00  0.30529329839E+03  0.30529329839E+03  0.00000000000E+00 0.  1.
         21   -1    0    0  501  502 -0.00000000000E+00 -0.00000000000E+00 -0.22539906280E+03  0.22539906280E+03  0.00000000000E+00 0.  1.
         25    1    1    2    0    0  0.80925481911E+01 -0.12116091134E+03 -0.66403737968E+02  0.18649373230E+03  0.12500000000E+03 0.  0.
         25    1    1    2    0    0  0.33666839365E+01  0.42820462934E+02  0.14503701698E+03  0.19622859858E+03  0.12500000000E+03 0.  0.
         25    1    1    2    0    0 -0.11459232128E+02  0.78340448406E+02  0.12609565732E+01  0.14797003031E+03  0.12500000000E+03 0.  0.
</event>
<event>
 5    0  0.5822326E-005  0.2524644E+03  0.7546771E-02  0.1111757E+00
         21   -1    0    0  502  501  0.00000000000E+00  0.00000000000E+00  0.22203652567E+03  0.22203652567E+03  0.00000000000E+00 0. -1.
         21   -1    0    0  501  502 -0.00000000000E+00 -0.00000000000E+00 -0.28706205638E+03  0.28706205638E+03  0.00000000000E+00 0. -1.
         25    1    1    2    0    0  0.38805493343E+02 -0.67558593576E+01  0.54409670395E+02  0.14190461649E+03  0.12500000000E+03 0.  0.
         25    1    1    2    0    0 -0.22195636839E+02 -0.11259319667E+03 -0.86532969355E+02  0.19048052136E+03  0.12500000000E+03 0.  0.
         25    1    1    2    0    0 -0.16609856504E+02  0.11934905603E+03 -0.32902231757E+02  0.17671344420E+03  0.12500000000E+03 0.  0.
</event>
<event>
 5    0  0.5822326E-005  0.3025617E+03  0.7546771E-02  0.1083967E+00
         21   -1    0    0  502  501  0.00000000000E+00  0.00000000000E+00  0.51921036588E+03  0.51921036588E+03  0.00000000000E+00 0.  1.
         21   -1    0    0  501  502 -0.00000000000E+00 -0.00000000000E+00 -0.17631305296E+03  0.17631305296E+03  0.00000000000E+00 0.  1.
         25    1    1    2    0    0 -0.32501668833E+02  0.62662835471E+02 -0.35835705232E+01  0.14359955224E+03  0.12500000000E+03 0.  0.
         25    1    1    2    0    0 -0.37225635458E+02  0.58432357418E+02 -0.16017455544E+02  0.14381115120E+03  0.12500000000E+03 0.  0.
         25    1    1    2    0    0  0.69727304291E+02 -0.12109519289E+03  0.36249833899E+03  0.40811271540E+03  0.12500000000E+03 0.  0.
</event>
<event>
 5    0  0.5822326E-005  0.3079711E+03  0.7546771E-02  0.1081322E+00
         21   -1    0    0  502  501  0.00000000000E+00  0.00000000000E+00  0.42583661592E+02  0.42583661592E+02  0.00000000000E+00 0.  1.
         21   -1    0    0  501  502 -0.00000000000E+00 -0.00000000000E+00 -0.22272901507E+04  0.22272901507E+04  0.00000000000E+00 0.  1.
         25    1    1    2    0    0  0.96117700166E+02 -0.18710427482E+03 -0.86665477365E+03  0.90053435172E+03  0.12500000000E+03 0.  0.
         25    1    1    2    0    0 -0.11646837460E+03  0.12025358969E+03 -0.98314769193E+03  0.10051020805E+04  0.12500000000E+03 0.  0.
         25    1    1    2    0    0  0.20350674430E+02  0.66850685132E+02 -0.33490402355E+03  0.36423738007E+03  0.12500000000E+03 0.  0.
</event>
<event>
 5    0  0.5822326E-005  0.2669596E+03  0.7546771E-02  0.1103032E+00
         21   -1    0    0  502  501  0.00000000000E+00  0.00000000000E+00  0.90699381538E+03  0.90699381538E+03  0.00000000000E+00 0.  1.
         21   -1    0    0  501  502 -0.00000000000E+00 -0.00000000000E+00 -0.78575437457E+02  0.78575437457E+02  0.00000000000E+00 0.  1.
         25    1    1    2    0    0  0.67661278799E+02 -0.89211102147E+01  0.42389099388E+03  0.44717581503E+03  0.12500000000E+03 0.  0.
         25    1    1    2    0    0 -0.10817329617E+02 -0.11375671269E+03  0.16695658495E+03  0.23781737859E+03  0.12500000000E+03 0.  0.
         25    1    1    2    0    0 -0.56843949182E+02  0.12267782291E+03  0.23757079910E+03  0.30057605922E+03  0.12500000000E+03 0.  0.
</event>
<event>
 5    0  0.5822326E-005  0.2203295E+03  0.7546771E-02  0.1133638E+00
         21   -1    0    0  502  501  0.00000000000E+00  0.00000000000E+00  0.24880727014E+03  0.24880727014E+03  0.00000000000E+00 0. -1.
         21   -1    0    0  501  502 -0.00000000000E+00 -0.00000000000E+00 -0.19511116170E+03  0.19511116170E+03  0.00000000000E+00 0. -1.
         25    1    1    2    0    0 -0.18983021320E+02 -0.54881395987E+01 -0.19040591804E+02  0.12797663424E+03  0.12500000000E+03 0.  0.
         25    1    1    2    0    0 -0.48330294744E+02 -0.64346317364E+02  0.44868067569E+02  0.15528814970E+03  0.12500000000E+03 0.  0.
         25    1    1    2    0    0  0.67313316064E+02  0.69834456963E+02  0.27868632679E+02  0.16065364791E+03  0.12500000000E+03 0.  0.
</event>
<event>
 5    0  0.5822326E-005  0.2580826E+03  0.7546771E-02  0.1108301E+00
         21   -1    0    0  502  501  0.00000000000E+00  0.00000000000E+00  0.20120708511E+03  0.20120708511E+03  0.00000000000E+00 0.  1.
         21   -1    0    0  501  502 -0.00000000000E+00 -0.00000000000E+00 -0.33103524389E+03  0.33103524389E+03  0.00000000000E+00 0.  1.
         25    1    1    2    0    0 -0.15200632609E+03 -0.62541839978E+02 -0.31996148887E+02  0.20896449091E+03  0.12500000000E+03 0.  0.
         25    1    1    2    0    0  0.50284784696E+02  0.43682749601E+02 -0.19084026662E+02  0.14291935579E+03  0.12500000000E+03 0.  0.
         25    1    1    2    0    0  0.10172154139E+03  0.18859090378E+02 -0.78747983235E+02  0.18035848230E+03  0.12500000000E+03 0.  0.
</event>
<event>
 5    0  0.5822326E-005  0.2909780E+03  0.7546771E-02  0.1089840E+00
         21   -1    0    0  502  501  0.00000000000E+00  0.00000000000E+00  0.44204364264E+03  0.44204364264E+03  0.00000000000E+00 0.  1.
         21   -1    0    0  501  502 -0.00000000000E+00 -0.00000000000E+00 -0.19153813036E+03  0.19153813036E+03  0.00000000000E+00 0.  1.
         25    1    1    2    0    0 -0.44532045784E+02  0.32866602784E+02  0.29259391752E+03  0.32295435784E+03  0.12500000000E+03 0.  0.
         25    1    1    2    0    0  0.16694135000E+01 -0.68744125534E+02  0.43500390592E+02  0.14915034602E+03  0.12500000000E+03 0.  0.
         25    1    1    2    0    0  0.42862632284E+02  0.35877522750E+02 -0.85588795831E+02  0.16147706914E+03  0.12500000000E+03 0.  0.
</event>
<event>
 5    0  0.5822326E-005  0.3172458E+03  0.7546771E-02  0.1076924E+00
         21   -1    0    0  502  501  0.00000000000E+00  0.00000000000E+00  0.56341488499E+03  0.56341488499E+03  0.00000000000E+00 0.  1.
         21   -1    0    0  501  502 -0.00000000000E+00 -0.00000000000E+00 -0.17863370059E+03  0.17863370059E+03  0.00000000000E+00 0.  1.
         25    1    1    2    0    0  0.32367790869E+02 -0.13721409619E+03  0.33384553310E+03  0.38334478221E+03  0.12500000000E+03 0.  0.
         25    1    1    2    0    0  0.34474220958E+02  0.41782683103E+02  0.11290178887E+03  0.17693523800E+03  0.12500000000E+03 0.  0.
         25    1    1    2    0    0 -0.66842011827E+02  0.95431413084E+02 -0.61966137577E+02  0.18176856536E+03  0.12500000000E+03 0.  0.
</event>
<event>
 5    0  0.5822326E-005  0.2795932E+03  0.7546771E-02  0.1095911E+00
         21   -1    0    0  502  501  0.00000000000E+00  0.00000000000E+00  0.24442454160E+02  0.24442454160E+02  0.00000000000E+00 0. -1.
         21   -1    0    0  501  502 -0.00000000000E+00 -0.00000000000E+00 -0.31982208917E+04  0.31982208917E+04  0.00000000000E+00 0. -1.
         25    1    1    2    0    0 -0.54877718266E+02 -0.85252526351E+02 -0.18030018887E+04  0.18101713643E+04  0.12500000000E+03 0.  0.
         25    1    1    2    0    0  0.59042311965E+02  0.45573685894E+02 -0.11204093471E+04  0.11298252345E+04  0.12500000000E+03 0.  0.
         25    1    1    2    0    0 -0.41645936989E+01  0.39678840457E+02 -0.25036720165E+03  0.28266674704E+03  0.12500000000E+03 0.  0.
</event>
<event>
 5    0  0.5822326E-005  0.3858522E+03  0.7546771E-02  0.1048792E+00
         21   -1    0    0  502  501  0.00000000000E+00  0.00000000000E+00  0.13275114451E+03  0.13275114451E+03  0.00000000000E+00 0.  1.
         21   -1    0    0  501  502 -0.00000000000E+00 -0.00000000000E+00 -0.11215115324E+04  0.11215115324E+04  0.00000000000E+00 0.  1.
         25    1    1    2    0    0  0.10043270022E+02  0.67395621760E+02 -0.49546614285E+01  0.14245204728E+03  0.12500000000E+03 0.  0.
         25    1    1    2    0    0 -0.12482570068E+03  0.12166861927E+03 -0.22173281195E+03  0.30850469747E+03  0.12500000000E+03 0.  0.
         25    1    1    2    0    0  0.11478243066E+03 -0.18906424103E+03 -0.76207291449E+03  0.80330593215E+03  0.12500000000E+03 0.  0.
</event>
<event>
 5    0  0.5822326E-005  0.2539116E+03  0.7546771E-02  0.1110857E+00
         21   -1    0    0  502  501  0.00000000000E+00  0.00000000000E+00  0.12218154708E+03  0.12218154708E+03  0.00000000000E+00 0.  1.
         21   -1    0    0  501  502 -0.00000000000E+00 -0.00000000000E+00 -0.52766627676E+03  0.52766627676E+03  0.00000000000E+00 0.  1.
         25    1    1    2    0    0 -0.35340321944E+02 -0.49141032301E+02 -0.14638905846E+03  0.20178834418E+03  0.12500000000E+03 0.  0.
         25    1    1    2    0    0 -0.92308856401E+02 -0.13197085479E+02 -0.44964855268E+02  0.16230196008E+03  0.12500000000E+03 0.  0.
         25    1    1    2    0    0  0.12764917834E+03  0.62338117780E+02 -0.21413081595E+03  0.28575751959E+03  0.12500000000E+03 0.  0.
</event>
<event>
 5    0  0.5822326E-005  0.2467280E+03  0.7546771E-02  0.1115390E+00
         21   -1    0    0  502  501  0.00000000000E+00  0.00000000000E+00  0.19472368267E+02  0.19472368267E+02  0.00000000000E+00 0.  1.
         21   -1    0    0  501  502 -0.00000000000E+00 -0.00000000000E+00 -0.31262095990E+04  0.31262095990E+04  0.00000000000E+00 0.  1.
         25    1    1    2    0    0  0.71433382722E+02  0.12310050138E+03 -0.12563619009E+04  0.12705615638E+04  0.12500000000E+03 0.  0.
         25    1    1    2    0    0 -0.82462252592E+01 -0.39205909204E+02 -0.60411166570E+03  0.61820790045E+03  0.12500000000E+03 0.  0.
         25    1    1    2    0    0 -0.63187157463E+02 -0.83894592179E+02 -0.12462636642E+04  0.12569125030E+04  0.12500000000E+03 0.  0.
</event>
<event>
 5    0  0.5822326E-005  0.2876881E+03  0.7546771E-02  0.1091562E+00
         21   -1    0    0  502  501  0.00000000000E+00  0.00000000000E+00  0.36967044636E+03  0.36967044636E+03  0.00000000000E+00 0. -1.
         21   -1    0    0  501  502 -0.00000000000E+00 -0.00000000000E+00 -0.22388709711E+03  0.22388709711E+03  0.00000000000E+00 0. -1.
         25    1    1    2    0    0  0.18915778163E+02  0.10968567999E+01  0.92021055272E+02  0.15637098315E+03  0.12500000000E+03 0.  0.
         25    1    1    2    0    0 -0.16486349713E+02  0.16365311843E+03  0.93205355570E+02  0.22664152577E+03  0.12500000000E+03 0.  0.
         25    1    1    2    0    0 -0.24294284503E+01 -0.16474997523E+03 -0.39443061593E+02  0.21054503454E+03  0.12500000000E+03 0.  0.
</event>
<event>
 5    0  0.5822326E-005  0.2550017E+03  0.7546771E-02  0.1110184E+00
         21   -1    0    0  502  501  0.00000000000E+00  0.00000000000E+00  0.15324484162E+04  0.15324484162E+04  0.00000000000E+00 0. -1.
         21   -1    0    0  501  502 -0.00000000000E+00 -0.00000000000E+00 -0.42432676116E+02  0.42432676116E+02  0.00000000000E+00 0. -1.
         25    1    1    2    0    0 -0.11664184212E+03  0.93340531510E+02  0.56347215193E+03  0.59619094270E+03  0.12500000000E+03 0.  0.
         25    1    1    2    0    0  0.57180140344E+02 -0.61789772055E+02  0.65677216652E+03  0.67384139313E+03  0.12500000000E+03 0.  0.
         25    1    1    2    0    0  0.59461701771E+02 -0.31550759455E+02  0.26977142161E+03  0.30484875647E+03  0.12500000000E+03 0.  0.
</event>
<event>
 5    0  0.5822326E-005  0.2960677E+03  0.7546771E-02  0.1087223E+00
         21   -1    0    0  502  501  0.00000000000E+00  0.00000000000E+00  0.41436206929E+03  0.41436206929E+03  0.00000000000E+00 0. -1.
         21   -1    0    0  501  502 -0.00000000000E+00 -0.00000000000E+00 -0.21154459080E+03  0.21154459080E+03  0.00000000000E+00 0. -1.
         25    1    1    2    0    0 -0.38537118661E+02  0.17217930401E+03  0.23039405417E+03  0.31597031893E+03  0.12500000000E+03 0.  0.
         25    1    1    2    0    0  0.30624656512E+02 -0.68045079705E+02 -0.68671421422E+01  0.14574004288E+03  0.12500000000E+03 0.  0.
         25    1    1    2    0    0  0.79124621494E+01 -0.10413422431E+03 -0.20709433541E+02  0.16419629828E+03  0.12500000000E+03 0.  0.
</event>
<event>
 5    0  0.5822326E-005  0.3084877E+03  0.7546771E-02  0.1081073E+00
         21   -1    0    0  502  501  0.00000000000E+00  0.00000000000E+00  0.88620691054E+03  0.88620691054E+03  0.00000000000E+00 0. -1.
         21   -1    0    0  501  502 -0.00000000000E+00 -0.00000000000E+00 -0.10738423932E+03  0.10738423932E+03  0.00000000000E+00 0. -1.
         25    1    1    2    0    0  0.57197542203E+02 -0.21146848678E+03  0.39814419751E+03  0.47131123660E+03  0.12500000000E+03 0.  0.
         25    1    1    2    0    0  0.30669582222E+02  0.11360872205E+03  0.22628216718E+03  0.28403553331E+03  0.12500000000E+03 0.  0.
         25    1    1    2    0    0 -0.87867124425E+02  0.97859764730E+02  0.15439630653E+03  0.23824437995E+03  0.12500000000E+03 0.  0.
</event>
<event>
 5    0  0.5822326E-005  0.2652649E+03  0.7546771E-02  0.1104021E+00
         21   -1    0    0  502  501  0.00000000000E+00  0.00000000000E+00  0.66962369445E+02  0.66962369445E+02  0.00000000000E+00 0.  1.
         21   -1    0    0  501  502 -0.00000000000E+00 -0.00000000000E+00 -0.10508208767E+04  0.10508208767E+04  0.00000000000E+00 0.  1.
         25    1    1    2    0    0 -0.61963446658E+00 -0.82187874048E+02 -0.60771265013E+03  0.62585533130E+03  0.12500000000E+03 0.  0.
         25    1    1    2    0    0  0.60009886641E+02  0.93991057122E+02 -0.26736025290E+03  0.31550278944E+03  0.12500000000E+03 0.  0.
         25    1    1    2    0    0 -0.59390252175E+02 -0.11803183074E+02 -0.10878560419E+03  0.17642512538E+03  0.12500000000E+03 0.  0.
</event>
<event>
 5    0  0.5822326E-005  0.3938580E+03  0.7546771E-02  0.1045927E+00
         21   -1    0    0  502  501  0.00000000000E+00  0.00000000000E+00  0.21406394202E+03  0.21406394202E+03  0.00000000000E+00 0. -1.
         21   -1    0    0  501  502 -0.00000000000E+00 -0.00000000000E+00 -0.72466243983E+03  0.72466243983E+03  0.00000000000E+00 0. -1.
         25    1    1    2    0    0  0.16207955476E+03 -0.96655129524E+02 -0.36832149479E+03  0.43231668908E+03  0.12500000000E+03 0.  0.
         25    1    1    2    0    0 -0.24734671867E+03  0.12518473147E+03 -0.17231729214E+03  0.34952806096E+03  0.12500000000E+03 0.  0.
         25    1    1    2    0    0  0.85267163908E+02 -0.28529601947E+02  0.30040289120E+02  0.15688163181E+03  0.12500000000E+03 0.  0.
</event>
<event>
 5    0  0.5822326E-005  0.2929582E+03  0.7546771E-02  0.1088815E+00
         21   -1    0    0  502  501  0.00000000000E+00  0.00000000000E+00  0.99036928107E+02  0.99036928107E+02  0.00000000000E+00 0.  1.
         21   -1    0    0  501  502 -0.00000000000E+00 -0.00000000000E+00 -0.86659101240E+03  0.86659101240E+03  0.00000000000E+00 0.  1.
         25    1    1    2    0    0  0.18563257881E+03 -0.44340525117E+02 -0.17846143768E+03  0.28965327760E+03  0.12500000000E+03 0.  0.
         25    1    1    2    0    0 -0.12758505063E+03 -0.13117966496E+02 -0.27471077001E+03  0.32793449551E+03  0.12500000000E+03 0.  0.
         25    1    1    2    0    0 -0.58047528182E+02  0.57458491613E+02 -0.31438187660E+03  0.34804016739E+03  0.12500000000E+03 0.  0.
</event>
<event>
 5    0  0.5822326E-005  0.3984221E+03  0.7546771E-02  0.1044327E+00
         21   -1    0    0  502  501  0.00000000000E+00  0.00000000000E+00  0.82547932665E+03  0.82547932665E+03  0.00000000000E+00 0. -1.
         21   -1    0    0  501  502 -0.00000000000E+00 -0.00000000000E+00 -0.19230060142E+03  0.19230060142E+03  0.00000000000E+00 0. -1.
         25    1    1    2    0    0  0.35173787564E+02  0.25306429752E+02  0.66700652803E+03  0.68000023467E+03  0.12500000000E+03 0.  0.
         25    1    1    2    0    0 -0.60565019093E+02 -0.11356681355E+03 -0.34304808782E+02  0.18266735500E+03  0.12500000000E+03 0.  0.
         25    1    1    2    0    0  0.25391231529E+02  0.88260383802E+02  0.47700598814E+00  0.15511233839E+03  0.12500000000E+03 0.  0.
</event>
<event>
 5    0  0.5822326E-005  0.2330146E+03  0.7546771E-02  0.1124536E+00
         21   -1    0    0  502  501  0.00000000000E+00  0.00000000000E+00  0.47895834655E+03  0.47895834655E+03  0.00000000000E+00 0. -1.
         21   -1    0    0  501  502 -0.00000000000E+00 -0.00000000000E+00 -0.11336227559E+03  0.11336227559E+03  0.00000000000E+00 0. -1.
         25    1    1    2    0    0  0.18803510808E+02 -0.74327986542E+02  0.27540914396E+03  0.31201509287E+03  0.12500000000E+03 0.  0.
         25    1    1    2    0    0  0.98619511875E+01  0.25925572356E+02  0.50052685422E+02  0.13747605137E+03  0.12500000000E+03 0.  0.
         25    1    1    2    0    0 -0.28665461995E+02  0.48402414187E+02  0.40134241574E+02  0.14282947790E+03  0.12500000000E+03 0.  0.
</event>
<event>
 5    0  0.5822326E-005  0.2843428E+03  0.7546771E-02  0.1093340E+00
         21   -1    0    0  502  501  0.00000000000E+00  0.00000000000E+00  0.26534423417E+04  0.26534423417E+04  0.00000000000E+00 0.  1.
         21   -1    0    0  501  502 -0.00000000000E+00 -0.00000000000E+00 -0.30470157290E+02  0.30470157290E+02  0.00000000000E+00 0.  1.
         25    1    1    2    0    0 -0.20404110068E+02  0.16266656309E+03  0.78239839770E+03  0.80910381977E+03  0.12500000000E+03 0.  0.
         25    1    1    2    0    0  0.98413841447E+02 -0.49211903245E+02  0.10131304410E+04  0.10267255651E+04  0.12500000000E+03 0.  0.
         25    1    1    2    0    0 -0.78009731379E+02 -0.11345465985E+03  0.82744334572E+03  0.84808311409E+03  0.12500000000E+03 0.  0.
</event>
<event>
 5    0  0.5822326E-005  0.2483966E+03  0.7546771E-02  0.1114322E+00
         21   -1    0    0  502  501  0.00000000000E+00  0.00000000000E+00  0.44791226402E+03  0.44791226402E+03  0.00000000000E+00 0. -1.
         21   -1    0    0  501  502 -0.00000000000E+00 -0.00000000000E+00 -0.13775212938E+03  0.13775212938E+03  0.00000000000E+00 0. -1.
         25    1    1    2    0    0 -0.82605559490E+02 -0.11627734588E+03  0.16323471803E+03  0.25022924049E+03  0.12500000000E+03 0.  0.
         25    1    1    2    0    0  0.71314882610E+02  0.42452158445E+02  0.10750730471E+03  0.18458282370E+03  0.12500000000E+03 0.  0.
         25    1    1    2    0    0  0.11290676880E+02  0.73825187435E+02  0.39418111894E+02  0.15085232921E+03  0.12500000000E+03 0.  0.
</event>
<event>
 5    0  0.5822326E-005  0.2743692E+03  0.7546771E-02  0.1098805E+00
         21   -1    0    0  502  501  0.00000000000E+00  0.00000000000E+00  0.44661391214E+03  0.44661391214E+03  0.00000000000E+00 0.  1.
         21   -1    0    0  501  502 -0.00000000000E+00 -0.00000000000E+00 -0.16855379591E+03  0.16855379591E+03  0.00000000000E+00 0.  1.
         25    1    1    2    0    0  0.43089683337E+02  0.17429252050E+03  0.95863355562E+02  0.23885013387E+03  0.12500000000E+03 0.  0.
         25    1    1    2    0    0  0.13946524135E+01 -0.12786338510E+03  0.14680893190E+03  0.23136303246E+03  0.12500000000E+03 0.  0.
         25    1    1    2    0    0 -0.44484335750E+02 -0.46429135402E+02  0.35387828770E+02  0.14495454172E+03  0.12500000000E+03 0.  0.
</event>
<event>
 5    0  0.5822326E-005  0.2064222E+03  0.7546771E-02  0.1144431E+00
         21   -1    0    0  502  501  0.00000000000E+00  0.00000000000E+00  0.25923575767E+03  0.25923575767E+03  0.00000000000E+00 0. -1.
         21   -1    0    0  501  502 -0.00000000000E+00 -0.00000000000E+00 -0.16436819692E+03  0.16436819692E+03  0.00000000000E+00 0. -1.
         25    1    1    2    0    0 -0.40448786353E+02  0.49731804208E+02  0.18569606253E+02  0.14170104779E+03  0.12500000000E+03 0.  0.
         25    1    1    2    0    0  0.21779012693E+02 -0.59771445752E+02  0.14936385043E+02  0.14104980227E+03  0.12500000000E+03 0.  0.
         25    1    1    2    0    0  0.18669773660E+02  0.10039641544E+02  0.61361569457E+02  0.14085310453E+03  0.12500000000E+03 0.  0.
</event>
<event>
 5    0  0.5822326E-005  0.2699325E+03  0.7546771E-02  0.1101318E+00
         21   -1    0    0  502  501  0.00000000000E+00  0.00000000000E+00  0.19828021624E+04  0.19828021624E+04  0.00000000000E+00 0. -1.
         21   -1    0    0  501  502 -0.00000000000E+00 -0.00000000000E+00 -0.36747769376E+02  0.36747769376E+02  0.00000000000E+00 0. -1.
         25    1    1    2    0    0  0.12986644579E+03  0.57769044544E+02  0.46893508019E+03  0.50569523004E+03  0.12500000000E+03 0.  0.
         25    1    1    2    0    0 -0.11527213854E+01 -0.61727349725E+02  0.85785046029E+03  0.86910529091E+03  0.12500000000E+03 0.  0.
         25    1    1    2    0    0 -0.12871372440E+03  0.39583051811E+01  0.61926885253E+03  0.64474941081E+03  0.12500000000E+03 0.  0.
</event>
<event>
 5    0  0.5822326E-005  0.1963573E+03  0.7546771E-02  0.1152849E+00
         21   -1    0    0  502  501  0.00000000000E+00  0.00000000000E+00  0.24712053432E+03  0.24712053432E+03  0.00000000000E+00 0.  1.
         21   -1    0    0  501  502 -0.00000000000E+00 -0.00000000000E+00 -0.15602172190E+03  0.15602172190E+03  0.00000000000E+00 0.  1.
         25    1    1    2    0    0 -0.13299709581E+02  0.32149464862E+02  0.56189821756E+01  0.12987318171E+03  0.12500000000E+03 0.  0.
         25    1    1    2    0    0 -0.18346727317E+02 -0.13116165749E+02  0.59934151397E+02  0.14044834891E+03  0.12500000000E+03 0.  0.
         25    1    1    2    0    0  0.31646436897E+02 -0.19033299113E+02  0.25545678843E+02  0.13282072561E+03  0.12500000000E+03 0.  0.
</event>
<event>
 5    0  0.5822326E-005  0.2646380E+03  0.7546771E-02  0.1104388E+00
         21   -1    0    0  502  501  0.00000000000E+00  0.00000000000E+00  0.11748859935E+03  0.11748859935E+03  0.00000000000E+00 0.  1.
         21   -1    0    0  501  502 -0.00000000000E+00 -0.00000000000E+00 -0.59608578527E+03  0.59608578527E+03  0.00000000000E+00 0.  1.
         25    1    1    2    0    0 -0.57578510380E+02 -0.89626657667E+01 -0.13472650690E+03  0.19280001529E+03  0.12500000000E+03 0.  0.
         25    1    1    2    0    0 -0.14142615788E+02 -0.13666926741E+03 -0.15086762282E+03  0.23930010834E+03  0.12500000000E+03 0.  0.
         25    1    1    2    0    0  0.71721126167E+02  0.14563193318E+03 -0.19300305621E+03  0.28147426100E+03  0.12500000000E+03 0.  0.
</event>
<event>
 5    0  0.5822326E-005  0.2295467E+03  0.7546771E-02  0.1126959E+00
         21   -1    0    0  502  501  0.00000000000E+00  0.00000000000E+00  0.33784090975E+03  0.33784090975E+03  0.00000000000E+00 0.  1.
         21   -1    0    0  501  502 -0.00000000000E+00 -0.00000000000E+00 -0.15596600564E+03  0.15596600564E+03  0.00000000000E+00 0.  1.
         25    1    1    2    0    0  0.76283025657E+02  0.41812419900E+01  0.12688474703E+03  0.19380743489E+03  0.12500000000E+03 0.  0.
         25    1    1    2    0    0 -0.10792436303E+03  0.84195759858E+01  0.30462718814E+02  0.16814141261E+03  0.12500000000E+03 0.  0.
         25    1    1    2    0    0  0.31641337374E+02 -0.12600817976E+02  0.24527438265E+02  0.13185806791E+03  0.12500000000E+03 0.  0.
</event>
<event>
 5    0  0.5822326E-005  0.2878769E+03  0.7546771E-02  0.1091463E+00
         21   -1    0    0  502  501  0.00000000000E+00  0.00000000000E+00  0.67770602345E+03  0.67770602345E+03  0.00000000000E+00 0.  1.
         21   -1    0    0  501  502 -0.00000000000E+00 -0.00000000000E+00 -0.12228475171E+03  0.12228475171E+03  0.00000000000E+00 0.  1.
         25    1    1    2    0    0  0.94746622989E+02 -0.17424616058E+03  0.31843205981E+03  0.39542714090E+03  0.12500000000E+03 0.  0.
         25    1    1    2    0    0 -0.28516821016E+02  0.54501784873E+02  0.13007386503E+03  0.19059869884E+03  0.12500000000E+03 0.  0.
         25    1    1    2    0    0 -0.66229801973E+02  0.11974437571E+03  0.10691534690E+03  0.21396493541E+03  0.12500000000E+03 0.  0.
</event>
<event>
 5    0  0.5822326E-005  0.2805703E+03  0.7546771E-02  0.1095378E+00
         21   -1    0    0  502  501  0.00000000000E+00  0.00000000000E+00  0.19273306948E+03  0.19273306948E+03  0.00000000000E+00 0. -1.
         21   -1    0    0  501  502 -0.00000000000E+00 -0.00000000000E+00 -0.40843893209E+03  0.40843893209E+03  0.00000000000E+00 0. -1.
         25    1    1    2    0    0 -0.17574755874E+02  0.90630992864E+02  0.19913910239E+01  0.15540854079E+03  0.12500000000E+03 0.  0.
         25    1    1    2    0    0 -0.52702007474E+02 -0.17555643151E+03 -0.11347679338E+03  0.24919780271E+03  0.12500000000E+03 0.  0.
         25    1    1    2    0    0  0.70276763348E+02  0.84925438650E+02 -0.10422046026E+03  0.19656565807E+03  0.12500000000E+03 0.  0.
</event>
<event>
 5    0  0.5822326E-005  0.3958356E+03  0.7546771E-02  0.1045231E+00
         21   -1    0    0  502  501  0.00000000000E+00  0.00000000000E+00  0.62193465100E+03  0.62193465100E+03  0.00000000000E+00 0.  1.
         21   -1    0    0  501  502 -0.00000000000E+00 -0.00000000000E+00 -0.25193287283E+03  0.25193287283E+03  0.00000000000E+00 0.  1.
         25    1    1    2    0    0 -0.32074717013E+00  0.13646088930E+03  0.53048970632E+02  0.19251200086E+03  0.12500000000E+03 0.  0.
         25    1    1    2    0    0  0.21379160889E+03 -0.15453064835E+03  0.17379841270E+02  0.29242713997E+03  0.12500000000E+03 0.  0.
         25    1    1    2    0    0 -0.21347086172E+03  0.18069759042E+02  0.29957296626E+03  0.38892838301E+03  0.12500000000E+03 0.  0.
</event>
<event>
 5    0  0.5822326E-005  0.4628974E+03  0.7546771E-02  0.1023944E+00
         21   -1    0    0  502  501  0.00000000000E+00  0.00000000000E+00  0.28827097909E+03  0.28827097909E+03  0.00000000000E+00 0. -1.
         21   -1    0    0  501  502 -0.00000000000E+00 -0.00000000000E+00 -0.74330758641E+03  0.74330758641E+03  0.00000000000E+00 0. -1.
         25    1    1    2    0    0 -0.29985347723E+02  0.19262456503E+03 -0.56739229027E+03  0.61283142477E+03  0.12500000000E+03 0.  0.
         25    1    1    2    0    0  0.48929285797E+02 -0.65002396393E+02 -0.68243694429E+02  0.16401703684E+03  0.12500000000E+03 0.  0.
         25    1    1    2    0    0 -0.18943938073E+02 -0.12762216864E+03  0.18059937737E+03  0.25473010388E+03  0.12500000000E+03 0.  0.
</event>
<event>
 5    0  0.5822326E-005  0.2676625E+03  0.7546771E-02  0.1102625E+00
         21   -1    0    0  502  501  0.00000000000E+00  0.00000000000E+00  0.11546327951E+03  0.11546327951E+03  0.00000000000E+00 0.  1.
         21   -1    0    0  501  502 -0.00000000000E+00 -0.00000000000E+00 -0.62048500614E+03  0.62048500614E+03  0.00000000000E+00 0.  1.
         25    1    1    2    0    0  0.38574786314E+02  0.56856521348E+02 -0.11397733590E+02  0.14309292956E+03  0.12500000000E+03 0.  0.
         25    1    1    2    0    0 -0.74947239928E+02  0.51986174471E+02 -0.19009982528E+03  0.24511751198E+03  0.12500000000E+03 0.  0.
         25    1    1    2    0    0  0.36372453613E+02 -0.10884269582E+03 -0.30352416775E+03  0.34773784411E+03  0.12500000000E+03 0.  0.
</event>
<event>
 5    0  0.5822326E-005  0.5696977E+03  0.7546771E-02  0.9970348E-01
         21   -1    0    0  502  501  0.00000000000E+00  0.00000000000E+00  0.53876353672E+03  0.53876353672E+03  0.00000000000E+00 0. -1.
         21   -1    0    0  501  502 -0.00000000000E+00 -0.00000000000E+00 -0.60240802864E+03  0.60240802864E+03  0.00000000000E+00 0. -1.
         25    1    1    2    0    0 -0.12030471545E+03  0.36829457053E+03  0.22802161250E+03  0.46661865694E+03  0.12500000000E+03 0.  0.
         25    1    1    2    0    0 -0.20898156748E+01 -0.53683587372E+02  0.79429517570E+02  0.15754473379E+03  0.12500000000E+03 0.  0.
         25    1    1    2    0    0  0.12239453112E+03 -0.31461098315E+03 -0.37109562199E+03  0.51700817463E+03  0.12500000000E+03 0.  0.
</event>
<event>
 5    0  0.5822326E-005  0.2836405E+03  0.7546771E-02  0.1093717E+00
         21   -1    0    0  502  501  0.00000000000E+00  0.00000000000E+00  0.40267658105E+03  0.40267658105E+03  0.00000000000E+00 0. -1.
         21   -1    0    0  501  502 -0.00000000000E+00 -0.00000000000E+00 -0.19979299265E+03  0.19979299265E+03  0.00000000000E+00 0. -1.
         25    1    1    2    0    0  0.78602968071E+02 -0.17386000032E+03  0.96691470081E+02  0.24774980663E+03  0.12500000000E+03 0.  0.
         25    1    1    2    0    0 -0.74387097325E+02  0.57790511676E+02  0.55455010503E+01  0.15661716403E+03  0.12500000000E+03 0.  0.
         25    1    1    2    0    0 -0.42158707462E+01  0.11606948864E+03  0.10064661727E+03  0.19810260303E+03  0.12500000000E+03 0.  0.
</event>
<event>
 5    0  0.5822326E-005  0.2800666E+03  0.7546771E-02  0.1095653E+00
         21   -1    0    0  502  501  0.00000000000E+00  0.00000000000E+00  0.39523429863E+03  0.39523429863E+03  0.00000000000E+00 0.  1.
         21   -1    0    0  501  502 -0.00000000000E+00 -0.00000000000E+00 -0.19845765612E+03  0.19845765612E+03  0.00000000000E+00 0.  1.
         25    1    1    2    0    0 -0.17977313314E+03 -0.38718800798E+02  0.12668671049E+03  0.25591414097E+03  0.12500000000E+03 0.  0.
         25    1    1    2    0    0  0.65175161686E+02 -0.34612709385E+02  0.21532689142E+02  0.14674637322E+03  0.12500000000E+03 0.  0.
         25    1    1    2    0    0  0.11459797145E+03  0.73331510183E+02  0.48557242881E+02  0.19103144056E+03  0.12500000000E+03 0.  0.
</event>
<event>
 5    0  0.5822326E-005  0.2757936E+03  0.7546771E-02  0.1098009E+00
         21   -1    0    0  502  501  0.00000000000E+00  0.00000000000E+00  0.17875584421E+03  0.17875584421E+03  0.00000000000E+00 0. -1.
         21   -1    0    0  501  502 -0.00000000000E+00 -0.00000000000E+00 -0.42550836977E+03  0.42550836977E+03  0.00000000000E+00 0. -1.
         25    1    1    2    0    0  0.74258530331E+02  0.12617683949E+03 -0.88869031354E+02  0.21203214116E+03  0.12500000000E+03 0.  0.
         25    1    1    2    0    0 -0.54986038790E+02 -0.16841060587E+03 -0.54655593274E+02  0.22360194656E+03  0.12500000000E+03 0.  0.
         25    1    1    2    0    0 -0.19272491541E+02  0.42233766382E+02 -0.10322790093E+03  0.16863012627E+03  0.12500000000E+03 0.  0.
</event>
<event>
 5    0  0.5822326E-005  0.3036785E+03  0.7546771E-02  0.1083416E+00
         21   -1    0    0  502  501  0.00000000000E+00  0.00000000000E+00  0.84648810565E+02  0.84648810565E+02  0.00000000000E+00 0.  1.
         21   -1    0    0  501  502 -0.00000000000E+00 -0.00000000000E+00 -0.10894495477E+04  0.10894495477E+04  0.00000000000E+00 0.  1.
         25    1    1    2    0    0 -0.31278609405E+02 -0.80822346049E+02 -0.12286548301E+03  0.19552884683E+03  0.12500000000E+03 0.  0.
         25    1    1    2    0    0  0.10637308949E+03  0.48758463989E+02 -0.13832133640E+03  0.22011454763E+03  0.12500000000E+03 0.  0.
         25    1    1    2    0    0 -0.75094480084E+02  0.32063882060E+02 -0.74361391771E+03  0.75845496378E+03  0.12500000000E+03 0.  0.
</event>
<event>
 5    0  0.5822326E-005  0.2538392E+03  0.7546771E-02  0.1110902E+00
         21   -1    0    0  502  501  0.00000000000E+00  0.00000000000E+00  0.24235892857E+02  0.24235892857E+02  0.00000000000E+00 0.  1.
         21   -1    0    0  501  502 -0.00000000000E+00 -0.00000000000E+00 -0.26586334171E+04  0.26586334171E+04  0.00000000000E+00 0.  1.
         25    1    1    2    0    0  0.17903486499E+02 -0.11251242424E+02 -0.56622877951E+03  0.58024749549E+03  0.12500000000E+03 0.  0.
         25    1    1    2    0    0  0.13384994690E+02 -0.12768328016E+03 -0.12511933477E+04  0.12639588488E+04  0.12500000000E+03 0.  0.
         25    1    1    2    0    0 -0.31288481189E+02  0.13893452259E+03 -0.81697539703E+03  0.83866296566E+03  0.12500000000E+03 0.  0.
</event>
<event>
 5    0  0.5822326E-005  0.3310818E+03  0.7546771E-02  0.1070659E+00
         21   -1    0    0  502  501  0.00000000000E+00  0.00000000000E+00  0.39028877591E+03  0.39028877591E+03  0.00000000000E+00 0. -1.
         21   -1    0    0  501  502 -0.00000000000E+00 -0.00000000000E+00 -0.28085652241E+03  0.28085652241E+03  0.00000000000E+00 0. -1.
         25    1    1    2    0    0 -0.63956391188E+02 -0.10273932558E+03 -0.36450986833E+02  0.17776237913E+03  0.12500000000E+03 0.  0.
         25    1    1    2    0    0 -0.15360925843E+03  0.33690035620E+02  0.11456617696E+03  0.23126009530E+03  0.12500000000E+03 0.  0.
         25    1    1    2    0    0  0.21756564962E+03  0.69049289956E+02  0.31317063368E+02  0.26212282388E+03  0.12500000000E+03 0.  0.
</event>
<event>
 5    0  0.5924385E-005  0.3065090E+03  0.7546771E-02  0.1082031E+00
         21   -1    0    0  502  501  0.00000000000E+00  0.00000000000E+00  0.43382904691E+03  0.43382904691E+03  0.00000000000E+00 0.  1.
         21   -1    0    0  501  502 -0.00000000000E+00 -0.00000000000E+00 -0.21655478428E+03  0.21655478428E+03  0.00000000000E+00 0.  1.
         25    1    1    2    0    0 -0.44463476915E+02 -0.96816920094E+02  0.15138929763E+03  0.22337017758E+03  0.12500000000E+03 0.  0.
         25    1    1    2    0    0  0.16263633308E+03 -0.29007885569E+02  0.13832877395E+02  0.20762558311E+03  0.12500000000E+03 0.  0.
         25    1    1    2    0    0 -0.11817285617E+03  0.12582480566E+03  0.52052087615E+02  0.21938807050E+03  0.12500000000E+03 0.  0.
</event>
<event>
 5    0  0.5822326E-005  0.4796277E+03  0.7546771E-02  0.1019238E+00
         21   -1    0    0  502  501  0.00000000000E+00  0.00000000000E+00  0.28392842293E+03  0.28392842293E+03  0.00000000000E+00 0.  1.
         21   -1    0    0  501  502 -0.00000000000E+00 -0.00000000000E+00 -0.81021378427E+03  0.81021378427E+03  0.00000000000E+00 0.  1.
         25    1    1    2    0    0  0.19794397419E+03  0.23535148007E+03  0.54969766800E+02  0.33648003114E+03  0.12500000000E+03 0.  0.
         25    1    1    2    0    0 -0.19386800722E+03 -0.13996971041E+03 -0.52561506477E+03  0.59082359497E+03  0.12500000000E+03 0.  0.
         25    1    1    2    0    0 -0.40759669729E+01 -0.95381769669E+02 -0.55640063371E+02  0.16683858110E+03  0.12500000000E+03 0.  0.
</event>
<event>
 5    0  0.5822326E-005  0.4084931E+03  0.7546771E-02  0.1040878E+00
         21   -1    0    0  502  501  0.00000000000E+00  0.00000000000E+00  0.56317831199E+02  0.56317831199E+02  0.00000000000E+00 0. -1.
         21   -1    0    0  501  502 -0.00000000000E+00 -0.00000000000E+00 -0.29629439438E+04  0.29629439438E+04  0.00000000000E+00 0. -1.
         25    1    1    2    0    0  0.46687384886E+02 -0.12265872035E+03 -0.52085471171E+03  0.55148844439E+03  0.12500000000E+03 0.  0.
         25    1    1    2    0    0  0.22065816698E+03  0.17247202793E+02 -0.16284967187E+04  0.16482154153E+04  0.12500000000E+03 0.  0.
         25    1    1    2    0    0 -0.26734555187E+03  0.10541151756E+03 -0.75727468221E+03  0.81955791526E+03  0.12500000000E+03 0.  0.
</event>
<event>
 5    0  0.5822326E-005  0.2654256E+03  0.7546771E-02  0.1103927E+00
         21   -1    0    0  502  501  0.00000000000E+00  0.00000000000E+00  0.69188027353E+02  0.69188027353E+02  0.00000000000E+00 0. -1.
         21   -1    0    0  501  502 -0.00000000000E+00 -0.00000000000E+00 -0.10182506882E+04  0.10182506882E+04  0.00000000000E+00 0. -1.
         25    1    1    2    0    0  0.63661851876E+01  0.51999597262E+02 -0.64453232548E+02  0.15007899791E+03  0.12500000000E+03 0.  0.
         25    1    1    2    0    0  0.14724732988E+02 -0.11226403901E+03 -0.51992698226E+03  0.54659774890E+03  0.12500000000E+03 0.  0.
         25    1    1    2    0    0 -0.21090918175E+02  0.60264441744E+02 -0.36468244607E+03  0.39076196878E+03  0.12500000000E+03 0.  0.
</event>
<event>
 5    0  0.5822326E-005  0.6675319E+03  0.7546771E-02  0.9774427E-01
         21   -1    0    0  502  501  0.00000000000E+00  0.00000000000E+00  0.45997362908E+03  0.45997362908E+03  0.00000000000E+00 0. -1.
         21   -1    0    0  501  502 -0.00000000000E+00 -0.00000000000E+00 -0.96874868252E+03  0.96874868252E+03  0.00000000000E+00 0. -1.
         25    1    1    2    0    0 -0.12920005577E+03  0.10541964937E+02 -0.75090632444E+03  0.77219757545E+03  0.12500000000E+03 0.  0.
         25    1    1    2    0    0  0.41956398394E+02 -0.12643017108E+03  0.37928791216E+03  0.42098604233E+03  0.12500000000E+03 0.  0.
         25    1    1    2    0    0  0.87243657380E+02  0.11588820615E+03 -0.13715664115E+03  0.23553869383E+03  0.12500000000E+03 0.  0.
</event>
<event>
 5    0  0.5822326E-005  0.3970310E+03  0.7546771E-02  0.1044813E+00
         21   -1    0    0  502  501  0.00000000000E+00  0.00000000000E+00  0.51709703965E+03  0.51709703965E+03  0.00000000000E+00 0.  1.
         21   -1    0    0  501  502 -0.00000000000E+00 -0.00000000000E+00 -0.30484334212E+03  0.30484334212E+03  0.00000000000E+00 0.  1.
         25    1    1    2    0    0  0.16186365793E+03  0.14312416331E+03  0.49569446006E+02  0.25449263223E+03  0.12500000000E+03 0.  0.
         25    1    1    2    0    0 -0.16611026631E+03 -0.42481224906E+02  0.29224615736E+03  0.36115106470E+03  0.12500000000E+03 0.  0.
         25    1    1    2    0    0  0.42466083830E+01 -0.10064293840E+03 -0.12956190583E+03  0.20629668484E+03  0.12500000000E+03 0.  0.
</event>
<event>
 5    0  0.5822326E-005  0.3687669E+03  0.7546771E-02  0.1055165E+00
         21   -1    0    0  502  501  0.00000000000E+00  0.00000000000E+00  0.41113488392E+03  0.41113488392E+03  0.00000000000E+00 0. -1.
         21   -1    0    0  501  502 -0.00000000000E+00 -0.00000000000E+00 -0.33076502491E+03  0.33076502491E+03  0.00000000000E+00 0. -1.
         25    1    1    2    0    0 -0.21667800595E+03 -0.15601107813E+03 -0.29904182042E+01  0.29482665647E+03  0.12500000000E+03 0.  0.
         25    1    1    2    0    0  0.21596547765E+03  0.38572994845E+02 -0.82420393024E+01  0.25262995602E+03  0.12500000000E+03 0.  0.
         25    1    1    2    0    0  0.71252830556E+00  0.11743808329E+03  0.91602316510E+02  0.19444329634E+03  0.12500000000E+03 0.  0.
</event>
<event>
 5    0  0.5822326E-005  0.2279681E+03  0.7546771E-02  0.1128078E+00
         21   -1    0    0  502  501  0.00000000000E+00  0.00000000000E+00  0.99059675497E+02  0.99059675497E+02  0.00000000000E+00 0.  1.
         21   -1    0    0  501  502 -0.00000000000E+00 -0.00000000000E+00 -0.52462765244E+03  0.52462765244E+03  0.00000000000E+00 0.  1.
         25    1    1    2    0    0  0.87343970743E+02  0.65465943090E+01 -0.98413147160E+02  0.18160940134E+03  0.12500000000E+03 0.  0.
         25    1    1    2    0    0 -0.48209464972E+02 -0.30324150832E+02 -0.73934645567E+02  0.15599691808E+03  0.12500000000E+03 0.  0.
         25    1    1    2    0    0 -0.39134505771E+02  0.23777556523E+02 -0.25322018422E+03  0.28608100851E+03  0.12500000000E+03 0.  0.
</event>
<event>
 5    0  0.5822326E-005  0.3470133E+03  0.7546771E-02  0.1063848E+00
         21   -1    0    0  502  501  0.00000000000E+00  0.00000000000E+00  0.10137443372E+03  0.10137443372E+03  0.00000000000E+00 0. -1.
         21   -1    0    0  501  502 -0.00000000000E+00 -0.00000000000E+00 -0.11878557717E+04  0.11878557717E+04  0.00000000000E+00 0. -1.
         25    1    1    2    0    0  0.89429090711E+02  0.25891177012E+01 -0.14542157279E+03  0.21160505577E+03  0.12500000000E+03 0.  0.
         25    1    1    2    0    0 -0.19693340788E+03  0.13398893273E+03 -0.30589054550E+03  0.40734485029E+03  0.12500000000E+03 0.  0.
         25    1    1    2    0    0  0.10750431717E+03 -0.13657805043E+03 -0.63516921968E+03  0.67028029935E+03  0.12500000000E+03 0.  0.
</event>
<event>
 5    0  0.5822326E-005  0.2902865E+03  0.7546771E-02  0.1090200E+00
         21   -1    0    0  502  501  0.00000000000E+00  0.00000000000E+00  0.30145504583E+03  0.30145504583E+03  0.00000000000E+00 0.  1.
         21   -1    0    0  501  502 -0.00000000000E+00 -0.00000000000E+00 -0.27953174589E+03  0.27953174589E+03  0.00000000000E+00 0.  1.
         25    1    1    2    0    0 -0.15198241320E+03  0.12829724009E+01 -0.96466616046E+02  0.21916000536E+03  0.12500000000E+03 0.  0.
         25    1    1    2    0    0  0.16790801558E+03 -0.21550113177E+02  0.99623124305E+02  0.23282456049E+03  0.12500000000E+03 0.  0.
         25    1    1    2    0    0 -0.15925602380E+02  0.20267140777E+02  0.18766791680E+02  0.12900222586E+03  0.12500000000E+03 0.  0.
</event>
<event>
 5    0  0.5822326E-005  0.2590914E+03  0.7546771E-02  0.1107690E+00
         21   -1    0    0  502  501  0.00000000000E+00  0.00000000000E+00  0.15598666689E+04  0.15598666689E+04  0.00000000000E+00 0.  1.
         21   -1    0    0  501  502 -0.00000000000E+00 -0.00000000000E+00 -0.43034678800E+02  0.43034678800E+02  0.00000000000E+00 0.  1.
         25    1    1    2    0    0  0.22822022158E+02 -0.76655148302E+01  0.98484973973E+03  0.99304260465E+03  0.12500000000E+03 0.  0.
         25    1    1    2    0    0 -0.41568881707E+02  0.77586897732E+02  0.25024061178E+03  0.29324573724E+03  0.12500000000E+03 0.  0.
         25    1    1    2    0    0  0.18746859549E+02 -0.69921382902E+02  0.28174163860E+03  0.31661300582E+03  0.12500000000E+03 0.  0.
</event>
<event>
 5    0  0.5822326E-005  0.4488513E+03  0.7546771E-02  0.1028065E+00
         21   -1    0    0  502  501  0.00000000000E+00  0.00000000000E+00  0.33103791618E+03  0.33103791618E+03  0.00000000000E+00 0.  1.
         21   -1    0    0  501  502 -0.00000000000E+00 -0.00000000000E+00 -0.60859335988E+03  0.60859335988E+03  0.00000000000E+00 0.  1.
         25    1    1    2    0    0  0.10405990843E+03  0.23618193912E+03 -0.38303896535E+03  0.47849161110E+03  0.12500000000E+03 0.  0.
         25    1    1    2    0    0  0.74934145195E+02 -0.30917424469E+02  0.42549830477E+02  0.15494031537E+03  0.12500000000E+03 0.  0.
         25    1    1    2    0    0 -0.17899405363E+03 -0.20526451465E+03  0.62933691172E+02  0.30619934960E+03  0.12500000000E+03 0.  0.
</event>
<event>
 5    0  0.5822326E-005  0.2481831E+03  0.7546771E-02  0.1114458E+00
         21   -1    0    0  502  501  0.00000000000E+00  0.00000000000E+00  0.71749996369E+03  0.71749996369E+03  0.00000000000E+00 0. -1.
         21   -1    0    0  501  502 -0.00000000000E+00 -0.00000000000E+00 -0.85846513077E+02  0.85846513077E+02  0.00000000000E+00 0. -1.
         25    1    1    2    0    0  0.58864095103E+02  0.26181078198E+02  0.13091079307E+03  0.19212773431E+03  0.12500000000E+03 0.  0.
         25    1    1    2    0    0  0.16129964837E+02  0.47386417721E+02  0.39341680566E+03  0.41582139354E+03  0.12500000000E+03 0.  0.
         25    1    1    2    0    0 -0.74994059940E+02 -0.73567495919E+02  0.10732585188E+03  0.19539734892E+03  0.12500000000E+03 0.  0.
</event>
<event>
 5    0  0.5822326E-005  0.4435430E+03  0.7546771E-02  0.1029665E+00
         21   -1    0    0  502  501  0.00000000000E+00  0.00000000000E+00  0.13617365162E+03  0.13617365162E+03  0.00000000000E+00 0.  1.
         21   -1    0    0  501  502 -0.00000000000E+00 -0.00000000000E+00 -0.14447020222E+04  0.14447020222E+04  0.00000000000E+00 0.  1.
         25    1    1    2    0    0  0.72447288403E+02  0.27267970136E+02  0.62583170400E+02  0.15979300676E+03  0.12500000000E+03 0.  0.
         25    1    1    2    0    0 -0.90493895898E+02  0.79948045758E+02 -0.40271330669E+03  0.43861582575E+03  0.12500000000E+03 0.  0.
         25    1    1    2    0    0  0.18046607495E+02 -0.10721601589E+03 -0.96839823426E+03  0.98246684129E+03  0.12500000000E+03 0.  0.
</event>
<event>
 5    0  0.5822326E-005  0.2704419E+03  0.7546771E-02  0.1101027E+00
         21   -1    0    0  502  501  0.00000000000E+00  0.00000000000E+00  0.94939379639E+03  0.94939379639E+03  0.00000000000E+00 0.  1.
         21   -1    0    0  501  502 -0.00000000000E+00 -0.00000000000E+00 -0.77037363771E+02  0.77037363771E+02  0.00000000000E+00 0.  1.
         25    1    1    2    0    0  0.11074869274E+03 -0.10459155139E+03  0.17702533673E+03  0.26489174281E+03  0.12500000000E+03 0.  0.
         25    1    1    2    0    0 -0.10336200858E+03  0.30673575108E+02  0.37897017694E+03  0.41336178831E+03  0.12500000000E+03 0.  0.
         25    1    1    2    0    0 -0.73866841617E+01  0.73917976284E+02  0.31636091895E+03  0.34817762903E+03  0.12500000000E+03 0.  0.
</event>
<event>
 5    0  0.5822326E-005  0.2591731E+03  0.7546771E-02  0.1107641E+00
         21   -1    0    0  502  501  0.00000000000E+00  0.00000000000E+00  0.83772307947E+03  0.83772307947E+03  0.00000000000E+00 0.  1.
         21   -1    0    0  501  502 -0.00000000000E+00 -0.00000000000E+00 -0.80182488077E+02  0.80182488077E+02  0.00000000000E+00 0.  1.
         25    1    1    2    0    0 -0.35689166163E+02 -0.36844407775E+02  0.18530357706E+03  0.22933303869E+03  0.12500000000E+03 0.  0.
         25    1    1    2    0    0  0.11800981474E+03  0.99219088427E+02  0.42705222560E+03  0.47092392939E+03  0.12500000000E+03 0.  0.
         25    1    1    2    0    0 -0.82320648577E+02 -0.62374680652E+02  0.14518478874E+03  0.21764859947E+03  0.12500000000E+03 0.  0.
</event>
<event>
 5    0  0.5822326E-005  0.2789031E+03  0.7546771E-02  0.1096290E+00
         21   -1    0    0  502  501  0.00000000000E+00  0.00000000000E+00  0.72179844900E+02  0.72179844900E+02  0.00000000000E+00 0.  1.
         21   -1    0    0  501  502 -0.00000000000E+00 -0.00000000000E+00 -0.10776821029E+04  0.10776821029E+04  0.00000000000E+00 0.  1.
         25    1    1    2    0    0  0.12051405871E+03 -0.15361837301E+02 -0.24769438491E+03  0.30288138389E+03  0.12500000000E+03 0.  0.
         25    1    1    2    0    0 -0.78755883301E+02  0.12328106794E+03 -0.52000664608E+03  0.55446607005E+03  0.12500000000E+03 0.  0.
         25    1    1    2    0    0 -0.41758175407E+02 -0.10791923064E+03 -0.23780122706E+03  0.29251449391E+03  0.12500000000E+03 0.  0.
</event>
<event>
 5    0  0.5822326E-005  0.3669551E+03  0.7546771E-02  0.1055863E+00
         21   -1    0    0  502  501  0.00000000000E+00  0.00000000000E+00  0.27003403639E+03  0.27003403639E+03  0.00000000000E+00 0. -1.
         21   -1    0    0  501  502 -0.00000000000E+00 -0.00000000000E+00 -0.49866318010E+03  0.49866318010E+03  0.00000000000E+00 0. -1.
         25    1    1    2    0    0 -0.91738366867E+00  0.11462708684E+03  0.40466140802E+02  0.17436375536E+03  0.12500000000E+03 0.  0.
         25    1    1    2    0    0 -0.78182912904E+02  0.17344570261E+02 -0.35003034000E+03  0.38020999580E+03  0.12500000000E+03 0.  0.
         25    1    1    2    0    0  0.79100296573E+02 -0.13197165710E+03  0.80935055485E+02  0.21412346532E+03  0.12500000000E+03 0.  0.
</event>
<event>
 5    0  0.5822326E-005  0.2675789E+03  0.7546771E-02  0.1102673E+00
         21   -1    0    0  502  501  0.00000000000E+00  0.00000000000E+00  0.24484459001E+03  0.24484459001E+03  0.00000000000E+00 0.  1.
         21   -1    0    0  501  502 -0.00000000000E+00 -0.00000000000E+00 -0.29242409915E+03  0.29242409915E+03  0.00000000000E+00 0.  1.
         25    1    1    2    0    0 -0.17341322596E+03 -0.11574141165E+02 -0.24818708256E+02  0.21551583692E+03  0.12500000000E+03 0.  0.
         25    1    1    2    0    0  0.11972209283E+03 -0.10614154101E+02 -0.51606705494E+02  0.18092620548E+03  0.12500000000E+03 0.  0.
         25    1    1    2    0    0  0.53691133134E+02  0.22188295266E+02  0.28845904611E+02  0.14082664676E+03  0.12500000000E+03 0.  0.
</event>
<event>
 5    0  0.5822326E-005  0.3908173E+03  0.7546771E-02  0.1047007E+00
         21   -1    0    0  502  501  0.00000000000E+00  0.00000000000E+00  0.21370360033E+03  0.21370360033E+03  0.00000000000E+00 0.  1.
         21   -1    0    0  501  502 -0.00000000000E+00 -0.00000000000E+00 -0.71471962194E+03  0.71471962194E+03  0.00000000000E+00 0.  1.
         25    1    1    2    0    0  0.22321417646E+03 -0.41544151657E+02 -0.47137139998E+02  0.26343385332E+03  0.12500000000E+03 0.  0.
         25    1    1    2    0    0 -0.21239497245E+03  0.17305323655E+03 -0.31873626789E+03  0.43849384884E+03  0.12500000000E+03 0.  0.
         25    1    1    2    0    0 -0.10819204008E+02 -0.13150908489E+03 -0.13514261372E+03  0.22649552010E+03  0.12500000000E+03 0.  0.
</event>
<event>
 5    0  0.5822326E-005  0.3191508E+03  0.7546771E-02  0.1076041E+00
         21   -1    0    0  502  501  0.00000000000E+00  0.00000000000E+00  0.29388838488E+03  0.29388838488E+03  0.00000000000E+00 0.  1.
         21   -1    0    0  501  502 -0.00000000000E+00 -0.00000000000E+00 -0.34658473001E+03  0.34658473001E+03  0.00000000000E+00 0.  1.
         25    1    1    2    0    0 -0.15326304550E+03  0.30605209142E+02 -0.13438497489E+03  0.24106132294E+03  0.12500000000E+03 0.  0.
         25    1    1    2    0    0  0.75236669191E+02  0.51070580474E+02  0.15205822342E+03  0.21683049576E+03  0.12500000000E+03 0.  0.
         25    1    1    2    0    0  0.78026376305E+02 -0.81675789615E+02 -0.70369593662E+02  0.18258129620E+03  0.12500000000E+03 0.  0.
</event>
<event>
 5    0  0.5822326E-005  0.3417621E+03  0.7546771E-02  0.1066048E+00
         21   -1    0    0  502  501  0.00000000000E+00  0.00000000000E+00  0.11730630305E+04  0.11730630305E+04  0.00000000000E+00 0.  1.
         21   -1    0    0  501  502 -0.00000000000E+00 -0.00000000000E+00 -0.99569500707E+02  0.99569500707E+02  0.00000000000E+00 0.  1.
         25    1    1    2    0    0  0.18457961342E+03  0.20090684809E+03  0.52304801214E+03  0.60302356364E+03  0.12500000000E+03 0.  0.
         25    1    1    2    0    0 -0.10457166111E+03 -0.97023724479E+02  0.20329666766E+03  0.27803483685E+03  0.12500000000E+03 0.  0.
         25    1    1    2    0    0 -0.80007952313E+02 -0.10388312361E+03  0.34714885004E+03  0.39157413077E+03  0.12500000000E+03 0.  0.
</event>
<event>
 5    0  0.5822326E-005  0.2460777E+03  0.7546771E-02  0.1115809E+00
         21   -1    0    0  502  501  0.00000000000E+00  0.00000000000E+00  0.18082090335E+03  0.18082090335E+03  0.00000000000E+00 0.  1.
         21   -1    0    0  501  502 -0.00000000000E+00 -0.00000000000E+00 -0.33488502812E+03  0.33488502812E+03  0.00000000000E+00 0.  1.
         25    1    1    2    0    0 -0.74982179335E+02  0.27122769442E+02 -0.19059966023E+03  0.24147712587E+03  0.12500000000E+03 0.  0.
         25    1    1    2    0    0  0.38546228140E+02 -0.21287085028E+02 -0.16432431069E+02  0.13354391219E+03  0.12500000000E+03 0.  0.
         25    1    1    2    0    0  0.36435951195E+02 -0.58356844133E+01  0.52967966535E+02  0.14068489340E+03  0.12500000000E+03 0.  0.
</event>
<event>
 5    0  0.5822326E-005  0.2279796E+03  0.7546771E-02  0.1128070E+00
         21   -1    0    0  502  501  0.00000000000E+00  0.00000000000E+00  0.53645224036E+02  0.53645224036E+02  0.00000000000E+00 0.  1.
         21   -1    0    0  501  502 -0.00000000000E+00 -0.00000000000E+00 -0.96885997824E+03  0.96885997824E+03  0.00000000000E+00 0.  1.
         25    1    1    2    0    0 -0.11838995696E+01 -0.93724770783E+02 -0.34067680970E+03  0.37479517466E+03  0.12500000000E+03 0.  0.
         25    1    1    2    0    0  0.46552269764E+02  0.28740981230E+02 -0.17682795882E+03  0.22335237819E+03  0.12500000000E+03 0.  0.
         25    1    1    2    0    0 -0.45368370195E+02  0.64983789553E+02 -0.39770998569E+03  0.42435764943E+03  0.12500000000E+03 0.  0.
</event>
<event>
 5    0  0.5822326E-005  0.4233923E+03  0.7546771E-02  0.1035968E+00
         21   -1    0    0  502  501  0.00000000000E+00  0.00000000000E+00  0.40738210694E+03  0.40738210694E+03  0.00000000000E+00 0. -1.
         21   -1    0    0  501  502 -0.00000000000E+00 -0.00000000000E+00 -0.44003168291E+03  0.44003168291E+03  0.00000000000E+00 0. -1.
         25    1    1    2    0    0 -0.27953719572E+03  0.16712504985E+03  0.14164282005E+03  0.37650964735E+03  0.12500000000E+03 0.  0.
         25    1    1    2    0    0  0.79985096527E+02 -0.65184765281E+02 -0.24801446835E+01  0.16210435037E+03  0.12500000000E+03 0.  0.
         25    1    1    2    0    0  0.19955209919E+03 -0.10194028457E+03 -0.17181225133E+03  0.30879979213E+03  0.12500000000E+03 0.  0.
</event>
<event>
 5    0  0.5822326E-005  0.2298341E+03  0.7546771E-02  0.1126757E+00
         21   -1    0    0  502  501  0.00000000000E+00  0.00000000000E+00  0.48846002615E+03  0.48846002615E+03  0.00000000000E+00 0.  1.
         21   -1    0    0  501  502 -0.00000000000E+00 -0.00000000000E+00 -0.10814339555E+03  0.10814339555E+03  0.00000000000E+00 0.  1.
         25    1    1    2    0    0 -0.12982726196E+01 -0.53701053746E+02  0.27976906379E+03  0.31109679802E+03  0.12500000000E+03 0.  0.
         25    1    1    2    0    0 -0.96276228576E+01 -0.86129727062E+01  0.32733042814E+02  0.12985887152E+03  0.12500000000E+03 0.  0.
         25    1    1    2    0    0  0.10925895477E+02  0.62314026452E+02  0.67814523994E+02  0.15564775215E+03  0.12500000000E+03 0.  0.
</event>
<event>
 5    0  0.5822326E-005  0.3224146E+03  0.7546771E-02  0.1074543E+00
         21   -1    0    0  502  501  0.00000000000E+00  0.00000000000E+00  0.17453763294E+03  0.17453763294E+03  0.00000000000E+00 0. -1.
         21   -1    0    0  501  502 -0.00000000000E+00 -0.00000000000E+00 -0.59558027044E+03  0.59558027044E+03  0.00000000000E+00 0. -1.
         25    1    1    2    0    0  0.23057090053E+03  0.62669643269E+02 -0.83940789557E+02  0.28242075085E+03  0.12500000000E+03 0.  0.
         25    1    1    2    0    0 -0.13027850595E+03 -0.42030593550E+02 -0.13703223591E+03  0.23052525585E+03  0.12500000000E+03 0.  0.
         25    1    1    2    0    0 -0.10029239457E+03 -0.20639049719E+02 -0.20006961203E+03  0.25717189668E+03  0.12500000000E+03 0.  0.
</event>
<event>
 5    0  0.5822326E-005  0.4829840E+03  0.7546771E-02  0.1018318E+00
         21   -1    0    0  502  501  0.00000000000E+00  0.00000000000E+00  0.14361191058E+04  0.14361191058E+04  0.00000000000E+00 0.  1.
         21   -1    0    0  501  502 -0.00000000000E+00 -0.00000000000E+00 -0.16243328838E+03  0.16243328838E+03  0.00000000000E+00 0.  1.
         25    1    1    2    0    0  0.35048543371E+03 -0.16250159638E+03  0.33202770020E+03  0.52451329990E+03  0.12500000000E+03 0.  0.
         25    1    1    2    0    0 -0.27938427759E+03  0.18904865700E+03  0.75991047564E+03  0.84076387902E+03  0.12500000000E+03 0.  0.
         25    1    1    2    0    0 -0.71101156127E+02 -0.26547060623E+02  0.18174764158E+03  0.23327521525E+03  0.12500000000E+03 0.  0.
</event>
<event>
 5    0  0.5822326E-005  0.2916294E+03  0.7546771E-02  0.1089501E+00
         21   -1    0    0  502  501  0.00000000000E+00  0.00000000000E+00  0.27193048935E+03  0.27193048935E+03  0.00000000000E+00 0.  1.
         21   -1    0    0  501  502 -0.00000000000E+00 -0.00000000000E+00 -0.31275521873E+03  0.31275521873E+03  0.00000000000E+00 0.  1.
         25    1    1    2    0    0  0.12938851984E+03 -0.16022667442E+03 -0.60242402205E+02  0.24833067327E+03  0.12500000000E+03 0.  0.
         25    1    1    2    0    0 -0.71774024037E+02  0.37838731894E+02 -0.12021081077E+02  0.14950848320E+03  0.12500000000E+03 0.  0.
         25    1    1    2    0    0 -0.57614495803E+02  0.12238794253E+03  0.31438753909E+02  0.18684655161E+03  0.12500000000E+03 0.  0.
</event>
<event>
 5    0  0.5822326E-005  0.2298017E+03  0.7546771E-02  0.1126779E+00
         21   -1    0    0  502  501  0.00000000000E+00  0.00000000000E+00  0.65330672391E+02  0.65330672391E+02  0.00000000000E+00 0. -1.
         21   -1    0    0  501  502 -0.00000000000E+00 -0.00000000000E+00 -0.80833090794E+03  0.80833090794E+03  0.00000000000E+00 0. -1.
         25    1    1    2    0    0  0.40062098695E+02  0.50849874884E+02 -0.25580804701E+03  0.29198191458E+03  0.12500000000E+03 0.  0.
         25    1    1    2    0    0  0.62443300496E+02  0.49857713772E+01 -0.28041053866E+03  0.31333543349E+03  0.12500000000E+03 0.  0.
         25    1    1    2    0    0 -0.10250539919E+03 -0.55835646261E+02 -0.20678164989E+03  0.26834423226E+03  0.12500000000E+03 0.  0.
</event>
<event>
 5    0  0.6582180E-005  0.3512703E+03  0.7546771E-02  0.1062095E+00
         21   -1    0    0  502  501  0.00000000000E+00  0.00000000000E+00  0.58620367763E+03  0.58620367763E+03  0.00000000000E+00 0. -1.
         21   -1    0    0  501  502 -0.00000000000E+00 -0.00000000000E+00 -0.21049139623E+03  0.21049139623E+03  0.00000000000E+00 0. -1.
         25    1    1    2    0    0 -0.20601387129E+03 -0.69969041017E+02 -0.18015212835E+02  0.25156893639E+03  0.12500000000E+03 0.  0.
         25    1    1    2    0    0  0.50036343565E+02  0.98462823401E+02  0.23559090133E+03  0.28866353434E+03  0.12500000000E+03 0.  0.
         25    1    1    2    0    0  0.15597752772E+03 -0.28493782384E+02  0.15813659291E+03  0.25646260313E+03  0.12500000000E+03 0.  0.
</event>
<event>
 5    0  0.6063440E-005  0.2782100E+03  0.7546771E-02  0.1096671E+00
         21   -1    0    0  502  501  0.00000000000E+00  0.00000000000E+00  0.44229801689E+03  0.44229801689E+03  0.00000000000E+00 0.  1.
         21   -1    0    0  501  502 -0.00000000000E+00 -0.00000000000E+00 -0.17499701039E+03  0.17499701039E+03  0.00000000000E+00 0.  1.
         25    1    1    2    0    0  0.75923426577E+02  0.61821865506E+02  0.72617417495E+02  0.17459839370E+03  0.12500000000E+03 0.  0.
         25    1    1    2    0    0 -0.15660913207E+03 -0.10226062836E+03  0.48286139108E+02  0.23008739120E+03  0.12500000000E+03 0.  0.
         25    1    1    2    0    0  0.80685705491E+02  0.40438762853E+02  0.14639744990E+03  0.21260924239E+03  0.12500000000E+03 0.  0.
</event>
<event>
 5    0  0.5822326E-005  0.2672685E+03  0.7546771E-02  0.1102853E+00
         21   -1    0    0  502  501  0.00000000000E+00  0.00000000000E+00  0.72437829436E+03  0.72437829436E+03  0.00000000000E+00 0.  1.
         21   -1    0    0  501  502 -0.00000000000E+00 -0.00000000000E+00 -0.98612046915E+02  0.98612046915E+02  0.00000000000E+00 0.  1.
         25    1    1    2    0    0 -0.11529037190E+03 -0.11240874623E+03  0.17036411985E+03  0.26566243508E+03  0.12500000000E+03 0.  0.
         25    1    1    2    0    0  0.51234117941E+02  0.10536393595E+03  0.31517340527E+03  0.35872798780E+03  0.12500000000E+03 0.  0.
         25    1    1    2    0    0  0.64056253957E+02  0.70448102794E+01  0.14022872232E+03  0.19859991840E+03  0.12500000000E+03 0.  0.
</event>
<event>
 5    0  0.5822326E-005  0.2554405E+03  0.7546771E-02  0.1109914E+00
         21   -1    0    0  502  501  0.00000000000E+00  0.00000000000E+00  0.10246242376E+04  0.10246242376E+04  0.00000000000E+00 0.  1.
         21   -1    0    0  501  502 -0.00000000000E+00 -0.00000000000E+00 -0.63681716327E+02  0.63681716327E+02  0.00000000000E+00 0.  1.
         25    1    1    2    0    0  0.19097268690E+02  0.32602313667E+02  0.28190586684E+03  0.31068236881E+03  0.12500000000E+03 0.  0.
         25    1    1    2    0    0 -0.10478022523E+03  0.87886822596E+02  0.33950106059E+03  0.38676731937E+03  0.12500000000E+03 0.  0.
         25    1    1    2    0    0  0.85682956545E+02 -0.12048913626E+03  0.33953559389E+03  0.39085626580E+03  0.12500000000E+03 0.  0.
</event>
<event>
 5    0  0.5822326E-005  0.3028773E+03  0.7546771E-02  0.1083811E+00
         21   -1    0    0  502  501  0.00000000000E+00  0.00000000000E+00  0.35934879487E+03  0.35934879487E+03  0.00000000000E+00 0. -1.
         21   -1    0    0  501  502 -0.00000000000E+00 -0.00000000000E+00 -0.25528032776E+03  0.25528032776E+03  0.00000000000E+00 0. -1.
         25    1    1    2    0    0 -0.11944426016E+03 -0.63283868256E+02  0.37128889177E+02  0.18781728802E+03  0.12500000000E+03 0.  0.
         25    1    1    2    0    0  0.16044702055E+03  0.11420335663E+03  0.13572180600E+03  0.26987230627E+03  0.12500000000E+03 0.  0.
         25    1    1    2    0    0 -0.41002760388E+02 -0.50919488376E+02 -0.68782228071E+02  0.15693952834E+03  0.12500000000E+03 0.  0.
</event>
<event>
 5    0  0.5822326E-005  0.3359191E+03  0.7546771E-02  0.1068547E+00
         21   -1    0    0  502  501  0.00000000000E+00  0.00000000000E+00  0.67658963286E+02  0.67658963286E+02  0.00000000000E+00 0. -1.
         21   -1    0    0  501  502 -0.00000000000E+00 -0.00000000000E+00 -0.16678007027E+04  0.16678007027E+04  0.00000000000E+00 0. -1.
         25    1    1    2    0    0  0.58590870905E+02  0.17365126385E+00 -0.33919385083E+03  0.36621085286E+03  0.12500000000E+03 0.  0.
         25    1    1    2    0    0 -0.18105970505E+03  0.15705175608E+03 -0.88862460539E+03  0.92883074894E+03  0.12500000000E+03 0.  0.
         25    1    1    2    0    0  0.12246883414E+03 -0.15722540734E+03 -0.37232328317E+03  0.44041806417E+03  0.12500000000E+03 0.  0.
</event>
<event>
 5    0  0.5822326E-005  0.2804804E+03  0.7546771E-02  0.1095427E+00
         21   -1    0    0  502  501  0.00000000000E+00  0.00000000000E+00  0.24206419279E+03  0.24206419279E+03  0.00000000000E+00 0. -1.
         21   -1    0    0  501  502 -0.00000000000E+00 -0.00000000000E+00 -0.32499337850E+03  0.32499337850E+03  0.00000000000E+00 0. -1.
         25    1    1    2    0    0 -0.38335836785E+02  0.23789939223E+02 -0.73799287549E+01  0.13309793739E+03  0.12500000000E+03 0.  0.
         25    1    1    2    0    0  0.65789486996E+02  0.40348889937E+02 -0.19733441486E+03  0.24601252165E+03  0.12500000000E+03 0.  0.
         25    1    1    2    0    0 -0.27453650211E+02 -0.64138829159E+02  0.12178515791E+03  0.18794711225E+03  0.12500000000E+03 0.  0.
</event>
<event>
 5    0  0.5822326E-005  0.4412693E+03  0.7546771E-02  0.1030358E+00
         21   -1    0    0  502  501  0.00000000000E+00  0.00000000000E+00  0.13450531305E+03  0.13450531305E+03  0.00000000000E+00 0.  1.
         21   -1    0    0  501  502 -0.00000000000E+00 -0.00000000000E+00 -0.14476645236E+04  0.14476645236E+04  0.00000000000E+00 0.  1.
         25    1    1    2    0    0 -0.14029324835E+03 -0.14355633606E+03 -0.11820360935E+03  0.26436283857E+03  0.12500000000E+03 0.  0.
         25    1    1    2    0    0  0.16670937921E+03  0.29265047929E+03 -0.77585609962E+03  0.85499357159E+03  0.12500000000E+03 0.  0.
         25    1    1    2    0    0 -0.26416130863E+02 -0.14909414323E+03 -0.41909950159E+03  0.46281342650E+03  0.12500000000E+03 0.  0.
</event>
<event>
 5    0  0.5822326E-005  0.2580226E+03  0.7546771E-02  0.1108337E+00
         21   -1    0    0  502  501  0.00000000000E+00  0.00000000000E+00  0.17317900307E+02  0.17317900307E+02  0.00000000000E+00 0.  1.
         21   -1    0    0  501  502 -0.00000000000E+00 -0.00000000000E+00 -0.38443276152E+04  0.38443276152E+04  0.00000000000E+00 0.  1.
         25    1    1    2    0    0 -0.23789314857E+02  0.90511553207E+02 -0.18179890509E+04  0.18246828387E+04  0.12500000000E+03 0.  0.
         25    1    1    2    0    0  0.96225156834E+02 -0.86110738417E+02 -0.13737863353E+04  0.13854920552E+04  0.12500000000E+03 0.  0.
         25    1    1    2    0    0 -0.72435841976E+02 -0.44008147902E+01 -0.63523432873E+03  0.65147062158E+03  0.12500000000E+03 0.  0.
</event>
<event>
 5    0  0.5822326E-005  0.2872921E+03  0.7546771E-02  0.1091771E+00
         21   -1    0    0  502  501  0.00000000000E+00  0.00000000000E+00  0.29108615569E+02  0.29108615569E+02  0.00000000000E+00 0.  1.
         21   -1    0    0  501  502 -0.00000000000E+00 -0.00000000000E+00 -0.28354749626E+04  0.28354749626E+04  0.00000000000E+00 0.  1.
         25    1    1    2    0    0 -0.90192416832E+02  0.26714268675E+02 -0.70701655545E+03  0.72411721005E+03  0.12500000000E+03 0.  0.
         25    1    1    2    0    0  0.16846453065E+03  0.33655781820E+02 -0.16514677097E+04  0.16650776576E+04  0.12500000000E+03 0.  0.
         25    1    1    2    0    0 -0.78272113820E+02 -0.60370050495E+02 -0.44788208186E+03  0.47538871048E+03  0.12500000000E+03 0.  0.
</event>
<event>
 5    0  0.6151601E-005  0.2745298E+03  0.7546771E-02  0.1098715E+00
         21   -1    0    0  502  501  0.00000000000E+00  0.00000000000E+00  0.42889418592E+03  0.42889418592E+03  0.00000000000E+00 0.  1.
         21   -1    0    0  501  502 -0.00000000000E+00 -0.00000000000E+00 -0.17572306541E+03  0.17572306541E+03  0.00000000000E+00 0.  1.
         25    1    1    2    0    0  0.56079877034E+02 -0.55604661068E+02  0.18421555217E+03  0.23621431075E+03  0.12500000000E+03 0.  0.
         25    1    1    2    0    0  0.18817248479E+02  0.72683957669E+02  0.14284905934E+03  0.20412716697E+03  0.12500000000E+03 0.  0.
         25    1    1    2    0    0 -0.74897125513E+02 -0.17079296600E+02 -0.73893490996E+02  0.16427577361E+03  0.12500000000E+03 0.  0.
</event>
<event>
 5    0  0.5822326E-005  0.2603255E+03  0.7546771E-02  0.1106948E+00
         21   -1    0    0  502  501  0.00000000000E+00  0.00000000000E+00  0.61024576496E+03  0.61024576496E+03  0.00000000000E+00 0.  1.
         21   -1    0    0  501  502 -0.00000000000E+00 -0.00000000000E+00 -0.11105254482E+03  0.11105254482E+03  0.00000000000E+00 0.  1.
         25    1    1    2    0    0 -0.12001558108E+02  0.12170940812E+02  0.68009108806E+02  0.14332622955E+03  0.12500000000E+03 0.  0.
         25    1    1    2    0    0 -0.97798743967E+01  0.89946252618E+02  0.47986077812E+02  0.16159714715E+03  0.12500000000E+03 0.  0.
         25    1    1    2    0    0  0.21781432504E+02 -0.10211719343E+03  0.38319803353E+03  0.41637493308E+03  0.12500000000E+03 0.  0.
</event>
<event>
 5    0  0.5822326E-005  0.3593855E+03  0.7546771E-02  0.1058827E+00
         21   -1    0    0  502  501  0.00000000000E+00  0.00000000000E+00  0.54270540078E+02  0.54270540078E+02  0.00000000000E+00 0. -1.
         21   -1    0    0  501  502 -0.00000000000E+00 -0.00000000000E+00 -0.23798898775E+04  0.23798898775E+04  0.00000000000E+00 0. -1.
         25    1    1    2    0    0 -0.15989437877E+03 -0.69964646249E+02 -0.68042435494E+03  0.71348690730E+03  0.12500000000E+03 0.  0.
         25    1    1    2    0    0  0.28687512610E+03  0.75720013262E+02 -0.11564217789E+04  0.12004029278E+04  0.12500000000E+03 0.  0.
         25    1    1    2    0    0 -0.12698074733E+03 -0.57553670134E+01 -0.48877320359E+03  0.52027058247E+03  0.12500000000E+03 0.  0.
</event>
<event>
 5    0  0.5822326E-005  0.4790447E+03  0.7546771E-02  0.1019398E+00
         21   -1    0    0  502  501  0.00000000000E+00  0.00000000000E+00  0.47129873948E+03  0.47129873948E+03  0.00000000000E+00 0. -1.
         21   -1    0    0  501  502 -0.00000000000E+00 -0.00000000000E+00 -0.48691796736E+03  0.48691796736E+03  0.00000000000E+00 0. -1.
         25    1    1    2    0    0 -0.64239626264E+02 -0.20393173720E+03  0.25713740569E+03  0.35701474538E+03  0.12500000000E+03 0.  0.
         25    1    1    2    0    0  0.20188844170E+03  0.45200029692E+02 -0.94528930776E+01  0.24190151460E+03  0.12500000000E+03 0.  0.
         25    1    1    2    0    0 -0.13764881544E+03  0.15873170750E+03 -0.26330374049E+03  0.35930044686E+03  0.12500000000E+03 0.  0.
</event>
<event>
 5    0  0.5822326E-005  0.3012597E+03  0.7546771E-02  0.1084613E+00
         21   -1    0    0  502  501  0.00000000000E+00  0.00000000000E+00  0.31461947858E+03  0.31461947858E+03  0.00000000000E+00 0.  1.
         21   -1    0    0  501  502 -0.00000000000E+00 -0.00000000000E+00 -0.28846729526E+03  0.28846729526E+03  0.00000000000E+00 0.  1.
         25    1    1    2    0    0  0.84395854870E+02 -0.25117873460E+02  0.21712918740E+03  0.26556289633E+03  0.12500000000E+03 0.  0.
         25    1    1    2    0    0  0.13031911400E+01  0.11698296100E+02 -0.97374439892E+02  0.15888779054E+03  0.12500000000E+03 0.  0.
         25    1    1    2    0    0 -0.85699046010E+02  0.13419577361E+02 -0.93602564197E+02  0.17863608697E+03  0.12500000000E+03 0.  0.
</event>
<event>
 5    0  0.5822326E-005  0.3685331E+03  0.7546771E-02  0.1055255E+00
         21   -1    0    0  502  501  0.00000000000E+00  0.00000000000E+00  0.27662208429E+03  0.27662208429E+03  0.00000000000E+00 0. -1.
         21   -1    0    0  501  502 -0.00000000000E+00 -0.00000000000E+00 -0.49098269973E+03  0.49098269973E+03  0.00000000000E+00 0. -1.
         25    1    1    2    0    0  0.11491482407E+03  0.21279613127E+03 -0.21216529640E+03  0.34514739354E+03  0.12500000000E+03 0.  0.
         25    1    1    2    0    0 -0.94277137593E+02 -0.18943970982E+03  0.92473238906E+02  0.26258690417E+03  0.12500000000E+03 0.  0.
         25    1    1    2    0    0 -0.20637686481E+02 -0.23356421452E+02 -0.94668557949E+02  0.15987048630E+03  0.12500000000E+03 0.  0.
</event>
<event>
 5    0  0.5822326E-005  0.4229805E+03  0.7546771E-02  0.1036101E+00
         21   -1    0    0  502  501  0.00000000000E+00  0.00000000000E+00  0.27727619875E+03  0.27727619875E+03  0.00000000000E+00 0.  1.
         21   -1    0    0  501  502 -0.00000000000E+00 -0.00000000000E+00 -0.64525003300E+03  0.64525003300E+03  0.00000000000E+00 0.  1.
         25    1    1    2    0    0  0.43032554575E+02  0.15112415749E+03 -0.14718980928E+03  0.24895813240E+03  0.12500000000E+03 0.  0.
         25    1    1    2    0    0 -0.70949203979E+02  0.11373540877E+03  0.12326514825E+03  0.22088193572E+03  0.12500000000E+03 0.  0.
         25    1    1    2    0    0  0.27916649404E+02 -0.26485956626E+03 -0.34404917321E+03  0.45268616363E+03  0.12500000000E+03 0.  0.
</event>
<event>
 5    0  0.5822326E-005  0.2000248E+03  0.7546771E-02  0.1149718E+00
         21   -1    0    0  502  501  0.00000000000E+00  0.00000000000E+00  0.46708886264E+02  0.46708886264E+02  0.00000000000E+00 0. -1.
         21   -1    0    0  501  502 -0.00000000000E+00 -0.00000000000E+00 -0.85658040295E+03  0.85658040295E+03  0.00000000000E+00 0. -1.
         25    1    1    2    0    0  0.32155120559E+02 -0.42733002533E+02 -0.23975117739E+03  0.27561873728E+03  0.12500000000E+03 0.  0.
         25    1    1    2    0    0 -0.12290028195E+02 -0.58555653325E+01 -0.30484447789E+03  0.32975822680E+03  0.12500000000E+03 0.  0.
         25    1    1    2    0    0 -0.19865092364E+02  0.48588567865E+02 -0.26527586140E+03  0.29791232513E+03  0.12500000000E+03 0.  0.
</event>
<event>
 5    0  0.5822326E-005  0.3982470E+03  0.7546771E-02  0.1044388E+00
         21   -1    0    0  502  501  0.00000000000E+00  0.00000000000E+00  0.44536007102E+03  0.44536007102E+03  0.00000000000E+00 0. -1.
         21   -1    0    0  501  502 -0.00000000000E+00 -0.00000000000E+00 -0.35611781284E+03  0.35611781284E+03  0.00000000000E+00 0. -1.
         25    1    1    2    0    0 -0.69475701623E+02  0.29750598644E+03 -0.60240524320E+02  0.33554523668E+03  0.12500000000E+03 0.  0.
         25    1    1    2    0    0  0.25384365127E+01 -0.71414018652E+02  0.13702657638E+03  0.19876541036E+03  0.12500000000E+03 0.  0.
         25    1    1    2    0    0  0.66937265111E+02 -0.22609196779E+03  0.12456206121E+02  0.26716723682E+03  0.12500000000E+03 0.  0.
</event>
<event>
 5    0  0.5822326E-005  0.2701120E+03  0.7546771E-02  0.1101215E+00
         21   -1    0    0  502  501  0.00000000000E+00  0.00000000000E+00  0.45035346827E+03  0.45035346827E+03  0.00000000000E+00 0.  1.
         21   -1    0    0  501  502 -0.00000000000E+00 -0.00000000000E+00 -0.16200722874E+03  0.16200722874E+03  0.00000000000E+00 0.  1.
         25    1    1    2    0    0 -0.10623978749E+03  0.10599081925E+03  0.23150162327E+02  0.19667708618E+03  0.12500000000E+03 0.  0.
         25    1    1    2    0    0  0.17550521528E+01 -0.94399916385E+02  0.13552304749E+03  0.20713744428E+03  0.12500000000E+03 0.  0.
         25    1    1    2    0    0  0.10448473534E+03 -0.11590902868E+02  0.12967302972E+03  0.20854616655E+03  0.12500000000E+03 0.  0.
</event>
<event>
 5    0  0.5822326E-005  0.2118774E+03  0.7546771E-02  0.1140088E+00
         21   -1    0    0  502  501  0.00000000000E+00  0.00000000000E+00  0.14112365021E+03  0.14112365021E+03  0.00000000000E+00 0. -1.
         21   -1    0    0  501  502 -0.00000000000E+00 -0.00000000000E+00 -0.31810412537E+03  0.31810412537E+03  0.00000000000E+00 0. -1.
         25    1    1    2    0    0  0.84938096552E+01  0.50624670258E+02 -0.11158029796E+03  0.17524315945E+03  0.12500000000E+03 0.  0.
         25    1    1    2    0    0 -0.10144376466E+02 -0.76315057353E+02 -0.18275385323E+02  0.14793879160E+03  0.12500000000E+03 0.  0.
         25    1    1    2    0    0  0.16505668110E+01  0.25690387096E+02 -0.47124791870E+02  0.13604582452E+03  0.12500000000E+03 0.  0.
</event>
<event>
 5    0  0.5822326E-005  0.3820943E+03  0.7546771E-02  0.1050162E+00
         21   -1    0    0  502  501  0.00000000000E+00  0.00000000000E+00  0.48262653159E+03  0.48262653159E+03  0.00000000000E+00 0.  1.
         21   -1    0    0  501  502 -0.00000000000E+00 -0.00000000000E+00 -0.30250321484E+03  0.30250321484E+03  0.00000000000E+00 0.  1.
         25    1    1    2    0    0  0.10524298847E+03 -0.10303533520E+03 -0.15544801587E+03  0.24795453728E+03  0.12500000000E+03 0.  0.
         25    1    1    2    0    0  0.86690062652E+02  0.40881641468E+02  0.22672987431E+03  0.27607591615E+03  0.12500000000E+03 0.  0.
         25    1    1    2    0    0 -0.19193305113E+03  0.62153693729E+02  0.10884145830E+03  0.26109929300E+03  0.12500000000E+03 0.  0.
</event>
<event>
 5    0  0.5822326E-005  0.5521686E+03  0.7546771E-02  0.1000993E+00
         21   -1    0    0  502  501  0.00000000000E+00  0.00000000000E+00  0.18253573402E+03  0.18253573402E+03  0.00000000000E+00 0. -1.
         21   -1    0    0  501  502 -0.00000000000E+00 -0.00000000000E+00 -0.16703042149E+04  0.16703042149E+04  0.00000000000E+00 0. -1.
         25    1    1    2    0    0  0.26138412785E+03 -0.10676755558E+02 -0.14059458468E+04  0.14355293029E+04  0.12500000000E+03 0.  0.
         25    1    1    2    0    0 -0.23201682428E+02 -0.16985732305E+02 -0.71181291647E+02  0.14669222696E+03  0.12500000000E+03 0.  0.
         25    1    1    2    0    0 -0.23818244542E+03  0.27662487863E+02 -0.10641342398E+02  0.27061841902E+03  0.12500000000E+03 0.  0.
</event>
<event>
 5    0  0.5822326E-005  0.2833238E+03  0.7546771E-02  0.1093887E+00
         21   -1    0    0  502  501  0.00000000000E+00  0.00000000000E+00  0.13743880587E+03  0.13743880587E+03  0.00000000000E+00 0.  1.
         21   -1    0    0  501  502 -0.00000000000E+00 -0.00000000000E+00 -0.58405884712E+03  0.58405884712E+03  0.00000000000E+00 0.  1.
         25    1    1    2    0    0 -0.46260313381E+02 -0.58064709399E+02 -0.32184335773E+03  0.35315672723E+03  0.12500000000E+03 0.  0.
         25    1    1    2    0    0 -0.54848935911E+02 -0.50983457738E+02 -0.18444144514E+02  0.14687717726E+03  0.12500000000E+03 0.  0.
         25    1    1    2    0    0  0.10110924929E+03  0.10904816714E+03 -0.10633253900E+03  0.22146374850E+03  0.12500000000E+03 0.  0.
</event>
<event>
 5    0  0.5822326E-005  0.2592275E+03  0.7546771E-02  0.1107608E+00
         21   -1    0    0  502  501  0.00000000000E+00  0.00000000000E+00  0.62492780651E+02  0.62492780651E+02  0.00000000000E+00 0.  1.
         21   -1    0    0  501  502 -0.00000000000E+00 -0.00000000000E+00 -0.10753062675E+04  0.10753062675E+04  0.00000000000E+00 0.  1.
         25    1    1    2    0    0 -0.39717148657E+02  0.21349300813E+02 -0.41541675840E+03  0.43615287194E+03  0.12500000000E+03 0.  0.
         25    1    1    2    0    0  0.19388078273E+02  0.44834132831E+02 -0.62597153837E+02  0.14808578836E+03  0.12500000000E+03 0.  0.
         25    1    1    2    0    0  0.20329070384E+02 -0.66183433643E+02 -0.53479957461E+03  0.55356038785E+03  0.12500000000E+03 0.  0.
</event>
<event>
 5    0  0.6266231E-005  0.3934236E+03  0.7546771E-02  0.1046081E+00
         21   -1    0    0  502  501  0.00000000000E+00  0.00000000000E+00  0.12257939951E+04  0.12257939951E+04  0.00000000000E+00 0. -1.
         21   -1    0    0  501  502 -0.00000000000E+00 -0.00000000000E+00 -0.12627089118E+03  0.12627089118E+03  0.00000000000E+00 0. -1.
         25    1    1    2    0    0 -0.31527984031E+02 -0.22994753039E+03  0.18626689973E+03  0.32278512736E+03  0.12500000000E+03 0.  0.
         25    1    1    2    0    0  0.93079369600E+02  0.12566269260E+02  0.61604012512E+03  0.63557227435E+03  0.12500000000E+03 0.  0.
         25    1    1    2    0    0 -0.61551385569E+02  0.21738126113E+03  0.29721607910E+03  0.39370748460E+03  0.12500000000E+03 0.  0.
</event>
<event>
 5    0  0.5822326E-005  0.4883602E+03  0.7546771E-02  0.1016863E+00
         21   -1    0    0  502  501  0.00000000000E+00  0.00000000000E+00  0.21237870558E+04  0.21237870558E+04  0.00000000000E+00 0.  1.
         21   -1    0    0  501  502 -0.00000000000E+00 -0.00000000000E+00 -0.11229736533E+03  0.11229736533E+03  0.00000000000E+00 0.  1.
         25    1    1    2    0    0 -0.30537262698E+03  0.24626353823E+03  0.11302975462E+04  0.12029529145E+04  0.12500000000E+03 0.  0.
         25    1    1    2    0    0  0.25696954777E+03 -0.84234545987E+02  0.33744086640E+03  0.45013347524E+03  0.12500000000E+03 0.  0.
         25    1    1    2    0    0  0.48403079214E+02 -0.16202899224E+03  0.54375127788E+03  0.58299803138E+03  0.12500000000E+03 0.  0.
</event>
<event>
 5    0  0.5822326E-005  0.2493813E+03  0.7546771E-02  0.1113696E+00
         21   -1    0    0  502  501  0.00000000000E+00  0.00000000000E+00  0.10304407261E+04  0.10304407261E+04  0.00000000000E+00 0.  1.
         21   -1    0    0  501  502 -0.00000000000E+00 -0.00000000000E+00 -0.60353824661E+02  0.60353824661E+02  0.00000000000E+00 0. -1.
         25    1    1    2    0    0  0.57073516739E+02 -0.52979684576E+02  0.20402824617E+03  0.25162821489E+03  0.12500000000E+03 0.  0.
         25    1    1    2    0    0 -0.12650519476E+03  0.82525645537E+02  0.46137076947E+03  0.50130034250E+03  0.12500000000E+03 0.  0.
         25    1    1    2    0    0  0.69431678020E+02 -0.29545960961E+02  0.30468788574E+03  0.33786599332E+03  0.12500000000E+03 0.  0.
</event>
<event>
 5    0  0.5822326E-005  0.2684034E+03  0.7546771E-02  0.1102197E+00
         21   -1    0    0  502  501  0.00000000000E+00  0.00000000000E+00  0.21749450578E+03  0.21749450578E+03  0.00000000000E+00 0. -1.
         21   -1    0    0  501  502 -0.00000000000E+00 -0.00000000000E+00 -0.33122841798E+03  0.33122841798E+03  0.00000000000E+00 0. -1.
         25    1    1    2    0    0 -0.68226549971E+02 -0.14541913112E+02 -0.55460046981E+01  0.14325532285E+03  0.12500000000E+03 0.  0.
         25    1    1    2    0    0  0.26184689206E+02  0.64877304813E+02 -0.19333141134E+03  0.24061740843E+03  0.12500000000E+03 0.  0.
         25    1    1    2    0    0  0.42041860765E+02 -0.50335391701E+02  0.85143503834E+02  0.16485019248E+03  0.12500000000E+03 0.  0.
</event>
<event>
 5    0  0.5822326E-005  0.2269919E+03  0.7546771E-02  0.1128775E+00
         21   -1    0    0  502  501  0.00000000000E+00  0.00000000000E+00  0.64031111828E+02  0.64031111828E+02  0.00000000000E+00 0.  1.
         21   -1    0    0  501  502 -0.00000000000E+00 -0.00000000000E+00 -0.80469185914E+03  0.80469185914E+03  0.00000000000E+00 0.  1.
         25    1    1    2    0    0  0.29347058848E+02  0.42847787656E+02 -0.44085927971E+03  0.46117142938E+03  0.12500000000E+03 0.  0.
         25    1    1    2    0    0 -0.65564305008E+02 -0.24309055709E+02 -0.13585144338E+03  0.19740877121E+03  0.12500000000E+03 0.  0.
         25    1    1    2    0    0  0.36217246160E+02 -0.18538731946E+02 -0.16395002422E+03  0.21014277038E+03  0.12500000000E+03 0.  0.
</event>
<event>
 5    0  0.5822326E-005  0.4733273E+03  0.7546771E-02  0.1020985E+00
         21   -1    0    0  502  501  0.00000000000E+00  0.00000000000E+00  0.21463712393E+03  0.21463712393E+03  0.00000000000E+00 0. -1.
         21   -1    0    0  501  502 -0.00000000000E+00 -0.00000000000E+00 -0.10438025180E+04  0.10438025180E+04  0.00000000000E+00 0. -1.
         25    1    1    2    0    0 -0.18713172348E+03  0.20882496177E+03 -0.22074650506E+03  0.37812718243E+03  0.12500000000E+03 0.  0.
         25    1    1    2    0    0 -0.92237931000E+02 -0.15717921501E+03 -0.50816180025E+03  0.55413586491E+03  0.12500000000E+03 0.  0.
         25    1    1    2    0    0  0.27936965448E+03 -0.51645746759E+02 -0.10025708872E+03  0.32617659456E+03  0.12500000000E+03 0.  0.
</event>
<event>
 5    0  0.5822326E-005  0.2754671E+03  0.7546771E-02  0.1098191E+00
         21   -1    0    0  502  501  0.00000000000E+00  0.00000000000E+00  0.18145847249E+03  0.18145847249E+03  0.00000000000E+00 0. -1.
         21   -1    0    0  501  502 -0.00000000000E+00 -0.00000000000E+00 -0.41817894722E+03  0.41817894722E+03  0.00000000000E+00 0. -1.
         25    1    1    2    0    0 -0.74847482085E+01 -0.42077343368E+02 -0.53006505499E+02  0.14234189090E+03  0.12500000000E+03 0.  0.
         25    1    1    2    0    0 -0.10918585640E+03 -0.79392169318E+02 -0.16428340278E+03  0.24665503079E+03  0.12500000000E+03 0.  0.
         25    1    1    2    0    0  0.11667060461E+03  0.12146951269E+03 -0.19430566448E+02  0.21064049802E+03  0.12500000000E+03 0.  0.
</event>
<event>
 5    0  0.5822326E-005  0.2617324E+03  0.7546771E-02  0.1106107E+00
         21   -1    0    0  502  501  0.00000000000E+00  0.00000000000E+00  0.38265753097E+03  0.38265753097E+03  0.00000000000E+00 0. -1.
         21   -1    0    0  501  502 -0.00000000000E+00 -0.00000000000E+00 -0.17902130330E+03  0.17902130330E+03  0.00000000000E+00 0. -1.
         25    1    1    2    0    0  0.38397082497E+02 -0.16160801322E+01  0.97629027950E+02  0.16319734911E+03  0.12500000000E+03 0.  0.
         25    1    1    2    0    0  0.11036491130E+02 -0.13897420505E+03  0.29926423206E+02  0.18962126624E+03  0.12500000000E+03 0.  0.
         25    1    1    2    0    0 -0.49433573627E+02  0.14059028518E+03  0.76080776513E+02  0.20886021891E+03  0.12500000000E+03 0.  0.
</event>
<event>
 5    0  0.5822326E-005  0.4476432E+03  0.7546771E-02  0.1028427E+00
         21   -1    0    0  502  501  0.00000000000E+00  0.00000000000E+00  0.21157824118E+03  0.21157824118E+03  0.00000000000E+00 0.  1.
         21   -1    0    0  501  502 -0.00000000000E+00 -0.00000000000E+00 -0.94709368044E+03  0.94709368044E+03  0.00000000000E+00 0.  1.
         25    1    1    2    0    0  0.21743933498E+03 -0.13376005352E+03 -0.74115054443E+03  0.79378885468E+03  0.12500000000E+03 0.  0.
         25    1    1    2    0    0 -0.90391779651E+02  0.98484718452E+02 -0.21470488792E+01  0.18302875024E+03  0.12500000000E+03 0.  0.
         25    1    1    2    0    0 -0.12704755533E+03  0.35275335070E+02  0.77821540421E+01  0.18185431670E+03  0.12500000000E+03 0.  0.
</event>
<event>
 5    0  0.5822326E-005  0.5310447E+03  0.7546771E-02  0.1005979E+00
         21   -1    0    0  502  501  0.00000000000E+00  0.00000000000E+00  0.45640868229E+03  0.45640868229E+03  0.00000000000E+00 0.  1.
         21   -1    0    0  501  502 -0.00000000000E+00 -0.00000000000E+00 -0.61788587474E+03  0.61788587474E+03  0.00000000000E+00 0.  1.
         25    1    1    2    0    0  0.19036357329E+03 -0.20829634118E+02  0.24657901399E+03  0.33630101670E+03  0.12500000000E+03 0.  0.
         25    1    1    2    0    0  0.86052910200E+02  0.20251400631E+03 -0.11171012054E+03  0.27662461412E+03  0.12500000000E+03 0.  0.
         25    1    1    2    0    0 -0.27641648349E+03 -0.18168437219E+03 -0.29634608590E+03  0.46136892621E+03  0.12500000000E+03 0.  0.
</event>
<event>
 5    0  0.5822326E-005  0.3584913E+03  0.7546771E-02  0.1059183E+00
         21   -1    0    0  502  501  0.00000000000E+00  0.00000000000E+00  0.14664247126E+03  0.14664247126E+03  0.00000000000E+00 0.  1.
         21   -1    0    0  501  502 -0.00000000000E+00 -0.00000000000E+00 -0.87639026462E+03  0.87639026462E+03  0.00000000000E+00 0.  1.
         25    1    1    2    0    0 -0.40280748744E+02  0.20456579576E+03 -0.43373841619E+03  0.49721596635E+03  0.12500000000E+03 0.  0.
         25    1    1    2    0    0 -0.18608801853E+02 -0.24193790657E+03 -0.26273097025E+03  0.37885723019E+03  0.12500000000E+03 0.  0.
         25    1    1    2    0    0  0.58889550597E+02  0.37372110817E+02 -0.33278406926E+02  0.14695953934E+03  0.12500000000E+03 0.  0.
</event>
<event>
 5    0  0.5822326E-005  0.5819454E+03  0.7546771E-02  0.9943588E-01
         21   -1    0    0  502  501  0.00000000000E+00  0.00000000000E+00  0.42502215792E+03  0.42502215792E+03  0.00000000000E+00 0. -1.
         21   -1    0    0  501  502 -0.00000000000E+00 -0.00000000000E+00 -0.79680657449E+03  0.79680657449E+03  0.00000000000E+00 0. -1.
         25    1    1    2    0    0  0.31195235807E+02  0.29460849827E+03 -0.17556502369E+03  0.36635418318E+03  0.12500000000E+03 0.  0.
         25    1    1    2    0    0 -0.16434618993E+03 -0.46112339096E+03  0.48630269301E+02  0.50757694484E+03  0.12500000000E+03 0.  0.
         25    1    1    2    0    0  0.13315095413E+03  0.16651489269E+03 -0.24484966217E+03  0.34789760439E+03  0.12500000000E+03 0.  0.
</event>
<event>
 5    0  0.5822326E-005  0.2862615E+03  0.7546771E-02  0.1092317E+00
         21   -1    0    0  502  501  0.00000000000E+00  0.00000000000E+00  0.92572930916E+03  0.92572930916E+03  0.00000000000E+00 0. -1.
         21   -1    0    0  501  502 -0.00000000000E+00 -0.00000000000E+00 -0.88520068533E+02  0.88520068533E+02  0.00000000000E+00 0. -1.
         25    1    1    2    0    0 -0.46149311214E+02  0.82416571112E+02  0.33578555438E+03  0.37053905145E+03  0.12500000000E+03 0.  0.
         25    1    1    2    0    0  0.55163336094E+00  0.85739763619E+02  0.81250042077E+02  0.17198308261E+03  0.12500000000E+03 0.  0.
         25    1    1    2    0    0  0.45597677854E+02 -0.16815633473E+03  0.42017364417E+03  0.47172724364E+03  0.12500000000E+03 0.  0.
</event>
<event>
 5    0  0.5822326E-005  0.4085773E+03  0.7546771E-02  0.1040849E+00
         21   -1    0    0  502  501  0.00000000000E+00  0.00000000000E+00  0.50350155028E+03  0.50350155028E+03  0.00000000000E+00 0.  1.
         21   -1    0    0  501  502 -0.00000000000E+00 -0.00000000000E+00 -0.33154901989E+03  0.33154901989E+03  0.00000000000E+00 0.  1.
         25    1    1    2    0    0 -0.17294919725E+03  0.84066573892E+02 -0.88659235452E+02  0.24589443611E+03  0.12500000000E+03 0.  0.
         25    1    1    2    0    0  0.12281237747E+03  0.13299015721E+03 -0.58034200698E+01  0.22006349461E+03  0.12500000000E+03 0.  0.
         25    1    1    2    0    0  0.50136819785E+02 -0.21705673110E+03  0.26641518591E+03  0.36909263945E+03  0.12500000000E+03 0.  0.
</event>
<event>
 5    0  0.5822326E-005  0.2586464E+03  0.7546771E-02  0.1107959E+00
         21   -1    0    0  502  501  0.00000000000E+00  0.00000000000E+00  0.69349000799E+03  0.69349000799E+03  0.00000000000E+00 0. -1.
         21   -1    0    0  501  502 -0.00000000000E+00 -0.00000000000E+00 -0.96465623301E+02  0.96465623301E+02  0.00000000000E+00 0. -1.
         25    1    1    2    0    0  0.86015839325E+02 -0.56801733841E+02  0.13066070094E+03  0.20814029008E+03  0.12500000000E+03 0.  0.
         25    1    1    2    0    0 -0.15082990572E+03  0.64309978342E+02  0.25885100203E+03  0.33092941094E+03  0.12500000000E+03 0.  0.
         25    1    1    2    0    0  0.64814066393E+02 -0.75082445009E+01  0.20751268172E+03  0.25088593028E+03  0.12500000000E+03 0.  0.
</event>
<event>
 5    0  0.5822326E-005  0.3646694E+03  0.7546771E-02  0.1056750E+00
         21   -1    0    0  502  501  0.00000000000E+00  0.00000000000E+00  0.18778536625E+03  0.18778536625E+03  0.00000000000E+00 0. -1.
         21   -1    0    0  501  502 -0.00000000000E+00 -0.00000000000E+00 -0.70816894748E+03  0.70816894748E+03  0.00000000000E+00 0. -1.
         25    1    1    2    0    0 -0.53893799195E+02 -0.15651264193E+03 -0.30177947204E+03  0.36619202397E+03  0.12500000000E+03 0.  0.
         25    1    1    2    0    0  0.13494177232E+02  0.24381453078E+03 -0.24742496717E+03  0.36942080696E+03  0.12500000000E+03 0.  0.
         25    1    1    2    0    0  0.40399621963E+02 -0.87301888852E+02  0.28820857977E+02  0.16034148280E+03  0.12500000000E+03 0.  0.
</event>
<event>
 5    0  0.5822326E-005  0.2697229E+03  0.7546771E-02  0.1101438E+00
         21   -1    0    0  502  501  0.00000000000E+00  0.00000000000E+00  0.48635599330E+02  0.48635599330E+02  0.00000000000E+00 0. -1.
         21   -1    0    0  501  502 -0.00000000000E+00 -0.00000000000E+00 -0.14958269767E+04  0.14958269767E+04  0.00000000000E+00 0. -1.
         25    1    1    2    0    0 -0.30778248560E+02  0.11751793200E+02 -0.31502512461E+03  0.34051612938E+03  0.12500000000E+03 0.  0.
         25    1    1    2    0    0  0.19395865193E+02 -0.14640531901E+03 -0.81104725388E+03  0.83380655134E+03  0.12500000000E+03 0.  0.
         25    1    1    2    0    0  0.11382383368E+02  0.13465352581E+03 -0.32111899884E+03  0.37013989529E+03  0.12500000000E+03 0.  0.
</event>
<event>
 5    0  0.5822326E-005  0.3202367E+03  0.7546771E-02  0.1075540E+00
         21   -1    0    0  502  501  0.00000000000E+00  0.00000000000E+00  0.97897853781E+02  0.97897853781E+02  0.00000000000E+00 0.  1.
         21   -1    0    0  501  502 -0.00000000000E+00 -0.00000000000E+00 -0.10475359257E+04  0.10475359257E+04  0.00000000000E+00 0.  1.
         25    1    1    2    0    0 -0.25775675185E+01  0.59560554968E+02 -0.35069776985E+03  0.37705175950E+03  0.12500000000E+03 0.  0.
         25    1    1    2    0    0  0.72173395682E+02 -0.19436398851E+03 -0.16786015045E+03  0.29459869175E+03  0.12500000000E+03 0.  0.
         25    1    1    2    0    0 -0.69595828163E+02  0.13480343354E+03 -0.43108015167E+03  0.47378332828E+03  0.12500000000E+03 0.  0.
</event>
<event>
 5    0  0.5960879E-005  0.2603118E+03  0.7546771E-02  0.1106956E+00
         21   -1    0    0  502  501  0.00000000000E+00  0.00000000000E+00  0.37776661956E+03  0.37776661956E+03  0.00000000000E+00 0.  1.
         21   -1    0    0  501  502 -0.00000000000E+00 -0.00000000000E+00 -0.17937595901E+03  0.17937595901E+03  0.00000000000E+00 0.  1.
         25    1    1    2    0    0 -0.32821358603E+02  0.62484893479E+02 -0.50113917367E+01  0.14363745173E+03  0.12500000000E+03 0.  0.
         25    1    1    2    0    0 -0.10577679288E+02 -0.14801071793E+03  0.15605092631E+03  0.24898986229E+03  0.12500000000E+03 0.  0.
         25    1    1    2    0    0  0.43399037892E+02  0.85525824449E+02  0.47351125970E+02  0.16451526454E+03  0.12500000000E+03 0.  0.
</event>
<event>
 5    0  0.5822326E-005  0.2291475E+03  0.7546771E-02  0.1127241E+00
         21   -1    0    0  502  501  0.00000000000E+00  0.00000000000E+00  0.98938316481E+02  0.98938316481E+02  0.00000000000E+00 0. -1.
         21   -1    0    0  501  502 -0.00000000000E+00 -0.00000000000E+00 -0.53072014460E+03  0.53072014460E+03  0.00000000000E+00 0. -1.
         25    1    1    2    0    0  0.42171880686E+02  0.49532158629E+02 -0.14120171207E+03  0.19948640493E+03  0.12500000000E+03 0.  0.
         25    1    1    2    0    0 -0.35844139519E+01 -0.96822822824E+02 -0.22837670946E+03  0.27779205976E+03  0.12500000000E+03 0.  0.
         25    1    1    2    0    0 -0.38587466734E+02  0.47290664195E+02 -0.62203406585E+02  0.15237999639E+03  0.12500000000E+03 0.  0.
</event>
<event>
 5    0  0.5822326E-005  0.2500643E+03  0.7546771E-02  0.1113264E+00
         21   -1    0    0  502  501  0.00000000000E+00  0.00000000000E+00  0.15732436362E+04  0.15732436362E+04  0.00000000000E+00 0. -1.
         21   -1    0    0  501  502 -0.00000000000E+00 -0.00000000000E+00 -0.39747281123E+02  0.39747281123E+02  0.00000000000E+00 0. -1.
         25    1    1    2    0    0 -0.59463903255E+02 -0.81418810192E+02  0.65231580744E+03  0.67179304185E+03  0.12500000000E+03 0.  0.
         25    1    1    2    0    0  0.61079912931E+02  0.95545401637E+02  0.27948820976E+03  0.32649401056E+03  0.12500000000E+03 0.  0.
         25    1    1    2    0    0 -0.16160096757E+01 -0.14126591445E+02  0.60169233783E+03  0.61470386487E+03  0.12500000000E+03 0.  0.
</event>
<event>
 5    0  0.5822326E-005  0.3889071E+03  0.7546771E-02  0.1047690E+00
         21   -1    0    0  502  501  0.00000000000E+00  0.00000000000E+00  0.38783401662E+03  0.38783401662E+03  0.00000000000E+00 0.  1.
         21   -1    0    0  501  502 -0.00000000000E+00 -0.00000000000E+00 -0.38998324594E+03  0.38998324594E+03  0.00000000000E+00 0.  1.
         25    1    1    2    0    0 -0.20002237455E+03 -0.82391980605E+02  0.66495830579E+02  0.25854222918E+03  0.12500000000E+03 0.  0.
         25    1    1    2    0    0 -0.15220870313E+02  0.18309966234E+01  0.13730863616E+03  0.18631609970E+03  0.12500000000E+03 0.  0.
         25    1    1    2    0    0  0.21524324486E+03  0.80560983981E+02 -0.20595369605E+03  0.33295893368E+03  0.12500000000E+03 0.  0.
</event>
<event>
 5    0  0.5822326E-005  0.4757226E+03  0.7546771E-02  0.1020317E+00
         21   -1    0    0  502  501  0.00000000000E+00  0.00000000000E+00  0.58890616565E+03  0.58890616565E+03  0.00000000000E+00 0.  1.
         21   -1    0    0  501  502 -0.00000000000E+00 -0.00000000000E+00 -0.38429204444E+03  0.38429204444E+03  0.00000000000E+00 0.  1.
         25    1    1    2    0    0 -0.21064440201E+03 -0.19212462756E+03 -0.13305006413E+03  0.33854136553E+03  0.12500000000E+03 0.  0.
         25    1    1    2    0    0  0.62198547520E+02  0.88000841158E+01 -0.62816463873E+02  0.15335256414E+03  0.12500000000E+03 0.  0.
         25    1    1    2    0    0  0.14844585449E+03  0.18332454345E+03  0.40048064922E+03  0.48130428041E+03  0.12500000000E+03 0.  0.
</event>
<event>
 5    0  0.5822326E-005  0.2654213E+03  0.7546771E-02  0.1103929E+00
         21   -1    0    0  502  501  0.00000000000E+00  0.00000000000E+00  0.13593407524E+03  0.13593407524E+03  0.00000000000E+00 0. -1.
         21   -1    0    0  501  502 -0.00000000000E+00 -0.00000000000E+00 -0.51825452334E+03  0.51825452334E+03  0.00000000000E+00 0. -1.
         25    1    1    2    0    0  0.13908460730E+03  0.35548264608E+02 -0.16350942584E+03  0.25093532920E+03  0.12500000000E+03 0.  0.
         25    1    1    2    0    0 -0.53323115108E+02 -0.48571670889E+02 -0.96944937325E+01  0.14464281879E+03  0.12500000000E+03 0.  0.
         25    1    1    2    0    0 -0.85761492189E+02  0.13023406282E+02 -0.20911652852E+03  0.25861045059E+03  0.12500000000E+03 0.  0.
</event>
<event>
 5    0  0.5822326E-005  0.2670859E+03  0.7546771E-02  0.1102959E+00
         21   -1    0    0  502  501  0.00000000000E+00  0.00000000000E+00  0.28067544244E+03  0.28067544244E+03  0.00000000000E+00 0. -1.
         21   -1    0    0  501  502 -0.00000000000E+00 -0.00000000000E+00 -0.25415430414E+03  0.25415430414E+03  0.00000000000E+00 0. -1.
         25    1    1    2    0    0 -0.16383302323E+03 -0.19471785922E+02 -0.37034415788E+02  0.21027828680E+03  0.12500000000E+03 0.  0.
         25    1    1    2    0    0  0.61587188653E+02 -0.39707608077E+02  0.44123595557E+02  0.15146474055E+03  0.12500000000E+03 0.  0.
         25    1    1    2    0    0  0.10224583458E+03  0.59179393999E+02  0.19431958529E+02  0.17308671923E+03  0.12500000000E+03 0.  0.
</event>
<event>
 5    0  0.5822326E-005  0.2975314E+03  0.7546771E-02  0.1086481E+00
         21   -1    0    0  502  501  0.00000000000E+00  0.00000000000E+00  0.83745274764E+03  0.83745274764E+03  0.00000000000E+00 0. -1.
         21   -1    0    0  501  502 -0.00000000000E+00 -0.00000000000E+00 -0.10570734715E+03  0.10570734715E+03  0.00000000000E+00 0. -1.
         25    1    1    2    0    0 -0.56983802118E+02  0.15822099128E+03  0.50496159172E+03  0.54671038485E+03  0.12500000000E+03 0.  0.
         25    1    1    2    0    0  0.60105689280E+02 -0.90793356400E+02  0.18492308647E+03  0.24834990509E+03  0.12500000000E+03 0.  0.
         25    1    1    2    0    0 -0.31218871620E+01 -0.67427634877E+02  0.41860722305E+02  0.14809980485E+03  0.12500000000E+03 0.  0.
</event>
<event>
 5    0  0.5822326E-005  0.2878392E+03  0.7546771E-02  0.1091483E+00
         21   -1    0    0  502  501  0.00000000000E+00  0.00000000000E+00  0.13803785856E+03  0.13803785856E+03  0.00000000000E+00 0.  1.
         21   -1    0    0  501  502 -0.00000000000E+00 -0.00000000000E+00 -0.60020794696E+03  0.60020794696E+03  0.00000000000E+00 0.  1.
         25    1    1    2    0    0  0.30652146381E+02  0.99815198135E+02 -0.23989918725E+03  0.28996421831E+03  0.12500000000E+03 0.  0.
         25    1    1    2    0    0 -0.13962663787E+03 -0.78893469965E+01 -0.55082128833E+02  0.19549138271E+03  0.12500000000E+03 0.  0.
         25    1    1    2    0    0  0.10897449149E+03 -0.91925851138E+02 -0.16718877231E+03  0.25279020449E+03  0.12500000000E+03 0.  0.
</event>
<event>
 5    0  0.5822326E-005  0.2538504E+03  0.7546771E-02  0.1110895E+00
         21   -1    0    0  502  501  0.00000000000E+00  0.00000000000E+00  0.20943554718E+03  0.20943554718E+03  0.00000000000E+00 0.  1.
         21   -1    0    0  501  502 -0.00000000000E+00 -0.00000000000E+00 -0.30768436500E+03  0.30768436500E+03  0.00000000000E+00 0.  1.
         25    1    1    2    0    0  0.82876695013E+02  0.62011034844E+02 -0.35885854456E+02  0.16621284417E+03  0.12500000000E+03 0.  0.
         25    1    1    2    0    0 -0.11795367567E+03 -0.11290964068E+03 -0.30805992395E+02  0.20793187762E+03  0.12500000000E+03 0.  0.
         25    1    1    2    0    0  0.35076980660E+02  0.50898605840E+02 -0.31556970966E+02  0.14297519038E+03  0.12500000000E+03 0.  0.
</event>
<event>
 5    0  0.5822326E-005  0.2802631E+03  0.7546771E-02  0.1095545E+00
         21   -1    0    0  502  501  0.00000000000E+00  0.00000000000E+00  0.49076052421E+03  0.49076052421E+03  0.00000000000E+00 0. -1.
         21   -1    0    0  501  502 -0.00000000000E+00 -0.00000000000E+00 -0.16005238757E+03  0.16005238757E+03  0.00000000000E+00 0. -1.
         25    1    1    2    0    0  0.15223079382E+03  0.34849401161E+02  0.68941453938E+02  0.21158123598E+03  0.12500000000E+03 0.  0.
         25    1    1    2    0    0 -0.13231367951E+03  0.59675079192E+02  0.11395488278E+03  0.22288728131E+03  0.12500000000E+03 0.  0.
         25    1    1    2    0    0 -0.19917114316E+02 -0.94524480353E+02  0.14781179992E+03  0.21634439449E+03  0.12500000000E+03 0.  0.
</event>
<event>
 5    0  0.5822326E-005  0.3992752E+03  0.7546771E-02  0.1044031E+00
         21   -1    0    0  502  501  0.00000000000E+00  0.00000000000E+00  0.58911969584E+03  0.58911969584E+03  0.00000000000E+00 0.  1.
         21   -1    0    0  501  502 -0.00000000000E+00 -0.00000000000E+00 -0.27060832812E+03  0.27060832812E+03  0.00000000000E+00 0.  1.
         25    1    1    2    0    0  0.79260400601E+02  0.31969997505E+02  0.53412530060E+02  0.16056833502E+03  0.12500000000E+03 0.  0.
         25    1    1    2    0    0  0.42878484517E+02  0.20983286836E+03 -0.62837087081E+02  0.25581613825E+03  0.12500000000E+03 0.  0.
         25    1    1    2    0    0 -0.12213888512E+03 -0.24180286586E+03  0.32793592474E+03  0.44334355069E+03  0.12500000000E+03 0.  0.
</event>
<event>
 5    0  0.5822326E-005  0.3527295E+03  0.7546771E-02  0.1061500E+00
         21   -1    0    0  502  501  0.00000000000E+00  0.00000000000E+00  0.61445467338E+02  0.61445467338E+02  0.00000000000E+00 0. -1.
         21   -1    0    0  501  502 -0.00000000000E+00 -0.00000000000E+00 -0.20248544679E+04  0.20248544679E+04  0.00000000000E+00 0. -1.
         25    1    1    2    0    0 -0.88641762132E+02  0.85324225178E+02 -0.70256075763E+03  0.72412305830E+03  0.12500000000E+03 0.  0.
         25    1    1    2    0    0 -0.64011415677E+02 -0.13474961006E+03 -0.18933073427E+03  0.27152540523E+03  0.12500000000E+03 0.  0.
         25    1    1    2    0    0  0.15265317781E+03  0.49425384879E+02 -0.10715175086E+04  0.10906514717E+04  0.12500000000E+03 0.  0.
</event>
<event>
 5    0  0.5822326E-005  0.4550993E+03  0.7546771E-02  0.1026212E+00
         21   -1    0    0  502  501  0.00000000000E+00  0.00000000000E+00  0.65377233415E+03  0.65377233415E+03  0.00000000000E+00 0.  1.
         21   -1    0    0  501  502 -0.00000000000E+00 -0.00000000000E+00 -0.31680040651E+03  0.31680040651E+03  0.00000000000E+00 0.  1.
         25    1    1    2    0    0 -0.26718252808E+03 -0.70434112071E+02  0.30574739123E+02  0.30480695879E+03  0.12500000000E+03 0.  0.
         25    1    1    2    0    0 -0.30952603482E+01 -0.16466783803E+03  0.14975326616E+03  0.25529613833E+03  0.12500000000E+03 0.  0.
         25    1    1    2    0    0  0.27027778843E+03  0.23510195010E+03  0.15664392235E+03  0.41046964354E+03  0.12500000000E+03 0.  0.
</event>
<event>
 5    0  0.5822326E-005  0.3967975E+03  0.7546771E-02  0.1044894E+00
         21   -1    0    0  502  501  0.00000000000E+00  0.00000000000E+00  0.73302744950E+02  0.73302744950E+02  0.00000000000E+00 0.  1.
         21   -1    0    0  501  502 -0.00000000000E+00 -0.00000000000E+00 -0.21479173203E+04  0.21479173203E+04  0.00000000000E+00 0.  1.
         25    1    1    2    0    0  0.13278409485E+03 -0.36458294802E+02 -0.15771650225E+03  0.24384486500E+03  0.12500000000E+03 0.  0.
         25    1    1    2    0    0 -0.50336335074E+02 -0.17678397895E+03 -0.78441217341E+03  0.81529980966E+03  0.12500000000E+03 0.  0.
         25    1    1    2    0    0 -0.82447759777E+02  0.21324227375E+03 -0.11324858996E+04  0.11620753905E+04  0.12500000000E+03 0.  0.
</event>
<event>
 5    0  0.6289113E-005  0.3109371E+03  0.7546771E-02  0.1079898E+00
         21   -1    0    0  502  501  0.00000000000E+00  0.00000000000E+00  0.53978468093E+03  0.53978468093E+03  0.00000000000E+00 0.  1.
         21   -1    0    0  501  502 -0.00000000000E+00 -0.00000000000E+00 -0.17911196434E+03  0.17911196434E+03  0.00000000000E+00 0.  1.
         25    1    1    2    0    0 -0.91139826711E+02 -0.38758882742E+02  0.18642162920E+03  0.24532986536E+03  0.12500000000E+03 0.  0.
         25    1    1    2    0    0 -0.11829535097E+03 -0.51606769835E+01  0.14292548659E+03  0.22377023342E+03  0.12500000000E+03 0.  0.
         25    1    1    2    0    0  0.20943517768E+03  0.43919559726E+02  0.31325600803E+02  0.24979654650E+03  0.12500000000E+03 0.  0.
</event>
<event>
 5    0  0.5822326E-005  0.3403360E+03  0.7546771E-02  0.1066653E+00
         21   -1    0    0  502  501  0.00000000000E+00  0.00000000000E+00  0.39228587628E+03  0.39228587628E+03  0.00000000000E+00 0.  1.
         21   -1    0    0  501  502 -0.00000000000E+00 -0.00000000000E+00 -0.29526579650E+03  0.29526579650E+03  0.00000000000E+00 0.  1.
         25    1    1    2    0    0  0.26614845834E+02 -0.70042764074E+02  0.16457783975E+03  0.21982994372E+03  0.12500000000E+03 0.  0.
         25    1    1    2    0    0  0.91082222556E+02  0.92527399626E+02  0.11682414255E+03  0.21477935476E+03  0.12500000000E+03 0.  0.
         25    1    1    2    0    0 -0.11769706839E+03 -0.22484635552E+02 -0.18438190252E+03  0.25294237431E+03  0.12500000000E+03 0.  0.
</event>
<event>
 5    0  0.5822326E-005  0.3330212E+03  0.7546771E-02  0.1069808E+00
         21   -1    0    0  502  501  0.00000000000E+00  0.00000000000E+00  0.65856878727E+03  0.65856878727E+03  0.00000000000E+00 0. -1.
         21   -1    0    0  501  502 -0.00000000000E+00 -0.00000000000E+00 -0.16840016291E+03  0.16840016291E+03  0.00000000000E+00 0. -1.
         25    1    1    2    0    0  0.18215462425E+03  0.11128021660E+03  0.91075364774E+02  0.26359688127E+03  0.12500000000E+03 0.  0.
         25    1    1    2    0    0 -0.15398497490E+03 -0.11217753386E+03  0.12287481219E+03  0.25887910512E+03  0.12500000000E+03 0.  0.
         25    1    1    2    0    0 -0.28169649358E+02  0.89731725389E+00  0.27621844739E+03  0.30449296380E+03  0.12500000000E+03 0.  0.
</event>
<event>
 5    0  0.5822326E-005  0.3251792E+03  0.7546771E-02  0.1073290E+00
         21   -1    0    0  502  501  0.00000000000E+00  0.00000000000E+00  0.34507802585E+03  0.34507802585E+03  0.00000000000E+00 0.  1.
         21   -1    0    0  501  502 -0.00000000000E+00 -0.00000000000E+00 -0.30642776492E+03  0.30642776492E+03  0.00000000000E+00 0.  1.
         25    1    1    2    0    0  0.15002317684E+03 -0.14532415352E+03  0.70256076588E+01  0.24351678043E+03  0.12500000000E+03 0.  0.
         25    1    1    2    0    0  0.37425724576E+02  0.12246053253E+03  0.30477794037E+02  0.18152455155E+03  0.12500000000E+03 0.  0.
         25    1    1    2    0    0 -0.18744890142E+03  0.22863620991E+02  0.11468592358E+01  0.22646445879E+03  0.12500000000E+03 0.  0.
</event>
<event>
 5    0  0.6615146E-005  0.2845142E+03  0.7546771E-02  0.1093249E+00
         21   -1    0    0  502  501  0.00000000000E+00  0.00000000000E+00  0.27058615433E+03  0.27058615433E+03  0.00000000000E+00 0.  1.
         21   -1    0    0  501  502 -0.00000000000E+00 -0.00000000000E+00 -0.29915923105E+03  0.29915923105E+03  0.00000000000E+00 0.  1.
         25    1    1    2    0    0 -0.80375366885E+02 -0.61121434980E+02 -0.10951585956E+03  0.19446015765E+03  0.12500000000E+03 0.  0.
         25    1    1    2    0    0 -0.17925818855E+02  0.60683838848E+02 -0.69483815144E+02  0.15638690433E+03  0.12500000000E+03 0.  0.
         25    1    1    2    0    0  0.98301185740E+02  0.43759613120E+00  0.15042659798E+03  0.21889832340E+03  0.12500000000E+03 0.  0.
</event>
<event>
 5    0  0.5822326E-005  0.2739589E+03  0.7546771E-02  0.1099035E+00
         21   -1    0    0  502  501  0.00000000000E+00  0.00000000000E+00  0.83811524888E+03  0.83811524888E+03  0.00000000000E+00 0.  1.
         21   -1    0    0  501  502 -0.00000000000E+00 -0.00000000000E+00 -0.89550284080E+02  0.89550284080E+02  0.00000000000E+00 0.  1.
         25    1    1    2    0    0  0.54671238410E+02 -0.73752387181E+02  0.23662050898E+03  0.28291805208E+03  0.12500000000E+03 0.  0.
         25    1    1    2    0    0  0.29193701176E+01 -0.10609904165E+03  0.18767131741E+03  0.24922089146E+03  0.12500000000E+03 0.  0.
         25    1    1    2    0    0 -0.57590608528E+02  0.17985142883E+03  0.32427313841E+03  0.39552658942E+03  0.12500000000E+03 0.  0.
</event>
<event>
 5    0  0.5822326E-005  0.3780850E+03  0.7546771E-02  0.1051644E+00
         21   -1    0    0  502  501  0.00000000000E+00  0.00000000000E+00  0.47950800665E+02  0.47950800665E+02  0.00000000000E+00 0. -1.
         21   -1    0    0  501  502 -0.00000000000E+00 -0.00000000000E+00 -0.29811452542E+04  0.29811452542E+04  0.00000000000E+00 0. -1.
         25    1    1    2    0    0  0.83465763335E+02 -0.20921691618E+03 -0.14759857543E+04  0.14982981007E+04  0.12500000000E+03 0.  0.
         25    1    1    2    0    0 -0.67189414150E+02  0.12116113959E+03 -0.12908256751E+04  0.13042432146E+04  0.12500000000E+03 0.  0.
         25    1    1    2    0    0 -0.16276349185E+02  0.88055776596E+02 -0.16638302412E+03  0.22655473964E+03  0.12500000000E+03 0.  0.
</event>
<event>
 5    0  0.5822326E-005  0.3964975E+03  0.7546771E-02  0.1044999E+00
         21   -1    0    0  502  501  0.00000000000E+00  0.00000000000E+00  0.83884697910E+02  0.83884697910E+02  0.00000000000E+00 0.  1.
         21   -1    0    0  501  502 -0.00000000000E+00 -0.00000000000E+00 -0.18741230703E+04  0.18741230703E+04  0.00000000000E+00 0.  1.
         25    1    1    2    0    0  0.17654374674E+03 -0.26733514163E+03 -0.70450057700E+03  0.78395269976E+03  0.12500000000E+03 0.  0.
         25    1    1    2    0    0 -0.52067956631E+02  0.22400849245E+03 -0.56902045112E+03  0.62633868681E+03  0.12500000000E+03 0.  0.
         25    1    1    2    0    0 -0.12447579011E+03  0.43326649188E+02 -0.51671734424E+03  0.54771638161E+03  0.12500000000E+03 0.  0.
</event>
<event>
 5    0  0.5822326E-005  0.3141200E+03  0.7546771E-02  0.1078388E+00
         21   -1    0    0  502  501  0.00000000000E+00  0.00000000000E+00  0.12736272819E+03  0.12736272819E+03  0.00000000000E+00 0.  1.
         21   -1    0    0  501  502 -0.00000000000E+00 -0.00000000000E+00 -0.77472747678E+03  0.77472747678E+03  0.00000000000E+00 0.  1.
         25    1    1    2    0    0 -0.58736288594E+02 -0.76890569343E+02 -0.49435496026E+03  0.51901246419E+03  0.12500000000E+03 0.  0.
         25    1    1    2    0    0  0.12471145694E+03  0.10634524888E+03 -0.10174017897E+03  0.22986588148E+03  0.12500000000E+03 0.  0.
         25    1    1    2    0    0 -0.65975168348E+02 -0.29454679533E+02 -0.51269609361E+02  0.15321185930E+03  0.12500000000E+03 0.  0.
</event>
<event>
 5    0  0.5822326E-005  0.3240109E+03  0.7546771E-02  0.1073818E+00
         21   -1    0    0  502  501  0.00000000000E+00  0.00000000000E+00  0.26723883025E+03  0.26723883025E+03  0.00000000000E+00 0.  1.
         21   -1    0    0  501  502 -0.00000000000E+00 -0.00000000000E+00 -0.39284371255E+03  0.39284371255E+03  0.00000000000E+00 0.  1.
         25    1    1    2    0    0 -0.14708843969E+03  0.21554269672E+02 -0.11425626180E+03  0.22534215981E+03  0.12500000000E+03 0.  0.
         25    1    1    2    0    0 -0.83666797762E+02  0.45052683541E+02 -0.41223652202E+02  0.16233997303E+03  0.12500000000E+03 0.  0.
         25    1    1    2    0    0  0.23075523745E+03 -0.66606953213E+02  0.29875031703E+02  0.27240040996E+03  0.12500000000E+03 0.  0.
</event>
<event>
 5    0  0.5822326E-005  0.2724904E+03  0.7546771E-02  0.1099863E+00
         21   -1    0    0  502  501  0.00000000000E+00  0.00000000000E+00  0.47541671668E+02  0.47541671668E+02  0.00000000000E+00 0. -1.
         21   -1    0    0  501  502 -0.00000000000E+00 -0.00000000000E+00 -0.15618096236E+04  0.15618096236E+04  0.00000000000E+00 0. -1.
         25    1    1    2    0    0  0.33650269016E+02  0.92576088796E+02 -0.19145368144E+03  0.24896221593E+03  0.12500000000E+03 0.  0.
         25    1    1    2    0    0 -0.24235533377E+02  0.19791129845E+02 -0.34684762514E+03  0.37000989847E+03  0.12500000000E+03 0.  0.
         25    1    1    2    0    0 -0.94147356386E+01 -0.11236721864E+03 -0.97596664535E+03  0.99037918087E+03  0.12500000000E+03 0.  0.
</event>
<event>
 5    0  0.5822326E-005  0.2866051E+03  0.7546771E-02  0.1092135E+00
         21   -1    0    0  502  501  0.00000000000E+00  0.00000000000E+00  0.13430532340E+04  0.13430532340E+04  0.00000000000E+00 0.  1.
         21   -1    0    0  501  502 -0.00000000000E+00 -0.00000000000E+00 -0.61161021377E+02  0.61161021377E+02  0.00000000000E+00 0.  1.
         25    1    1    2    0    0 -0.20316592785E+02 -0.44338509878E+02  0.73544402483E+03  0.74758382878E+03  0.12500000000E+03 0.  0.
         25    1    1    2    0    0  0.13449773413E+03 -0.15649090824E+02  0.26609753241E+03  0.32367797466E+03  0.12500000000E+03 0.  0.
         25    1    1    2    0    0 -0.11418114134E+03  0.59987600703E+02  0.28035065544E+03  0.33295245198E+03  0.12500000000E+03 0.  0.
</event>
<event>
 5    0  0.5822326E-005  0.4367826E+03  0.7546771E-02  0.1031739E+00
         21   -1    0    0  502  501  0.00000000000E+00  0.00000000000E+00  0.63888496986E+03  0.63888496986E+03  0.00000000000E+00 0. -1.
         21   -1    0    0  501  502 -0.00000000000E+00 -0.00000000000E+00 -0.29861248858E+03  0.29861248858E+03  0.00000000000E+00 0. -1.
         25    1    1    2    0    0  0.24374270986E+03  0.69743746344E+02  0.36378784618E+03  0.46069653330E+03  0.12500000000E+03 0.  0.
         25    1    1    2    0    0 -0.73552419171E+02  0.45401463433E+02 -0.14261514583E+03  0.20841144659E+03  0.12500000000E+03 0.  0.
         25    1    1    2    0    0 -0.17019029069E+03 -0.11514520978E+03  0.11909978093E+03  0.26838947855E+03  0.12500000000E+03 0.  0.
</event>
<event>
 5    0  0.5822326E-005  0.3126919E+03  0.7546771E-02  0.1079063E+00
         21   -1    0    0  502  501  0.00000000000E+00  0.00000000000E+00  0.47540546902E+03  0.47540546902E+03  0.00000000000E+00 0.  1.
         21   -1    0    0  501  502 -0.00000000000E+00 -0.00000000000E+00 -0.20566907190E+03  0.20566907190E+03  0.00000000000E+00 0.  1.
         25    1    1    2    0    0 -0.12360434139E+03 -0.85568445047E+02  0.19552067100E+03  0.27650194354E+03  0.12500000000E+03 0.  0.
         25    1    1    2    0    0  0.10712845476E+03  0.17247776992E+03  0.10354967164E+02  0.23865731139E+03  0.12500000000E+03 0.  0.
         25    1    1    2    0    0  0.16475886628E+02 -0.86909324868E+02  0.63860758968E+02  0.16591528599E+03  0.12500000000E+03 0.  0.
</event>
<event>
 5    0  0.5822326E-005  0.5610215E+03  0.7546771E-02  0.9989746E-01
         21   -1    0    0  502  501  0.00000000000E+00  0.00000000000E+00  0.16103810556E+03  0.16103810556E+03  0.00000000000E+00 0. -1.
         21   -1    0    0  501  502 -0.00000000000E+00 -0.00000000000E+00 -0.19544762661E+04  0.19544762661E+04  0.00000000000E+00 0. -1.
         25    1    1    2    0    0  0.34840122193E+03  0.29236448879E+03 -0.74274620044E+03  0.87986210512E+03  0.12500000000E+03 0.  0.
         25    1    1    2    0    0 -0.20002929050E+03 -0.25032604286E+03 -0.95545717159E+03  0.10154793211E+04  0.12500000000E+03 0.  0.
         25    1    1    2    0    0 -0.14837193143E+03 -0.42038445925E+02 -0.95234788489E+02  0.22017294546E+03  0.12500000000E+03 0.  0.
</event>
<event>
 5    0  0.5822326E-005  0.4104714E+03  0.7546771E-02  0.1040213E+00
         21   -1    0    0  502  501  0.00000000000E+00  0.00000000000E+00  0.25464985126E+03  0.25464985126E+03  0.00000000000E+00 0.  1.
         21   -1    0    0  501  502 -0.00000000000E+00 -0.00000000000E+00 -0.66164092736E+03  0.66164092736E+03  0.00000000000E+00 0.  1.
         25    1    1    2    0    0 -0.30467217259E+03  0.82602043411E+01 -0.29478306707E+03  0.44205816400E+03  0.12500000000E+03 0.  0.
         25    1    1    2    0    0  0.91548032566E+02 -0.56649217283E+02  0.52792786508E+02  0.17321158851E+03  0.12500000000E+03 0.  0.
         25    1    1    2    0    0  0.21312414003E+03  0.48389012942E+02 -0.16500079554E+03  0.30102102612E+03  0.12500000000E+03 0.  0.
</event>
<event>
 5    0  0.5822326E-005  0.3082798E+03  0.7546771E-02  0.1081173E+00
         21   -1    0    0  502  501  0.00000000000E+00  0.00000000000E+00  0.79244166874E+02  0.79244166874E+02  0.00000000000E+00 0. -1.
         21   -1    0    0  501  502 -0.00000000000E+00 -0.00000000000E+00 -0.11992861482E+04  0.11992861482E+04  0.00000000000E+00 0. -1.
         25    1    1    2    0    0 -0.10788869489E+03  0.46619091836E+02 -0.72425766952E+03  0.74430335352E+03  0.12500000000E+03 0.  0.
         25    1    1    2    0    0 -0.64288621713E+02 -0.30685632777E+02 -0.13513354000E+03  0.19738467157E+03  0.12500000000E+03 0.  0.
         25    1    1    2    0    0  0.17217731660E+03 -0.15933459059E+02 -0.26065077181E+03  0.33684228998E+03  0.12500000000E+03 0.  0.
</event>
<event>
 5    0  0.8535844E-005  0.3060456E+03  0.7546771E-02  0.1082257E+00
         21   -1    0    0  502  501  0.00000000000E+00  0.00000000000E+00  0.54195135903E+03  0.54195135903E+03  0.00000000000E+00 0.  1.
         21   -1    0    0  501  502 -0.00000000000E+00 -0.00000000000E+00 -0.17282711452E+03  0.17282711452E+03  0.00000000000E+00 0.  1.
         25    1    1    2    0    0  0.56724378911E+02  0.14821697013E+03 -0.99727378244E+01  0.20226314765E+03  0.12500000000E+03 0.  0.
         25    1    1    2    0    0 -0.84441236202E+02 -0.71016521460E+02  0.96073281560E+02  0.19242854290E+03  0.12500000000E+03 0.  0.
         25    1    1    2    0    0  0.27716857291E+02 -0.77200448672E+02  0.28302370077E+03  0.32008678300E+03  0.12500000000E+03 0.  0.
</event>
<event>
 5    0  0.5822326E-005  0.3831327E+03  0.7546771E-02  0.1049782E+00
         21   -1    0    0  502  501  0.00000000000E+00  0.00000000000E+00  0.20833769461E+03  0.20833769461E+03  0.00000000000E+00 0. -1.
         21   -1    0    0  501  502 -0.00000000000E+00 -0.00000000000E+00 -0.70458048519E+03  0.70458048519E+03  0.00000000000E+00 0. -1.
         25    1    1    2    0    0  0.99277496637E+02 -0.20917165855E+03 -0.86591838503E+02  0.27700532589E+03  0.12500000000E+03 0.  0.
         25    1    1    2    0    0  0.99424988483E+02  0.36323348535E+02 -0.46584403621E+02  0.17029333705E+03  0.12500000000E+03 0.  0.
         25    1    1    2    0    0 -0.19870248512E+03  0.17284831001E+03 -0.36306654845E+03  0.46561951685E+03  0.12500000000E+03 0.  0.
</event>
<event>
 5    0  0.5822326E-005  0.3480288E+03  0.7546771E-02  0.1063427E+00
         21   -1    0    0  502  501  0.00000000000E+00  0.00000000000E+00  0.38132926458E+03  0.38132926458E+03  0.00000000000E+00 0. -1.
         21   -1    0    0  501  502 -0.00000000000E+00 -0.00000000000E+00 -0.31763638915E+03  0.31763638915E+03  0.00000000000E+00 0. -1.
         25    1    1    2    0    0 -0.55811341289E+01 -0.10950538787E+03  0.61146261375E+01  0.16638800343E+03  0.12500000000E+03 0.  0.
         25    1    1    2    0    0  0.19287068925E+03 -0.52449181980E+02  0.92051363429E+02  0.25307799780E+03  0.12500000000E+03 0.  0.
         25    1    1    2    0    0 -0.18728955512E+03  0.16195456985E+03 -0.34473114140E+02  0.27949965251E+03  0.12500000000E+03 0.  0.
</event>
<event>
 5    0  0.5822326E-005  0.3151146E+03  0.7546771E-02  0.1077920E+00
         21   -1    0    0  502  501  0.00000000000E+00  0.00000000000E+00  0.16903332127E+03  0.16903332127E+03  0.00000000000E+00 0.  1.
         21   -1    0    0  501  502 -0.00000000000E+00 -0.00000000000E+00 -0.58744173809E+03  0.58744173809E+03  0.00000000000E+00 0.  1.
         25    1    1    2    0    0  0.70225028655E+02 -0.14277713168E+03 -0.73579786924E+02  0.21530408501E+03  0.12500000000E+03 0.  0.
         25    1    1    2    0    0  0.82060882648E+02  0.41570449536E+02 -0.32975683785E+02  0.15866469821E+03  0.12500000000E+03 0.  0.
         25    1    1    2    0    0 -0.15228591130E+03  0.10120668214E+03 -0.31185294611E+03  0.38250627614E+03  0.12500000000E+03 0.  0.
</event>
<event>
 5    0  0.5822326E-005  0.3660490E+03  0.7546771E-02  0.1056214E+00
         21   -1    0    0  502  501  0.00000000000E+00  0.00000000000E+00  0.47159295083E+02  0.47159295083E+02  0.00000000000E+00 0.  1.
         21   -1    0    0  501  502 -0.00000000000E+00 -0.00000000000E+00 -0.28412603210E+04  0.28412603210E+04  0.00000000000E+00 0.  1.
         25    1    1    2    0    0  0.11377286116E+03  0.62245341990E+02 -0.26335842733E+03  0.31906332879E+03  0.12500000000E+03 0.  0.
         25    1    1    2    0    0 -0.22665766425E+03 -0.84662519316E+02 -0.14529210204E+04  0.14782239108E+04  0.12500000000E+03 0.  0.
         25    1    1    2    0    0  0.11288480309E+03  0.22417177326E+02 -0.10778215781E+04  0.10911323764E+04  0.12500000000E+03 0.  0.
</event>
<event>
 5    0  0.5822326E-005  0.4003858E+03  0.7546771E-02  0.1043646E+00
         21   -1    0    0  502  501  0.00000000000E+00  0.00000000000E+00  0.35134205443E+03  0.35134205443E+03  0.00000000000E+00 0. -1.
         21   -1    0    0  501  502 -0.00000000000E+00 -0.00000000000E+00 -0.45627544935E+03  0.45627544935E+03  0.00000000000E+00 0. -1.
         25    1    1    2    0    0 -0.44482859387E+01  0.11596094537E+03 -0.55633608870E+02  0.17940687427E+03  0.12500000000E+03 0.  0.
         25    1    1    2    0    0 -0.26445519948E+03  0.77395289151E+01  0.38483884444E+02  0.29513126267E+03  0.12500000000E+03 0.  0.
         25    1    1    2    0    0  0.26890348542E+03 -0.12370047429E+03 -0.87783670500E+02  0.33307936684E+03  0.12500000000E+03 0.  0.
</event>
<event>
 5    0  0.5822326E-005  0.2774583E+03  0.7546771E-02  0.1097085E+00
         21   -1    0    0  502  501  0.00000000000E+00  0.00000000000E+00  0.30465109065E+03  0.30465109065E+03  0.00000000000E+00 0.  1.
         21   -1    0    0  501  502 -0.00000000000E+00 -0.00000000000E+00 -0.25269274965E+03  0.25269274965E+03  0.00000000000E+00 0.  1.
         25    1    1    2    0    0 -0.95323009343E+02 -0.85965284041E+02  0.46521454228E+02  0.18511010743E+03  0.12500000000E+03 0.  0.
         25    1    1    2    0    0  0.10149313237E+03  0.15439959452E+03 -0.30446238127E+02  0.22514898206E+03  0.12500000000E+03 0.  0.
         25    1    1    2    0    0 -0.61701230218E+01 -0.68434310476E+02  0.35883124904E+02  0.14708475081E+03  0.12500000000E+03 0.  0.
</event>
<event>
 5    0  0.5822326E-005  0.3331024E+03  0.7546771E-02  0.1069772E+00
         21   -1    0    0  502  501  0.00000000000E+00  0.00000000000E+00  0.82707950475E+03  0.82707950475E+03  0.00000000000E+00 0.  1.
         21   -1    0    0  501  502 -0.00000000000E+00 -0.00000000000E+00 -0.13415541011E+03  0.13415541011E+03  0.00000000000E+00 0.  1.
         25    1    1    2    0    0 -0.62318586720E+02 -0.49387164762E+02  0.62718987499E+03  0.64444925137E+03  0.12500000000E+03 0.  0.
         25    1    1    2    0    0  0.40762784444E+02 -0.16175116359E+02 -0.40827586436E+02  0.13861865242E+03  0.12500000000E+03 0.  0.
         25    1    1    2    0    0  0.21555802276E+02  0.65562281121E+02  0.10656180609E+03  0.17816701107E+03  0.12500000000E+03 0.  0.
</event>
<event>
 5    0  0.5822326E-005  0.3638517E+03  0.7546771E-02  0.1057069E+00
         21   -1    0    0  502  501  0.00000000000E+00  0.00000000000E+00  0.25232569039E+03  0.25232569039E+03  0.00000000000E+00 0.  1.
         21   -1    0    0  501  502 -0.00000000000E+00 -0.00000000000E+00 -0.52467135123E+03  0.52467135123E+03  0.00000000000E+00 0.  1.
         25    1    1    2    0    0 -0.75955206416E+01  0.29636978078E+03 -0.13317924498E+03  0.34821609697E+03  0.12500000000E+03 0.  0.
         25    1    1    2    0    0 -0.73724557690E+01 -0.14848881354E+03 -0.13121996230E+03  0.23440767768E+03  0.12500000000E+03 0.  0.
         25    1    1    2    0    0  0.14967976411E+02 -0.14788096724E+03 -0.79464535529E+01  0.19437326697E+03  0.12500000000E+03 0.  0.
</event>
<event>
 5    0  0.5822326E-005  0.2229134E+03  0.7546771E-02  0.1131729E+00
         21   -1    0    0  502  501  0.00000000000E+00  0.00000000000E+00  0.33523379341E+03  0.33523379341E+03  0.00000000000E+00 0. -1.
         21   -1    0    0  501  502 -0.00000000000E+00 -0.00000000000E+00 -0.14822611586E+03  0.14822611586E+03  0.00000000000E+00 0. -1.
         25    1    1    2    0    0 -0.21962011959E+02 -0.49346510898E+02  0.31928656209E+02  0.13986367361E+03  0.12500000000E+03 0.  0.
         25    1    1    2    0    0  0.70507990743E+02  0.40540986932E+02  0.14632279461E+03  0.20892656270E+03  0.12500000000E+03 0.  0.
         25    1    1    2    0    0 -0.48545978784E+02  0.88055239659E+01  0.87562267352E+01  0.13466967296E+03  0.12500000000E+03 0.  0.
</event>
<event>
 5    0  0.5822326E-005  0.2760088E+03  0.7546771E-02  0.1097889E+00
         21   -1    0    0  502  501  0.00000000000E+00  0.00000000000E+00  0.13223155995E+04  0.13223155995E+04  0.00000000000E+00 0.  1.
         21   -1    0    0  501  502 -0.00000000000E+00 -0.00000000000E+00 -0.57611720016E+02  0.57611720016E+02  0.00000000000E+00 0.  1.
         25    1    1    2    0    0  0.15271829392E+03  0.45626054693E+02  0.43762337673E+03  0.48222798968E+03  0.12500000000E+03 0.  0.
         25    1    1    2    0    0 -0.85811605081E+01 -0.73036717474E+02  0.47067707230E+03  0.49251386255E+03  0.12500000000E+03 0.  0.
         25    1    1    2    0    0 -0.14413713341E+03  0.27410662782E+02  0.35640343041E+03  0.40518546725E+03  0.12500000000E+03 0.  0.
</event>
<event>
 5    0  0.5822326E-005  0.2344193E+03  0.7546771E-02  0.1123567E+00
         21   -1    0    0  502  501  0.00000000000E+00  0.00000000000E+00  0.12044212603E+03  0.12044212603E+03  0.00000000000E+00 0. -1.
         21   -1    0    0  501  502 -0.00000000000E+00 -0.00000000000E+00 -0.45625557373E+03  0.45625557373E+03  0.00000000000E+00 0. -1.
         25    1    1    2    0    0  0.78974977876E+02 -0.28515110943E+01 -0.62282726772E+02  0.16046593501E+03  0.12500000000E+03 0.  0.
         25    1    1    2    0    0  0.17523797574E+02 -0.25966901126E+02 -0.44062859879E+02  0.13619067169E+03  0.12500000000E+03 0.  0.
         25    1    1    2    0    0 -0.96498775450E+02  0.28818412220E+02 -0.22946786105E+03  0.28004109306E+03  0.12500000000E+03 0.  0.
</event>
<event>
 5    0  0.5822326E-005  0.2406767E+03  0.7546771E-02  0.1119343E+00
         21   -1    0    0  502  501  0.00000000000E+00  0.00000000000E+00  0.13617942848E+03  0.13617942848E+03  0.00000000000E+00 0.  1.
         21   -1    0    0  501  502 -0.00000000000E+00 -0.00000000000E+00 -0.42535992057E+03  0.42535992057E+03  0.00000000000E+00 0.  1.
         25    1    1    2    0    0  0.31494372413E+02 -0.46815926843E+02 -0.69817072384E+02  0.15389298261E+03  0.12500000000E+03 0.  0.
         25    1    1    2    0    0 -0.91261324874E+02 -0.46761730069E+02 -0.48988286301E+02  0.16893827574E+03  0.12500000000E+03 0.  0.
         25    1    1    2    0    0  0.59766952461E+02  0.93577656912E+02 -0.17037513340E+03  0.23870809069E+03  0.12500000000E+03 0.  0.
</event>
<event>
 5    0  0.5822326E-005  0.2336255E+03  0.7546771E-02  0.1124114E+00
         21   -1    0    0  502  501  0.00000000000E+00  0.00000000000E+00  0.31219857904E+03  0.31219857904E+03  0.00000000000E+00 0.  1.
         21   -1    0    0  501  502 -0.00000000000E+00 -0.00000000000E+00 -0.17482735462E+03  0.17482735462E+03  0.00000000000E+00 0.  1.
         25    1    1    2    0    0  0.58289208715E+02  0.74610838306E+02 -0.25108021078E+02  0.15880749909E+03  0.12500000000E+03 0.  0.
         25    1    1    2    0    0 -0.52330706538E+01  0.58918184829E+01  0.91621415557E+02  0.15518241634E+03  0.12500000000E+03 0.  0.
         25    1    1    2    0    0 -0.53056138061E+02 -0.80502656789E+02  0.70857829941E+02  0.17303601822E+03  0.12500000000E+03 0.  0.
</event>
<event>
 5    0  0.5822326E-005  0.3777998E+03  0.7546771E-02  0.1051750E+00
         21   -1    0    0  502  501  0.00000000000E+00  0.00000000000E+00  0.13224624602E+04  0.13224624602E+04  0.00000000000E+00 0.  1.
         21   -1    0    0  501  502 -0.00000000000E+00 -0.00000000000E+00 -0.10792949745E+03  0.10792949745E+03  0.00000000000E+00 0.  1.
         25    1    1    2    0    0 -0.43441907696E+02 -0.19936232320E+03  0.10104663383E+04  0.10384121321E+04  0.12500000000E+03 0.  0.
         25    1    1    2    0    0  0.60967360944E+02  0.12697760717E+03  0.12885135335E+03  0.22818414293E+03  0.12500000000E+03 0.  0.
         25    1    1    2    0    0 -0.17525453249E+02  0.72384716032E+02  0.75215271041E+02  0.16379568256E+03  0.12500000000E+03 0.  0.
</event>
<event>
 5    0  0.5822326E-005  0.3143669E+03  0.7546771E-02  0.1078271E+00
         21   -1    0    0  502  501  0.00000000000E+00  0.00000000000E+00  0.90987654029E+03  0.90987654029E+03  0.00000000000E+00 0. -1.
         21   -1    0    0  501  502 -0.00000000000E+00 -0.00000000000E+00 -0.10861533915E+03  0.10861533915E+03  0.00000000000E+00 0. -1.
         25    1    1    2    0    0  0.16442360448E+03 -0.58447140824E+02  0.14462728137E+03  0.25883052466E+03  0.12500000000E+03 0.  0.
         25    1    1    2    0    0 -0.22667981853E+02 -0.35438279914E+02  0.43096443932E+03  0.45069397271E+03  0.12500000000E+03 0.  0.
         25    1    1    2    0    0 -0.14175562263E+03  0.93885420738E+02  0.22566948046E+03  0.30896738207E+03  0.12500000000E+03 0.  0.
</event>
<event>
 5    0  0.6379231E-005  0.3154485E+03  0.7546771E-02  0.1077763E+00
         21   -1    0    0  502  501  0.00000000000E+00  0.00000000000E+00  0.13881589870E+03  0.13881589870E+03  0.00000000000E+00 0.  1.
         21   -1    0    0  501  502 -0.00000000000E+00 -0.00000000000E+00 -0.71683241906E+03  0.71683241906E+03  0.00000000000E+00 0.  1.
         25    1    1    2    0    0  0.37026225132E+02  0.50017708992E+02 -0.14614445164E+02  0.14039691794E+03  0.12500000000E+03 0.  0.
         25    1    1    2    0    0  0.62103611866E+02 -0.94155514564E+02 -0.51643648195E+03  0.54318851186E+03  0.12500000000E+03 0.  0.
         25    1    1    2    0    0 -0.99129836998E+02  0.44137805573E+02 -0.46965593249E+02  0.17206288796E+03  0.12500000000E+03 0.  0.
</event>
<event>
 5    0  0.5822326E-005  0.3815952E+03  0.7546771E-02  0.1050346E+00
         21   -1    0    0  502  501  0.00000000000E+00  0.00000000000E+00  0.97720504108E+03  0.97720504108E+03  0.00000000000E+00 0.  1.
         21   -1    0    0  501  502 -0.00000000000E+00 -0.00000000000E+00 -0.14901158965E+03  0.14901158965E+03  0.00000000000E+00 0.  1.
         25    1    1    2    0    0  0.92800697343E+02  0.16662518407E+03  0.41934187815E+03  0.47733482186E+03  0.12500000000E+03 0.  0.
         25    1    1    2    0    0 -0.14710481607E+02 -0.56460038589E+02 -0.56042715080E+02  0.14889566864E+03  0.12500000000E+03 0.  0.
         25    1    1    2    0    0 -0.78090215736E+02 -0.11016514548E+03  0.46489428836E+03  0.49998614023E+03  0.12500000000E+03 0.  0.
</event>
<event>
 5    0  0.5822326E-005  0.2582746E+03  0.7546771E-02  0.1108184E+00
         21   -1    0    0  502  501  0.00000000000E+00  0.00000000000E+00  0.83953745969E+02  0.83953745969E+02  0.00000000000E+00 0.  1.
         21   -1    0    0  501  502 -0.00000000000E+00 -0.00000000000E+00 -0.79455365244E+03  0.79455365244E+03  0.00000000000E+00 0.  1.
         25    1    1    2    0    0  0.46636210928E+02 -0.51138702321E+02 -0.82153192370E+02  0.16481580647E+03  0.12500000000E+03 0.  0.
         25    1    1    2    0    0 -0.97631889956E+01  0.13412125225E+03 -0.35164892751E+03  0.39669358248E+03  0.12500000000E+03 0.  0.
         25    1    1    2    0    0 -0.36873021932E+02 -0.82982549930E+02 -0.27679778660E+03  0.31699800946E+03  0.12500000000E+03 0.  0.
</event>
<event>
 5    0  0.5822326E-005  0.2869361E+03  0.7546771E-02  0.1091960E+00
         21   -1    0    0  502  501  0.00000000000E+00  0.00000000000E+00  0.35216397438E+03  0.35216397438E+03  0.00000000000E+00 0. -1.
         21   -1    0    0  501  502 -0.00000000000E+00 -0.00000000000E+00 -0.23378972674E+03  0.23378972674E+03  0.00000000000E+00 0. -1.
         25    1    1    2    0    0  0.97731878068E+02  0.77876437441E+02 -0.51659890225E+02  0.18414669087E+03  0.12500000000E+03 0.  0.
         25    1    1    2    0    0 -0.28279806434E+02 -0.72161100728E+02 -0.35551715056E+02  0.15131390007E+03  0.12500000000E+03 0.  0.
         25    1    1    2    0    0 -0.69452071634E+02 -0.57153367136E+01  0.20558585292E+03  0.25049311018E+03  0.12500000000E+03 0.  0.
</event>
<event>
 5    0  0.5822326E-005  0.2592941E+03  0.7546771E-02  0.1107568E+00
         21   -1    0    0  502  501  0.00000000000E+00  0.00000000000E+00  0.21373133838E+03  0.21373133838E+03  0.00000000000E+00 0.  1.
         21   -1    0    0  501  502 -0.00000000000E+00 -0.00000000000E+00 -0.31456993461E+03  0.31456993461E+03  0.00000000000E+00 0.  1.
         25    1    1    2    0    0 -0.68378632618E+02 -0.50780713380E+01 -0.78038814441E+02  0.16253147623E+03  0.12500000000E+03 0.  0.
         25    1    1    2    0    0  0.47475926023E+02 -0.11839874794E+03 -0.52940373825E+02  0.18627911919E+03  0.12500000000E+03 0.  0.
         25    1    1    2    0    0  0.20902706595E+02  0.12347681928E+03  0.30140592043E+02  0.17949067756E+03  0.12500000000E+03 0.  0.
</event>
<event>
 5    0  0.5822326E-005  0.4057834E+03  0.7546771E-02  0.1041795E+00
         21   -1    0    0  502  501  0.00000000000E+00  0.00000000000E+00  0.41517449465E+03  0.41517449465E+03  0.00000000000E+00 0. -1.
         21   -1    0    0  501  502 -0.00000000000E+00 -0.00000000000E+00 -0.39660469508E+03  0.39660469508E+03  0.00000000000E+00 0.  1.
         25    1    1    2    0    0 -0.73886131197E+02  0.21964197348E+03  0.18309107665E+03  0.32070094987E+03  0.12500000000E+03 0.  0.
         25    1    1    2    0    0  0.15165523621E+03 -0.23710052388E+03 -0.14871140510E+03  0.34198837861E+03  0.12500000000E+03 0.  0.
         25    1    1    2    0    0 -0.77769105012E+02  0.17458550408E+02 -0.15809871969E+02  0.14908986125E+03  0.12500000000E+03 0.  0.
</event>
<event>
 5    0  0.5822326E-005  0.2571226E+03  0.7546771E-02  0.1108884E+00
         21   -1    0    0  502  501  0.00000000000E+00  0.00000000000E+00  0.21039703938E+04  0.21039703938E+04  0.00000000000E+00 0.  1.
         21   -1    0    0  501  502 -0.00000000000E+00 -0.00000000000E+00 -0.31422520151E+02  0.31422520151E+02  0.00000000000E+00 0.  1.
         25    1    1    2    0    0  0.12927649247E+03  0.67439610971E+02  0.52855181839E+03  0.56236334994E+03  0.12500000000E+03 0.  0.
         25    1    1    2    0    0 -0.32218143475E+02 -0.59789414653E+02  0.70760925960E+03  0.72176772382E+03  0.12500000000E+03 0.  0.
         25    1    1    2    0    0 -0.97058348997E+02 -0.76501963175E+01  0.83638679562E+03  0.85126184016E+03  0.12500000000E+03 0.  0.
</event>
<event>
 5    0  0.5822326E-005  0.2780247E+03  0.7546771E-02  0.1096773E+00
         21   -1    0    0  502  501  0.00000000000E+00  0.00000000000E+00  0.47935689282E+03  0.47935689282E+03  0.00000000000E+00 0.  1.
         21   -1    0    0  501  502 -0.00000000000E+00 -0.00000000000E+00 -0.16125297337E+03  0.16125297337E+03  0.00000000000E+00 0.  1.
         25    1    1    2    0    0  0.99472397134E+02  0.21180668912E+02  0.17476981549E+03  0.23772435073E+03  0.12500000000E+03 0.  0.
         25    1    1    2    0    0 -0.11705945208E+03 -0.75551178709E+02  0.18099674443E+03  0.26037610762E+03  0.12500000000E+03 0.  0.
         25    1    1    2    0    0  0.17587054948E+02  0.54370509797E+02 -0.37662640457E+02  0.14250940784E+03  0.12500000000E+03 0.  0.
</event>
<event>
 5    0  0.5822326E-005  0.3674096E+03  0.7546771E-02  0.1055688E+00
         21   -1    0    0  502  501  0.00000000000E+00  0.00000000000E+00  0.12254188476E+04  0.12254188476E+04  0.00000000000E+00 0. -1.
         21   -1    0    0  501  502 -0.00000000000E+00 -0.00000000000E+00 -0.11015807600E+03  0.11015807600E+03  0.00000000000E+00 0. -1.
         25    1    1    2    0    0  0.11816509765E+03 -0.31291387685E+02  0.17961759539E+03  0.25065837672E+03  0.12500000000E+03 0.  0.
         25    1    1    2    0    0 -0.44645300048E+02 -0.17360858436E+03  0.16331234588E+03  0.27281690874E+03  0.12500000000E+03 0.  0.
         25    1    1    2    0    0 -0.73519797603E+02  0.20489997205E+03  0.77233083034E+03  0.81210163815E+03  0.12500000000E+03 0.  0.
</event>
<event>
 5    0  0.6146088E-005  0.2850806E+03  0.7546771E-02  0.1092946E+00
         21   -1    0    0  502  501  0.00000000000E+00  0.00000000000E+00  0.15201140086E+03  0.15201140086E+03  0.00000000000E+00 0.  1.
         21   -1    0    0  501  502 -0.00000000000E+00 -0.00000000000E+00 -0.53463703282E+03  0.53463703282E+03  0.00000000000E+00 0.  1.
         25    1    1    2    0    0  0.17514576453E+02 -0.10603123342E+03 -0.88682934170E+02  0.18718719417E+03  0.12500000000E+03 0.  0.
         25    1    1    2    0    0 -0.25724720525E+02 -0.69772387459E+02 -0.23383678320E+03  0.27538080629E+03  0.12500000000E+03 0.  0.
         25    1    1    2    0    0  0.82101440727E+01  0.17580362088E+03 -0.60105914600E+02  0.22408043322E+03  0.12500000000E+03 0.  0.
</event>
<event>
 5    0  0.5822326E-005  0.2305623E+03  0.7546771E-02  0.1126245E+00
         21   -1    0    0  502  501  0.00000000000E+00  0.00000000000E+00  0.58186874959E+03  0.58186874959E+03  0.00000000000E+00 0.  1.
         21   -1    0    0  501  502 -0.00000000000E+00 -0.00000000000E+00 -0.91359049148E+02  0.91359049148E+02  0.00000000000E+00 0.  1.
         25    1    1    2    0    0  0.59874223176E+01  0.16775677933E+02  0.58529120502E+02  0.13916871251E+03  0.12500000000E+03 0.  0.
         25    1    1    2    0    0 -0.54911677886E+02 -0.84457545355E+02  0.18521463291E+03  0.24510779176E+03  0.12500000000E+03 0.  0.
         25    1    1    2    0    0  0.48924255569E+02  0.67681867422E+02  0.24676594702E+03  0.28895129446E+03  0.12500000000E+03 0.  0.
</event>
<event>
 5    0  0.5822326E-005  0.3366062E+03  0.7546771E-02  0.1068251E+00
         21   -1    0    0  502  501  0.00000000000E+00  0.00000000000E+00  0.41967891584E+04  0.41967891584E+04  0.00000000000E+00 0. -1.
         21   -1    0    0  501  502 -0.00000000000E+00 -0.00000000000E+00 -0.26997715569E+02  0.26997715569E+02  0.00000000000E+00 0. -1.
         25    1    1    2    0    0 -0.12322681594E+03 -0.11381097078E+03  0.12401164323E+04  0.12576372891E+04  0.12500000000E+03 0.  0.
         25    1    1    2    0    0 -0.85335999746E+02  0.13077491760E+03  0.17612397404E+04  0.17725616308E+04  0.12500000000E+03 0.  0.
         25    1    1    2    0    0  0.20856281568E+03 -0.16963946818E+02  0.11684352701E+04  0.11935879541E+04  0.12500000000E+03 0.  0.
</event>
<event>
 5    0  0.5822326E-005  0.2327262E+03  0.7546771E-02  0.1124736E+00
         21   -1    0    0  502  501  0.00000000000E+00  0.00000000000E+00  0.17189991932E+03  0.17189991932E+03  0.00000000000E+00 0.  1.
         21   -1    0    0  501  502 -0.00000000000E+00 -0.00000000000E+00 -0.31507561425E+03  0.31507561425E+03  0.00000000000E+00 0.  1.
         25    1    1    2    0    0 -0.82594538800E+01  0.10223004309E+03 -0.86576670952E+02  0.18341134164E+03  0.12500000000E+03 0.  0.
         25    1    1    2    0    0  0.11589486628E+02 -0.54339347052E+02  0.35161182008E+02  0.14123876790E+03  0.12500000000E+03 0.  0.
         25    1    1    2    0    0 -0.33300327477E+01 -0.47890696036E+02 -0.91760205988E+02  0.16232542403E+03  0.12500000000E+03 0.  0.
</event>
<event>
 5    0  0.5822326E-005  0.2543837E+03  0.7546771E-02  0.1110565E+00
         21   -1    0    0  502  501  0.00000000000E+00  0.00000000000E+00  0.41755263657E+03  0.41755263657E+03  0.00000000000E+00 0.  1.
         21   -1    0    0  501  502 -0.00000000000E+00 -0.00000000000E+00 -0.15497702042E+03  0.15497702042E+03  0.00000000000E+00 0.  1.
         25    1    1    2    0    0  0.68817619075E+00  0.82456928989E+02  0.13102501993E+03  0.19897782432E+03  0.12500000000E+03 0.  0.
         25    1    1    2    0    0 -0.86070687076E+02 -0.22048686512E+02  0.14363368686E+03  0.21011888005E+03  0.12500000000E+03 0.  0.
         25    1    1    2    0    0  0.85382510885E+02 -0.60408242477E+02 -0.12083090645E+02  0.16343295263E+03  0.12500000000E+03 0.  0.
</event>
<event>
 5    0  0.7221593E-005  0.4384001E+03  0.7546771E-02  0.1031239E+00
         21   -1    0    0  502  501  0.00000000000E+00  0.00000000000E+00  0.37999731133E+03  0.37999731133E+03  0.00000000000E+00 0.  1.
         21   -1    0    0  501  502 -0.00000000000E+00 -0.00000000000E+00 -0.50577900026E+03  0.50577900026E+03  0.00000000000E+00 0.  1.
         25    1    1    2    0    0 -0.97569422763E+02  0.21201525321E+03 -0.14767939983E+03  0.30315749205E+03  0.12500000000E+03 0.  0.
         25    1    1    2    0    0 -0.17021747915E+03 -0.12080441539E+03  0.10093076477E+03  0.26340029663E+03  0.12500000000E+03 0.  0.
         25    1    1    2    0    0  0.26778690191E+03 -0.91210837815E+02 -0.79033053869E+02  0.31921852291E+03  0.12500000000E+03 0.  0.
</event>
<event>
 5    0  0.5822326E-005  0.3918788E+03  0.7546771E-02  0.1046629E+00
         21   -1    0    0  502  501  0.00000000000E+00  0.00000000000E+00  0.27055834329E+03  0.27055834329E+03  0.00000000000E+00 0.  1.
         21   -1    0    0  501  502 -0.00000000000E+00 -0.00000000000E+00 -0.56760021584E+03  0.56760021584E+03  0.00000000000E+00 0.  1.
         25    1    1    2    0    0  0.47308872821E+02 -0.53712942362E+02 -0.14427576919E+02  0.14476313274E+03  0.12500000000E+03 0.  0.
         25    1    1    2    0    0 -0.20729795255E+03 -0.10060075922E+03 -0.34263196711E+03  0.43141003555E+03  0.12500000000E+03 0.  0.
         25    1    1    2    0    0  0.15998907973E+03  0.15431370158E+03  0.60017671467E+02  0.26198539085E+03  0.12500000000E+03 0.  0.
</event>
<event>
 5    0  0.5822326E-005  0.2345176E+03  0.7546771E-02  0.1123500E+00
         21   -1    0    0  502  501  0.00000000000E+00  0.00000000000E+00  0.17374088585E+04  0.17374088585E+04  0.00000000000E+00 0.  1.
         21   -1    0    0  501  502 -0.00000000000E+00 -0.00000000000E+00 -0.31655487836E+02  0.31655487836E+02  0.00000000000E+00 0.  1.
         25    1    1    2    0    0 -0.70915632290E+02  0.44364030523E+02  0.67986488017E+03  0.69630341762E+03  0.12500000000E+03 0.  0.
         25    1    1    2    0    0 -0.15292220822E+02  0.47679990928E+02  0.49356031858E+03  0.51159947384E+03  0.12500000000E+03 0.  0.
         25    1    1    2    0    0  0.86207853112E+02 -0.92044021451E+02  0.53232817188E+03  0.56116145484E+03  0.12500000000E+03 0.  0.
</event>
<event>
 5    0  0.5822326E-005  0.3773604E+03  0.7546771E-02  0.1051914E+00
         21   -1    0    0  502  501  0.00000000000E+00  0.00000000000E+00  0.32093323313E+03  0.32093323313E+03  0.00000000000E+00 0.  1.
         21   -1    0    0  501  502 -0.00000000000E+00 -0.00000000000E+00 -0.44370873037E+03  0.44370873037E+03  0.00000000000E+00 0.  1.
         25    1    1    2    0    0  0.12909326050E+03 -0.84857535536E+02 -0.81703124134E+02  0.21486337923E+03  0.12500000000E+03 0.  0.
         25    1    1    2    0    0  0.14731482515E+03 -0.29658995804E+02 -0.10102641769E+03  0.22002874997E+03  0.12500000000E+03 0.  0.
         25    1    1    2    0    0 -0.27640808565E+03  0.11451653134E+03  0.59954044578E+02  0.32974983430E+03  0.12500000000E+03 0.  0.
</event>
<event>
 5    0  0.5990579E-005  0.2578813E+03  0.7546771E-02  0.1108423E+00
         21   -1    0    0  502  501  0.00000000000E+00  0.00000000000E+00  0.34335200726E+03  0.34335200726E+03  0.00000000000E+00 0. -1.
         21   -1    0    0  501  502 -0.00000000000E+00 -0.00000000000E+00 -0.19368678183E+03  0.19368678183E+03  0.00000000000E+00 0. -1.
         25    1    1    2    0    0  0.11499088622E+03  0.81247223365E+02  0.11340241520E+03  0.21979336430E+03  0.12500000000E+03 0.  0.
         25    1    1    2    0    0 -0.20010205412E+02 -0.77928422588E+02  0.56272299212E+02  0.15894910829E+03  0.12500000000E+03 0.  0.
         25    1    1    2    0    0 -0.94980680812E+02 -0.33188007778E+01 -0.20009488986E+02  0.15829631649E+03  0.12500000000E+03 0.  0.
</event>
<event>
 5    0  0.5822326E-005  0.2899005E+03  0.7546771E-02  0.1090401E+00
         21   -1    0    0  502  501  0.00000000000E+00  0.00000000000E+00  0.80190757265E+03  0.80190757265E+03  0.00000000000E+00 0.  1.
         21   -1    0    0  501  502 -0.00000000000E+00 -0.00000000000E+00 -0.10480300099E+03  0.10480300099E+03  0.00000000000E+00 0.  1.
         25    1    1    2    0    0  0.12194979417E+03 -0.12677123800E+03  0.31768392851E+03  0.38404528056E+03  0.12500000000E+03 0.  0.
         25    1    1    2    0    0 -0.44158556180E+02  0.16008856124E+03  0.20400504879E+03  0.29124111224E+03  0.12500000000E+03 0.  0.
         25    1    1    2    0    0 -0.77791237989E+02 -0.33317323247E+02  0.17541559436E+03  0.23142418084E+03  0.12500000000E+03 0.  0.
</event>
<event>
 5    0  0.5822326E-005  0.2251044E+03  0.7546771E-02  0.1130134E+00
         21   -1    0    0  502  501  0.00000000000E+00  0.00000000000E+00  0.10584056644E+03  0.10584056644E+03  0.00000000000E+00 0.  1.
         21   -1    0    0  501  502 -0.00000000000E+00 -0.00000000000E+00 -0.47875779145E+03  0.47875779145E+03  0.00000000000E+00 0.  1.
         25    1    1    2    0    0 -0.51402648552E+02  0.42353107039E+01 -0.10777892248E+03  0.17292040442E+03  0.12500000000E+03 0.  0.
         25    1    1    2    0    0  0.12128910513E+02  0.88257122524E+02 -0.11288842374E+03  0.19053930398E+03  0.12500000000E+03 0.  0.
         25    1    1    2    0    0  0.39273738039E+02 -0.92492433228E+02 -0.15224987879E+03  0.22113864948E+03  0.12500000000E+03 0.  0.
</event>
<event>
 5    0  0.5822326E-005  0.3739903E+03  0.7546771E-02  0.1053178E+00
         21   -1    0    0  502  501  0.00000000000E+00  0.00000000000E+00  0.56058717807E+02  0.56058717807E+02  0.00000000000E+00 0.  1.
         21   -1    0    0  501  502 -0.00000000000E+00 -0.00000000000E+00 -0.24950395974E+04  0.24950395974E+04  0.00000000000E+00 0.  1.
         25    1    1    2    0    0 -0.12571541345E+03 -0.20411442230E+02 -0.87266709708E+03  0.89072658795E+03  0.12500000000E+03 0.  0.
         25    1    1    2    0    0 -0.67302833256E+02  0.19420679144E+03 -0.48621283952E+03  0.54247016003E+03  0.12500000000E+03 0.  0.
         25    1    1    2    0    0  0.19301824671E+03 -0.17379534921E+03 -0.10801009430E+04  0.11179015672E+04  0.12500000000E+03 0.  0.
</event>
<event>
 5    0  0.5822326E-005  0.2437403E+03  0.7546771E-02  0.1117326E+00
         21   -1    0    0  502  501  0.00000000000E+00  0.00000000000E+00  0.37748750015E+03  0.37748750015E+03  0.00000000000E+00 0. -1.
         21   -1    0    0  501  502 -0.00000000000E+00 -0.00000000000E+00 -0.15738090129E+03  0.15738090129E+03  0.00000000000E+00 0. -1.
         25    1    1    2    0    0 -0.80078246510E+02  0.18330328324E+02  0.16708801732E+02  0.15050817438E+03  0.12500000000E+03 0.  0.
         25    1    1    2    0    0 -0.36545114575E+02 -0.67642594415E+02  0.11006626854E+03  0.18344113347E+03  0.12500000000E+03 0.  0.
         25    1    1    2    0    0  0.11662336109E+03  0.49312266091E+02  0.93331528589E+02  0.20091909358E+03  0.12500000000E+03 0.  0.
</event>
<event>
 5    0  0.6092324E-005  0.2847050E+03  0.7546771E-02  0.1093147E+00
         21   -1    0    0  502  501  0.00000000000E+00  0.00000000000E+00  0.53628901377E+02  0.53628901377E+02  0.00000000000E+00 0. -1.
         21   -1    0    0  501  502 -0.00000000000E+00 -0.00000000000E+00 -0.15114412339E+04  0.15114412339E+04  0.00000000000E+00 0. -1.
         25    1    1    2    0    0 -0.49794104000E+02  0.20399287207E+02 -0.59185165657E+03  0.60729644087E+03  0.12500000000E+03 0.  0.
         25    1    1    2    0    0  0.26164505196E+02  0.22977897835E+02 -0.79550946581E+03  0.80602287518E+03  0.12500000000E+03 0.  0.
         25    1    1    2    0    0  0.23629598804E+02 -0.43377185042E+02 -0.70451210125E+02  0.15175081921E+03  0.12500000000E+03 0.  0.
</event>
<event>
 5    0  0.5822326E-005  0.2022222E+03  0.7546771E-02  0.1147878E+00
         21   -1    0    0  502  501  0.00000000000E+00  0.00000000000E+00  0.23691262025E+03  0.23691262025E+03  0.00000000000E+00 0. -1.
         21   -1    0    0  501  502 -0.00000000000E+00 -0.00000000000E+00 -0.17261135084E+03  0.17261135084E+03  0.00000000000E+00 0. -1.
         25    1    1    2    0    0 -0.99087827967E+01  0.43326356966E+02  0.60845521228E+02  0.14595387846E+03  0.12500000000E+03 0.  0.
         25    1    1    2    0    0  0.31970792247E+02 -0.66209573264E+01 -0.15364387334E+02  0.13010393165E+03  0.12500000000E+03 0.  0.
         25    1    1    2    0    0 -0.22062009450E+02 -0.36705399639E+02  0.18820135516E+02  0.13346616097E+03  0.12500000000E+03 0.  0.
</event>
<event>
 5    0  0.5822326E-005  0.3800121E+03  0.7546771E-02  0.1050929E+00
         21   -1    0    0  502  501  0.00000000000E+00  0.00000000000E+00  0.58221568656E+03  0.58221568656E+03  0.00000000000E+00 0.  1.
         21   -1    0    0  501  502 -0.00000000000E+00 -0.00000000000E+00 -0.24803384526E+03  0.24803384526E+03  0.00000000000E+00 0.  1.
         25    1    1    2    0    0  0.60965333586E+02  0.12528255800E+03  0.15742290148E+03  0.24458017325E+03  0.12500000000E+03 0.  0.
         25    1    1    2    0    0 -0.93059396544E+02  0.17120674913E+03  0.10617862632E+03  0.25469727701E+03  0.12500000000E+03 0.  0.
         25    1    1    2    0    0  0.32094062958E+02 -0.29648930712E+03  0.70580313502E+02  0.33097208156E+03  0.12500000000E+03 0.  0.
</event>
<event>
 5    0  0.5822326E-005  0.3934518E+03  0.7546771E-02  0.1046071E+00
         21   -1    0    0  502  501  0.00000000000E+00  0.00000000000E+00  0.14591469588E+03  0.14591469588E+03  0.00000000000E+00 0.  1.
         21   -1    0    0  501  502 -0.00000000000E+00 -0.00000000000E+00 -0.10609234278E+04  0.10609234278E+04  0.00000000000E+00 0.  1.
         25    1    1    2    0    0  0.27705334520E+02 -0.30219405365E+02  0.74533993346E+02  0.15119892257E+03  0.12500000000E+03 0.  0.
         25    1    1    2    0    0 -0.10743261250E+03 -0.11612008201E+01 -0.24141806914E+03  0.29231968583E+03  0.12500000000E+03 0.  0.
         25    1    1    2    0    0  0.79727277982E+02  0.31380606186E+02 -0.74812465616E+03  0.76331951531E+03  0.12500000000E+03 0.  0.
</event>
<event>
 5    0  0.5822326E-005  0.2251468E+03  0.7546771E-02  0.1130103E+00
         21   -1    0    0  502  501  0.00000000000E+00  0.00000000000E+00  0.57078504350E+03  0.57078504350E+03  0.00000000000E+00 0.  1.
         21   -1    0    0  501  502 -0.00000000000E+00 -0.00000000000E+00 -0.88809420335E+02  0.88809420335E+02  0.00000000000E+00 0.  1.
         25    1    1    2    0    0 -0.53929255216E+01 -0.83391303853E+02  0.12810025208E+03  0.19752940993E+03  0.12500000000E+03 0.  0.
         25    1    1    2    0    0  0.31407442867E+02  0.46869285521E+02  0.82777748635E+02  0.16018836744E+03  0.12500000000E+03 0.  0.
         25    1    1    2    0    0 -0.26014517345E+02  0.36522018332E+02  0.27109762246E+03  0.30187668648E+03  0.12500000000E+03 0.  0.
</event>
<event>
 5    0  0.5822326E-005  0.2784899E+03  0.7546771E-02  0.1096517E+00
         21   -1    0    0  502  501  0.00000000000E+00  0.00000000000E+00  0.18723289438E+04  0.18723289438E+04  0.00000000000E+00 0.  1.
         21   -1    0    0  501  502 -0.00000000000E+00 -0.00000000000E+00 -0.41422535051E+02  0.41422535051E+02  0.00000000000E+00 0.  1.
         25    1    1    2    0    0  0.15442169061E+03  0.35850717232E+02  0.43546914024E+03  0.47998927546E+03  0.12500000000E+03 0.  0.
         25    1    1    2    0    0 -0.26471983545E+02 -0.11360294154E+02  0.34821738630E+03  0.37109320974E+03  0.12500000000E+03 0.  0.
         25    1    1    2    0    0 -0.12794970706E+03 -0.24490423078E+02  0.10472198822E+04  0.10626689937E+04  0.12500000000E+03 0.  0.
</event>
<event>
 5    0  0.5822326E-005  0.2197224E+03  0.7546771E-02  0.1134090E+00
         21   -1    0    0  502  501  0.00000000000E+00  0.00000000000E+00  0.77654941344E+03  0.77654941344E+03  0.00000000000E+00 0. -1.
         21   -1    0    0  501  502 -0.00000000000E+00 -0.00000000000E+00 -0.62169789461E+02  0.62169789461E+02  0.00000000000E+00 0. -1.
         25    1    1    2    0    0 -0.47482580378E+02 -0.54385925785E+02  0.15987154493E+03  0.21539808551E+03  0.12500000000E+03 0.  0.
         25    1    1    2    0    0  0.45180497238E+02  0.81993115069E+02  0.28642926939E+03  0.32623745127E+03  0.12500000000E+03 0.  0.
         25    1    1    2    0    0  0.23020831402E+01 -0.27607189284E+02  0.26807880966E+03  0.29708366612E+03  0.12500000000E+03 0.  0.
</event>
<event>
 5    0  0.5822326E-005  0.3243166E+03  0.7546771E-02  0.1073680E+00
         21   -1    0    0  502  501  0.00000000000E+00  0.00000000000E+00  0.24262222086E+03  0.24262222086E+03  0.00000000000E+00 0. -1.
         21   -1    0    0  501  502 -0.00000000000E+00 -0.00000000000E+00 -0.43351854935E+03  0.43351854935E+03  0.00000000000E+00 0. -1.
         25    1    1    2    0    0  0.82886455012E+02 -0.37348559165E+02 -0.94030905222E+02  0.18091956896E+03  0.12500000000E+03 0.  0.
         25    1    1    2    0    0  0.99487396011E+02 -0.10478663505E+03  0.45353724911E+02  0.19636685365E+03  0.12500000000E+03 0.  0.
         25    1    1    2    0    0 -0.18237385102E+03  0.14213519421E+03 -0.14221914817E+03  0.29885434760E+03  0.12500000000E+03 0.  0.
</event>
<event>
 5    0  0.5822326E-005  0.2798216E+03  0.7546771E-02  0.1095786E+00
         21   -1    0    0  502  501  0.00000000000E+00  0.00000000000E+00  0.27215991894E+03  0.27215991894E+03  0.00000000000E+00 0. -1.
         21   -1    0    0  501  502 -0.00000000000E+00 -0.00000000000E+00 -0.28769895571E+03  0.28769895571E+03  0.00000000000E+00 0. -1.
         25    1    1    2    0    0  0.30896807362E+02  0.20191301290E+02 -0.17240771394E+03  0.21612894572E+03  0.12500000000E+03 0.  0.
         25    1    1    2    0    0 -0.43789465880E+02 -0.50032076738E+02  0.16113747683E+03  0.21450177730E+03  0.12500000000E+03 0.  0.
         25    1    1    2    0    0  0.12892658517E+02  0.29840775448E+02 -0.42687996701E+01  0.12922815163E+03  0.12500000000E+03 0.  0.
</event>
<event>
 5    0  0.5822326E-005  0.3377849E+03  0.7546771E-02  0.1067743E+00
         21   -1    0    0  502  501  0.00000000000E+00  0.00000000000E+00  0.98510949652E+02  0.98510949652E+02  0.00000000000E+00 0.  1.
         21   -1    0    0  501  502 -0.00000000000E+00 -0.00000000000E+00 -0.11582330970E+04  0.11582330970E+04  0.00000000000E+00 0.  1.
         25    1    1    2    0    0 -0.17297462262E+02  0.11606304348E+03 -0.22794943083E+03  0.28522933804E+03  0.12500000000E+03 0.  0.
         25    1    1    2    0    0 -0.21471844724E+02  0.15396512347E+03 -0.28607342196E+03  0.34875392774E+03  0.12500000000E+03 0.  0.
         25    1    1    2    0    0  0.38769306986E+02 -0.27002816695E+03 -0.54569929453E+03  0.62276078085E+03  0.12500000000E+03 0.  0.
</event>
<event>
 5    0  0.5822326E-005  0.4227357E+03  0.7546771E-02  0.1036180E+00
         21   -1    0    0  502  501  0.00000000000E+00  0.00000000000E+00  0.10013280772E+04  0.10013280772E+04  0.00000000000E+00 0.  1.
         21   -1    0    0  501  502 -0.00000000000E+00 -0.00000000000E+00 -0.17846844867E+03  0.17846844867E+03  0.00000000000E+00 0.  1.
         25    1    1    2    0    0 -0.10585418411E+03  0.25287578926E+02 -0.76252143063E+02  0.18243891927E+03  0.12500000000E+03 0.  0.
         25    1    1    2    0    0  0.15749182527E+03 -0.56170780645E+02  0.21637497731E+03  0.30066919102E+03  0.12500000000E+03 0.  0.
         25    1    1    2    0    0 -0.51637641157E+02  0.30883201719E+02  0.68273679425E+03  0.69668841554E+03  0.12500000000E+03 0.  0.
</event>
<event>
 5    0  0.5822326E-005  0.3026926E+03  0.7546771E-02  0.1083902E+00
         21   -1    0    0  502  501  0.00000000000E+00  0.00000000000E+00  0.28697241662E+03  0.28697241662E+03  0.00000000000E+00 0.  1.
         21   -1    0    0  501  502 -0.00000000000E+00 -0.00000000000E+00 -0.31927400249E+03  0.31927400249E+03  0.00000000000E+00 0.  1.
         25    1    1    2    0    0 -0.98741768694E+01 -0.96429360615E+02 -0.11180251351E+03  0.19370318269E+03  0.12500000000E+03 0.  0.
         25    1    1    2    0    0  0.12598323064E+03 -0.16710511018E+02  0.10398761778E+03  0.20637209170E+03  0.12500000000E+03 0.  0.
         25    1    1    2    0    0 -0.11610905377E+03  0.11313987163E+03 -0.24486690148E+02  0.20617114472E+03  0.12500000000E+03 0.  0.
</event>
<event>
 5    0  0.5822326E-005  0.4039536E+03  0.7546771E-02  0.1042419E+00
         21   -1    0    0  502  501  0.00000000000E+00  0.00000000000E+00  0.27071755099E+03  0.27071755099E+03  0.00000000000E+00 0. -1.
         21   -1    0    0  501  502 -0.00000000000E+00 -0.00000000000E+00 -0.60276301218E+03  0.60276301218E+03  0.00000000000E+00 0. -1.
         25    1    1    2    0    0 -0.22488191527E+03  0.94349896696E+02  0.83225169336E+02  0.28640043232E+03  0.12500000000E+03 0.  0.
         25    1    1    2    0    0  0.55698679298E+02 -0.11386050729E+03 -0.90649482622E+02  0.19977208688E+03  0.12500000000E+03 0.  0.
         25    1    1    2    0    0  0.16918323597E+03  0.19510610596E+02 -0.32462114791E+03  0.38730804397E+03  0.12500000000E+03 0.  0.
</event>
<event>
 5    0  0.5822326E-005  0.4936919E+03  0.7546771E-02  0.1015439E+00
         21   -1    0    0  502  501  0.00000000000E+00  0.00000000000E+00  0.19568539745E+04  0.19568539745E+04  0.00000000000E+00 0. -1.
         21   -1    0    0  501  502 -0.00000000000E+00 -0.00000000000E+00 -0.12455284850E+03  0.12455284850E+03  0.00000000000E+00 0. -1.
         25    1    1    2    0    0 -0.32432900755E+03  0.80197264912E+02  0.35601769710E+03  0.50397867721E+03  0.12500000000E+03 0.  0.
         25    1    1    2    0    0  0.43405080087E+01 -0.12188184536E+03  0.78709784393E+03  0.80623944344E+03  0.12500000000E+03 0.  0.
         25    1    1    2    0    0  0.31998849954E+03  0.41684580447E+02  0.68918558492E+03  0.77118870229E+03  0.12500000000E+03 0.  0.
</event>
<event>
 5    0  0.5822326E-005  0.3425055E+03  0.7546771E-02  0.1065734E+00
         21   -1    0    0  502  501  0.00000000000E+00  0.00000000000E+00  0.18939384882E+03  0.18939384882E+03  0.00000000000E+00 0.  1.
         21   -1    0    0  501  502 -0.00000000000E+00 -0.00000000000E+00 -0.61939730043E+03  0.61939730043E+03  0.00000000000E+00 0.  1.
         25    1    1    2    0    0  0.26530715226E+00 -0.31060066706E+02 -0.21078366685E+03  0.24702136009E+03  0.12500000000E+03 0.  0.
         25    1    1    2    0    0 -0.14360492207E+03 -0.15297244414E+03 -0.15558808977E+03  0.28957830718E+03  0.12500000000E+03 0.  0.
         25    1    1    2    0    0  0.14333961492E+03  0.18403251085E+03 -0.63631694986E+02  0.27219148198E+03  0.12500000000E+03 0.  0.
</event>
<event>
 5    0  0.5822326E-005  0.5240360E+03  0.7546771E-02  0.1007689E+00
         21   -1    0    0  502  501  0.00000000000E+00  0.00000000000E+00  0.52614401134E+03  0.52614401134E+03  0.00000000000E+00 0.  1.
         21   -1    0    0  501  502 -0.00000000000E+00 -0.00000000000E+00 -0.52193641957E+03  0.52193641957E+03  0.00000000000E+00 0.  1.
         25    1    1    2    0    0  0.12961904498E+03 -0.20346780657E+03 -0.20140275514E+03  0.33821341622E+03  0.12500000000E+03 0.  0.
         25    1    1    2    0    0  0.52680534103E+02  0.18532982368E+03 -0.16163876720E+03  0.28084599567E+03  0.12500000000E+03 0.  0.
         25    1    1    2    0    0 -0.18229957908E+03  0.18137982892E+02  0.36724911411E+03  0.42902101903E+03  0.12500000000E+03 0.  0.
</event>
<event>
 5    0  0.5822326E-005  0.2505208E+03  0.7546771E-02  0.1112976E+00
         21   -1    0    0  502  501  0.00000000000E+00  0.00000000000E+00  0.22003291784E+03  0.22003291784E+03  0.00000000000E+00 0.  1.
         21   -1    0    0  501  502 -0.00000000000E+00 -0.00000000000E+00 -0.28523314856E+03  0.28523314856E+03  0.00000000000E+00 0.  1.
         25    1    1    2    0    0 -0.91294052457E+02  0.38041584113E+01 -0.14408649612E+03  0.21150648690E+03  0.12500000000E+03 0.  0.
         25    1    1    2    0    0  0.94730004874E+02 -0.10774530889E+02  0.35061330633E+02  0.16107191327E+03  0.12500000000E+03 0.  0.
         25    1    1    2    0    0 -0.34359524169E+01  0.69703724779E+01  0.43824934772E+02  0.13268766623E+03  0.12500000000E+03 0.  0.
</event>
<event>
 5    0  0.5822326E-005  0.4764770E+03  0.7546771E-02  0.1020108E+00
         21   -1    0    0  502  501  0.00000000000E+00  0.00000000000E+00  0.86084828798E+03  0.86084828798E+03  0.00000000000E+00 0.  1.
         21   -1    0    0  501  502 -0.00000000000E+00 -0.00000000000E+00 -0.26372863589E+03  0.26372863589E+03  0.00000000000E+00 0.  1.
         25    1    1    2    0    0  0.55025516427E+00  0.51869979990E+02  0.70718761272E+02  0.15269885658E+03  0.12500000000E+03 0.  0.
         25    1    1    2    0    0 -0.37576801562E+03 -0.22902711693E+02  0.14692257975E+03  0.42300990556E+03  0.12500000000E+03 0.  0.
         25    1    1    2    0    0  0.37521776045E+03 -0.28967268297E+02  0.37947831107E+03  0.54886816173E+03  0.12500000000E+03 0.  0.
</event>
<event>
 5    0  0.5822326E-005  0.2973270E+03  0.7546771E-02  0.1086584E+00
         21   -1    0    0  502  501  0.00000000000E+00  0.00000000000E+00  0.49134248213E+03  0.49134248213E+03  0.00000000000E+00 0. -1.
         21   -1    0    0  501  502 -0.00000000000E+00 -0.00000000000E+00 -0.17992204710E+03  0.17992204710E+03  0.00000000000E+00 0. -1.
         25    1    1    2    0    0  0.11545746968E+03  0.14366894126E+03  0.92543523508E+02  0.24116487251E+03  0.12500000000E+03 0.  0.
         25    1    1    2    0    0 -0.12590245114E+03 -0.38943230965E+02  0.19234159163E+03  0.26455300095E+03  0.12500000000E+03 0.  0.
         25    1    1    2    0    0  0.10444981456E+02 -0.10472571030E+03  0.26535319890E+02  0.16554665577E+03  0.12500000000E+03 0.  0.
</event>
<event>
 5    0  0.5822326E-005  0.3228504E+03  0.7546771E-02  0.1074345E+00
         21   -1    0    0  502  501  0.00000000000E+00  0.00000000000E+00  0.78798674571E+02  0.78798674571E+02  0.00000000000E+00 0.  1.
         21   -1    0    0  501  502 -0.00000000000E+00 -0.00000000000E+00 -0.13227679076E+04  0.13227679076E+04  0.00000000000E+00 0.  1.
         25    1    1    2    0    0  0.93686302311E+02  0.50532535306E+02 -0.11604276870E+03  0.20105119879E+03  0.12500000000E+03 0.  0.
         25    1    1    2    0    0  0.48895387353E+02 -0.14612746204E+03 -0.56968854012E+03  0.60325287137E+03  0.12500000000E+03 0.  0.
         25    1    1    2    0    0 -0.14258168966E+03  0.95594926732E+02 -0.55823792422E+03  0.59726251204E+03  0.12500000000E+03 0.  0.
</event>
<event>
 5    0  0.5912257E-005  0.2763578E+03  0.7546771E-02  0.1097695E+00
         21   -1    0    0  502  501  0.00000000000E+00  0.00000000000E+00  0.85971282735E+03  0.85971282735E+03  0.00000000000E+00 0. -1.
         21   -1    0    0  501  502 -0.00000000000E+00 -0.00000000000E+00 -0.88836218230E+02  0.88836218230E+02  0.00000000000E+00 0. -1.
         25    1    1    2    0    0 -0.88116708319E+02 -0.30604305112E+02  0.24520349845E+03  0.29060442775E+03  0.12500000000E+03 0.  0.
         25    1    1    2    0    0 -0.10190100224E+03  0.30536404544E+02  0.17464072609E+03  0.23966783153E+03  0.12500000000E+03 0.  0.
         25    1    1    2    0    0  0.19001771056E+03  0.67900568104E-01  0.35103238458E+03  0.41827678630E+03  0.12500000000E+03 0.  0.
</event>
<event>
 5    0  0.5822326E-005  0.3280964E+03  0.7546771E-02  0.1071982E+00
         21   -1    0    0  502  501  0.00000000000E+00  0.00000000000E+00  0.15784916750E+03  0.15784916750E+03  0.00000000000E+00 0. -1.
         21   -1    0    0  501  502 -0.00000000000E+00 -0.00000000000E+00 -0.68196276400E+03  0.68196276400E+03  0.00000000000E+00 0. -1.
         25    1    1    2    0    0  0.13547606203E+03  0.18416974429E+02 -0.28640162248E+03  0.34109212493E+03  0.12500000000E+03 0.  0.
         25    1    1    2    0    0 -0.84154042530E+02 -0.16763499184E+03 -0.68060413633E+02  0.23545830473E+03  0.12500000000E+03 0.  0.
         25    1    1    2    0    0 -0.51322019502E+02  0.14921801741E+03 -0.16965156038E+03  0.26326150183E+03  0.12500000000E+03 0.  0.
</event>
<event>
 5    0  0.5822326E-005  0.2340749E+03  0.7546771E-02  0.1123804E+00
         21   -1    0    0  502  501  0.00000000000E+00  0.00000000000E+00  0.40982820852E+03  0.40982820852E+03  0.00000000000E+00 0. -1.
         21   -1    0    0  501  502 -0.00000000000E+00 -0.00000000000E+00 -0.13369272082E+03  0.13369272082E+03  0.00000000000E+00 0. -1.
         25    1    1    2    0    0  0.88022347791E+02 -0.87344313999E+01  0.10888985394E+03  0.18789950583E+03  0.12500000000E+03 0.  0.
         25    1    1    2    0    0 -0.55991907484E+02  0.65749370823E+02  0.14999326006E+03  0.21349719326E+03  0.12500000000E+03 0.  0.
         25    1    1    2    0    0 -0.32030440307E+02 -0.57014939423E+02  0.17252373694E+02  0.14212423024E+03  0.12500000000E+03 0.  0.
</event>
<event>
 5    0  0.5822326E-005  0.2789809E+03  0.7546771E-02  0.1096247E+00
         21   -1    0    0  502  501  0.00000000000E+00  0.00000000000E+00  0.36022134486E+03  0.36022134486E+03  0.00000000000E+00 0. -1.
         21   -1    0    0  501  502 -0.00000000000E+00 -0.00000000000E+00 -0.21606253314E+03  0.21606253314E+03  0.00000000000E+00 0. -1.
         25    1    1    2    0    0 -0.12759857304E+03  0.27038483220E+02 -0.56398726390E+01  0.18074646215E+03  0.12500000000E+03 0.  0.
         25    1    1    2    0    0  0.25980379407E+02 -0.43378846960E+02  0.18588843604E+03  0.22964366992E+03  0.12500000000E+03 0.  0.
         25    1    1    2    0    0  0.10161819363E+03  0.16340363740E+02 -0.36089751679E+02  0.16589374594E+03  0.12500000000E+03 0.  0.
</event>
<event>
 5    0  0.5822326E-005  0.2507955E+03  0.7546771E-02  0.1112803E+00
         21   -1    0    0  502  501  0.00000000000E+00  0.00000000000E+00  0.72577585380E+03  0.72577585380E+03  0.00000000000E+00 0. -1.
         21   -1    0    0  501  502 -0.00000000000E+00 -0.00000000000E+00 -0.86663662570E+02  0.86663662570E+02  0.00000000000E+00 0. -1.
         25    1    1    2    0    0  0.87666816520E+02  0.19077406017E+01  0.27260454049E+03  0.31245374968E+03  0.12500000000E+03 0.  0.
         25    1    1    2    0    0  0.51445148887E+02 -0.52528888485E+02  0.13537376985E+03  0.19838584887E+03  0.12500000000E+03 0.  0.
         25    1    1    2    0    0 -0.13911196541E+03  0.50621147883E+02  0.23113388089E+03  0.30159991782E+03  0.12500000000E+03 0.  0.
</event>
<event>
 5    0  0.5822326E-005  0.2498372E+03  0.7546771E-02  0.1113408E+00
         21   -1    0    0  502  501  0.00000000000E+00  0.00000000000E+00  0.12354376212E+03  0.12354376212E+03  0.00000000000E+00 0. -1.
         21   -1    0    0  501  502 -0.00000000000E+00 -0.00000000000E+00 -0.50523505976E+03  0.50523505976E+03  0.00000000000E+00 0. -1.
         25    1    1    2    0    0 -0.11708474880E+03 -0.48060430024E+02 -0.22443187121E+03  0.28637965736E+03  0.12500000000E+03 0.  0.
         25    1    1    2    0    0  0.45972067827E+02 -0.15151181401E+02 -0.12232520694E+03  0.18147023329E+03  0.12500000000E+03 0.  0.
         25    1    1    2    0    0  0.71112680973E+02  0.63211611425E+02 -0.34934219484E+02  0.16092893122E+03  0.12500000000E+03 0.  0.
</event>
<event>
 5    0  0.5822326E-005  0.3252286E+03  0.7546771E-02  0.1073268E+00
         21   -1    0    0  502  501  0.00000000000E+00  0.00000000000E+00  0.71815455438E+03  0.71815455438E+03  0.00000000000E+00 0. -1.
         21   -1    0    0  501  502 -0.00000000000E+00 -0.00000000000E+00 -0.14728530592E+03  0.14728530592E+03  0.00000000000E+00 0. -1.
         25    1    1    2    0    0  0.49025964386E+02  0.92829428607E+02  0.39419524123E+03  0.42665646158E+03  0.12500000000E+03 0.  0.
         25    1    1    2    0    0 -0.16062547924E+03 -0.28412039949E+02  0.15612861655E+03  0.25808706574E+03  0.12500000000E+03 0.  0.
         25    1    1    2    0    0  0.11159951486E+03 -0.64417388657E+02  0.20545390680E+02  0.18069633299E+03  0.12500000000E+03 0.  0.
</event>
<event>
 5    0  0.5822326E-005  0.2602491E+03  0.7546771E-02  0.1106994E+00
         21   -1    0    0  502  501  0.00000000000E+00  0.00000000000E+00  0.22139867417E+04  0.22139867417E+04  0.00000000000E+00 0.  1.
         21   -1    0    0  501  502 -0.00000000000E+00 -0.00000000000E+00 -0.30591683631E+02  0.30591683631E+02  0.00000000000E+00 0.  1.
         25    1    1    2    0    0 -0.56753001744E+01 -0.21048230105E+02  0.20322794658E+03  0.23958680117E+03  0.12500000000E+03 0.  0.
         25    1    1    2    0    0  0.13332485743E+02  0.49781414341E+02  0.46148773291E+03  0.48088654796E+03  0.12500000000E+03 0.  0.
         25    1    1    2    0    0 -0.76571855687E+01 -0.28733184236E+02  0.15186793786E+04  0.15241050762E+04  0.12500000000E+03 0.  0.
</event>
<event>
 5    0  0.5822326E-005  0.2625523E+03  0.7546771E-02  0.1105619E+00
         21   -1    0    0  502  501  0.00000000000E+00  0.00000000000E+00  0.93681760255E+03  0.93681760255E+03  0.00000000000E+00 0. -1.
         21   -1    0    0  501  502 -0.00000000000E+00 -0.00000000000E+00 -0.73582843607E+02  0.73582843607E+02  0.00000000000E+00 0. -1.
         25    1    1    2    0    0  0.16046366771E+02 -0.91758257951E+02  0.21069004167E+03  0.26209226896E+03  0.12500000000E+03 0.  0.
         25    1    1    2    0    0 -0.13210902401E+03  0.29883635204E+02  0.34844193775E+03  0.39418600921E+03  0.12500000000E+03 0.  0.
         25    1    1    2    0    0  0.11606265724E+03  0.61874622747E+02  0.30410277953E+03  0.35412216799E+03  0.12500000000E+03 0.  0.
</event>
<event>
 5    0  0.5822326E-005  0.3088291E+03  0.7546771E-02  0.1080908E+00
         21   -1    0    0  502  501  0.00000000000E+00  0.00000000000E+00  0.12550597350E+04  0.12550597350E+04  0.00000000000E+00 0.  1.
         21   -1    0    0  501  502 -0.00000000000E+00 -0.00000000000E+00 -0.75992740689E+02  0.75992740689E+02  0.00000000000E+00 0.  1.
         25    1    1    2    0    0  0.28044278250E+02  0.11268966282E+03  0.65270911455E+03  0.67464037077E+03  0.12500000000E+03 0.  0.
         25    1    1    2    0    0 -0.12532713508E+03 -0.59146672597E+02  0.13352110035E+03  0.22947353640E+03  0.12500000000E+03 0.  0.
         25    1    1    2    0    0  0.97282856833E+02 -0.53542990227E+02  0.39283677936E+03  0.42693856848E+03  0.12500000000E+03 0.  0.
</event>
<event>
 5    0  0.5822326E-005  0.2523239E+03  0.7546771E-02  0.1111845E+00
         21   -1    0    0  502  501  0.00000000000E+00  0.00000000000E+00  0.21488606814E+03  0.21488606814E+03  0.00000000000E+00 0. -1.
         21   -1    0    0  501  502 -0.00000000000E+00 -0.00000000000E+00 -0.29628426079E+03  0.29628426079E+03  0.00000000000E+00 0. -1.
         25    1    1    2    0    0 -0.65268276332E+02 -0.12168078062E+03  0.15771581656E+01  0.18626230884E+03  0.12500000000E+03 0.  0.
         25    1    1    2    0    0  0.93037952573E+02  0.38210220093E+02 -0.30598976384E+02  0.16333211226E+03  0.12500000000E+03 0.  0.
         25    1    1    2    0    0 -0.27769676241E+02  0.83470560525E+02 -0.52376374434E+02  0.16157590783E+03  0.12500000000E+03 0.  0.
</event>
<event>
 5    0  0.5822326E-005  0.2575078E+03  0.7546771E-02  0.1108650E+00
         21   -1    0    0  502  501  0.00000000000E+00  0.00000000000E+00  0.77815070610E+03  0.77815070610E+03  0.00000000000E+00 0. -1.
         21   -1    0    0  501  502 -0.00000000000E+00 -0.00000000000E+00 -0.85215219515E+02  0.85215219515E+02  0.00000000000E+00 0. -1.
         25    1    1    2    0    0 -0.86202535039E+02 -0.94444618133E+02  0.12721611079E+03  0.21945296031E+03  0.12500000000E+03 0.  0.
         25    1    1    2    0    0  0.49750160955E+02  0.13088646415E+02  0.37776842856E+03  0.40122359950E+03  0.12500000000E+03 0.  0.
         25    1    1    2    0    0  0.36452374084E+02  0.81355971718E+02  0.18795094723E+03  0.24268936580E+03  0.12500000000E+03 0.  0.
</event>
<event>
 5    0  0.5822326E-005  0.2947660E+03  0.7546771E-02  0.1087887E+00
         21   -1    0    0  502  501  0.00000000000E+00  0.00000000000E+00  0.33106079782E+03  0.33106079782E+03  0.00000000000E+00 0. -1.
         21   -1    0    0  501  502 -0.00000000000E+00 -0.00000000000E+00 -0.26245028430E+03  0.26245028430E+03  0.00000000000E+00 0. -1.
         25    1    1    2    0    0 -0.60670262510E+01  0.17603076389E+03 -0.36364339751E+02  0.21902283864E+03  0.12500000000E+03 0.  0.
         25    1    1    2    0    0 -0.32214978034E+02 -0.82210033098E+01  0.96893341197E+02  0.16161283759E+03  0.12500000000E+03 0.  0.
         25    1    1    2    0    0  0.38282004285E+02 -0.16780976058E+03  0.80815120777E+01  0.21287540589E+03  0.12500000000E+03 0.  0.
</event>
<event>
 5    0  0.5822326E-005  0.4551885E+03  0.7546771E-02  0.1026186E+00
         21   -1    0    0  502  501  0.00000000000E+00  0.00000000000E+00  0.58804951591E+03  0.58804951591E+03  0.00000000000E+00 0.  1.
         21   -1    0    0  501  502 -0.00000000000E+00 -0.00000000000E+00 -0.35234540468E+03  0.35234540468E+03  0.00000000000E+00 0.  1.
         25    1    1    2    0    0  0.17028785338E+03 -0.47739455658E+02  0.27659541283E+03  0.35129336891E+03  0.12500000000E+03 0.  0.
         25    1    1    2    0    0 -0.28492442263E+03 -0.10993542461E+03 -0.10932075356E+03  0.34762587843E+03  0.12500000000E+03 0.  0.
         25    1    1    2    0    0  0.11463656925E+03  0.15767488027E+03  0.68429451957E+02  0.24147567325E+03  0.12500000000E+03 0.  0.
</event>
<event>
 5    0  0.5822326E-005  0.3040556E+03  0.7546771E-02  0.1083231E+00
         21   -1    0    0  502  501  0.00000000000E+00  0.00000000000E+00  0.74192980188E+03  0.74192980188E+03  0.00000000000E+00 0. -1.
         21   -1    0    0  501  502 -0.00000000000E+00 -0.00000000000E+00 -0.12460718802E+03  0.12460718802E+03  0.00000000000E+00 0. -1.
         25    1    1    2    0    0 -0.12891438974E+03  0.11085324312E+03  0.21968080810E+03  0.30461782424E+03  0.12500000000E+03 0.  0.
         25    1    1    2    0    0  0.77985179101E+02 -0.19002818456E+03  0.23486848708E+03  0.33612587718E+03  0.12500000000E+03 0.  0.
         25    1    1    2    0    0  0.50929210642E+02  0.79174941442E+02  0.16277331867E+03  0.22579328848E+03  0.12500000000E+03 0.  0.
</event>
<event>
 5    0  0.5822326E-005  0.3345701E+03  0.7546771E-02  0.1069132E+00
         21   -1    0    0  502  501  0.00000000000E+00  0.00000000000E+00  0.42993314458E+03  0.42993314458E+03  0.00000000000E+00 0.  1.
         21   -1    0    0  501  502 -0.00000000000E+00 -0.00000000000E+00 -0.26035937155E+03  0.26035937155E+03  0.00000000000E+00 0.  1.
         25    1    1    2    0    0  0.14206675602E+03 -0.48038432723E+01  0.24178820605E+03  0.30707096356E+03  0.12500000000E+03 0.  0.
         25    1    1    2    0    0  0.23043491380E+02 -0.82060943968E+02 -0.19487929874E+02  0.15254435562E+03  0.12500000000E+03 0.  0.
         25    1    1    2    0    0 -0.16511024740E+03  0.86864787240E+02 -0.52726503144E+02  0.23067719695E+03  0.12500000000E+03 0.  0.
</event>
<event>
 5    0  0.5822326E-005  0.2708693E+03  0.7546771E-02  0.1100783E+00
         21   -1    0    0  502  501  0.00000000000E+00  0.00000000000E+00  0.24300648847E+03  0.24300648847E+03  0.00000000000E+00 0. -1.
         21   -1    0    0  501  502 -0.00000000000E+00 -0.00000000000E+00 -0.30192687084E+03  0.30192687084E+03  0.00000000000E+00 0. -1.
         25    1    1    2    0    0 -0.25127368937E+02  0.22570196895E+01 -0.19248643724E+02  0.12896506927E+03  0.12500000000E+03 0.  0.
         25    1    1    2    0    0  0.13879844125E+03  0.10406038146E+03 -0.31974654684E+02  0.21619655137E+03  0.12500000000E+03 0.  0.
         25    1    1    2    0    0 -0.11367107231E+03 -0.10631740115E+03 -0.76970839704E+01  0.19977173866E+03  0.12500000000E+03 0.  0.
</event>
<event>
 5    0  0.5822326E-005  0.3640511E+03  0.7546771E-02  0.1056991E+00
         21   -1    0    0  502  501  0.00000000000E+00  0.00000000000E+00  0.41593226779E+03  0.41593226779E+03  0.00000000000E+00 0. -1.
         21   -1    0    0  501  502 -0.00000000000E+00 -0.00000000000E+00 -0.31864138682E+03  0.31864138682E+03  0.00000000000E+00 0. -1.
         25    1    1    2    0    0 -0.64227909265E+01  0.32873334099E+02  0.10538332877E+03  0.16689084553E+03  0.12500000000E+03 0.  0.
         25    1    1    2    0    0 -0.12033747854E+03 -0.19197489429E+03  0.13238194620E+03  0.29066380659E+03  0.12500000000E+03 0.  0.
         25    1    1    2    0    0  0.12676026947E+03  0.15910156019E+03 -0.14047439400E+03  0.27701900249E+03  0.12500000000E+03 0.  0.
</event>
<event>
 5    0  0.5822326E-005  0.2808997E+03  0.7546771E-02  0.1095199E+00
         21   -1    0    0  502  501  0.00000000000E+00  0.00000000000E+00  0.80618589020E+02  0.80618589020E+02  0.00000000000E+00 0.  1.
         21   -1    0    0  501  502 -0.00000000000E+00 -0.00000000000E+00 -0.97874031741E+03  0.97874031741E+03  0.00000000000E+00 0.  1.
         25    1    1    2    0    0  0.77809776978E+02 -0.51765038971E+02 -0.52943506545E+03  0.55196056850E+03  0.12500000000E+03 0.  0.
         25    1    1    2    0    0 -0.81380773489E+02  0.69959433765E+02 -0.34000467519E+03  0.37781653195E+03  0.12500000000E+03 0.  0.
         25    1    1    2    0    0  0.35709965104E+01 -0.18194394794E+02 -0.28681987749E+02  0.12958180597E+03  0.12500000000E+03 0.  0.
</event>
<event>
 5    0  0.5822326E-005  0.2768457E+03  0.7546771E-02  0.1097424E+00
         21   -1    0    0  502  501  0.00000000000E+00  0.00000000000E+00  0.31129997845E+02  0.31129997845E+02  0.00000000000E+00 0. -1.
         21   -1    0    0  501  502 -0.00000000000E+00 -0.00000000000E+00 -0.24620472633E+04  0.24620472633E+04  0.00000000000E+00 0. -1.
         25    1    1    2    0    0  0.85016266714E+00  0.27898159889E+02 -0.68522069870E+03  0.69708782519E+03  0.12500000000E+03 0.  0.
         25    1    1    2    0    0  0.34246044358E+02  0.62031713970E+02 -0.22337924216E+03  0.26560122537E+03  0.12500000000E+03 0.  0.
         25    1    1    2    0    0 -0.35096207025E+02 -0.89929873859E+02 -0.15223173246E+04  0.15304882106E+04  0.12500000000E+03 0.  0.
</event>
<event>
 5    0  0.5822326E-005  0.5038160E+03  0.7546771E-02  0.1012788E+00
         21   -1    0    0  502  501  0.00000000000E+00  0.00000000000E+00  0.17146257887E+04  0.17146257887E+04  0.00000000000E+00 0.  1.
         21   -1    0    0  501  502 -0.00000000000E+00 -0.00000000000E+00 -0.14803848898E+03  0.14803848898E+03  0.00000000000E+00 0.  1.
         25    1    1    2    0    0 -0.25301606006E+03 -0.25859044714E+03  0.39936452774E+03  0.55317553454E+03  0.12500000000E+03 0.  0.
         25    1    1    2    0    0  0.26683092521E+03 -0.11710929960E+02  0.60926278187E+03  0.67687666964E+03  0.12500000000E+03 0.  0.
         25    1    1    2    0    0 -0.13814865151E+02  0.27030137710E+03  0.55795999007E+03  0.63261207345E+03  0.12500000000E+03 0.  0.
</event>
<event>
 5    0  0.5822326E-005  0.2248823E+03  0.7546771E-02  0.1130295E+00
         21   -1    0    0  502  501  0.00000000000E+00  0.00000000000E+00  0.42609429879E+02  0.42609429879E+02  0.00000000000E+00 0. -1.
         21   -1    0    0  501  502 -0.00000000000E+00 -0.00000000000E+00 -0.11868740854E+04  0.11868740854E+04  0.00000000000E+00 0. -1.
         25    1    1    2    0    0  0.37299325161E+02  0.80675381823E+02 -0.31788381297E+03  0.35295166161E+03  0.12500000000E+03 0.  0.
         25    1    1    2    0    0  0.28999039424E+02 -0.77505422510E+02 -0.39264988376E+03  0.42029390434E+03  0.12500000000E+03 0.  0.
         25    1    1    2    0    0 -0.66298364585E+02 -0.31699593129E+01 -0.43373095876E+03  0.45623794930E+03  0.12500000000E+03 0.  0.
</event>
<event>
 5    0  0.5822326E-005  0.2497826E+03  0.7546771E-02  0.1113442E+00
         21   -1    0    0  502  501  0.00000000000E+00  0.00000000000E+00  0.91349528383E+02  0.91349528383E+02  0.00000000000E+00 0. -1.
         21   -1    0    0  501  502 -0.00000000000E+00 -0.00000000000E+00 -0.68299604217E+03  0.68299604217E+03  0.00000000000E+00 0. -1.
         25    1    1    2    0    0  0.71885615010E+02  0.17796376848E+02 -0.55094333755E+02  0.15538545069E+03  0.12500000000E+03 0.  0.
         25    1    1    2    0    0 -0.29382993103E+02 -0.23584147621E+02 -0.10473785985E+03  0.16737560034E+03  0.12500000000E+03 0.  0.
         25    1    1    2    0    0 -0.42502621907E+02  0.57877707725E+01 -0.43181432018E+03  0.45158451952E+03  0.12500000000E+03 0.  0.
</event>
<event>
 5    0  0.5822326E-005  0.2970428E+03  0.7546771E-02  0.1086728E+00
         21   -1    0    0  502  501  0.00000000000E+00  0.00000000000E+00  0.26433668443E+04  0.26433668443E+04  0.00000000000E+00 0. -1.
         21   -1    0    0  501  502 -0.00000000000E+00 -0.00000000000E+00 -0.33379568164E+02  0.33379568164E+02  0.00000000000E+00 0.  1.
         25    1    1    2    0    0 -0.39358772447E+01  0.47559904183E+02  0.35348097861E+03  0.37795666134E+03  0.12500000000E+03 0.  0.
         25    1    1    2    0    0 -0.15907666755E+03  0.83962289211E+01  0.14737439105E+04  0.14875893239E+04  0.12500000000E+03 0.  0.
         25    1    1    2    0    0  0.16301254479E+03 -0.55956133104E+02  0.78276238701E+03  0.81120042721E+03  0.12500000000E+03 0.  0.
</event>
<event>
 5    0  0.5822326E-005  0.3525079E+03  0.7546771E-02  0.1061590E+00
         21   -1    0    0  502  501  0.00000000000E+00  0.00000000000E+00  0.55983038522E+02  0.55983038522E+02  0.00000000000E+00 0. -1.
         21   -1    0    0  501  502 -0.00000000000E+00 -0.00000000000E+00 -0.22196332211E+04  0.22196332211E+04  0.00000000000E+00 0. -1.
         25    1    1    2    0    0 -0.14205471449E+03  0.37116624053E+02 -0.10654205698E+04  0.10827295028E+04  0.12500000000E+03 0.  0.
         25    1    1    2    0    0  0.21096015778E+03 -0.11020419670E+02 -0.96558065046E+03  0.99629143847E+03  0.12500000000E+03 0.  0.
         25    1    1    2    0    0 -0.68905443286E+02 -0.26096204383E+02 -0.13264896235E+03  0.19659531838E+03  0.12500000000E+03 0.  0.
</event>
<event>
 5    0  0.5822326E-005  0.3093430E+03  0.7546771E-02  0.1080661E+00
         21   -1    0    0  502  501  0.00000000000E+00  0.00000000000E+00  0.99310968536E+02  0.99310968536E+02  0.00000000000E+00 0.  1.
         21   -1    0    0  501  502 -0.00000000000E+00 -0.00000000000E+00 -0.96357046701E+03  0.96357046701E+03  0.00000000000E+00 0.  1.
         25    1    1    2    0    0 -0.93269751126E+02 -0.93979729617E+02 -0.38960464264E+03  0.43005605869E+03  0.12500000000E+03 0.  0.
         25    1    1    2    0    0  0.12510090699E+02 -0.14173684044E+02 -0.28844881436E+01  0.12645440269E+03  0.12500000000E+03 0.  0.
         25    1    1    2    0    0  0.80759660427E+02  0.10815341366E+03 -0.47177036769E+03  0.50637097416E+03  0.12500000000E+03 0.  0.
</event>
<event>
 5    0  0.5822326E-005  0.3781261E+03  0.7546771E-02  0.1051629E+00
         21   -1    0    0  502  501  0.00000000000E+00  0.00000000000E+00  0.29865229681E+03  0.29865229681E+03  0.00000000000E+00 0. -1.
         21   -1    0    0  501  502 -0.00000000000E+00 -0.00000000000E+00 -0.47874846863E+03  0.47874846863E+03  0.00000000000E+00 0. -1.
         25    1    1    2    0    0  0.42453278185E+02 -0.62760324021E+02 -0.14869099151E+02  0.14692593103E+03  0.12500000000E+03 0.  0.
         25    1    1    2    0    0 -0.18856183264E+03 -0.18514303629E+03 -0.51922360766E+02  0.29690813422E+03  0.12500000000E+03 0.  0.
         25    1    1    2    0    0  0.14610855446E+03  0.24790336031E+03 -0.11330471190E+03  0.33356670019E+03  0.12500000000E+03 0.  0.
</event>
<event>
 5    0  0.5822326E-005  0.3640428E+03  0.7546771E-02  0.1056994E+00
         21   -1    0    0  502  501  0.00000000000E+00  0.00000000000E+00  0.13795371122E+04  0.13795371122E+04  0.00000000000E+00 0. -1.
         21   -1    0    0  501  502 -0.00000000000E+00 -0.00000000000E+00 -0.96066408197E+02  0.96066408197E+02  0.00000000000E+00 0. -1.
         25    1    1    2    0    0 -0.10353406042E+03 -0.84230677516E+02  0.56907466275E+03  0.59773328541E+03  0.12500000000E+03 0.  0.
         25    1    1    2    0    0 -0.14576425199E+03  0.12317404725E+03  0.30103611460E+03  0.37771259625E+03  0.12500000000E+03 0.  0.
         25    1    1    2    0    0  0.24929831241E+03 -0.38943369738E+02  0.41335992665E+03  0.50015763873E+03  0.12500000000E+03 0.  0.
</event>
<event>
 5    0  0.5822326E-005  0.2760352E+03  0.7546771E-02  0.1097874E+00
         21   -1    0    0  502  501  0.00000000000E+00  0.00000000000E+00  0.65431594001E+02  0.65431594001E+02  0.00000000000E+00 0.  1.
         21   -1    0    0  501  502 -0.00000000000E+00 -0.00000000000E+00 -0.11645055733E+04  0.11645055733E+04  0.00000000000E+00 0.  1.
         25    1    1    2    0    0 -0.36880336694E+02 -0.31536332863E+02 -0.65055964348E+03  0.66423455891E+03  0.12500000000E+03 0.  0.
         25    1    1    2    0    0  0.24130164065E+02  0.10502367476E+03 -0.35822250079E+03  0.39441171021E+03  0.12500000000E+03 0.  0.
         25    1    1    2    0    0  0.12750172629E+02 -0.73487341898E+02 -0.90291834994E+02  0.17129089815E+03  0.12500000000E+03 0.  0.
</event>
<event>
 5    0  0.5822326E-005  0.2452804E+03  0.7546771E-02  0.1116324E+00
         21   -1    0    0  502  501  0.00000000000E+00  0.00000000000E+00  0.13560455428E+03  0.13560455428E+03  0.00000000000E+00 0.  1.
         21   -1    0    0  501  502 -0.00000000000E+00 -0.00000000000E+00 -0.44366117282E+03  0.44366117282E+03  0.00000000000E+00 0.  1.
         25    1    1    2    0    0  0.17859714744E+02 -0.87159791630E+02 -0.15930891858E+03  0.22117895521E+03  0.12500000000E+03 0.  0.
         25    1    1    2    0    0 -0.34470710982E+02  0.82577434675E+02 -0.17101713389E+03  0.22995461012E+03  0.12500000000E+03 0.  0.
         25    1    1    2    0    0  0.16610996237E+02  0.45823569554E+01  0.22269433928E+02  0.12813216177E+03  0.12500000000E+03 0.  0.
</event>
<event>
 5    0  0.5822326E-005  0.3670662E+03  0.7546771E-02  0.1055820E+00
         21   -1    0    0  502  501  0.00000000000E+00  0.00000000000E+00  0.17333299301E+04  0.17333299301E+04  0.00000000000E+00 0.  1.
         21   -1    0    0  501  502 -0.00000000000E+00 -0.00000000000E+00 -0.77733395347E+02  0.77733395347E+02  0.00000000000E+00 0.  1.
         25    1    1    2    0    0 -0.24061988982E+03  0.33239366244E+02  0.55023773941E+03  0.61432023955E+03  0.12500000000E+03 0.  0.
         25    1    1    2    0    0 -0.15906687921E+02  0.70742790087E+02  0.24613704912E+03  0.28542251491E+03  0.12500000000E+03 0.  0.
         25    1    1    2    0    0  0.25652657774E+03 -0.10398215633E+03  0.85922174624E+03  0.91132057101E+03  0.12500000000E+03 0.  0.
</event>
<event>
 5    0  0.5822326E-005  0.4851085E+03  0.7546771E-02  0.1017741E+00
         21   -1    0    0  502  501  0.00000000000E+00  0.00000000000E+00  0.20125978859E+04  0.20125978859E+04  0.00000000000E+00 0. -1.
         21   -1    0    0  501  502 -0.00000000000E+00 -0.00000000000E+00 -0.11692858597E+03  0.11692858597E+03  0.00000000000E+00 0. -1.
         25    1    1    2    0    0  0.14152584510E+03 -0.22622617531E+03  0.58966968317E+03  0.65919889447E+03  0.12500000000E+03 0.  0.
         25    1    1    2    0    0 -0.11964911085E+03  0.12958218375E+03  0.12922703869E+04  0.13102271578E+04  0.12500000000E+03 0.  0.
         25    1    1    2    0    0 -0.21876734255E+02  0.96643991553E+02  0.13729229823E+02  0.16010041960E+03  0.12500000000E+03 0.  0.
</event>
<event>
 5    0  0.5822326E-005  0.3178551E+03  0.7546771E-02  0.1076641E+00
         21   -1    0    0  502  501  0.00000000000E+00  0.00000000000E+00  0.83956529836E+03  0.83956529836E+03  0.00000000000E+00 0.  1.
         21   -1    0    0  501  502 -0.00000000000E+00 -0.00000000000E+00 -0.12033828078E+03  0.12033828078E+03  0.00000000000E+00 0.  1.
         25    1    1    2    0    0 -0.15729881271E+03  0.22163720469E+02  0.21041602477E+03  0.29177739882E+03  0.12500000000E+03 0.  0.
         25    1    1    2    0    0 -0.10681554107E+02  0.88038599127E+02  0.35294809579E+03  0.38478857683E+03  0.12500000000E+03 0.  0.
         25    1    1    2    0    0  0.16798036682E+03 -0.11020231960E+03  0.15586289701E+03  0.28333760348E+03  0.12500000000E+03 0.  0.
</event>
<event>
 5    0  0.5822326E-005  0.3213491E+03  0.7546771E-02  0.1075030E+00
         21   -1    0    0  502  501  0.00000000000E+00  0.00000000000E+00  0.35644628602E+03  0.35644628602E+03  0.00000000000E+00 0. -1.
         21   -1    0    0  501  502 -0.00000000000E+00 -0.00000000000E+00 -0.28970766576E+03  0.28970766576E+03  0.00000000000E+00 0. -1.
         25    1    1    2    0    0 -0.29913243494E+02  0.57465548611E+02  0.10474181200E+03  0.17547916855E+03  0.12500000000E+03 0.  0.
         25    1    1    2    0    0  0.47192790561E+01  0.16122990252E+03 -0.69484118237E+02  0.21556993239E+03  0.12500000000E+03 0.  0.
         25    1    1    2    0    0  0.25193964438E+02 -0.21869545114E+03  0.31480926494E+02  0.25510485084E+03  0.12500000000E+03 0.  0.
</event>
<event>
 5    0  0.5822326E-005  0.2455459E+03  0.7546771E-02  0.1116153E+00
         21   -1    0    0  502  501  0.00000000000E+00  0.00000000000E+00  0.13071705923E+03  0.13071705923E+03  0.00000000000E+00 0. -1.
         21   -1    0    0  501  502 -0.00000000000E+00 -0.00000000000E+00 -0.46124634158E+03  0.46124634158E+03  0.00000000000E+00 0. -1.
         25    1    1    2    0    0  0.11621046396E+02  0.13503295396E+02 -0.20797753969E+03  0.24330442807E+03  0.12500000000E+03 0.  0.
         25    1    1    2    0    0  0.68208428021E+02 -0.80363783871E+02 -0.67686235388E+02  0.17696653320E+03  0.12500000000E+03 0.  0.
         25    1    1    2    0    0 -0.79829474417E+02  0.66860488475E+02 -0.54865507270E+02  0.17169243953E+03  0.12500000000E+03 0.  0.
</event>
<event>
 5    0  0.5822326E-005  0.2664631E+03  0.7546771E-02  0.1103321E+00
         21   -1    0    0  502  501  0.00000000000E+00  0.00000000000E+00  0.24954656780E+03  0.24954656780E+03  0.00000000000E+00 0.  1.
         21   -1    0    0  501  502 -0.00000000000E+00 -0.00000000000E+00 -0.28452641888E+03  0.28452641888E+03  0.00000000000E+00 0.  1.
         25    1    1    2    0    0  0.71323194438E+01  0.27716850728E+02 -0.66338472689E+02  0.14437758397E+03  0.12500000000E+03 0.  0.
         25    1    1    2    0    0 -0.74472162295E+02 -0.68314978490E+02 -0.10228471415E+03  0.19052611892E+03  0.12500000000E+03 0.  0.
         25    1    1    2    0    0  0.67339842851E+02  0.40598127762E+02  0.13364333575E+03  0.19916928379E+03  0.12500000000E+03 0.  0.
</event>
<event>
 5    0  0.5822326E-005  0.2805005E+03  0.7546771E-02  0.1095416E+00
         21   -1    0    0  502  501  0.00000000000E+00  0.00000000000E+00  0.62398343239E+03  0.62398343239E+03  0.00000000000E+00 0. -1.
         21   -1    0    0  501  502 -0.00000000000E+00 -0.00000000000E+00 -0.12609390630E+03  0.12609390630E+03  0.00000000000E+00 0. -1.
         25    1    1    2    0    0  0.30715765530E+02  0.10777149954E+03  0.11925387421E+03  0.20592387156E+03  0.12500000000E+03 0.  0.
         25    1    1    2    0    0 -0.26530136673E+02 -0.19825026207E+03  0.21416452290E+03  0.31858822551E+03  0.12500000000E+03 0.  0.
         25    1    1    2    0    0 -0.41856288569E+01  0.90478762527E+02  0.16447112898E+03  0.22556524161E+03  0.12500000000E+03 0.  0.
</event>
<event>
 5    0  0.6244240E-005  0.2928406E+03  0.7546771E-02  0.1088875E+00
         21   -1    0    0  502  501  0.00000000000E+00  0.00000000000E+00  0.11892614043E+03  0.11892614043E+03  0.00000000000E+00 0. -1.
         21   -1    0    0  501  502 -0.00000000000E+00 -0.00000000000E+00 -0.72108318919E+03  0.72108318919E+03  0.00000000000E+00 0. -1.
         25    1    1    2    0    0 -0.35501205884E+01 -0.11159161348E+03 -0.43983558339E+01  0.16765928871E+03  0.12500000000E+03 0.  0.
         25    1    1    2    0    0  0.12530974074E+02  0.12783199326E+03 -0.31033162366E+03  0.35836958640E+03  0.12500000000E+03 0.  0.
         25    1    1    2    0    0 -0.89808534859E+01 -0.16240379775E+02 -0.28742706927E+03  0.31398045451E+03  0.12500000000E+03 0.  0.
</event>
<event>
 5    0  0.5822326E-005  0.3158069E+03  0.7546771E-02  0.1077595E+00
         21   -1    0    0  502  501  0.00000000000E+00  0.00000000000E+00  0.73177831709E+03  0.73177831709E+03  0.00000000000E+00 0. -1.
         21   -1    0    0  501  502 -0.00000000000E+00 -0.00000000000E+00 -0.13628987294E+03  0.13628987294E+03  0.00000000000E+00 0. -1.
         25    1    1    2    0    0  0.72076544292E+02 -0.79399575219E+02  0.51097085802E+03  0.53685709320E+03  0.12500000000E+03 0.  0.
         25    1    1    2    0    0 -0.11244633690E+03  0.73466735535E+02  0.19482426719E+02  0.18451586615E+03  0.12500000000E+03 0.  0.
         25    1    1    2    0    0  0.40369792605E+02  0.59328396842E+01  0.65035159420E+02  0.14669523067E+03  0.12500000000E+03 0.  0.
</event>
<event>
 5    0  0.5822326E-005  0.2527641E+03  0.7546771E-02  0.1111570E+00
         21   -1    0    0  502  501  0.00000000000E+00  0.00000000000E+00  0.27912824569E+03  0.27912824569E+03  0.00000000000E+00 0. -1.
         21   -1    0    0  501  502 -0.00000000000E+00 -0.00000000000E+00 -0.22889015294E+03  0.22889015294E+03  0.00000000000E+00 0. -1.
         25    1    1    2    0    0  0.31504319750E+01 -0.95207777809E+02  0.66651431807E+02  0.17070986948E+03  0.12500000000E+03 0.  0.
         25    1    1    2    0    0 -0.27428586815E+01 -0.30233599034E+02 -0.77265923904E+02  0.15005537905E+03  0.12500000000E+03 0.  0.
         25    1    1    2    0    0 -0.40757329345E+00  0.12544137684E+03  0.60852584852E+02  0.18725315010E+03  0.12500000000E+03 0.  0.
</event>
<event>
 5    0  0.5822326E-005  0.5584757E+03  0.7546771E-02  0.9995510E-01
         21   -1    0    0  502  501  0.00000000000E+00  0.00000000000E+00  0.89190617997E+03  0.89190617997E+03  0.00000000000E+00 0.  1.
         21   -1    0    0  501  502 -0.00000000000E+00 -0.00000000000E+00 -0.34969501523E+03  0.34969501523E+03  0.00000000000E+00 0.  1.
         25    1    1    2    0    0  0.66223303944E+02  0.12203332239E+03 -0.99672904255E+02  0.21174830720E+03  0.12500000000E+03 0.  0.
         25    1    1    2    0    0 -0.28239091325E+03  0.15648377773E+03  0.80798248290E+02  0.35550690219E+03  0.12500000000E+03 0.  0.
         25    1    1    2    0    0  0.21616760931E+03 -0.27851710012E+03  0.56108582071E+03  0.67434598581E+03  0.12500000000E+03 0.  0.
</event>
<event>
 5    0  0.5822326E-005  0.3265096E+03  0.7546771E-02  0.1072692E+00
         21   -1    0    0  502  501  0.00000000000E+00  0.00000000000E+00  0.50509961023E+02  0.50509961023E+02  0.00000000000E+00 0.  1.
         21   -1    0    0  501  502 -0.00000000000E+00 -0.00000000000E+00 -0.21106432995E+04  0.21106432995E+04  0.00000000000E+00 0.  1.
         25    1    1    2    0    0 -0.23852624171E+03  0.15689509486E+02 -0.93780297443E+03  0.97582803175E+03  0.12500000000E+03 0.  0.
         25    1    1    2    0    0  0.83549197108E+02 -0.35761498018E+02 -0.28279192492E+03  0.32226638962E+03  0.12500000000E+03 0.  0.
         25    1    1    2    0    0  0.15497704460E+03  0.20071988532E+02 -0.83953843916E+03  0.86305883919E+03  0.12500000000E+03 0.  0.
</event>
<event>
 5    0  0.5822326E-005  0.3987849E+03  0.7546771E-02  0.1044201E+00
         21   -1    0    0  502  501  0.00000000000E+00  0.00000000000E+00  0.72071291378E+02  0.72071291378E+02  0.00000000000E+00 0.  1.
         21   -1    0    0  501  502 -0.00000000000E+00 -0.00000000000E+00 -0.22065572746E+04  0.22065572746E+04  0.00000000000E+00 0.  1.
         25    1    1    2    0    0 -0.11160101960E+03 -0.23989170384E+03 -0.11634321291E+04  0.11996675106E+04  0.12500000000E+03 0.  0.
         25    1    1    2    0    0  0.19618725679E+03  0.77069183086E+02 -0.57244321141E+03  0.62269200171E+03  0.12500000000E+03 0.  0.
         25    1    1    2    0    0 -0.84586237188E+02  0.16282252076E+03 -0.39861064279E+03  0.45626905366E+03  0.12500000000E+03 0.  0.
</event>
<event>
 5    0  0.5822326E-005  0.2228396E+03  0.7546771E-02  0.1131784E+00
         21   -1    0    0  502  501  0.00000000000E+00  0.00000000000E+00  0.86982408971E+02  0.86982408971E+02  0.00000000000E+00 0.  1.
         21   -1    0    0  501  502 -0.00000000000E+00 -0.00000000000E+00 -0.57089094363E+03  0.57089094363E+03  0.00000000000E+00 0.  1.
         25    1    1    2    0    0 -0.73695313890E+02 -0.12879675430E+01 -0.15565026452E+03  0.21280193372E+03  0.12500000000E+03 0.  0.
         25    1    1    2    0    0  0.22224135203E+02 -0.30003813055E+02 -0.61161603375E+02  0.14408290222E+03  0.12500000000E+03 0.  0.
         25    1    1    2    0    0  0.51471178688E+02  0.31291780598E+02 -0.26709666676E+03  0.30098851666E+03  0.12500000000E+03 0.  0.
</event>
<event>
 5    0  0.5822326E-005  0.2689254E+03  0.7546771E-02  0.1101896E+00
         21   -1    0    0  502  501  0.00000000000E+00  0.00000000000E+00  0.15564810772E+03  0.15564810772E+03  0.00000000000E+00 0.  1.
         21   -1    0    0  501  502 -0.00000000000E+00 -0.00000000000E+00 -0.46464335142E+03  0.46464335142E+03  0.00000000000E+00 0.  1.
         25    1    1    2    0    0  0.46396698277E+02 -0.12764134767E+03 -0.11439537328E+03  0.21715494163E+03  0.12500000000E+03 0.  0.
         25    1    1    2    0    0  0.10336222982E+02 -0.43070223152E+02 -0.90865950057E+02  0.16075914440E+03  0.12500000000E+03 0.  0.
         25    1    1    2    0    0 -0.56732921259E+02  0.17071157082E+03 -0.10373392036E+03  0.24237737312E+03  0.12500000000E+03 0.  0.
</event>
<event>
 5    0  0.5822326E-005  0.2900787E+03  0.7546771E-02  0.1090308E+00
         21   -1    0    0  502  501  0.00000000000E+00  0.00000000000E+00  0.17284359868E+03  0.17284359868E+03  0.00000000000E+00 0. -1.
         21   -1    0    0  501  502 -0.00000000000E+00 -0.00000000000E+00 -0.48683124801E+03  0.48683124801E+03  0.00000000000E+00 0. -1.
         25    1    1    2    0    0  0.42776947168E+02 -0.12890506694E+03 -0.59950099217E+02  0.19407575296E+03  0.12500000000E+03 0.  0.
         25    1    1    2    0    0  0.71460564673E+02 -0.40351205239E+02 -0.11585864099E+03  0.18916410008E+03  0.12500000000E+03 0.  0.
         25    1    1    2    0    0 -0.11423751184E+03  0.16925627218E+03 -0.13817890912E+03  0.27643499364E+03  0.12500000000E+03 0.  0.
</event>
<event>
 5    0  0.5822326E-005  0.3349226E+03  0.7546771E-02  0.1068979E+00
         21   -1    0    0  502  501  0.00000000000E+00  0.00000000000E+00  0.23350689866E+03  0.23350689866E+03  0.00000000000E+00 0. -1.
         21   -1    0    0  501  502 -0.00000000000E+00 -0.00000000000E+00 -0.48038470322E+03  0.48038470322E+03  0.00000000000E+00 0. -1.
         25    1    1    2    0    0 -0.14593022347E+03  0.38991021155E+02 -0.19939377808E+03  0.27964049884E+03  0.12500000000E+03 0.  0.
         25    1    1    2    0    0  0.19412031621E+03 -0.12604989181E+03  0.13105199910E+02  0.26337809069E+03  0.12500000000E+03 0.  0.
         25    1    1    2    0    0 -0.48190092736E+02  0.87058870654E+02 -0.60589226391E+02  0.17087301236E+03  0.12500000000E+03 0.  0.
</event>
<event>
 5    0  0.5822326E-005  0.3942685E+03  0.7546771E-02  0.1045783E+00
         21   -1    0    0  502  501  0.00000000000E+00  0.00000000000E+00  0.14108663318E+04  0.14108663318E+04  0.00000000000E+00 0. -1.
         21   -1    0    0  501  502 -0.00000000000E+00 -0.00000000000E+00 -0.11017888094E+03  0.11017888094E+03  0.00000000000E+00 0. -1.
         25    1    1    2    0    0  0.14066227089E+03 -0.62162773996E+01  0.36032190573E+03  0.40654814266E+03  0.12500000000E+03 0.  0.
         25    1    1    2    0    0 -0.13211261599E+03  0.19855072505E+03  0.18931718496E+03  0.32915365750E+03  0.12500000000E+03 0.  0.
         25    1    1    2    0    0 -0.85496548960E+01 -0.19233444765E+03  0.75104836021E+03  0.78534341261E+03  0.12500000000E+03 0.  0.
</event>
<event>
 5    0  0.5822326E-005  0.2600698E+03  0.7546771E-02  0.1107101E+00
         21   -1    0    0  502  501  0.00000000000E+00  0.00000000000E+00  0.10094116030E+03  0.10094116030E+03  0.00000000000E+00 0. -1.
         21   -1    0    0  501  502 -0.00000000000E+00 -0.00000000000E+00 -0.67005683436E+03  0.67005683436E+03  0.00000000000E+00 0. -1.
         25    1    1    2    0    0 -0.11498943651E+03 -0.11268051486E+03 -0.27918729079E+03  0.34567327388E+03  0.12500000000E+03 0.  0.
         25    1    1    2    0    0  0.36587239854E+02  0.14087999701E+02 -0.95719077777E+02  0.16224746441E+03  0.12500000000E+03 0.  0.
         25    1    1    2    0    0  0.78402196657E+02  0.98592515155E+02 -0.19420930550E+03  0.26307725638E+03  0.12500000000E+03 0.  0.
</event>
<event>
 5    0  0.5822326E-005  0.2587325E+03  0.7546771E-02  0.1107907E+00
         21   -1    0    0  502  501  0.00000000000E+00  0.00000000000E+00  0.88545851336E+02  0.88545851336E+02  0.00000000000E+00 0. -1.
         21   -1    0    0  501  502 -0.00000000000E+00 -0.00000000000E+00 -0.75602078969E+03  0.75602078969E+03  0.00000000000E+00 0. -1.
         25    1    1    2    0    0  0.17640755568E+02 -0.40815391656E+02 -0.63800577158E+02  0.14721618830E+03  0.12500000000E+03 0.  0.
         25    1    1    2    0    0 -0.21133026605E+02 -0.97687313134E+02 -0.32023095475E+03  0.35799759824E+03  0.12500000000E+03 0.  0.
         25    1    1    2    0    0  0.34922710374E+01  0.13850270479E+03 -0.28344340644E+03  0.33935285448E+03  0.12500000000E+03 0.  0.
</event>
<event>
 5    0  0.5822326E-005  0.4091864E+03  0.7546771E-02  0.1040644E+00
         21   -1    0    0  502  501  0.00000000000E+00  0.00000000000E+00  0.19803154752E+03  0.19803154752E+03  0.00000000000E+00 0.  1.
         21   -1    0    0  501  502 -0.00000000000E+00 -0.00000000000E+00 -0.84548889304E+03  0.84548889304E+03  0.00000000000E+00 0.  1.
         25    1    1    2    0    0  0.24468275477E+03  0.33779734425E+01 -0.25303412110E+03  0.37354026239E+03  0.12500000000E+03 0.  0.
         25    1    1    2    0    0  0.58021715777E+02  0.74287590604E+02 -0.26812043969E+03  0.31048145806E+03  0.12500000000E+03 0.  0.
         25    1    1    2    0    0 -0.30270447055E+03 -0.77665564046E+02 -0.12630278472E+03  0.35949872010E+03  0.12500000000E+03 0.  0.
</event>
<event>
 5    0  0.5822326E-005  0.3985287E+03  0.7546771E-02  0.1044290E+00
         21   -1    0    0  502  501  0.00000000000E+00  0.00000000000E+00  0.92119173456E+03  0.92119173456E+03  0.00000000000E+00 0.  1.
         21   -1    0    0  501  502 -0.00000000000E+00 -0.00000000000E+00 -0.17241265417E+03  0.17241265417E+03  0.00000000000E+00 0.  1.
         25    1    1    2    0    0  0.87389528340E+02 -0.10403831885E+03  0.60143190156E+03  0.62913133261E+03  0.12500000000E+03 0.  0.
         25    1    1    2    0    0 -0.13678530350E+03  0.48488327532E+02 -0.69172345218E+02  0.20364466726E+03  0.12500000000E+03 0.  0.
         25    1    1    2    0    0  0.49395775162E+02  0.55549991317E+02  0.21651952405E+03  0.26082838886E+03  0.12500000000E+03 0.  0.
</event>
<event>
 5    0  0.5822326E-005  0.2627439E+03  0.7546771E-02  0.1105506E+00
         21   -1    0    0  502  501  0.00000000000E+00  0.00000000000E+00  0.12417845748E+04  0.12417845748E+04  0.00000000000E+00 0.  1.
         21   -1    0    0  501  502 -0.00000000000E+00 -0.00000000000E+00 -0.55592859247E+02  0.55592859247E+02  0.00000000000E+00 0.  1.
         25    1    1    2    0    0 -0.64010172407E+02 -0.13869560499E+03  0.59609667312E+03  0.62792516809E+03  0.12500000000E+03 0.  0.
         25    1    1    2    0    0  0.24076553875E+02  0.48858513372E+02  0.15624927159E+03  0.20737808381E+03  0.12500000000E+03 0.  0.
         25    1    1    2    0    0  0.39933618532E+02  0.89837091620E+02  0.43384577084E+03  0.46207418213E+03  0.12500000000E+03 0.  0.
</event>
<event>
 5    0  0.5822326E-005  0.2471397E+03  0.7546771E-02  0.1115126E+00
         21   -1    0    0  502  501  0.00000000000E+00  0.00000000000E+00  0.11275221982E+03  0.11275221982E+03  0.00000000000E+00 0.  1.
         21   -1    0    0  501  502 -0.00000000000E+00 -0.00000000000E+00 -0.54170151639E+03  0.54170151639E+03  0.00000000000E+00 0.  1.
         25    1    1    2    0    0  0.82821109527E+02  0.21637391965E+02 -0.29692053025E+02  0.15438306555E+03  0.12500000000E+03 0.  0.
         25    1    1    2    0    0 -0.24338088271E+02  0.27020836869E+02 -0.90970922597E+02  0.15881806234E+03  0.12500000000E+03 0.  0.
         25    1    1    2    0    0 -0.58483021256E+02 -0.48658228834E+02 -0.30828632095E+03  0.34125260833E+03  0.12500000000E+03 0.  0.
</event>
<event>
 5    0  0.5822326E-005  0.2197983E+03  0.7546771E-02  0.1134033E+00
         21   -1    0    0  502  501  0.00000000000E+00  0.00000000000E+00  0.12965685103E+03  0.12965685103E+03  0.00000000000E+00 0. -1.
         21   -1    0    0  501  502 -0.00000000000E+00 -0.00000000000E+00 -0.37260903406E+03  0.37260903406E+03  0.00000000000E+00 0. -1.
         25    1    1    2    0    0  0.25496596298E+02  0.63186911360E+02 -0.77374783801E+02  0.16203246390E+03  0.12500000000E+03 0.  0.
         25    1    1    2    0    0 -0.76083004082E+01 -0.22579765563E+02  0.10535248475E+01  0.12725502726E+03  0.12500000000E+03 0.  0.
         25    1    1    2    0    0 -0.17888295889E+02 -0.40607145797E+02 -0.16663092408E+03  0.21297839393E+03  0.12500000000E+03 0.  0.
</event>
<event>
 5    0  0.5822326E-005  0.2348344E+03  0.7546771E-02  0.1123283E+00
         21   -1    0    0  502  501  0.00000000000E+00  0.00000000000E+00  0.41953701293E+03  0.41953701293E+03  0.00000000000E+00 0. -1.
         21   -1    0    0  501  502 -0.00000000000E+00 -0.00000000000E+00 -0.13144773168E+03  0.13144773168E+03  0.00000000000E+00 0. -1.
         25    1    1    2    0    0 -0.11937877837E+03  0.29945110356E+02  0.10224901933E+03  0.20304645851E+03  0.12500000000E+03 0.  0.
         25    1    1    2    0    0  0.74122599173E+02 -0.40224188193E+02  0.14319650504E+03  0.20794803216E+03  0.12500000000E+03 0.  0.
         25    1    1    2    0    0  0.45256179197E+02  0.10279077836E+02  0.42643756881E+02  0.13999025394E+03  0.12500000000E+03 0.  0.
</event>
<event>
 5    0  0.5822326E-005  0.2097634E+03  0.7546771E-02  0.1141753E+00
         21   -1    0    0  502  501  0.00000000000E+00  0.00000000000E+00  0.11480648649E+03  0.11480648649E+03  0.00000000000E+00 0. -1.
         21   -1    0    0  501  502 -0.00000000000E+00 -0.00000000000E+00 -0.38325974498E+03  0.38325974498E+03  0.00000000000E+00 0. -1.
         25    1    1    2    0    0 -0.29382045306E+02 -0.34309452794E+02 -0.37850064097E+02  0.13819576871E+03  0.12500000000E+03 0.  0.
         25    1    1    2    0    0  0.23058010576E+02 -0.29659051862E+02 -0.76488013066E+02  0.15128366519E+03  0.12500000000E+03 0.  0.
         25    1    1    2    0    0  0.63240347293E+01  0.63968504656E+02 -0.15411518133E+03  0.20858679757E+03  0.12500000000E+03 0.  0.
</event>
<event>
 5    0  0.5822326E-005  0.2818411E+03  0.7546771E-02  0.1094688E+00
         21   -1    0    0  502  501  0.00000000000E+00  0.00000000000E+00  0.66372233097E+03  0.66372233097E+03  0.00000000000E+00 0. -1.
         21   -1    0    0  501  502 -0.00000000000E+00 -0.00000000000E+00 -0.11968017885E+03  0.11968017885E+03  0.00000000000E+00 0. -1.
         25    1    1    2    0    0 -0.11405587428E+02 -0.15009404689E+03  0.17070604044E+03  0.25966105325E+03  0.12500000000E+03 0.  0.
         25    1    1    2    0    0  0.66224376205E+02  0.17754411714E+03  0.21158148466E+03  0.31032129509E+03  0.12500000000E+03 0.  0.
         25    1    1    2    0    0 -0.54818788777E+02 -0.27450070257E+02  0.16175462702E+03  0.21342016147E+03  0.12500000000E+03 0.  0.
</event>
<event>
 5    0  0.5822326E-005  0.3066425E+03  0.7546771E-02  0.1081966E+00
         21   -1    0    0  502  501  0.00000000000E+00  0.00000000000E+00  0.15263255823E+04  0.15263255823E+04  0.00000000000E+00 0. -1.
         21   -1    0    0  501  502 -0.00000000000E+00 -0.00000000000E+00 -0.61605230123E+02  0.61605230123E+02  0.00000000000E+00 0. -1.
         25    1    1    2    0    0  0.52022257361E+02 -0.38952045891E+02  0.11126171217E+04  0.11215014207E+04  0.12500000000E+03 0.  0.
         25    1    1    2    0    0 -0.44253541552E+02  0.99156841516E+02  0.16932487369E+03  0.23682560675E+03  0.12500000000E+03 0.  0.
         25    1    1    2    0    0 -0.77687158087E+01 -0.60204795625E+02  0.18277835674E+03  0.22960378493E+03  0.12500000000E+03 0.  0.
</event>
<event>
 5    0  0.5822326E-005  0.8128512E+03  0.7546771E-02  0.9541600E-01
         21   -1    0    0  502  501  0.00000000000E+00  0.00000000000E+00  0.79996005420E+03  0.79996005420E+03  0.00000000000E+00 0.  1.
         21   -1    0    0  501  502 -0.00000000000E+00 -0.00000000000E+00 -0.82595008373E+03  0.82595008373E+03  0.00000000000E+00 0.  1.
         25    1    1    2    0    0 -0.16532039828E+03 -0.52775357089E+02  0.64984146308E+03  0.68413083511E+03  0.12500000000E+03 0.  0.
         25    1    1    2    0    0  0.13343237702E+03 -0.25549548842E+03 -0.25654736318E+03  0.40561520360E+03  0.12500000000E+03 0.  0.
         25    1    1    2    0    0  0.31888021264E+02  0.30827084551E+03 -0.41928412943E+03  0.53616409921E+03  0.12500000000E+03 0.  0.
</event>
<event>
 5    0  0.5822326E-005  0.4001499E+03  0.7546771E-02  0.1043728E+00
         21   -1    0    0  502  501  0.00000000000E+00  0.00000000000E+00  0.65839927127E+03  0.65839927127E+03  0.00000000000E+00 0. -1.
         21   -1    0    0  501  502 -0.00000000000E+00 -0.00000000000E+00 -0.24319584215E+03  0.24319584215E+03  0.00000000000E+00 0. -1.
         25    1    1    2    0    0 -0.26255305085E+03 -0.61396979739E+02  0.41936366049E+03  0.51399861223E+03  0.12500000000E+03 0.  0.
         25    1    1    2    0    0  0.14842471087E+03 -0.13005844985E+02 -0.41761167425E+02  0.19891717348E+03  0.12500000000E+03 0.  0.
         25    1    1    2    0    0  0.11412833998E+03  0.74402824725E+02  0.37600936053E+02  0.18867932771E+03  0.12500000000E+03 0.  0.
</event>
<event>
 5    0  0.5822326E-005  0.3187761E+03  0.7546771E-02  0.1076214E+00
         21   -1    0    0  502  501  0.00000000000E+00  0.00000000000E+00  0.55351081804E+03  0.55351081804E+03  0.00000000000E+00 0.  1.
         21   -1    0    0  501  502 -0.00000000000E+00 -0.00000000000E+00 -0.18358852285E+03  0.18358852285E+03  0.00000000000E+00 0.  1.
         25    1    1    2    0    0 -0.16136230349E+03  0.17031084051E+02  0.22984032253E+03  0.30786267177E+03  0.12500000000E+03 0.  0.
         25    1    1    2    0    0  0.34848818317E+02 -0.55919560254E+02  0.19341572511E+03  0.23953304590E+03  0.12500000000E+03 0.  0.
         25    1    1    2    0    0  0.12651348517E+03  0.38888476203E+02 -0.53333752448E+02  0.18970362322E+03  0.12500000000E+03 0.  0.
</event>
<event>
 5    0  0.5822326E-005  0.2672236E+03  0.7546771E-02  0.1102879E+00
         21   -1    0    0  502  501  0.00000000000E+00  0.00000000000E+00  0.32032563295E+03  0.32032563295E+03  0.00000000000E+00 0.  1.
         21   -1    0    0  501  502 -0.00000000000E+00 -0.00000000000E+00 -0.22292453517E+03  0.22292453517E+03  0.00000000000E+00 0.  1.
         25    1    1    2    0    0 -0.14577271110E+02 -0.29997482101E+01 -0.10621167547E+01  0.12588734414E+03  0.12500000000E+03 0.  0.
         25    1    1    2    0    0  0.13608884706E+02  0.12720846679E+03 -0.51326499497E+02  0.18608225417E+03  0.12500000000E+03 0.  0.
         25    1    1    2    0    0  0.96838640404E+00 -0.12420871858E+03  0.14978971403E+03  0.23128056981E+03  0.12500000000E+03 0.  0.
</event>
<event>
 5    0  0.5822326E-005  0.3123692E+03  0.7546771E-02  0.1079216E+00
         21   -1    0    0  502  501  0.00000000000E+00  0.00000000000E+00  0.87822156879E+03  0.87822156879E+03  0.00000000000E+00 0.  1.
         21   -1    0    0  501  502 -0.00000000000E+00 -0.00000000000E+00 -0.11110464425E+03  0.11110464425E+03  0.00000000000E+00 0.  1.
         25    1    1    2    0    0 -0.50128205393E+02 -0.17742280699E+02  0.53993777405E+03  0.55676334770E+03  0.12500000000E+03 0.  0.
         25    1    1    2    0    0  0.85672918619E+02 -0.92971248882E+02  0.18526430970E+03  0.25677103916E+03  0.12500000000E+03 0.  0.
         25    1    1    2    0    0 -0.35544713226E+02  0.11071352958E+03  0.41914840791E+02  0.17579182617E+03  0.12500000000E+03 0.  0.
</event>
<event>
 5    0  0.5822326E-005  0.2627307E+03  0.7546771E-02  0.1105514E+00
         21   -1    0    0  502  501  0.00000000000E+00  0.00000000000E+00  0.16211693877E+03  0.16211693877E+03  0.00000000000E+00 0. -1.
         21   -1    0    0  501  502 -0.00000000000E+00 -0.00000000000E+00 -0.42578774280E+03  0.42578774280E+03  0.00000000000E+00 0. -1.
         25    1    1    2    0    0  0.16585977029E+02 -0.67818626791E+02  0.24565965848E+02  0.14526853566E+03  0.12500000000E+03 0.  0.
         25    1    1    2    0    0  0.74968614449E+02  0.38833727901E+02 -0.53832748269E+02  0.16016028335E+03  0.12500000000E+03 0.  0.
         25    1    1    2    0    0 -0.91554591478E+02  0.28984898890E+02 -0.23440402161E+03  0.28247586256E+03  0.12500000000E+03 0.  0.
</event>
<event>
 5    0  0.5822326E-005  0.2690817E+03  0.7546771E-02  0.1101806E+00
         21   -1    0    0  502  501  0.00000000000E+00  0.00000000000E+00  0.85699418715E+02  0.85699418715E+02  0.00000000000E+00 0. -1.
         21   -1    0    0  501  502 -0.00000000000E+00 -0.00000000000E+00 -0.84487133528E+03  0.84487133528E+03  0.00000000000E+00 0. -1.
         25    1    1    2    0    0 -0.39912369968E+02 -0.44832988282E+02 -0.21774863950E+03  0.25815201746E+03  0.12500000000E+03 0.  0.
         25    1    1    2    0    0  0.64203227180E+02  0.15400234675E+03 -0.18593885008E+03  0.27935109299E+03  0.12500000000E+03 0.  0.
         25    1    1    2    0    0 -0.24290857213E+02 -0.10916935847E+03 -0.35548442698E+03  0.39306764354E+03  0.12500000000E+03 0.  0.
</event>
<event>
 5    0  0.5822326E-005  0.4049982E+03  0.7546771E-02  0.1042063E+00
         21   -1    0    0  502  501  0.00000000000E+00  0.00000000000E+00  0.10347783015E+03  0.10347783015E+03  0.00000000000E+00 0. -1.
         21   -1    0    0  501  502 -0.00000000000E+00 -0.00000000000E+00 -0.15851076731E+04  0.15851076731E+04  0.00000000000E+00 0. -1.
         25    1    1    2    0    0  0.30952846614E+03 -0.14706311338E+02 -0.40906058779E+03  0.52818530028E+03  0.12500000000E+03 0.  0.
         25    1    1    2    0    0 -0.24347943743E+03  0.56108115180E+02 -0.83861763838E+03  0.88393150212E+03  0.12500000000E+03 0.  0.
         25    1    1    2    0    0 -0.66049028714E+02 -0.41401803843E+02 -0.23395161676E+03  0.27646870084E+03  0.12500000000E+03 0.  0.
</event>
<event>
 5    0  0.5822326E-005  0.3495214E+03  0.7546771E-02  0.1062812E+00
         21   -1    0    0  502  501  0.00000000000E+00  0.00000000000E+00  0.83561824368E+03  0.83561824368E+03  0.00000000000E+00 0.  1.
         21   -1    0    0  501  502 -0.00000000000E+00 -0.00000000000E+00 -0.14619736143E+03  0.14619736143E+03  0.00000000000E+00 0.  1.
         25    1    1    2    0    0  0.10493681017E+03  0.13008129778E+03  0.34478795252E+03  0.40303425458E+03  0.12500000000E+03 0.  0.
         25    1    1    2    0    0  0.71601488256E+02 -0.18902460293E+03  0.21078876362E+03  0.31766960274E+03  0.12500000000E+03 0.  0.
         25    1    1    2    0    0 -0.17653829843E+03  0.58943305153E+02  0.13384416610E+03  0.26111174779E+03  0.12500000000E+03 0.  0.
</event>
<event>
 5    0  0.5822326E-005  0.2460487E+03  0.7546771E-02  0.1115828E+00
         21   -1    0    0  502  501  0.00000000000E+00  0.00000000000E+00  0.17213265074E+03  0.17213265074E+03  0.00000000000E+00 0.  1.
         21   -1    0    0  501  502 -0.00000000000E+00 -0.00000000000E+00 -0.35170515111E+03  0.35170515111E+03  0.00000000000E+00 0.  1.
         25    1    1    2    0    0  0.25179697784E+02  0.72207161937E+02 -0.73269956425E+01  0.14671937936E+03  0.12500000000E+03 0.  0.
         25    1    1    2    0    0  0.18919130436E+02 -0.10008729297E+03 -0.17972995380E+03  0.24146067175E+03  0.12500000000E+03 0.  0.
         25    1    1    2    0    0 -0.44098828220E+02  0.27880131032E+02  0.74844490694E+01  0.13565775074E+03  0.12500000000E+03 0.  0.
</event>
<event>
 5    0  0.5822326E-005  0.2596618E+03  0.7546771E-02  0.1107347E+00
         21   -1    0    0  502  501  0.00000000000E+00  0.00000000000E+00  0.60686090276E+02  0.60686090276E+02  0.00000000000E+00 0. -1.
         21   -1    0    0  501  502 -0.00000000000E+00 -0.00000000000E+00 -0.11110331101E+04  0.11110331101E+04  0.00000000000E+00 0. -1.
         25    1    1    2    0    0 -0.88684192226E+02 -0.14629674834E+02 -0.56983464707E+03  0.59026726010E+03  0.12500000000E+03 0.  0.
         25    1    1    2    0    0  0.67442908235E+02  0.55764316930E+02 -0.11116740837E+03  0.18878929418E+03  0.12500000000E+03 0.  0.
         25    1    1    2    0    0  0.21241283991E+02 -0.41134642095E+02 -0.36934496435E+03  0.39266264606E+03  0.12500000000E+03 0.  0.
</event>
<event>
 5    0  0.5822326E-005  0.3064163E+03  0.7546771E-02  0.1082076E+00
         21   -1    0    0  502  501  0.00000000000E+00  0.00000000000E+00  0.80178966240E+02  0.80178966240E+02  0.00000000000E+00 0. -1.
         21   -1    0    0  501  502 -0.00000000000E+00 -0.00000000000E+00 -0.11710171492E+04  0.11710171492E+04  0.00000000000E+00 0. -1.
         25    1    1    2    0    0 -0.68931151996E+02 -0.18482632629E+02 -0.55282320351E+02  0.15418899561E+03  0.12500000000E+03 0.  0.
         25    1    1    2    0    0 -0.31520534237E+02  0.46017631733E+02 -0.18008610685E+03  0.22620161889E+03  0.12500000000E+03 0.  0.
         25    1    1    2    0    0  0.10045168623E+03 -0.27534999104E+02 -0.85546975574E+03  0.87080550092E+03  0.12500000000E+03 0.  0.
</event>
<event>
 5    0  0.5822326E-005  0.2733852E+03  0.7546771E-02  0.1099358E+00
         21   -1    0    0  502  501  0.00000000000E+00  0.00000000000E+00  0.57406099218E+02  0.57406099218E+02  0.00000000000E+00 0. -1.
         21   -1    0    0  501  502 -0.00000000000E+00 -0.00000000000E+00 -0.13019432639E+04  0.13019432639E+04  0.00000000000E+00 0. -1.
         25    1    1    2    0    0 -0.91792346453E+01 -0.82960324909E+02 -0.10596463106E+03  0.18390262884E+03  0.12500000000E+03 0.  0.
         25    1    1    2    0    0 -0.22536534503E+02 -0.16694424575E+02 -0.55035198216E+03  0.56506539752E+03  0.12500000000E+03 0.  0.
         25    1    1    2    0    0  0.31715769149E+02  0.99654749484E+02 -0.58822055142E+03  0.61038133672E+03  0.12500000000E+03 0.  0.
</event>
<event>
 5    0  0.5822326E-005  0.2329951E+03  0.7546771E-02  0.1124549E+00
         21   -1    0    0  502  501  0.00000000000E+00  0.00000000000E+00  0.34755404259E+02  0.34755404259E+02  0.00000000000E+00 0. -1.
         21   -1    0    0  501  502 -0.00000000000E+00 -0.00000000000E+00 -0.15619645811E+04  0.15619645811E+04  0.00000000000E+00 0. -1.
         25    1    1    2    0    0 -0.58617851963E+02 -0.46639315713E+02 -0.82545669550E+03  0.83822135172E+03  0.12500000000E+03 0.  0.
         25    1    1    2    0    0  0.94941409651E+01  0.26946205801E+02 -0.49370549562E+03  0.51008465290E+03  0.12500000000E+03 0.  0.
         25    1    1    2    0    0  0.49123710998E+02  0.19693109912E+02 -0.20804698576E+03  0.24841398077E+03  0.12500000000E+03 0.  0.
</event>
<event>
 5    0  0.5822326E-005  0.3230479E+03  0.7546771E-02  0.1074255E+00
         21   -1    0    0  502  501  0.00000000000E+00  0.00000000000E+00  0.87320556189E+02  0.87320556189E+02  0.00000000000E+00 0.  1.
         21   -1    0    0  501  502 -0.00000000000E+00 -0.00000000000E+00 -0.11951362805E+04  0.11951362805E+04  0.00000000000E+00 0.  1.
         25    1    1    2    0    0  0.12287294443E+03  0.94555131062E+02 -0.13060076920E+03  0.23815959816E+03  0.12500000000E+03 0.  0.
         25    1    1    2    0    0 -0.11864578508E+03  0.46429161136E+02 -0.51917805986E+03  0.54900213766E+03  0.12500000000E+03 0.  0.
         25    1    1    2    0    0 -0.42271593436E+01 -0.14098429220E+03 -0.45803689527E+03  0.49529510087E+03  0.12500000000E+03 0.  0.
</event>
<event>
 5    0  0.5822326E-005  0.2473541E+03  0.7546771E-02  0.1114988E+00
         21   -1    0    0  502  501  0.00000000000E+00  0.00000000000E+00  0.95671680631E+03  0.95671680631E+03  0.00000000000E+00 0. -1.
         21   -1    0    0  501  502 -0.00000000000E+00 -0.00000000000E+00 -0.63952099112E+02  0.63952099112E+02  0.00000000000E+00 0. -1.
         25    1    1    2    0    0  0.54505529250E+02 -0.24356860996E+02  0.26886553364E+03  0.30245294605E+03  0.12500000000E+03 0.  0.
         25    1    1    2    0    0 -0.68610888858E+02  0.56302668673E+02  0.54540031608E+03  0.56653680318E+03  0.12500000000E+03 0.  0.
         25    1    1    2    0    0  0.14105359608E+02 -0.31945807676E+02  0.78498857468E+02  0.15167915619E+03  0.12500000000E+03 0.  0.
</event>
<event>
 5    0  0.5822326E-005  0.4428992E+03  0.7546771E-02  0.1029861E+00
         21   -1    0    0  502  501  0.00000000000E+00  0.00000000000E+00  0.12901279157E+04  0.12901279157E+04  0.00000000000E+00 0. -1.
         21   -1    0    0  501  502 -0.00000000000E+00 -0.00000000000E+00 -0.15204669815E+03  0.15204669815E+03  0.00000000000E+00 0.  1.
         25    1    1    2    0    0  0.10130417351E+03  0.15986808212E+03  0.71965926415E+02  0.23795889103E+03  0.12500000000E+03 0.  0.
         25    1    1    2    0    0 -0.80713591782E+02 -0.19326334574E+03  0.10430507265E+04  0.10711886961E+04  0.12500000000E+03 0.  0.
         25    1    1    2    0    0 -0.20590581731E+02  0.33395263619E+02  0.23064564646E+02  0.13302702669E+03  0.12500000000E+03 0.  0.
</event>
<event>
 5    0  0.5822326E-005  0.2668620E+03  0.7546771E-02  0.1103089E+00
         21   -1    0    0  502  501  0.00000000000E+00  0.00000000000E+00  0.21104649555E+03  0.21104649555E+03  0.00000000000E+00 0.  1.
         21   -1    0    0  501  502 -0.00000000000E+00 -0.00000000000E+00 -0.33743897625E+03  0.33743897625E+03  0.00000000000E+00 0.  1.
         25    1    1    2    0    0 -0.70802475051E+02 -0.15733706239E+03 -0.97025614912E+01  0.21327700620E+03  0.12500000000E+03 0.  0.
         25    1    1    2    0    0  0.65928167141E+02  0.11363122005E+03 -0.75684820519E+02  0.19649877722E+03  0.12500000000E+03 0.  0.
         25    1    1    2    0    0  0.48743079097E+01  0.43705842343E+02 -0.41005098686E+02  0.13870968838E+03  0.12500000000E+03 0.  0.
</event>
<event>
 5    0  0.5822326E-005  0.2465394E+03  0.7546771E-02  0.1115512E+00
         21   -1    0    0  502  501  0.00000000000E+00  0.00000000000E+00  0.57870228516E+03  0.57870228516E+03  0.00000000000E+00 0. -1.
         21   -1    0    0  501  502 -0.00000000000E+00 -0.00000000000E+00 -0.10503096318E+03  0.10503096318E+03  0.00000000000E+00 0. -1.
         25    1    1    2    0    0 -0.68274782793E+01 -0.59754759533E+02  0.16568859939E+03  0.21609016108E+03  0.12500000000E+03 0.  0.
         25    1    1    2    0    0 -0.52282615990E+02  0.33285019812E+02  0.29491784827E+03  0.32625588379E+03  0.12500000000E+03 0.  0.
         25    1    1    2    0    0  0.59110094269E+02  0.26469739721E+02  0.13064874316E+02  0.14138720347E+03  0.12500000000E+03 0.  0.
</event>
<event>
 5    0  0.5822326E-005  0.2491618E+03  0.7546771E-02  0.1113836E+00
         21   -1    0    0  502  501  0.00000000000E+00  0.00000000000E+00  0.13187000579E+04  0.13187000579E+04  0.00000000000E+00 0. -1.
         21   -1    0    0  501  502 -0.00000000000E+00 -0.00000000000E+00 -0.47077880303E+02  0.47077880303E+02  0.00000000000E+00 0. -1.
         25    1    1    2    0    0  0.21422213389E+02 -0.26343848702E+02  0.23078789547E+03  0.26465253123E+03  0.12500000000E+03 0.  0.
         25    1    1    2    0    0  0.23106741676E+00  0.49407797503E+02  0.15165605379E+03  0.20264684182E+03  0.12500000000E+03 0.  0.
         25    1    1    2    0    0 -0.21653280805E+02 -0.23063948801E+02  0.88917822838E+03  0.89847856520E+03  0.12500000000E+03 0.  0.
</event>
<event>
 5    0  0.6041752E-005  0.2866635E+03  0.7546771E-02  0.1092104E+00
         21   -1    0    0  502  501  0.00000000000E+00  0.00000000000E+00  0.10145814957E+04  0.10145814957E+04  0.00000000000E+00 0. -1.
         21   -1    0    0  501  502 -0.00000000000E+00 -0.00000000000E+00 -0.80994921979E+02  0.80994921979E+02  0.00000000000E+00 0. -1.
         25    1    1    2    0    0 -0.18292947870E+02 -0.10641118375E+03  0.20500252435E+03  0.26326603837E+03  0.12500000000E+03 0.  0.
         25    1    1    2    0    0  0.11272158294E+03 -0.49682481579E+02  0.39306755059E+03  0.43046672759E+03  0.12500000000E+03 0.  0.
         25    1    1    2    0    0 -0.94428635067E+02  0.15609366533E+03  0.33551649880E+03  0.40184365174E+03  0.12500000000E+03 0.  0.
</event>
<event>
 5    0  0.5822326E-005  0.2684775E+03  0.7546771E-02  0.1102154E+00
         21   -1    0    0  502  501  0.00000000000E+00  0.00000000000E+00  0.44175616073E+02  0.44175616073E+02  0.00000000000E+00 0.  1.
         21   -1    0    0  501  502 -0.00000000000E+00 -0.00000000000E+00 -0.16316730338E+04  0.16316730338E+04  0.00000000000E+00 0.  1.
         25    1    1    2    0    0 -0.14412636494E+03 -0.42408215330E+02 -0.51085766801E+03  0.54696565044E+03  0.12500000000E+03 0.  0.
         25    1    1    2    0    0  0.15195337279E+03  0.68843547747E+02 -0.59222353197E+03  0.62783992656E+03  0.12500000000E+03 0.  0.
         25    1    1    2    0    0 -0.78270078534E+01 -0.26435332417E+02 -0.48441621773E+03  0.50104307285E+03  0.12500000000E+03 0.  0.
</event>
<event>
 5    0  0.5925212E-005  0.3142466E+03  0.7546771E-02  0.1078328E+00
         21   -1    0    0  502  501  0.00000000000E+00  0.00000000000E+00  0.12959793087E+03  0.12959793087E+03  0.00000000000E+00 0. -1.
         21   -1    0    0  501  502 -0.00000000000E+00 -0.00000000000E+00 -0.76197898813E+03  0.76197898813E+03  0.00000000000E+00 0. -1.
         25    1    1    2    0    0 -0.11753894246E+03 -0.36721179019E+02 -0.17813150594E+03  0.25003935968E+03  0.12500000000E+03 0.  0.
         25    1    1    2    0    0 -0.62657061028E+02  0.43395116657E+02 -0.10829346709E+02  0.14680367229E+03  0.12500000000E+03 0.  0.
         25    1    1    2    0    0  0.18019600349E+03 -0.66739376378E+01 -0.44342020461E+03  0.49473388703E+03  0.12500000000E+03 0.  0.
</event>
<event>
 5    0  0.5822326E-005  0.3504302E+03  0.7546771E-02  0.1062439E+00
         21   -1    0    0  502  501  0.00000000000E+00  0.00000000000E+00  0.88461311113E+02  0.88461311113E+02  0.00000000000E+00 0. -1.
         21   -1    0    0  501  502 -0.00000000000E+00 -0.00000000000E+00 -0.13881927042E+04  0.13881927042E+04  0.00000000000E+00 0. -1.
         25    1    1    2    0    0  0.41645830535E+02 -0.36062516664E+02  0.94613394925E+01  0.13692843844E+03  0.12500000000E+03 0.  0.
         25    1    1    2    0    0 -0.28852358224E+02 -0.43135917287E+02 -0.66467374121E+03  0.67831360607E+03  0.12500000000E+03 0.  0.
         25    1    1    2    0    0 -0.12793472311E+02  0.79198433951E+02 -0.64451899141E+03  0.66141197084E+03  0.12500000000E+03 0.  0.
</event>
<event>
 5    0  0.5822326E-005  0.2586167E+03  0.7546771E-02  0.1107977E+00
         21   -1    0    0  502  501  0.00000000000E+00  0.00000000000E+00  0.12365562796E+03  0.12365562796E+03  0.00000000000E+00 0. -1.
         21   -1    0    0  501  502 -0.00000000000E+00 -0.00000000000E+00 -0.54087773734E+03  0.54087773734E+03  0.00000000000E+00 0. -1.
         25    1    1    2    0    0 -0.59291503052E+02  0.10734674441E+03 -0.96391242152E+02  0.19988766204E+03  0.12500000000E+03 0.  0.
         25    1    1    2    0    0 -0.14752253152E+02 -0.11438318231E+03 -0.91637855890E+02  0.19319326593E+03  0.12500000000E+03 0.  0.
         25    1    1    2    0    0  0.74043756204E+02  0.70364378929E+01 -0.22919301134E+03  0.27145243734E+03  0.12500000000E+03 0.  0.
</event>
<event>
 5    0  0.5822326E-005  0.4479130E+03  0.7546771E-02  0.1028346E+00
         21   -1    0    0  502  501  0.00000000000E+00  0.00000000000E+00  0.60696068496E+03  0.60696068496E+03  0.00000000000E+00 0.  1.
         21   -1    0    0  501  502 -0.00000000000E+00 -0.00000000000E+00 -0.33054207191E+03  0.33054207191E+03  0.00000000000E+00 0. -1.
         25    1    1    2    0    0  0.27279512570E+02 -0.14475747467E+03 -0.83797313695E+01  0.19337558837E+03  0.12500000000E+03 0.  0.
         25    1    1    2    0    0 -0.10132204853E+03  0.34546986691E+03  0.31510952124E+03  0.49450439517E+03  0.12500000000E+03 0.  0.
         25    1    1    2    0    0  0.74042535956E+02 -0.20071239224E+03 -0.30311176827E+02  0.24962277334E+03  0.12500000000E+03 0.  0.
</event>
<event>
 5    0  0.5822326E-005  0.4091236E+03  0.7546771E-02  0.1040666E+00
         21   -1    0    0  502  501  0.00000000000E+00  0.00000000000E+00  0.55005269518E+02  0.55005269518E+02  0.00000000000E+00 0. -1.
         21   -1    0    0  501  502 -0.00000000000E+00 -0.00000000000E+00 -0.30430194042E+04  0.30430194042E+04  0.00000000000E+00 0. -1.
         25    1    1    2    0    0 -0.89762950533E+02  0.27897916018E+03 -0.76986168334E+03  0.83318591597E+03  0.12500000000E+03 0.  0.
         25    1    1    2    0    0  0.27723829102E+01 -0.14556774152E+02 -0.10488779513E+04  0.10564040621E+04  0.12500000000E+03 0.  0.
         25    1    1    2    0    0  0.86990567623E+02 -0.26442238603E+03 -0.11692745000E+04  0.12084346956E+04  0.12500000000E+03 0.  0.
</event>
<event>
 5    0  0.5822326E-005  0.2827436E+03  0.7546771E-02  0.1094200E+00
         21   -1    0    0  502  501  0.00000000000E+00  0.00000000000E+00  0.58705699013E+02  0.58705699013E+02  0.00000000000E+00 0. -1.
         21   -1    0    0  501  502 -0.00000000000E+00 -0.00000000000E+00 -0.13617745558E+04  0.13617745558E+04  0.00000000000E+00 0. -1.
         25    1    1    2    0    0 -0.30641333300E+02 -0.11298751787E+03 -0.24943078789E+03  0.30256534575E+03  0.12500000000E+03 0.  0.
         25    1    1    2    0    0  0.86228475526E+02 -0.58976933428E+01 -0.74202417317E+03  0.75742656829E+03  0.12500000000E+03 0.  0.
         25    1    1    2    0    0 -0.55587142226E+02  0.11888521121E+03 -0.31161389573E+03  0.36048834077E+03  0.12500000000E+03 0.  0.
</event>
<event>
 5    0  0.5866616E-005  0.2850609E+03  0.7546771E-02  0.1092956E+00
         21   -1    0    0  502  501  0.00000000000E+00  0.00000000000E+00  0.98293905656E+02  0.98293905656E+02  0.00000000000E+00 0.  1.
         21   -1    0    0  501  502 -0.00000000000E+00 -0.00000000000E+00 -0.82670164684E+03  0.82670164684E+03  0.00000000000E+00 0.  1.
         25    1    1    2    0    0 -0.91412428176E+02 -0.66827639307E+01 -0.29116215848E+03  0.32985041138E+03  0.12500000000E+03 0.  0.
         25    1    1    2    0    0  0.11255301081E+02 -0.10275903753E+03 -0.36057507605E+03  0.39538018042E+03  0.12500000000E+03 0.  0.
         25    1    1    2    0    0  0.80157127095E+02  0.10944180146E+03 -0.76670506656E+02  0.19976496070E+03  0.12500000000E+03 0.  0.
</event>
<event>
 5    0  0.5822326E-005  0.4166625E+03  0.7546771E-02  0.1038158E+00
         21   -1    0    0  502  501  0.00000000000E+00  0.00000000000E+00  0.23290429153E+03  0.23290429153E+03  0.00000000000E+00 0. -1.
         21   -1    0    0  501  502 -0.00000000000E+00 -0.00000000000E+00 -0.74540344413E+03  0.74540344413E+03  0.00000000000E+00 0. -1.
         25    1    1    2    0    0  0.27110650380E+03  0.15488262107E+03 -0.15915356865E+03  0.37207824598E+03  0.12500000000E+03 0.  0.
         25    1    1    2    0    0 -0.22882927467E+03 -0.21851543490E+03 -0.20227793948E+03  0.39579438732E+03  0.12500000000E+03 0.  0.
         25    1    1    2    0    0 -0.42277229135E+02  0.63632813833E+02 -0.15106764447E+03  0.21043510236E+03  0.12500000000E+03 0.  0.
</event>
<event>
 5    0  0.5822326E-005  0.2887615E+03  0.7546771E-02  0.1090998E+00
         21   -1    0    0  502  501  0.00000000000E+00  0.00000000000E+00  0.31037224632E+03  0.31037224632E+03  0.00000000000E+00 0.  1.
         21   -1    0    0  501  502 -0.00000000000E+00 -0.00000000000E+00 -0.26865542886E+03  0.26865542886E+03  0.00000000000E+00 0.  1.
         25    1    1    2    0    0 -0.28389652972E+02 -0.15955635958E+02  0.10885659551E+03  0.16892398616E+03  0.12500000000E+03 0.  0.
         25    1    1    2    0    0 -0.11737794944E+02  0.31608171833E+02  0.12295683786E+03  0.17855037478E+03  0.12500000000E+03 0.  0.
         25    1    1    2    0    0  0.40127447916E+02 -0.15652535875E+02 -0.19009661591E+03  0.23155331424E+03  0.12500000000E+03 0.  0.
</event>
<event>
 5    0  0.5822326E-005  0.2687973E+03  0.7546771E-02  0.1101970E+00
         21   -1    0    0  502  501  0.00000000000E+00  0.00000000000E+00  0.66460459314E+03  0.66460459314E+03  0.00000000000E+00 0.  1.
         21   -1    0    0  501  502 -0.00000000000E+00 -0.00000000000E+00 -0.10871425587E+03  0.10871425587E+03  0.00000000000E+00 0.  1.
         25    1    1    2    0    0 -0.13630113467E+02 -0.12871794338E+03  0.16314516159E+03  0.24288975419E+03  0.12500000000E+03 0.  0.
         25    1    1    2    0    0 -0.60661823622E+01 -0.40492842686E+02  0.22507251548E+03  0.26068967394E+03  0.12500000000E+03 0.  0.
         25    1    1    2    0    0  0.19696295829E+02  0.16921078607E+03  0.16767266020E+03  0.26973942087E+03  0.12500000000E+03 0.  0.
</event>
<event>
 5    0  0.5822326E-005  0.4278275E+03  0.7546771E-02  0.1034548E+00
         21   -1    0    0  502  501  0.00000000000E+00  0.00000000000E+00  0.87547135812E+02  0.87547135812E+02  0.00000000000E+00 0. -1.
         21   -1    0    0  501  502 -0.00000000000E+00 -0.00000000000E+00 -0.20907182073E+04  0.20907182073E+04  0.00000000000E+00 0. -1.
         25    1    1    2    0    0 -0.32299028461E+02 -0.12495947722E+03 -0.63361220031E+02  0.19051966405E+03  0.12500000000E+03 0.  0.
         25    1    1    2    0    0  0.15192955315E+03 -0.17214274759E+02 -0.67640329057E+03  0.70464553633E+03  0.12500000000E+03 0.  0.
         25    1    1    2    0    0 -0.11963052468E+03  0.14217375198E+03 -0.12634065609E+04  0.12831001428E+04  0.12500000000E+03 0.  0.
</event>
<event>
 5    0  0.5822326E-005  0.5587626E+03  0.7546771E-02  0.9994858E-01
         21   -1    0    0  502  501  0.00000000000E+00  0.00000000000E+00  0.47120997920E+03  0.47120997920E+03  0.00000000000E+00 0. -1.
         21   -1    0    0  501  502 -0.00000000000E+00 -0.00000000000E+00 -0.66258274151E+03  0.66258274151E+03  0.00000000000E+00 0. -1.
         25    1    1    2    0    0  0.86007659551E+02 -0.13482411013E+03 -0.12438286417E+03  0.23805662157E+03  0.12500000000E+03 0.  0.
         25    1    1    2    0    0  0.20727942592E+03  0.40057110373E+03 -0.10268678200E+03  0.47915711907E+03  0.12500000000E+03 0.  0.
         25    1    1    2    0    0 -0.29328708547E+03 -0.26574699360E+03  0.35696883859E+02  0.41657898006E+03  0.12500000000E+03 0.  0.
</event>
<event>
 5    0  0.5822326E-005  0.3653417E+03  0.7546771E-02  0.1056489E+00
         21   -1    0    0  502  501  0.00000000000E+00  0.00000000000E+00  0.14274475414E+03  0.14274475414E+03  0.00000000000E+00 0. -1.
         21   -1    0    0  501  502 -0.00000000000E+00 -0.00000000000E+00 -0.93505767408E+03  0.93505767408E+03  0.00000000000E+00 0. -1.
         25    1    1    2    0    0 -0.47855111543E+02 -0.39299224698E+02 -0.27807380198E+02  0.14224201614E+03  0.12500000000E+03 0.  0.
         25    1    1    2    0    0  0.41448432476E+02 -0.16984180691E+03 -0.11920047473E+03  0.24575997458E+03  0.12500000000E+03 0.  0.
         25    1    1    2    0    0  0.64066790665E+01  0.20914103161E+03 -0.64530506501E+03  0.68980043749E+03  0.12500000000E+03 0.  0.
</event>
<event>
 5    0  0.5822326E-005  0.3922970E+03  0.7546771E-02  0.1046480E+00
         21   -1    0    0  502  501  0.00000000000E+00  0.00000000000E+00  0.10560876347E+03  0.10560876347E+03  0.00000000000E+00 0.  1.
         21   -1    0    0  501  502 -0.00000000000E+00 -0.00000000000E+00 -0.14572360691E+04  0.14572360691E+04  0.00000000000E+00 0.  1.
         25    1    1    2    0    0  0.24350286074E+02  0.36081229389E+02 -0.54100018534E+02  0.14299162056E+03  0.12500000000E+03 0.  0.
         25    1    1    2    0    0  0.10736805352E+03 -0.21764758242E+03 -0.38553892206E+03  0.47240197870E+03  0.12500000000E+03 0.  0.
         25    1    1    2    0    0 -0.13171833959E+03  0.18156635304E+03 -0.91198836503E+03  0.94745123331E+03  0.12500000000E+03 0.  0.
</event>
<event>
 5    0  0.5822326E-005  0.2311239E+03  0.7546771E-02  0.1125851E+00
         21   -1    0    0  502  501  0.00000000000E+00  0.00000000000E+00  0.97252622344E+03  0.97252622344E+03  0.00000000000E+00 0. -1.
         21   -1    0    0  501  502 -0.00000000000E+00 -0.00000000000E+00 -0.54927318105E+02  0.54927318105E+02  0.00000000000E+00 0. -1.
         25    1    1    2    0    0 -0.44953448209E+02 -0.11016411438E+01  0.26262825838E+03  0.29431382607E+03  0.12500000000E+03 0.  0.
         25    1    1    2    0    0 -0.14166875328E+02 -0.97222463550E+02  0.34150865265E+03  0.37670421767E+03  0.12500000000E+03 0.  0.
         25    1    1    2    0    0  0.59120323537E+02  0.98324104693E+02  0.31346199431E+03  0.35643549780E+03  0.12500000000E+03 0.  0.
</event>
<event>
 5    0  0.5822326E-005  0.2899245E+03  0.7546771E-02  0.1090389E+00
         21   -1    0    0  502  501  0.00000000000E+00  0.00000000000E+00  0.21340208790E+03  0.21340208790E+03  0.00000000000E+00 0. -1.
         21   -1    0    0  501  502 -0.00000000000E+00 -0.00000000000E+00 -0.39388644712E+03  0.39388644712E+03  0.00000000000E+00 0. -1.
         25    1    1    2    0    0 -0.75273389851E+02 -0.11897575132E+02 -0.90805435967E+02  0.17227380159E+03  0.12500000000E+03 0.  0.
         25    1    1    2    0    0  0.13287755835E+03  0.14429629950E+03 -0.70638071978E+02  0.24308970520E+03  0.12500000000E+03 0.  0.
         25    1    1    2    0    0 -0.57604168500E+02 -0.13239872436E+03 -0.19040851273E+02  0.19192502822E+03  0.12500000000E+03 0.  0.
</event>
<event>
 5    0  0.5822326E-005  0.2406080E+03  0.7546771E-02  0.1119388E+00
         21   -1    0    0  502  501  0.00000000000E+00  0.00000000000E+00  0.63709079642E+03  0.63709079642E+03  0.00000000000E+00 0.  1.
         21   -1    0    0  501  502 -0.00000000000E+00 -0.00000000000E+00 -0.90869612009E+02  0.90869612009E+02  0.00000000000E+00 0.  1.
         25    1    1    2    0    0  0.10270422842E+03 -0.91473140706E+01  0.12637516209E+03  0.20549334170E+03  0.12500000000E+03 0.  0.
         25    1    1    2    0    0  0.47359785142E+01 -0.18577942957E+02  0.26932192197E+03  0.29753464859E+03  0.12500000000E+03 0.  0.
         25    1    1    2    0    0 -0.10744020694E+03  0.27725257028E+02  0.15052410034E+03  0.22493241813E+03  0.12500000000E+03 0.  0.
</event>
<event>
 5    0  0.6120603E-005  0.3582433E+03  0.7546771E-02  0.1059282E+00
         21   -1    0    0  502  501  0.00000000000E+00  0.00000000000E+00  0.75466846101E+03  0.75466846101E+03  0.00000000000E+00 0.  1.
         21   -1    0    0  501  502 -0.00000000000E+00 -0.00000000000E+00 -0.17005916358E+03  0.17005916358E+03  0.00000000000E+00 0.  1.
         25    1    1    2    0    0 -0.16018971820E+03 -0.30652780128E+02  0.32715249592E+03  0.38633417443E+03  0.12500000000E+03 0.  0.
         25    1    1    2    0    0  0.11889259640E+03 -0.81958091936E+02 -0.39092126526E+02  0.19495069292E+03  0.12500000000E+03 0.  0.
         25    1    1    2    0    0  0.41297121792E+02  0.11261087206E+03  0.29654892803E+03  0.34344275723E+03  0.12500000000E+03 0.  0.
</event>
<event>
 5    0  0.5822326E-005  0.2675764E+03  0.7546771E-02  0.1102675E+00
         21   -1    0    0  502  501  0.00000000000E+00  0.00000000000E+00  0.34799345922E+03  0.34799345922E+03  0.00000000000E+00 0. -1.
         21   -1    0    0  501  502 -0.00000000000E+00 -0.00000000000E+00 -0.20574269490E+03  0.20574269490E+03  0.00000000000E+00 0. -1.
         25    1    1    2    0    0  0.77552466234E+02  0.12598548066E+03  0.68233094092E+02  0.20534722176E+03  0.12500000000E+03 0.  0.
         25    1    1    2    0    0 -0.73695610714E+02 -0.12544237754E+02  0.10121960412E+03  0.17736631359E+03  0.12500000000E+03 0.  0.
         25    1    1    2    0    0 -0.38568555198E+01 -0.11344124290E+03 -0.27201933889E+02  0.17102261878E+03  0.12500000000E+03 0.  0.
</event>
<event>
 5    0  0.5822326E-005  0.2965895E+03  0.7546771E-02  0.1086958E+00
         21   -1    0    0  502  501  0.00000000000E+00  0.00000000000E+00  0.59092461868E+02  0.59092461868E+02  0.00000000000E+00 0.  1.
         21   -1    0    0  501  502 -0.00000000000E+00 -0.00000000000E+00 -0.14886053842E+04  0.14886053842E+04  0.00000000000E+00 0.  1.
         25    1    1    2    0    0 -0.11924234712E+03  0.99765213492E+02 -0.55662811819E+03  0.59129662364E+03  0.12500000000E+03 0.  0.
         25    1    1    2    0    0  0.17320151005E+03 -0.10840724685E+03 -0.42100250459E+03  0.48437485807E+03  0.12500000000E+03 0.  0.
         25    1    1    2    0    0 -0.53959162928E+02  0.86420333562E+01 -0.45188229951E+03  0.47202636432E+03  0.12500000000E+03 0.  0.
</event>
<event>
 5    0  0.5822326E-005  0.4429544E+03  0.7546771E-02  0.1029844E+00
         21   -1    0    0  502  501  0.00000000000E+00  0.00000000000E+00  0.81192538008E+02  0.81192538008E+02  0.00000000000E+00 0.  1.
         21   -1    0    0  501  502 -0.00000000000E+00 -0.00000000000E+00 -0.24165842939E+04  0.24165842939E+04  0.00000000000E+00 0.  1.
         25    1    1    2    0    0  0.13405561832E+03 -0.97414766445E+01 -0.71884274893E+03  0.74190680201E+03  0.12500000000E+03 0.  0.
         25    1    1    2    0    0 -0.18478400779E+03  0.29264490706E+03 -0.77721939626E+03  0.85993090483E+03  0.12500000000E+03 0.  0.
         25    1    1    2    0    0  0.50728389469E+02 -0.28290343041E+03 -0.83932961073E+03  0.89593912510E+03  0.12500000000E+03 0.  0.
</event>
<event>
 5    0  0.5822326E-005  0.4656902E+03  0.7546771E-02  0.1023144E+00
         21   -1    0    0  502  501  0.00000000000E+00  0.00000000000E+00  0.32137597247E+03  0.32137597247E+03  0.00000000000E+00 0.  1.
         21   -1    0    0  501  502 -0.00000000000E+00 -0.00000000000E+00 -0.67480882197E+03  0.67480882197E+03  0.00000000000E+00 0.  1.
         25    1    1    2    0    0 -0.10582758387E+03 -0.79368293591E+02 -0.37940733885E+03  0.42080129789E+03  0.12500000000E+03 0.  0.
         25    1    1    2    0    0  0.33125682701E+02  0.77022341535E+02  0.25991372010E+03  0.30034961935E+03  0.12500000000E+03 0.  0.
         25    1    1    2    0    0  0.72701901166E+02  0.23459520557E+01 -0.23393923074E+03  0.27503387719E+03  0.12500000000E+03 0.  0.
</event>
<event>
 5    0  0.5822326E-005  0.4893146E+03  0.7546771E-02  0.1016606E+00
         21   -1    0    0  502  501  0.00000000000E+00  0.00000000000E+00  0.22791462514E+03  0.22791462514E+03  0.00000000000E+00 0.  1.
         21   -1    0    0  501  502 -0.00000000000E+00 -0.00000000000E+00 -0.10505195614E+04  0.10505195614E+04  0.00000000000E+00 0.  1.
         25    1    1    2    0    0  0.41216160141E+03  0.69958618490E+02 -0.36986382869E+03  0.57201017976E+03  0.12500000000E+03 0.  0.
         25    1    1    2    0    0 -0.19495472660E+03 -0.34219767416E+01 -0.36577667054E+03  0.43293952009E+03  0.12500000000E+03 0.  0.
         25    1    1    2    0    0 -0.21720687481E+03 -0.66536641749E+02 -0.86964437067E+02  0.27348448672E+03  0.12500000000E+03 0.  0.
</event>
<event>
 5    0  0.5822326E-005  0.3403222E+03  0.7546771E-02  0.1066659E+00
         21   -1    0    0  502  501  0.00000000000E+00  0.00000000000E+00  0.34207213717E+03  0.34207213717E+03  0.00000000000E+00 0. -1.
         21   -1    0    0  501  502 -0.00000000000E+00 -0.00000000000E+00 -0.33858121010E+03  0.33858121010E+03  0.00000000000E+00 0. -1.
         25    1    1    2    0    0  0.53734306701E+01  0.14099078035E+03  0.16998121124E+03  0.25382254840E+03  0.12500000000E+03 0.  0.
         25    1    1    2    0    0 -0.10715285113E+03 -0.87880217080E+02 -0.17642853624E+03  0.25682035445E+03  0.12500000000E+03 0.  0.
         25    1    1    2    0    0  0.10177942046E+03 -0.53110563274E+02  0.99382520633E+01  0.17001044443E+03  0.12500000000E+03 0.  0.
</event>
<event>
 5    0  0.5822326E-005  0.2491774E+03  0.7546771E-02  0.1113826E+00
         21   -1    0    0  502  501  0.00000000000E+00  0.00000000000E+00  0.34184188741E+04  0.34184188741E+04  0.00000000000E+00 0. -1.
         21   -1    0    0  501  502 -0.00000000000E+00 -0.00000000000E+00 -0.18163190747E+02  0.18163190747E+02  0.00000000000E+00 0. -1.
         25    1    1    2    0    0 -0.14385256707E+03  0.34929453758E+00  0.10201786708E+04  0.10378261913E+04  0.12500000000E+03 0.  0.
         25    1    1    2    0    0  0.10806399708E+03 -0.22429781823E+02  0.13645814193E+04  0.13747321093E+04  0.12500000000E+03 0.  0.
         25    1    1    2    0    0  0.35788569993E+02  0.22080487285E+02  0.10154955933E+04  0.10240237642E+04  0.12500000000E+03 0.  0.
</event>
<event>
 5    0  0.5822326E-005  0.3132169E+03  0.7546771E-02  0.1078814E+00
         21   -1    0    0  502  501  0.00000000000E+00  0.00000000000E+00  0.10441363751E+04  0.10441363751E+04  0.00000000000E+00 0.  1.
         21   -1    0    0  501  502 -0.00000000000E+00 -0.00000000000E+00 -0.93957885474E+02  0.93957885474E+02  0.00000000000E+00 0.  1.
         25    1    1    2    0    0  0.80289861928E+02  0.17231318505E+00  0.75003091045E+03  0.76460307235E+03  0.12500000000E+03 0.  0.
         25    1    1    2    0    0 -0.43111626345E+02  0.25111196815E+02  0.19949440135E+03  0.24064953916E+03  0.12500000000E+03 0.  0.
         25    1    1    2    0    0 -0.37178235583E+02 -0.25283510000E+02  0.65317781548E+00  0.13284164904E+03  0.12500000000E+03 0.  0.
</event>
<event>
 5    0  0.5822326E-005  0.2430750E+03  0.7546771E-02  0.1117761E+00
         21   -1    0    0  502  501  0.00000000000E+00  0.00000000000E+00  0.70926827616E+03  0.70926827616E+03  0.00000000000E+00 0.  1.
         21   -1    0    0  501  502 -0.00000000000E+00 -0.00000000000E+00 -0.83304779934E+02  0.83304779934E+02  0.00000000000E+00 0.  1.
         25    1    1    2    0    0 -0.71966829373E+02  0.92781993735E-01  0.20796006365E+03  0.25308421762E+03  0.12500000000E+03 0.  0.
         25    1    1    2    0    0  0.14842143998E+03 -0.21741659542E+01  0.25192625832E+03  0.31800234351E+03  0.12500000000E+03 0.  0.
         25    1    1    2    0    0 -0.76454610607E+02  0.20813839605E+01  0.16607717426E+03  0.22148649497E+03  0.12500000000E+03 0.  0.
</event>
<event>
 5    0  0.5822326E-005  0.2342274E+03  0.7546771E-02  0.1123699E+00
         21   -1    0    0  502  501  0.00000000000E+00  0.00000000000E+00  0.11768920828E+03  0.11768920828E+03  0.00000000000E+00 0.  1.
         21   -1    0    0  501  502 -0.00000000000E+00 -0.00000000000E+00 -0.46616397094E+03  0.46616397094E+03  0.00000000000E+00 0.  1.
         25    1    1    2    0    0 -0.10670478865E+03  0.60193812530E+02 -0.17075168693E+03  0.24452064448E+03  0.12500000000E+03 0.  0.
         25    1    1    2    0    0  0.60580416321E+02 -0.54398504422E+02 -0.57816800232E+02  0.15999052008E+03  0.12500000000E+03 0.  0.
         25    1    1    2    0    0  0.46124372333E+02 -0.57953081076E+01 -0.11990627551E+03  0.17934201467E+03  0.12500000000E+03 0.  0.
</event>
<event>
 5    0  0.5822326E-005  0.2113856E+03  0.7546771E-02  0.1140473E+00
         21   -1    0    0  502  501  0.00000000000E+00  0.00000000000E+00  0.24292726478E+04  0.24292726478E+04  0.00000000000E+00 0. -1.
         21   -1    0    0  501  502 -0.00000000000E+00 -0.00000000000E+00 -0.18393925424E+02  0.18393925424E+02  0.00000000000E+00 0. -1.
         25    1    1    2    0    0  0.56775767966E+02 -0.36544924242E+02  0.71207056424E+03  0.72610502530E+03  0.12500000000E+03 0.  0.
         25    1    1    2    0    0 -0.66803762297E+02  0.43917510995E+02  0.10787481498E+04  0.10889049826E+04  0.12500000000E+03 0.  0.
         25    1    1    2    0    0  0.10027994331E+02 -0.73725867529E+01  0.62006000827E+03  0.63265656526E+03  0.12500000000E+03 0.  0.
</event>
<event>
 5    0  0.5822326E-005  0.3823915E+03  0.7546771E-02  0.1050053E+00
         21   -1    0    0  502  501  0.00000000000E+00  0.00000000000E+00  0.26623198746E+03  0.26623198746E+03  0.00000000000E+00 0. -1.
         21   -1    0    0  501  502 -0.00000000000E+00 -0.00000000000E+00 -0.54923258359E+03  0.54923258359E+03  0.00000000000E+00 0. -1.
         25    1    1    2    0    0  0.19928501046E+02 -0.29702404645E+03 -0.15915921653E+03  0.35996817294E+03  0.12500000000E+03 0.  0.
         25    1    1    2    0    0 -0.34462514099E+02  0.24434155058E+03 -0.15282976011E+03  0.31602593848E+03  0.12500000000E+03 0.  0.
         25    1    1    2    0    0  0.14534013052E+02  0.52682495868E+02  0.28988380516E+02  0.13947045964E+03  0.12500000000E+03 0.  0.
</event>
<event>
 5    0  0.5822326E-005  0.2647625E+03  0.7546771E-02  0.1104315E+00
         21   -1    0    0  502  501  0.00000000000E+00  0.00000000000E+00  0.10990005172E+04  0.10990005172E+04  0.00000000000E+00 0. -1.
         21   -1    0    0  501  502 -0.00000000000E+00 -0.00000000000E+00 -0.63784473041E+02  0.63784473041E+02  0.00000000000E+00 0. -1.
         25    1    1    2    0    0  0.70503909023E+02  0.44899722165E+02  0.23412189504E+03  0.27825320839E+03  0.12500000000E+03 0.  0.
         25    1    1    2    0    0 -0.47756260619E+02  0.10120864866E+03  0.49179720826E+03  0.51962808339E+03  0.12500000000E+03 0.  0.
         25    1    1    2    0    0 -0.22747648404E+02 -0.14610837082E+03  0.30929694082E+03  0.36490369844E+03  0.12500000000E+03 0.  0.
</event>
<event>
 5    0  0.6804098E-005  0.3350127E+03  0.7546771E-02  0.1068940E+00
         21   -1    0    0  502  501  0.00000000000E+00  0.00000000000E+00  0.22865460369E+03  0.22865460369E+03  0.00000000000E+00 0. -1.
         21   -1    0    0  501  502 -0.00000000000E+00 -0.00000000000E+00 -0.49084304640E+03  0.49084304640E+03  0.00000000000E+00 0. -1.
         25    1    1    2    0    0  0.13622679515E+03 -0.82426469666E+02 -0.17587211425E+03  0.26815641553E+03  0.12500000000E+03 0.  0.
         25    1    1    2    0    0 -0.30754617860E+02  0.11925563693E+03  0.98972845314E+02  0.20146557415E+03  0.12500000000E+03 0.  0.
         25    1    1    2    0    0 -0.10547217729E+03 -0.36829167261E+02 -0.18528917378E+03  0.24987566041E+03  0.12500000000E+03 0.  0.
</event>
<event>
 5    0  0.5822326E-005  0.3467077E+03  0.7546771E-02  0.1063974E+00
         21   -1    0    0  502  501  0.00000000000E+00  0.00000000000E+00  0.63656461068E+03  0.63656461068E+03  0.00000000000E+00 0.  1.
         21   -1    0    0  501  502 -0.00000000000E+00 -0.00000000000E+00 -0.18883588597E+03  0.18883588597E+03  0.00000000000E+00 0.  1.
         25    1    1    2    0    0 -0.36385005097E+02  0.30322521412E+02  0.19089426981E+03  0.23304279896E+03  0.12500000000E+03 0.  0.
         25    1    1    2    0    0  0.45155385482E+02  0.97030461220E+02  0.35298993606E+03  0.38946221152E+03  0.12500000000E+03 0.  0.
         25    1    1    2    0    0 -0.87703803847E+01 -0.12735298263E+03 -0.96155481147E+02  0.20289548618E+03  0.12500000000E+03 0.  0.
</event>
<event>
 5    0  0.5822326E-005  0.3540278E+03  0.7546771E-02  0.1060974E+00
         21   -1    0    0  502  501  0.00000000000E+00  0.00000000000E+00  0.20294344701E+04  0.20294344701E+04  0.00000000000E+00 0.  1.
         21   -1    0    0  501  502 -0.00000000000E+00 -0.00000000000E+00 -0.61758931711E+02  0.61758931711E+02  0.00000000000E+00 0.  1.
         25    1    1    2    0    0 -0.26472236115E+03  0.11797629897E+03  0.92753950760E+03  0.97977082717E+03  0.12500000000E+03 0.  0.
         25    1    1    2    0    0  0.89118233329E+02 -0.50501318583E+02  0.51534150952E+03  0.54008732084E+03  0.12500000000E+03 0.  0.
         25    1    1    2    0    0  0.17560412783E+03 -0.67474980388E+02  0.52479452125E+03  0.57133525378E+03  0.12500000000E+03 0.  0.
</event>
<event>
 5    0  0.5822326E-005  0.2414753E+03  0.7546771E-02  0.1118814E+00
         21   -1    0    0  502  501  0.00000000000E+00  0.00000000000E+00  0.39858697412E+03  0.39858697412E+03  0.00000000000E+00 0.  1.
         21   -1    0    0  501  502 -0.00000000000E+00 -0.00000000000E+00 -0.14629263645E+03  0.14629263645E+03  0.00000000000E+00 0.  1.
         25    1    1    2    0    0 -0.51347862762E+02  0.46150771699E+02  0.11331517724E+03  0.18229598496E+03  0.12500000000E+03 0.  0.
         25    1    1    2    0    0  0.12661881599E+03 -0.33603990398E+02  0.11413204862E+03  0.21403896200E+03  0.12500000000E+03 0.  0.
         25    1    1    2    0    0 -0.75270953229E+02 -0.12546781301E+02  0.24847111815E+02  0.14854466361E+03  0.12500000000E+03 0.  0.
</event>
<event>
 5    0  0.5822326E-005  0.3012274E+03  0.7546771E-02  0.1084629E+00
         21   -1    0    0  502  501  0.00000000000E+00  0.00000000000E+00  0.12533942964E+03  0.12533942964E+03  0.00000000000E+00 0.  1.
         21   -1    0    0  501  502 -0.00000000000E+00 -0.00000000000E+00 -0.72393790123E+03  0.72393790123E+03  0.00000000000E+00 0.  1.
         25    1    1    2    0    0  0.13307482963E+03  0.33431955240E+02 -0.11327770520E+03  0.21744756703E+03  0.12500000000E+03 0.  0.
         25    1    1    2    0    0 -0.19473954059E+03  0.48921774441E+02 -0.23280623962E+03  0.33187433449E+03  0.12500000000E+03 0.  0.
         25    1    1    2    0    0  0.61664710968E+02 -0.82353729681E+02 -0.25251452676E+03  0.29995542935E+03  0.12500000000E+03 0.  0.
</event>
<event>
 5    0  0.5822326E-005  0.5323649E+03  0.7546771E-02  0.1005660E+00
         21   -1    0    0  502  501  0.00000000000E+00  0.00000000000E+00  0.44517341622E+03  0.44517341622E+03  0.00000000000E+00 0. -1.
         21   -1    0    0  501  502 -0.00000000000E+00 -0.00000000000E+00 -0.63663368161E+03  0.63663368161E+03  0.00000000000E+00 0. -1.
         25    1    1    2    0    0 -0.32891815149E+03 -0.75309614861E+02 -0.30785173078E+03  0.47355715243E+03  0.12500000000E+03 0.  0.
         25    1    1    2    0    0  0.50537122934E+02  0.21019808381E+03  0.11421152627E+03  0.27460245440E+03  0.12500000000E+03 0.  0.
         25    1    1    2    0    0  0.27838102856E+03 -0.13488846895E+03  0.21799391152E+01  0.33364749100E+03  0.12500000000E+03 0.  0.
</event>
<event>
 5    0  0.5822326E-005  0.2208418E+03  0.7546771E-02  0.1133257E+00
         21   -1    0    0  502  501  0.00000000000E+00  0.00000000000E+00  0.10203102571E+03  0.10203102571E+03  0.00000000000E+00 0. -1.
         21   -1    0    0  501  502 -0.00000000000E+00 -0.00000000000E+00 -0.47800267995E+03  0.47800267995E+03  0.00000000000E+00 0. -1.
         25    1    1    2    0    0  0.17777380725E+02  0.98638052852E+01 -0.62270645347E+01  0.12679552931E+03  0.12500000000E+03 0.  0.
         25    1    1    2    0    0  0.54213428655E+01 -0.20093840999E+02 -0.23941028859E+03  0.27087901300E+03  0.12500000000E+03 0.  0.
         25    1    1    2    0    0 -0.23198723591E+02  0.10230035714E+02 -0.13033430112E+03  0.18235916334E+03  0.12500000000E+03 0.  0.
</event>
<event>
 5    0  0.5822326E-005  0.2312385E+03  0.7546771E-02  0.1125771E+00
         21   -1    0    0  502  501  0.00000000000E+00  0.00000000000E+00  0.36874058637E+03  0.36874058637E+03  0.00000000000E+00 0.  1.
         21   -1    0    0  501  502 -0.00000000000E+00 -0.00000000000E+00 -0.14501046515E+03  0.14501046515E+03  0.00000000000E+00 0.  1.
         25    1    1    2    0    0  0.20432575288E+02 -0.41720428967E+02  0.41356979447E+02  0.13961906773E+03  0.12500000000E+03 0.  0.
         25    1    1    2    0    0  0.39111765564E+02  0.57616342339E+02 -0.18876572195E+01  0.14310114032E+03  0.12500000000E+03 0.  0.
         25    1    1    2    0    0 -0.59544340853E+02 -0.15895913371E+02  0.18426079899E+03  0.23103084347E+03  0.12500000000E+03 0.  0.
</event>
<event>
 5    0  0.5822326E-005  0.3781130E+03  0.7546771E-02  0.1051633E+00
         21   -1    0    0  502  501  0.00000000000E+00  0.00000000000E+00  0.68199003554E+03  0.68199003554E+03  0.00000000000E+00 0. -1.
         21   -1    0    0  501  502 -0.00000000000E+00 -0.00000000000E+00 -0.20963571871E+03  0.20963571871E+03  0.00000000000E+00 0. -1.
         25    1    1    2    0    0  0.19302016669E+03 -0.21521853283E+03  0.38514468864E+03  0.49753113753E+03  0.12500000000E+03 0.  0.
         25    1    1    2    0    0 -0.11268762349E+03  0.10008312423E+03  0.34022449593E+02  0.19874018044E+03  0.12500000000E+03 0.  0.
         25    1    1    2    0    0 -0.80332543200E+02  0.11513540859E+03  0.53187178597E+02  0.19535443628E+03  0.12500000000E+03 0.  0.
</event>
<event>
 5    0  0.5822326E-005  0.3783157E+03  0.7546771E-02  0.1051558E+00
         21   -1    0    0  502  501  0.00000000000E+00  0.00000000000E+00  0.17547440476E+03  0.17547440476E+03  0.00000000000E+00 0. -1.
         21   -1    0    0  501  502 -0.00000000000E+00 -0.00000000000E+00 -0.81563316301E+03  0.81563316301E+03  0.00000000000E+00 0. -1.
         25    1    1    2    0    0  0.18264504123E+03 -0.11916608373E+02 -0.57300148990E+03  0.61437523068E+03  0.12500000000E+03 0.  0.
         25    1    1    2    0    0 -0.19386953024E+03 -0.38068237226E+02 -0.60414284974E+02  0.24147354156E+03  0.12500000000E+03 0.  0.
         25    1    1    2    0    0  0.11224489017E+02  0.49984845599E+02 -0.67429833698E+01  0.13525879553E+03  0.12500000000E+03 0.  0.
</event>
<event>
 5    0  0.5822326E-005  0.3616419E+03  0.7546771E-02  0.1057936E+00
         21   -1    0    0  502  501  0.00000000000E+00  0.00000000000E+00  0.37769942234E+03  0.37769942234E+03  0.00000000000E+00 0.  1.
         21   -1    0    0  501  502 -0.00000000000E+00 -0.00000000000E+00 -0.34626703541E+03  0.34626703541E+03  0.00000000000E+00 0.  1.
         25    1    1    2    0    0  0.89405278443E+02 -0.61045647895E+02 -0.26642992777E+02  0.16749544473E+03  0.12500000000E+03 0.  0.
         25    1    1    2    0    0 -0.12698084759E+03  0.17642733516E+03  0.20864875066E+03  0.32620552018E+03  0.12500000000E+03 0.  0.
         25    1    1    2    0    0  0.37575569149E+02 -0.11538168727E+03 -0.15057337095E+03  0.23026549284E+03  0.12500000000E+03 0.  0.
</event>
<event>
 5    0  0.5822326E-005  0.4013741E+03  0.7546771E-02  0.1043305E+00
         21   -1    0    0  502  501  0.00000000000E+00  0.00000000000E+00  0.14376093029E+03  0.14376093029E+03  0.00000000000E+00 0. -1.
         21   -1    0    0  501  502 -0.00000000000E+00 -0.00000000000E+00 -0.11206187322E+04  0.11206187322E+04  0.00000000000E+00 0. -1.
         25    1    1    2    0    0  0.64636634132E+02 -0.37571824875E+02 -0.21991685979E+03  0.26377634791E+03  0.12500000000E+03 0.  0.
         25    1    1    2    0    0 -0.53933955706E+02 -0.21743887229E+03 -0.64677858271E+03  0.69579887167E+03  0.12500000000E+03 0.  0.
         25    1    1    2    0    0 -0.10702678425E+02  0.25501069716E+03 -0.11016235941E+03  0.30480444292E+03  0.12500000000E+03 0.  0.
</event>
<event>
 5    0  0.5822326E-005  0.2636470E+03  0.7546771E-02  0.1104972E+00
         21   -1    0    0  502  501  0.00000000000E+00  0.00000000000E+00  0.81480546820E+03  0.81480546820E+03  0.00000000000E+00 0. -1.
         21   -1    0    0  501  502 -0.00000000000E+00 -0.00000000000E+00 -0.85308355738E+02  0.85308355738E+02  0.00000000000E+00 0. -1.
         25    1    1    2    0    0 -0.13569916617E+03 -0.24269361325E+01  0.26764709805E+03  0.32508479327E+03  0.12500000000E+03 0.  0.
         25    1    1    2    0    0  0.86588382689E+02  0.12601483121E+02  0.84620488589E+02  0.17447628057E+03  0.12500000000E+03 0.  0.
         25    1    1    2    0    0  0.49110783481E+02 -0.10174546988E+02  0.37722952583E+03  0.40055275010E+03  0.12500000000E+03 0.  0.
</event>
<event>
 5    0  0.5822326E-005  0.2440513E+03  0.7546771E-02  0.1117123E+00
         21   -1    0    0  502  501  0.00000000000E+00  0.00000000000E+00  0.78826331769E+03  0.78826331769E+03  0.00000000000E+00 0. -1.
         21   -1    0    0  501  502 -0.00000000000E+00 -0.00000000000E+00 -0.75559834628E+02  0.75559834628E+02  0.00000000000E+00 0. -1.
         25    1    1    2    0    0  0.10505061082E+03  0.34894391754E+02  0.14386018406E+03  0.22039510423E+03  0.12500000000E+03 0.  0.
         25    1    1    2    0    0 -0.33270522950E+02 -0.19794791417E+02  0.14415620723E+03  0.19469148299E+03  0.12500000000E+03 0.  0.
         25    1    1    2    0    0 -0.71780087869E+02 -0.15099600337E+02  0.42468709177E+03  0.44873656510E+03  0.12500000000E+03 0.  0.
</event>
<event>
 5    0  0.5822326E-005  0.2258791E+03  0.7546771E-02  0.1129574E+00
         21   -1    0    0  502  501  0.00000000000E+00  0.00000000000E+00  0.14567337826E+03  0.14567337826E+03  0.00000000000E+00 0.  1.
         21   -1    0    0  501  502 -0.00000000000E+00 -0.00000000000E+00 -0.35024492688E+03  0.35024492688E+03  0.00000000000E+00 0.  1.
         25    1    1    2    0    0  0.67733596371E+02 -0.27018944326E+02 -0.13083257398E+03  0.19508978918E+03  0.12500000000E+03 0.  0.
         25    1    1    2    0    0 -0.91788635015E+01  0.13164936471E+02  0.27619655457E+02  0.12901710141E+03  0.12500000000E+03 0.  0.
         25    1    1    2    0    0 -0.58554732869E+02  0.13854007855E+02 -0.10135863010E+03  0.17181141456E+03  0.12500000000E+03 0.  0.
</event>
<event>
 5    0  0.5822326E-005  0.7503264E+03  0.7546771E-02  0.9634838E-01
         21   -1    0    0  502  501  0.00000000000E+00  0.00000000000E+00  0.96777173886E+03  0.96777173886E+03  0.00000000000E+00 0.  1.
         21   -1    0    0  501  502 -0.00000000000E+00 -0.00000000000E+00 -0.58173816503E+03  0.58173816503E+03  0.00000000000E+00 0.  1.
         25    1    1    2    0    0 -0.37482918387E+02 -0.13927043406E+03  0.20907304293E+03  0.28308613575E+03  0.12500000000E+03 0.  0.
         25    1    1    2    0    0 -0.57819862514E+03  0.17166490600E+03  0.16312318527E+03  0.63719436881E+03  0.12500000000E+03 0.  0.
         25    1    1    2    0    0  0.61568154353E+03 -0.32394471942E+02  0.13837345628E+02  0.62922939933E+03  0.12500000000E+03 0.  0.
</event>
<event>
 5    0  0.5822326E-005  0.3718133E+03  0.7546771E-02  0.1054002E+00
         21   -1    0    0  502  501  0.00000000000E+00  0.00000000000E+00  0.13847800068E+04  0.13847800068E+04  0.00000000000E+00 0.  1.
         21   -1    0    0  501  502 -0.00000000000E+00 -0.00000000000E+00 -0.99831821907E+02  0.99831821907E+02  0.00000000000E+00 0.  1.
         25    1    1    2    0    0  0.15419791989E+03  0.27244672435E+01  0.34403254703E+03  0.39719996807E+03  0.12500000000E+03 0.  0.
         25    1    1    2    0    0 -0.52098866037E+02  0.45943734206E+02  0.12202987300E+02  0.14352362682E+03  0.12500000000E+03 0.  0.
         25    1    1    2    0    0 -0.10209905385E+03 -0.48668201449E+02  0.92871265056E+03  0.94388823382E+03  0.12500000000E+03 0.  0.
</event>
<event>
 5    0  0.5822326E-005  0.4421962E+03  0.7546771E-02  0.1030075E+00
         21   -1    0    0  502  501  0.00000000000E+00  0.00000000000E+00  0.77758602175E+02  0.77758602175E+02  0.00000000000E+00 0.  1.
         21   -1    0    0  501  502 -0.00000000000E+00 -0.00000000000E+00 -0.25146731073E+04  0.25146731073E+04  0.00000000000E+00 0.  1.
         25    1    1    2    0    0 -0.19468899001E+03  0.29234751822E+03 -0.11564680954E+04  0.12150779111E+04  0.12500000000E+03 0.  0.
         25    1    1    2    0    0 -0.92059219486E-01  0.29723520024E+01 -0.22813132928E+03  0.26014947002E+03  0.12500000000E+03 0.  0.
         25    1    1    2    0    0  0.19478104922E+03 -0.29531987022E+03 -0.10523150804E+04  0.11172043284E+04  0.12500000000E+03 0.  0.
</event>
<event>
 5    0  0.5822326E-005  0.2341313E+03  0.7546771E-02  0.1123765E+00
         21   -1    0    0  502  501  0.00000000000E+00  0.00000000000E+00  0.13217399772E+04  0.13217399772E+04  0.00000000000E+00 0.  1.
         21   -1    0    0  501  502 -0.00000000000E+00 -0.00000000000E+00 -0.41473705360E+02  0.41473705360E+02  0.00000000000E+00 0.  1.
         25    1    1    2    0    0 -0.78786115372E+02  0.27954439768E+02  0.48939454086E+03  0.51197726444E+03  0.12500000000E+03 0.  0.
         25    1    1    2    0    0  0.34983291701E+02 -0.80091368351E+02  0.55651437526E+03  0.57703700735E+03  0.12500000000E+03 0.  0.
         25    1    1    2    0    0  0.43802823671E+02  0.52136928584E+02  0.23435735568E+03  0.27419941073E+03  0.12500000000E+03 0.  0.
</event>
<event>
 5    0  0.5822326E-005  0.2944451E+03  0.7546771E-02  0.1088051E+00
         21   -1    0    0  502  501  0.00000000000E+00  0.00000000000E+00  0.14594005175E+04  0.14594005175E+04  0.00000000000E+00 0.  1.
         21   -1    0    0  501  502 -0.00000000000E+00 -0.00000000000E+00 -0.59406537447E+02  0.59406537447E+02  0.00000000000E+00 0.  1.
         25    1    1    2    0    0 -0.13709971054E+03  0.16705027931E+03  0.72868151678E+03  0.77026221467E+03  0.12500000000E+03 0.  0.
         25    1    1    2    0    0  0.57096102841E+02 -0.84455074421E+02  0.32844402792E+03  0.36591406645E+03  0.12500000000E+03 0.  0.
         25    1    1    2    0    0  0.80003607696E+02 -0.82595204893E+02  0.34286843538E+03  0.38263077384E+03  0.12500000000E+03 0.  0.
</event>
<event>
 5    0  0.5822326E-005  0.2640137E+03  0.7546771E-02  0.1104755E+00
         21   -1    0    0  502  501  0.00000000000E+00  0.00000000000E+00  0.11319599533E+03  0.11319599533E+03  0.00000000000E+00 0.  1.
         21   -1    0    0  501  502 -0.00000000000E+00 -0.00000000000E+00 -0.61577494889E+03  0.61577494889E+03  0.00000000000E+00 0.  1.
         25    1    1    2    0    0  0.13990672028E+03 -0.32054751920E+02 -0.21489331478E+03  0.28706364144E+03  0.12500000000E+03 0.  0.
         25    1    1    2    0    0 -0.89042341716E+01  0.22250882945E+02 -0.37065497175E+02  0.13256409114E+03  0.12500000000E+03 0.  0.
         25    1    1    2    0    0 -0.13100248611E+03  0.98038689748E+01 -0.25062014160E+03  0.30934321164E+03  0.12500000000E+03 0.  0.
</event>
<event>
 5    0  0.5822326E-005  0.2543989E+03  0.7546771E-02  0.1110556E+00
         21   -1    0    0  502  501  0.00000000000E+00  0.00000000000E+00  0.21041776648E+03  0.21041776648E+03  0.00000000000E+00 0.  1.
         21   -1    0    0  501  502 -0.00000000000E+00 -0.00000000000E+00 -0.30757283223E+03  0.30757283223E+03  0.00000000000E+00 0.  1.
         25    1    1    2    0    0 -0.28572478073E+02 -0.96240817550E+02 -0.31777944212E+02  0.16344270924E+03  0.12500000000E+03 0.  0.
         25    1    1    2    0    0  0.27839775733E+02  0.16176992827E+03 -0.25553802579E+02  0.20790035986E+03  0.12500000000E+03 0.  0.
         25    1    1    2    0    0  0.73270234014E+00 -0.65529110718E+02 -0.39823318960E+02  0.14664752960E+03  0.12500000000E+03 0.  0.
</event>
<event>
 5    0  0.5822326E-005  0.2853643E+03  0.7546771E-02  0.1092795E+00
         21   -1    0    0  502  501  0.00000000000E+00  0.00000000000E+00  0.70727068356E+03  0.70727068356E+03  0.00000000000E+00 0. -1.
         21   -1    0    0  501  502 -0.00000000000E+00 -0.00000000000E+00 -0.11513668149E+03  0.11513668149E+03  0.00000000000E+00 0. -1.
         25    1    1    2    0    0 -0.52195026969E+01 -0.36916969748E+02  0.49376666211E+03  0.51070600396E+03  0.12500000000E+03 0.  0.
         25    1    1    2    0    0 -0.57782633702E+02  0.71976352448E+01  0.96998415283E+02  0.16859516979E+03  0.12500000000E+03 0.  0.
         25    1    1    2    0    0  0.63002136399E+02  0.29719334503E+02  0.13689246764E+01  0.14310619130E+03  0.12500000000E+03 0.  0.
</event>
<event>
 5    0  0.5822326E-005  0.3585930E+03  0.7546771E-02  0.1059142E+00
         21   -1    0    0  502  501  0.00000000000E+00  0.00000000000E+00  0.19174470136E+03  0.19174470136E+03  0.00000000000E+00 0. -1.
         21   -1    0    0  501  502 -0.00000000000E+00 -0.00000000000E+00 -0.67062578068E+03  0.67062578068E+03  0.00000000000E+00 0. -1.
         25    1    1    2    0    0 -0.96566887357E+01  0.33801264611E+02 -0.43114311264E+03  0.45027231838E+03  0.12500000000E+03 0.  0.
         25    1    1    2    0    0 -0.39335051880E+02 -0.13107328582E+03 -0.13061662695E+03  0.22674469299E+03  0.12500000000E+03 0.  0.
         25    1    1    2    0    0  0.48991740616E+02  0.97272021214E+02  0.82878660268E+02  0.18535347066E+03  0.12500000000E+03 0.  0.
</event>
<event>
 5    0  0.5822326E-005  0.5161033E+03  0.7546771E-02  0.1009659E+00
         21   -1    0    0  502  501  0.00000000000E+00  0.00000000000E+00  0.10671315855E+04  0.10671315855E+04  0.00000000000E+00 0. -1.
         21   -1    0    0  501  502 -0.00000000000E+00 -0.00000000000E+00 -0.24960616281E+03  0.24960616281E+03  0.00000000000E+00 0. -1.
         25    1    1    2    0    0 -0.24568655313E+03  0.29518305657E+03  0.42604085127E+02  0.40612193655E+03  0.12500000000E+03 0.  0.
         25    1    1    2    0    0  0.19376838338E+03 -0.23763862995E+03  0.54217616041E+03  0.63529386410E+03  0.12500000000E+03 0.  0.
         25    1    1    2    0    0  0.51918169751E+02 -0.57544426616E+02  0.23274517718E+03  0.27532194770E+03  0.12500000000E+03 0.  0.
</event>
<event>
 5    0  0.5822326E-005  0.2039245E+03  0.7546771E-02  0.1146470E+00
         21   -1    0    0  502  501  0.00000000000E+00  0.00000000000E+00  0.48206284302E+03  0.48206284302E+03  0.00000000000E+00 0.  1.
         21   -1    0    0  501  502 -0.00000000000E+00 -0.00000000000E+00 -0.86265112959E+02  0.86265112959E+02  0.00000000000E+00 0.  1.
         25    1    1    2    0    0 -0.22865335178E+02 -0.39407457507E+02  0.15399787980E+03  0.20350950406E+03  0.12500000000E+03 0.  0.
         25    1    1    2    0    0 -0.21928878398E+00  0.32359072550E+02  0.58769341284E+02  0.14186610990E+03  0.12500000000E+03 0.  0.
         25    1    1    2    0    0  0.23084623962E+02  0.70483849568E+01  0.18303050898E+03  0.22295234202E+03  0.12500000000E+03 0.  0.
</event>
<event>
 5    0  0.5822326E-005  0.2929418E+03  0.7546771E-02  0.1088823E+00
         21   -1    0    0  502  501  0.00000000000E+00  0.00000000000E+00  0.96073885631E+02  0.96073885631E+02  0.00000000000E+00 0.  1.
         21   -1    0    0  501  502 -0.00000000000E+00 -0.00000000000E+00 -0.89321746478E+03  0.89321746478E+03  0.00000000000E+00 0.  1.
         25    1    1    2    0    0  0.17196423242E+03 -0.16819399547E+02 -0.31581169386E+03  0.38107297912E+03  0.12500000000E+03 0.  0.
         25    1    1    2    0    0 -0.71286263932E+02 -0.79852459900E+02 -0.12877113675E+03  0.20896208373E+03  0.12500000000E+03 0.  0.
         25    1    1    2    0    0 -0.10067796849E+03  0.96671859447E+02 -0.35256074853E+03  0.39925628756E+03  0.12500000000E+03 0.  0.
</event>
