<event>
 6    0  0.1993420E+002  0.3673503E+03  0.7546771E-02  0.1055711E+00
         21   -1    0    0  503  502  0.00000000000E+00  0.00000000000E+00  0.47520660268E+03  0.47520660268E+03  0.00000000000E+00 0.  1.
          1   -1    0    0  505    0 -0.00000000000E+00 -0.00000000000E+00 -0.30839370582E+03  0.30839370582E+03  0.00000000000E+00 0.  1.
         21    1    1    2  503  501 -0.24118677295E+02 -0.21109352069E+02  0.79500102652E+01  0.33022992028E+02  0.00000000000E+00 0. -1.
         21    1    1    2  504  502  0.69288546184E+02 -0.34984820276E+02  0.82664125971E+02  0.11339399457E+03  0.00000000000E+00 0. -1.
         21    1    1    2  505  504  0.11811862989E+03 -0.24904386015E+03  0.92433869541E+02  0.29072130166E+03  0.00000000000E+00 0.  1.
          1    1    1    2  501    0 -0.16328849878E+03  0.30513803249E+03 -0.16235108917E+02  0.34646202024E+03  0.00000000000E+00 0.  1.
<scales pt_clust_3="32.05176" pt_clust_4="67.37529" pt_clust_5="67.37529" pt_clust_6="343.64240"></scales>
<clustering>
<clus scale="   32.052">  1  3  2 -1</clus>
<clus scale="   67.375">  4  5 -1 -1</clus>
<clus scale="  343.642">  2  6  1 -1</clus>
<clus scale="   32.052">  1  3  2 -1</clus>
</clustering>
</event>
<event>
 6    0  0.1993420E+002  0.2052931E+03  0.7546771E-02  0.1145349E+00
         21   -1    0    0  503  502  0.00000000000E+00  0.00000000000E+00  0.49466265368E+02  0.49466265368E+02  0.00000000000E+00 0.  1.
          2   -1    0    0  504    0 -0.00000000000E+00 -0.00000000000E+00 -0.27970066337E+04  0.27970066337E+04  0.00000000000E+00 0.  1.
         21    1    1    2  503  505 -0.38731876935E+02 -0.10982192965E+03 -0.14359751727E+03  0.18488175001E+03  0.00000000000E+00 0.  1.
         21    1    1    2  504  502  0.57620763172E+02  0.13127455748E+03 -0.88964783753E+03  0.90112509488E+03  0.00000000000E+00 0.  1.
         21    1    1    2  505  501 -0.69283776820E+02 -0.80958573156E+02 -0.10606715908E+03  0.15034884281E+03  0.00000000000E+00 0.  1.
          2    1    1    2  501    0  0.50394890584E+02  0.59505945323E+02 -0.16082278544E+04  0.16101172113E+04  0.00000000000E+00 0.  1.
<scales pt_clust_3="42.59198" pt_clust_4="200.40640" pt_clust_5="42.59198" pt_clust_6="77.97822"></scales>
<clustering>
<clus scale="   42.592">  3  5 -1 -1</clus>
<clus scale="   77.978">  2  6  1 -1</clus>
<clus scale="  200.406">  2  4  1 -1</clus>
<clus scale="  205.293">  1  3  2 -1</clus>
</clustering>
</event>
<event>
 6    0  0.1993420E+002  0.1847572E+03  0.7546771E-02  0.1163277E+00
         21   -1    0    0  503  502  0.00000000000E+00  0.00000000000E+00  0.13985233582E+03  0.13985233582E+03  0.00000000000E+00 0. -1.
          3   -1    0    0  505    0 -0.00000000000E+00 -0.00000000000E+00 -0.41816101898E+03  0.41816101898E+03  0.00000000000E+00 0.  1.
         21    1    1    2  503  501 -0.79147464668E+01 -0.34172067625E+02 -0.72088832534E+01  0.35809794961E+02  0.00000000000E+00 0.  1.
         21    1    1    2  504  502  0.98952671943E+02  0.29163312428E+02  0.22126972365E+02  0.10550702812E+03  0.00000000000E+00 0. -1.
         21    1    1    2  505  504  0.54382278043E+02  0.79081239984E+02 -0.19386095369E+02  0.97913713934E+02  0.00000000000E+00 0.  1.
          3    1    1    2  501    0 -0.14542020352E+03 -0.74072484788E+02 -0.27384067690E+03  0.31878281779E+03  0.00000000000E+00 0.  1.
<scales pt_clust_3="35.07668" pt_clust_4="74.26091" pt_clust_5="74.26091" pt_clust_6="167.30583"></scales>
<clustering>
<clus scale="   35.077">  1  3  2 -1</clus>
<clus scale="   74.261">  4  5 -1 -1</clus>
<clus scale="  167.306">  2  6  1 -1</clus>
<clus scale="   35.077">  1  3  2 -1</clus>
</clustering>
</event>
<event>
 6    0  0.1993420E+002  0.1795257E+03  0.7546771E-02  0.1168263E+00
         21   -1    0    0  504  502  0.00000000000E+00  0.00000000000E+00  0.56830692553E+02  0.56830692553E+02  0.00000000000E+00 0. -1.
          2   -1    0    0  503    0 -0.00000000000E+00 -0.00000000000E+00 -0.22945693629E+04  0.22945693629E+04  0.00000000000E+00 0. -1.
         21    1    1    2  503  502 -0.26634216865E+02 -0.15374209746E+02  0.80867183321E+01  0.31798472396E+02  0.00000000000E+00 0. -1.
         21    1    1    2  504  505  0.10595946371E+03 -0.67264611416E+02 -0.18410832486E+03  0.22281788793E+03  0.00000000000E+00 0. -1.
         21    1    1    2  505  501  0.35252768776E+02 -0.46084093264E+02 -0.46889512922E+02  0.74599784051E+02  0.00000000000E+00 0. -1.
          2    1    1    2  501    0 -0.11457801562E+03  0.12872291443E+03 -0.20148275509E+04  0.20221839111E+04  0.00000000000E+00 0. -1.
<scales pt_clust_3="30.75301" pt_clust_4="33.46462" pt_clust_5="33.46462" pt_clust_6="172.97697"></scales>
<clustering>
<clus scale="   30.753">  1  3  2 -1</clus>
<clus scale="   33.465">  4  5 -1 -1</clus>
<clus scale="  172.977">  2  6  1 -1</clus>
<clus scale="   30.753">  1  3  2 -1</clus>
</clustering>
</event>
<event>
 6    0  0.1993420E+002  0.1098046E+03  0.7546771E-02  0.1260932E+00
         21   -1    0    0  505  502  0.00000000000E+00  0.00000000000E+00  0.23567576105E+03  0.23567576105E+03  0.00000000000E+00 0.  1.
          2   -1    0    0  504    0 -0.00000000000E+00 -0.00000000000E+00 -0.41250457804E+03  0.41250457804E+03  0.00000000000E+00 0.  1.
         21    1    1    2  503  502  0.19441080004E+02 -0.26093404039E+02  0.94793363199E+02  0.10022276704E+03  0.00000000000E+00 0.  1.
         21    1    1    2  504  503  0.21288336434E+02 -0.59603088948E+02  0.17242726174E+02  0.65597508232E+02  0.00000000000E+00 0.  1.
         21    1    1    2  505  501 -0.52405982240E+02 -0.36077457221E+02  0.75076019608E+02  0.98409240493E+02  0.00000000000E+00 0.  1.
          2    1    1    2  501    0  0.11676565802E+02  0.12177395021E+03 -0.36394092597E+03  0.38395082333E+03  0.00000000000E+00 0.  1.
<scales pt_clust_3="32.53953" pt_clust_4="109.80457" pt_clust_5="66.09126" pt_clust_6="14000.00000"></scales>
<clustering>
<clus scale="   32.540">  1  3  2 -1</clus>
<clus scale="   66.091">  1  5  2 -1</clus>
<clus scale="  109.805">  1  4  2 -1</clus>
<clus scale="   32.540">  1  3  2 -1</clus>
</clustering>
</event>
<event>
 6    0  0.1993420E+002  0.2608387E+03  0.7546771E-02  0.1106640E+00
          2   -1    0    0  503    0 -0.00000000000E+00  0.00000000000E+00  0.27892864591E+03  0.27892864591E+03  0.00000000000E+00 0.  1.
         21   -1    0    0  505  502  0.00000000000E+00 -0.00000000000E+00 -0.65738774735E+03  0.65738774735E+03  0.00000000000E+00 0.  1.
         21    1    1    2  503  504 -0.40699333604E+02  0.33123618467E+02  0.91790872569E+01  0.53271620015E+02  0.00000000000E+00 0. -1.
         21    1    1    2  504  502  0.22102514272E+03  0.21307510388E+02 -0.12428674385E+03  0.25446673341E+03  0.00000000000E+00 0.  1.
         21    1    1    2  505  501 -0.27930894802E+03 -0.90650726753E+02 -0.37416893240E+03  0.47564002426E+03  0.00000000000E+00 0.  1.
          2    1    1    2  501    0  0.98983138907E+02  0.36219597898E+02  0.11081748756E+03  0.15293801558E+03  0.00000000000E+00 0.  1.
<scales pt_clust_3="52.47485" pt_clust_4="260.83865" pt_clust_5="14000.00000" pt_clust_6="94.22258"></scales>
<clustering>
<clus scale="   52.475">  1  3  2 -1</clus>
<clus scale="   94.223">  1  6  2 -1</clus>
<clus scale="  260.839">  1  4  2 -1</clus>
<clus scale="  260.839">  2  3  1 -1</clus>
</clustering>
</event>
<event>
 6    0  0.1993420E+002  0.1961444E+03  0.7546771E-02  0.1153033E+00
         21   -1    0    0  504  502  0.00000000000E+00  0.00000000000E+00  0.21683144177E+03  0.21683144177E+03  0.00000000000E+00 0. -1.
          2   -1    0    0  503    0 -0.00000000000E+00 -0.00000000000E+00 -0.22261894514E+04  0.22261894514E+04  0.00000000000E+00 0.  1.
         21    1    1    2  503  502 -0.16090094209E+03  0.56263198196E+02  0.12145470634E+03  0.20929860565E+03  0.00000000000E+00 0. -1.
         21    1    1    2  504  505  0.96553043328E+02 -0.35372181396E+02 -0.48593444598E+02  0.11373216014E+03  0.00000000000E+00 0.  1.
         21    1    1    2  505  501  0.11799236374E+03 -0.17794091049E+02 -0.17383382756E+03  0.21084835114E+03  0.00000000000E+00 0.  1.
          2    1    1    2  501    0 -0.53644464971E+02 -0.30969257498E+01 -0.19083854438E+04  0.19091417762E+04  0.00000000000E+00 0.  1.
<scales pt_clust_3="177.34253" pt_clust_4="82.55380" pt_clust_5="82.55380" pt_clust_6="53.73378"></scales>
<clustering>
<clus scale="   53.734">  2  6  1 -1</clus>
<clus scale="   82.554">  4  5 -1 -1</clus>
<clus scale="  177.343">  1  3  2 -1</clus>
<clus scale="  177.343">  1  3  2 -1</clus>
</clustering>
</event>
<event>
 6    0  0.1993420E+002  0.1340873E+03  0.7546771E-02  0.1221514E+00
         21   -1    0    0  501  502  0.00000000000E+00  0.00000000000E+00  0.71979397412E+02  0.71979397412E+02  0.00000000000E+00 0. -1.
          2   -1    0    0  504    0 -0.00000000000E+00 -0.00000000000E+00 -0.10352722112E+04  0.10352722112E+04  0.00000000000E+00 0. -1.
         21    1    1    2  503  502  0.34245875548E+02 -0.13159063206E+01  0.10455355570E+02  0.35830518578E+02  0.00000000000E+00 0. -1.
         21    1    1    2  504  505  0.36332697877E+02 -0.14205847105E+02 -0.33987084812E+02  0.51739665258E+02  0.00000000000E+00 0.  1.
         21    1    1    2  505  503  0.28664160409E+02 -0.56689911105E+02  0.79821021905E+01  0.64024167847E+02  0.00000000000E+00 0. -1.
          2    1    1    2  501    0 -0.99242733834E+02  0.72211664531E+02 -0.94774318670E+03  0.95565725689E+03  0.00000000000E+00 0. -1.
<scales pt_clust_3="34.27115" pt_clust_4="44.47464" pt_clust_5="44.47464" pt_clust_6="120.43752"></scales>
<clustering>
<clus scale="   34.271">  1  3  2 -1</clus>
<clus scale="   44.475">  4  5 -1 -1</clus>
<clus scale="  120.438">  2  6  1 -1</clus>
<clus scale="   34.271">  1  3  2 -1</clus>
</clustering>
</event>
<event>
 6    0  0.1993420E+002  0.6820741E+02  0.7546771E-02  0.1366297E+00
         21   -1    0    0  505  502  0.00000000000E+00  0.00000000000E+00  0.16767417852E+02  0.16767417852E+02  0.00000000000E+00 0. -1.
          2   -1    0    0  503    0 -0.00000000000E+00 -0.00000000000E+00 -0.29931059530E+04  0.29931059530E+04  0.00000000000E+00 0. -1.
         21    1    1    2  503  502 -0.36048175102E+02  0.59799689871E+02 -0.43396596487E+03  0.43954741781E+03  0.00000000000E+00 0.  1.
         21    1    1    2  504  501 -0.42951049212E+02 -0.41896056996E+02 -0.10490558563E+03  0.12085219947E+03  0.00000000000E+00 0. -1.
         21    1    1    2  505  504  0.18627593778E+02 -0.51044031317E+02 -0.12896186541E+03  0.13994157035E+03  0.00000000000E+00 0. -1.
          2    1    1    2  501    0  0.60371630535E+02  0.33140398441E+02 -0.23085051192E+04  0.23095321832E+04  0.00000000000E+00 0. -1.
<scales pt_clust_3="56.68551" pt_clust_4="14000.00000" pt_clust_5="54.33673" pt_clust_6="68.20741"></scales>
<clustering>
<clus scale="   54.337">  1  5  2 -1</clus>
<clus scale="   56.686">  1  3  2 -1</clus>
<clus scale="   68.207">  2  6  1 -1</clus>
<clus scale="   54.337">  1  3  2 -1</clus>
</clustering>
</event>
<event>
 6    0  0.1993420E+002  0.1758512E+03  0.7546771E-02  0.1171880E+00
          2   -1    0    0  502    0 -0.00000000000E+00  0.00000000000E+00  0.60547649169E+03  0.60547649169E+03  0.00000000000E+00 0.  1.
         21   -1    0    0  504  502  0.00000000000E+00 -0.00000000000E+00 -0.12861200925E+03  0.12861200925E+03  0.00000000000E+00 0.  1.
         21    1    1    2  503  501  0.21901166307E+03 -0.18677455107E+02  0.21258535356E+03  0.30578994169E+03  0.00000000000E+00 0.  1.
         21    1    1    2  504  505 -0.35383687486E+02  0.18790934120E+02 -0.24129986364E+02  0.46769229063E+02  0.00000000000E+00 0.  1.
         21    1    1    2  505  503 -0.13930947712E+03  0.22939808615E+02  0.70200167267E+02  0.15767507324E+03  0.00000000000E+00 0.  1.
          2    1    1    2  501    0 -0.44318498462E+02 -0.23053287628E+02  0.21820894798E+03  0.22385425695E+03  0.00000000000E+00 0.  1.
<scales pt_clust_3="14000.00000" pt_clust_4="40.06376" pt_clust_5="175.85116" pt_clust_6="50.65404"></scales>
<clustering>
<clus scale="   40.064">  2  4  1 -1</clus>
<clus scale="   50.654">  1  6  2 -1</clus>
<clus scale="  175.851">  2  5  1 -1</clus>
<clus scale="   40.064">  2  3  1 -1</clus>
</clustering>
</event>
<event>
 6    0  0.1993420E+002  0.1251825E+03  0.7546771E-02  0.1234784E+00
         21   -1    0    0  504  502  0.00000000000E+00  0.00000000000E+00  0.11554853330E+04  0.11554853330E+04  0.00000000000E+00 0.  1.
          1   -1    0    0  505    0 -0.00000000000E+00 -0.00000000000E+00 -0.85496072539E+02  0.85496072539E+02  0.00000000000E+00 0. -1.
         21    1    1    2  503  501  0.43438402725E+02 -0.94414159643E+02  0.88081442638E+02  0.13623240771E+03  0.00000000000E+00 0. -1.
         21    1    1    2  504  503  0.24860423618E+02 -0.77151393241E+02  0.13560951376E+03  0.15798834882E+03  0.00000000000E+00 0. -1.
         21    1    1    2  505  502  0.51668422583E+01  0.99934789511E+02  0.83785210040E+03  0.84380673175E+03  0.00000000000E+00 0.  1.
          1    1    1    2  501    0 -0.73465668602E+02  0.71630763373E+02  0.84462036795E+01  0.10295391727E+03  0.00000000000E+00 0. -1.
<scales pt_clust_3="43.52341" pt_clust_4="43.52341" pt_clust_5="100.06827" pt_clust_6="115.07352"></scales>
<clustering>
<clus scale="   43.523">  3  4 -1 -1</clus>
<clus scale="  100.068">  1  5  2 -1</clus>
<clus scale="  115.074">  2  6  1 -1</clus>
<clus scale="  100.068">  1  3  2 -1</clus>
</clustering>
</event>
<event>
 6    0  0.1993420E+002  0.1673492E+03  0.7546771E-02  0.1180641E+00
         21   -1    0    0  505  502  0.00000000000E+00  0.00000000000E+00  0.21597421147E+04  0.21597421147E+04  0.00000000000E+00 0. -1.
          2   -1    0    0  503    0 -0.00000000000E+00 -0.00000000000E+00 -0.43436647074E+03  0.43436647074E+03  0.00000000000E+00 0.  1.
         21    1    1    2  503  504 -0.98816410600E+02 -0.92341797982E+02  0.16587230317E+04  0.16642276847E+04  0.00000000000E+00 0. -1.
         21    1    1    2  504  502 -0.32881384956E+02  0.16781014902E+02  0.39762978246E+03  0.39933974487E+03  0.00000000000E+00 0. -1.
         21    1    1    2  505  501  0.48632482014E+01 -0.34100474415E+02  0.79770707827E+02  0.86889926722E+02  0.00000000000E+00 0.  1.
          2    1    1    2  501    0  0.12683454735E+03  0.10966125750E+03 -0.41074787803E+03  0.44365122913E+03  0.00000000000E+00 0.  1.
<scales pt_clust_3="167.34924" pt_clust_4="33.54805" pt_clust_5="34.44552" pt_clust_6="14000.00000"></scales>
<clustering>
<clus scale="   34.446">  1  5  2 -1</clus>
<clus scale="   33.548">  1  4  2 -1</clus>
<clus scale="  167.349">  1  3  2 -1</clus>
<clus scale="   34.446">  1  3  2 -1</clus>
</clustering>
</event>
<event>
 6    0  0.1993420E+002  0.5400876E+02  0.7546771E-02  0.1424846E+00
         -2   -1    0    0    0  501 -0.00000000000E+00  0.00000000000E+00  0.34910775643E+03  0.34910775643E+03  0.00000000000E+00 0.  1.
         21   -1    0    0  501  502  0.00000000000E+00 -0.00000000000E+00 -0.84703613105E+02  0.84703613105E+02  0.00000000000E+00 0. -1.
         21    1    1    2  503  504 -0.46959981677E+02 -0.94803607401E+02 -0.38454022226E+00  0.10579750340E+03  0.00000000000E+00 0. -1.
         21    1    1    2  504  505 -0.29067218146E+02  0.40255542516E+02  0.26150367032E+02  0.56118210679E+02  0.00000000000E+00 0. -1.
         21    1    1    2  505  502  0.27376771653E+02  0.35107851481E+02  0.23246903407E+02  0.50224171270E+02  0.00000000000E+00 0.  1.
         -2    1    1    2    0  503  0.48650428169E+02  0.19440213405E+02  0.21539141311E+03  0.22167148419E+03  0.00000000000E+00 0.  1.
<scales pt_clust_3="14000.00000" pt_clust_4="53.03785" pt_clust_5="44.52021" pt_clust_6="54.00876"></scales>
<clustering>
<clus scale="   44.520">  2  5  1 -1</clus>
<clus scale="   53.038">  2  4  1 -1</clus>
<clus scale="   54.009">  1  6  2 -1</clus>
<clus scale="   44.520">  2  3  1 -1</clus>
</clustering>
</event>
<event>
 6    0  0.1993420E+002  0.1505463E+03  0.7546771E-02  0.1199803E+00
         21   -1    0    0  504  502  0.00000000000E+00  0.00000000000E+00  0.56882728807E+03  0.56882728807E+03  0.00000000000E+00 0. -1.
          3   -1    0    0  505    0 -0.00000000000E+00 -0.00000000000E+00 -0.34352353010E+03  0.34352353010E+03  0.00000000000E+00 0. -1.
         21    1    1    2  503  501 -0.46149490619E+02 -0.17576178891E+01  0.48490257539E+02  0.66963943889E+02  0.00000000000E+00 0.  1.
         21    1    1    2  504  503 -0.49450182098E+02  0.16889646322E+02  0.14324846777E+03  0.15248181590E+03  0.00000000000E+00 0. -1.
         21    1    1    2  505  502 -0.50735419709E+02  0.29676587077E+01  0.34479126491E+03  0.34851672294E+03  0.00000000000E+00 0. -1.
          3    1    1    2  501    0  0.14633509243E+03 -0.18099687140E+02 -0.31122623224E+03  0.34438833544E+03  0.00000000000E+00 0. -1.
<scales pt_clust_3="42.29881" pt_clust_4="42.29881" pt_clust_5="50.82214" pt_clust_6="143.66540"></scales>
<clustering>
<clus scale="   42.299">  3  4 -1 -1</clus>
<clus scale="   50.822">  1  5  2 -1</clus>
<clus scale="  143.665">  2  6  1 -1</clus>
<clus scale="   50.822">  1  3  2 -1</clus>
</clustering>
</event>
<event>
 6    0  0.1993420E+002  0.1066609E+03  0.7546771E-02  0.1266881E+00
          1   -1    0    0  505    0 -0.00000000000E+00  0.00000000000E+00  0.34142421867E+04  0.34142421867E+04  0.00000000000E+00 0. -1.
         21   -1    0    0  503  502  0.00000000000E+00 -0.00000000000E+00 -0.61324380520E+02  0.61324380520E+02  0.00000000000E+00 0.  1.
         21    1    1    2  503  504 -0.48673548886E+02  0.18627463413E+02 -0.38093765479E+02  0.64554099194E+02  0.00000000000E+00 0.  1.
         21    1    1    2  504  501 -0.58969524611E+02  0.45952380202E+02  0.18425392060E+03  0.19884298664E+03  0.00000000000E+00 0.  1.
         21    1    1    2  505  502  0.38153949965E+02 -0.23764121999E+02  0.23166048067E+03  0.23598100706E+03  0.00000000000E+00 0. -1.
          1    1    1    2  501    0  0.69489123532E+02 -0.40815721616E+02  0.29750971704E+04  0.29761884744E+04  0.00000000000E+00 0. -1.
<scales pt_clust_3="51.93263" pt_clust_4="106.66095" pt_clust_5="44.94950" pt_clust_6="14000.00000"></scales>
<clustering>
<clus scale="   44.949">  1  5  2 -1</clus>
<clus scale="   51.933">  2  3  1 -1</clus>
<clus scale="  106.661">  2  4  1 -1</clus>
<clus scale="   51.933">  2  3  1 -1</clus>
</clustering>
</event>
<event>
 6    0  0.1993420E+002  0.1584061E+03  0.7546771E-02  0.1190508E+00
         21   -1    0    0  501  502  0.00000000000E+00  0.00000000000E+00  0.48396387675E+03  0.48396387675E+03  0.00000000000E+00 0.  1.
          1   -1    0    0  504    0 -0.00000000000E+00 -0.00000000000E+00 -0.84678869241E+03  0.84678869241E+03  0.00000000000E+00 0.  1.
         21    1    1    2  503  505 -0.42048173494E+02  0.12639891459E+03  0.15215704921E+03  0.20222883604E+03  0.00000000000E+00 0.  1.
         21    1    1    2  504  503 -0.39598391425E+02  0.21764244959E+02  0.25988892847E+02  0.52126169181E+02  0.00000000000E+00 0.  1.
         21    1    1    2  505  502  0.61588135212E+02 -0.59477178888E+01  0.25764468950E+03  0.26497029980E+03  0.00000000000E+00 0.  1.
          1    1    1    2  501    0  0.20058429707E+02 -0.14221544166E+03 -0.79861544722E+03  0.81142726413E+03  0.00000000000E+00 0.  1.
<scales pt_clust_3="38.37751" pt_clust_4="38.37751" pt_clust_5="61.87466" pt_clust_6="144.05033"></scales>
<clustering>
<clus scale="   38.378">  3  4 -1 -1</clus>
<clus scale="   61.875">  1  5  2 -1</clus>
<clus scale="  144.050">  2  6  1 -1</clus>
<clus scale="   61.875">  1  3  2 -1</clus>
</clustering>
</event>
<event>
 6    0  0.1993420E+002  0.7663315E+02  0.7546771E-02  0.1338887E+00
          2   -1    0    0  503    0 -0.00000000000E+00  0.00000000000E+00  0.21512363097E+04  0.21512363097E+04  0.00000000000E+00 0.  1.
         21   -1    0    0  505  502  0.00000000000E+00 -0.00000000000E+00 -0.15540926983E+03  0.15540926983E+03  0.00000000000E+00 0. -1.
         21    1    1    2  503  502 -0.40295160454E+02 -0.34925831900E+02  0.17520606835E+02  0.56129184510E+02  0.00000000000E+00 0. -1.
         21    1    1    2  504  501  0.69904060284E+02 -0.29687805712E+02 -0.17372985126E+02  0.77908690558E+02  0.00000000000E+00 0. -1.
         21    1    1    2  505  504 -0.66150171112E+02  0.25078383781E+02 -0.73914410161E+02  0.10231378451E+03  0.00000000000E+00 0. -1.
          2    1    1    2  501    0  0.36541271282E+02  0.39535253831E+02  0.20695938283E+04  0.20702939199E+04  0.00000000000E+00 0.  1.
<scales pt_clust_3="53.32461" pt_clust_4="14000.00000" pt_clust_5="76.63315" pt_clust_6="53.69956"></scales>
<clustering>
<clus scale="   53.325">  2  3  1 -1</clus>
<clus scale="   53.700">  1  6  2 -1</clus>
<clus scale="   76.633">  2  5  1 -1</clus>
<clus scale="   53.325">  2  3  1 -1</clus>
</clustering>
</event>
<event>
 6    0  0.1993420E+002  0.8786396E+02  0.7546771E-02  0.1308108E+00
         21   -1    0    0  505  502  0.00000000000E+00  0.00000000000E+00  0.73423219565E+03  0.73423219565E+03  0.00000000000E+00 0. -1.
          1   -1    0    0  504    0 -0.00000000000E+00 -0.00000000000E+00 -0.17472107336E+03  0.17472107336E+03  0.00000000000E+00 0. -1.
         21    1    1    2  503  502  0.55004640580E+01  0.57376081457E+02  0.19435459410E+03  0.20272142974E+03  0.00000000000E+00 0. -1.
         21    1    1    2  504  503  0.12107400750E+03  0.51640188058E+02  0.34506440411E+03  0.36931702818E+03  0.00000000000E+00 0. -1.
         21    1    1    2  505  501 -0.80773885857E+02 -0.34920155107E+02  0.15388170310E+03  0.17726651240E+03  0.00000000000E+00 0.  1.
          1    1    1    2  501    0 -0.45800585706E+02 -0.74096114407E+02 -0.13378957903E+03  0.15964829870E+03  0.00000000000E+00 0. -1.
<scales pt_clust_3="57.63913" pt_clust_4="14000.00000" pt_clust_5="80.91988" pt_clust_6="87.86396"></scales>
<clustering>
<clus scale="   57.639">  1  3  2 -1</clus>
<clus scale="   80.920">  1  5  2 -1</clus>
<clus scale="   87.864">  2  6  1 -1</clus>
<clus scale="   57.639">  1  3  2 -1</clus>
</clustering>
</event>
<event>
 6    0  0.1993420E+002  0.2448675E+03  0.7546771E-02  0.1116592E+00
         21   -1    0    0  501  502  0.00000000000E+00  0.00000000000E+00  0.13227797248E+04  0.13227797248E+04  0.00000000000E+00 0. -1.
          2   -1    0    0  503    0 -0.00000000000E+00 -0.00000000000E+00 -0.13870945465E+03  0.13870945465E+03  0.00000000000E+00 0. -1.
         21    1    1    2  503  504 -0.58412689123E+02 -0.44704409399E+01  0.77007382077E+02  0.96758276066E+02  0.00000000000E+00 0. -1.
         21    1    1    2  504  505  0.16706978529E+03  0.21234742161E+01  0.67051000677E+03  0.69101410368E+03  0.00000000000E+00 0. -1.
         21    1    1    2  505  502  0.75982782149E+02 -0.23460042916E+02  0.47646687081E+03  0.48305738353E+03  0.00000000000E+00 0. -1.
          2    1    1    2  501    0 -0.18463987832E+03  0.25807009640E+02 -0.39913989528E+02  0.19065941616E+03  0.00000000000E+00 0. -1.
<scales pt_clust_3="58.58351" pt_clust_4="39.97828" pt_clust_5="39.97828" pt_clust_6="237.91178"></scales>
<clustering>
<clus scale="   39.978">  4  5 -1 -1</clus>
<clus scale="   58.584">  2  3  1 -1</clus>
<clus scale="  237.912">  2  6  1 -1</clus>
<clus scale="  244.868">  1  3  2 -1</clus>
</clustering>
</event>
<event>
 6    0  0.1993420E+002  0.7854737E+02  0.7546771E-02  0.1333225E+00
         21   -1    0    0  503  502  0.00000000000E+00  0.00000000000E+00  0.14258465941E+02  0.14258465941E+02  0.00000000000E+00 0. -1.
          1   -1    0    0  504    0 -0.00000000000E+00 -0.00000000000E+00 -0.15339684183E+04  0.15339684183E+04  0.00000000000E+00 0.  1.
         21    1    1    2  503  501  0.28028274564E+02 -0.15920537358E+02 -0.15013171077E+03  0.15355317731E+03  0.00000000000E+00 0. -1.
         21    1    1    2  504  505 -0.24181428713E+02  0.11602696834E+03 -0.64794176927E+03  0.65869229177E+03  0.00000000000E+00 0.  1.
         21    1    1    2  505  502 -0.57445243591E+01 -0.55602704931E+02 -0.11659219429E+03  0.12929965246E+03  0.00000000000E+00 0. -1.
          1    1    1    2  501    0  0.18976785076E+01 -0.44503726047E+02 -0.60504427806E+03  0.60668176273E+03  0.00000000000E+00 0.  1.
<scales pt_clust_3="32.23426" pt_clust_4="78.54737" pt_clust_5="14000.00000" pt_clust_6="45.69475"></scales>
<clustering>
<clus scale="   32.234">  1  3  2 -1</clus>
<clus scale="   45.695">  2  6  1 -1</clus>
<clus scale="   78.547">  2  4  1 -1</clus>
<clus scale="   32.234">  1  3  2 -1</clus>
</clustering>
</event>
<event>
 6    0  0.1993420E+002  0.8758948E+02  0.7546771E-02  0.1308796E+00
          2   -1    0    0  502    0 -0.00000000000E+00  0.00000000000E+00  0.37700088770E+04  0.37700088770E+04  0.00000000000E+00 0. -1.
         21   -1    0    0  503  502  0.00000000000E+00 -0.00000000000E+00 -0.44989289206E+02  0.44989289206E+02  0.00000000000E+00 0. -1.
         21    1    1    2  503  505 -0.29648043466E+02  0.69855422559E+01  0.24340454738E+01  0.30556977261E+02  0.00000000000E+00 0. -1.
         21    1    1    2  504  501  0.19983807795E+02  0.11660033562E+03  0.12215557055E+03  0.17004991695E+03  0.00000000000E+00 0. -1.
         21    1    1    2  505  504  0.82977021135E+01 -0.36645676088E+02  0.48282327559E+02  0.61179576582E+02  0.00000000000E+00 0.  1.
          2    1    1    2  501    0  0.13665335576E+01 -0.86940201784E+02  0.35521476442E+04  0.35532116954E+04  0.00000000000E+00 0. -1.
<scales pt_clust_3="30.45988" pt_clust_4="87.58948" pt_clust_5="35.25271" pt_clust_6="14000.00000"></scales>
<clustering>
<clus scale="   30.460">  2  3  1 -1</clus>
<clus scale="   35.253">  2  5  1 -1</clus>
<clus scale="   87.589">  2  4  1 -1</clus>
<clus scale="   30.460">  2  3  1 -1</clus>
</clustering>
</event>
<event>
 6    0  0.1993420E+002  0.1674359E+03  0.7546771E-02  0.1180548E+00
         21   -1    0    0  505  502  0.00000000000E+00  0.00000000000E+00  0.49012512209E+03  0.49012512209E+03  0.00000000000E+00 0.  1.
         -4   -1    0    0    0  501 -0.00000000000E+00 -0.00000000000E+00 -0.15179977504E+03  0.15179977504E+03  0.00000000000E+00 0.  1.
         21    1    1    2  503  502  0.44223035763E+01 -0.30380640042E+02  0.26417546981E+02  0.40502183234E+02  0.00000000000E+00 0. -1.
         21    1    1    2  504  501 -0.50082803280E+02  0.64107698856E+02  0.36280615692E+02  0.89075065601E+02  0.00000000000E+00 0.  1.
         21    1    1    2  505  504  0.13317682518E+03 -0.10021326804E+03  0.34446124909E+03  0.38266475926E+03  0.00000000000E+00 0.  1.
         -4    1    1    2    0  503 -0.87516325477E+02  0.66486209230E+02 -0.68834064709E+02  0.12968288903E+03  0.00000000000E+00 0.  1.
<scales pt_clust_3="30.70082" pt_clust_4="77.72009" pt_clust_5="167.43593" pt_clust_6="14000.00000"></scales>
<clustering>
<clus scale="   30.701">  1  3  2 -1</clus>
<clus scale="   77.720">  2  4  1 -1</clus>
<clus scale="  167.436">  1  5  2 -1</clus>
<clus scale="   30.701">  1  3  2 -1</clus>
</clustering>
</event>
<event>
 6    0  0.1993420E+002  0.8710567E+02  0.7546771E-02  0.1310016E+00
          1   -1    0    0  504    0 -0.00000000000E+00  0.00000000000E+00  0.96946495058E+03  0.96946495058E+03  0.00000000000E+00 0. -1.
         21   -1    0    0  505  502  0.00000000000E+00 -0.00000000000E+00 -0.48724338955E+02  0.48724338955E+02  0.00000000000E+00 0.  1.
         21    1    1    2  503  501  0.10826840117E+03  0.63382868169E+01  0.82504391883E+02  0.13626883448E+03  0.00000000000E+00 0.  1.
         21    1    1    2  504  502 -0.66329168247E+02 -0.25024834783E+02  0.81950875818E+02  0.10835934184E+03  0.00000000000E+00 0.  1.
         21    1    1    2  505  503 -0.14374935348E+01 -0.45072608885E+02  0.70901981421E+02  0.84027956234E+02  0.00000000000E+00 0.  1.
          1    1    1    2  501    0 -0.40501739389E+02  0.63759156851E+02  0.68538336251E+03  0.68953315698E+03  0.00000000000E+00 0. -1.
<scales pt_clust_3="87.10567" pt_clust_4="14000.00000" pt_clust_5="45.09553" pt_clust_6="73.71173"></scales>
<clustering>
<clus scale="   45.096">  2  5  1 -1</clus>
<clus scale="   73.712">  1  6  2 -1</clus>
<clus scale="   87.106">  2  3  1 -1</clus>
<clus scale="   45.096">  2  3  1 -1</clus>
</clustering>
</event>
<event>
 6    0  0.1993420E+002  0.2468174E+03  0.7546771E-02  0.1115333E+00
          2   -1    0    0  502    0 -0.00000000000E+00  0.00000000000E+00  0.46064002285E+03  0.46064002285E+03  0.00000000000E+00 0.  1.
         21   -1    0    0  505  502  0.00000000000E+00 -0.00000000000E+00 -0.45488693960E+03  0.45488693960E+03  0.00000000000E+00 0.  1.
         21    1    1    2  503  504 -0.64004731574E+02  0.19447317870E+02 -0.98983833105E+02  0.11946800012E+03  0.00000000000E+00 0.  1.
         21    1    1    2  504  501 -0.84186877076E+02 -0.60945119597E+02 -0.26334013168E+03  0.28310733447E+03  0.00000000000E+00 0.  1.
         21    1    1    2  505  503 -0.51853953975E+02 -0.14098267072E+02 -0.31759746450E+02  0.62420150367E+02  0.00000000000E+00 0.  1.
          2    1    1    2  501    0  0.20004556262E+03  0.55596068799E+02  0.39983679449E+03  0.45053147750E+03  0.00000000000E+00 0.  1.
<scales pt_clust_3="100.35577" pt_clust_4="100.35577" pt_clust_5="45.14913" pt_clust_6="207.62743"></scales>
<clustering>
<clus scale="   45.149">  3  5 -1 -1</clus>
<clus scale="  100.356">  3  4 -1 -1</clus>
<clus scale="  207.627">  1  6  2 -1</clus>
<clus scale="  246.817">  2  3  1 -1</clus>
</clustering>
</event>
<event>
 6    0  0.1993420E+002  0.9309814E+02  0.7546771E-02  0.1295518E+00
          1   -1    0    0  504    0 -0.00000000000E+00  0.00000000000E+00  0.34240876154E+04  0.34240876154E+04  0.00000000000E+00 0.  1.
         21   -1    0    0  505  502  0.00000000000E+00 -0.00000000000E+00 -0.69192880153E+02  0.69192880153E+02  0.00000000000E+00 0. -1.
         21    1    1    2  503  501 -0.17752283851E+02 -0.90178995976E+02  0.14036523052E+03  0.16777899999E+03  0.00000000000E+00 0. -1.
         21    1    1    2  504  502  0.11547203803E+02  0.36207619603E+02  0.87147493761E+02  0.95073736130E+02  0.00000000000E+00 0. -1.
         21    1    1    2  505  503 -0.44502182306E+02 -0.24550309124E+02 -0.38128865391E+02  0.63537172459E+02  0.00000000000E+00 0. -1.
          1    1    1    2  501    0  0.50707262354E+02  0.78521685498E+02  0.31655108763E+04  0.31668905869E+04  0.00000000000E+00 0.  1.
<scales pt_clust_3="14000.00000" pt_clust_4="38.00434" pt_clust_5="35.69231" pt_clust_6="93.09814"></scales>
<clustering>
<clus scale="   38.004">  2  4  1 -1</clus>
<clus scale="   35.692">  2  5  1 -1</clus>
<clus scale="   93.098">  1  6  2 -1</clus>
<clus scale="   38.004">  2  3  1 -1</clus>
</clustering>
</event>
<event>
 6    0  0.1993420E+002  0.1002100E+03  0.7546771E-02  0.1279855E+00
         21   -1    0    0  504  502  0.00000000000E+00  0.00000000000E+00  0.50039023301E+02  0.50039023301E+02  0.00000000000E+00 0.  1.
          1   -1    0    0  505    0 -0.00000000000E+00 -0.00000000000E+00 -0.13936188929E+04  0.13936188929E+04  0.00000000000E+00 0.  1.
         21    1    1    2  503  502  0.40045505156E+02 -0.77148811844E+02 -0.17693216681E+03  0.19713085325E+03  0.00000000000E+00 0.  1.
         21    1    1    2  504  501  0.61742043143E+01  0.11380063098E+03 -0.92416174986E+02  0.14672918527E+03  0.00000000000E+00 0.  1.
         21    1    1    2  505  503 -0.29304365071E+02 -0.63555795091E+02 -0.85215207084E+02  0.11027110419E+03  0.00000000000E+00 0.  1.
          1    1    1    2  501    0 -0.16915344400E+02  0.26903975958E+02 -0.98901632070E+03  0.98952677347E+03  0.00000000000E+00 0.  1.
<scales pt_clust_3="14000.00000" pt_clust_4="100.21001" pt_clust_5="66.10655" pt_clust_6="31.77975"></scales>
<clustering>
<clus scale="   31.780">  2  6  1 -1</clus>
<clus scale="   66.107">  2  5  1 -1</clus>
<clus scale="  100.210">  1  4  2 -1</clus>
<clus scale="  100.210">  1  3  2 -1</clus>
</clustering>
</event>
<event>
 6    0  0.1993420E+002  0.9026288E+02  0.7546771E-02  0.1302216E+00
         21   -1    0    0  503  502  0.00000000000E+00  0.00000000000E+00  0.36323841265E+03  0.36323841265E+03  0.00000000000E+00 0. -1.
         -2   -1    0    0    0  501 -0.00000000000E+00 -0.00000000000E+00 -0.19876650071E+03  0.19876650071E+03  0.00000000000E+00 0. -1.
         21    1    1    2  503  501 -0.91866285284E+02 -0.32177164020E+02  0.13408213011E+03  0.16568887069E+03  0.00000000000E+00 0.  1.
         21    1    1    2  504  502  0.62431143822E+02  0.64258097395E+02  0.18281575842E+03  0.20358868418E+03  0.00000000000E+00 0. -1.
         21    1    1    2  505  504  0.40074604362E+02 -0.37425816766E+01 -0.31043296946E+01  0.40368523570E+02  0.00000000000E+00 0.  1.
         -2    1    1    2    0  505 -0.10639462900E+02 -0.28338351698E+02 -0.14932164689E+03  0.15235883492E+03  0.00000000000E+00 0. -1.
<scales pt_clust_3="14000.00000" pt_clust_4="90.26288" pt_clust_5="38.96029" pt_clust_6="30.26979"></scales>
<clustering>
<clus scale="   30.270">  2  6  1 -1</clus>
<clus scale="   38.960">  2  5  1 -1</clus>
<clus scale="   90.263">  1  4  2 -1</clus>
<clus scale="   90.263">  1  3  2 -1</clus>
</clustering>
</event>
<event>
 6    0  0.1993420E+002  0.1562983E+03  0.7546771E-02  0.1192940E+00
         21   -1    0    0  501  502  0.00000000000E+00  0.00000000000E+00  0.86336511617E+03  0.86336511617E+03  0.00000000000E+00 0.  1.
         -1   -1    0    0    0  501 -0.00000000000E+00 -0.00000000000E+00 -0.19740833506E+04  0.19740833506E+04  0.00000000000E+00 0. -1.
         21    1    1    2  503  502  0.14032921001E+03 -0.12285900585E+03  0.60073571693E+03  0.62902307120E+03  0.00000000000E+00 0.  1.
         21    1    1    2  504  503 -0.11876972032E+03  0.38334530949E+02  0.19972821851E+03  0.23551463649E+03  0.00000000000E+00 0.  1.
         21    1    1    2  505  504  0.33598857261E+02  0.59470757516E+02 -0.80088975696E+01  0.68773517062E+02  0.00000000000E+00 0.  1.
         -1    1    1    2    0  505 -0.55158346953E+02  0.25053717388E+02 -0.19031732724E+04  0.19041372421E+04  0.00000000000E+00 0. -1.
<scales pt_clust_3="156.29830" pt_clust_4="14000.00000" pt_clust_5="73.21306" pt_clust_6="60.58161"></scales>
<clustering>
<clus scale="   60.582">  2  6  1 -1</clus>
<clus scale="   73.213">  2  5  1 -1</clus>
<clus scale="  156.298">  1  3  2 -1</clus>
<clus scale="  156.298">  1  3  2 -1</clus>
</clustering>
</event>
<event>
 6    0  0.1993420E+002  0.1655720E+03  0.7546771E-02  0.1182546E+00
         21   -1    0    0  504  502  0.00000000000E+00  0.00000000000E+00  0.11087496130E+04  0.11087496130E+04  0.00000000000E+00 0.  1.
          1   -1    0    0  503    0 -0.00000000000E+00 -0.00000000000E+00 -0.66346189531E+03  0.66346189531E+03  0.00000000000E+00 0.  1.
         21    1    1    2  503  505 -0.14734988861E+03 -0.41430212270E+01  0.93310545843E+03  0.94467716753E+03  0.00000000000E+00 0.  1.
         21    1    1    2  504  501  0.13410921099E+03 -0.30006946660E+02  0.67387398170E+02  0.15305802414E+03  0.00000000000E+00 0. -1.
         21    1    1    2  505  502 -0.31378351230E+02  0.73243840392E+01  0.54090455296E+02  0.62960502552E+02  0.00000000000E+00 0. -1.
          1    1    1    2  501    0  0.44619028842E+02  0.26825583847E+02 -0.60929559424E+03  0.61151581406E+03  0.00000000000E+00 0.  1.
<scales pt_clust_3="165.57199" pt_clust_4="14000.00000" pt_clust_5="32.22185" pt_clust_6="52.03774"></scales>
<clustering>
<clus scale="   32.222">  1  5  2 -1</clus>
<clus scale="   52.038">  2  6  1 -1</clus>
<clus scale="  165.572">  1  3  2 -1</clus>
<clus scale="   32.222">  1  3  2 -1</clus>
</clustering>
</event>
<event>
 6    0  0.1993420E+002  0.1411148E+03  0.7546771E-02  0.1211837E+00
         21   -1    0    0  503  502  0.00000000000E+00  0.00000000000E+00  0.80086453902E+02  0.80086453902E+02  0.00000000000E+00 0. -1.
          2   -1    0    0  504    0 -0.00000000000E+00 -0.00000000000E+00 -0.80113970237E+03  0.80113970237E+03  0.00000000000E+00 0.  1.
         21    1    1    2  503  505 -0.26904124038E+02  0.62403493676E+02  0.19825832626E+02  0.70789063791E+02  0.00000000000E+00 0. -1.
         21    1    1    2  504  502 -0.57234595776E+02 -0.14807896199E+02 -0.70540598739E+02  0.92038300799E+02  0.00000000000E+00 0. -1.
         21    1    1    2  505  501 -0.11347380614E+02  0.50402048817E+02 -0.22640960032E+02  0.56406937897E+02  0.00000000000E+00 0. -1.
          2    1    1    2  501    0  0.95486100428E+02 -0.97997646293E+02 -0.64769752233E+03  0.66199185379E+03  0.00000000000E+00 0.  1.
<scales pt_clust_3="38.82389" pt_clust_4="59.11914" pt_clust_5="38.82389" pt_clust_6="133.90581"></scales>
<clustering>
<clus scale="   38.824">  3  5 -1 -1</clus>
<clus scale="   59.119">  1  4  2 -1</clus>
<clus scale="  133.906">  2  6  1 -1</clus>
<clus scale="   59.119">  1  3  2 -1</clus>
</clustering>
</event>
<event>
 6    0  0.1993420E+002  0.2805247E+03  0.7546771E-02  0.1095403E+00
         -4   -1    0    0    0  501 -0.00000000000E+00  0.00000000000E+00  0.40411642963E+03  0.40411642963E+03  0.00000000000E+00 0. -1.
         21   -1    0    0  504  502  0.00000000000E+00 -0.00000000000E+00 -0.27654130143E+03  0.27654130143E+03  0.00000000000E+00 0. -1.
         21    1    1    2  503  501  0.12254640769E+02  0.20327762557E+03 -0.74047034144E+02  0.21669086862E+03  0.00000000000E+00 0. -1.
         21    1    1    2  504  503 -0.26834086782E+02  0.78266399481E+02  0.24469059903E+01  0.82774904712E+02  0.00000000000E+00 0. -1.
         21    1    1    2  505  502 -0.23047657490E+02 -0.25426488556E+03  0.10477288259E+03  0.27596953359E+03  0.00000000000E+00 0. -1.
         -4    1    1    2    0  505  0.37627103503E+02 -0.27279139497E+02  0.94402373760E+02  0.10522242414E+03  0.00000000000E+00 0. -1.
<scales pt_clust_3="45.40176" pt_clust_4="45.40176" pt_clust_5="271.33104" pt_clust_6="46.47527"></scales>
<clustering>
<clus scale="   45.402">  3  4 -1 -1</clus>
<clus scale="   46.475">  1  6  2 -1</clus>
<clus scale="  271.331">  1  5  2 -1</clus>
<clus scale="  280.525">  2  3  1 -1</clus>
</clustering>
</event>
<event>
 6    0  0.1993420E+002  0.1066487E+03  0.7546771E-02  0.1266905E+00
         21   -1    0    0  504  502  0.00000000000E+00  0.00000000000E+00  0.17346353604E+04  0.17346353604E+04  0.00000000000E+00 0.  1.
          3   -1    0    0  503    0 -0.00000000000E+00 -0.00000000000E+00 -0.12278327937E+03  0.12278327937E+03  0.00000000000E+00 0.  1.
         21    1    1    2  503  502  0.22363232021E+02 -0.45591451044E+02  0.21788683365E+03  0.22372609779E+03  0.00000000000E+00 0.  1.
         21    1    1    2  504  505 -0.50812107996E+02  0.45697009443E+01  0.66161052632E+03  0.66357459341E+03  0.00000000000E+00 0.  1.
         21    1    1    2  505  501 -0.41492648932E+02 -0.30370039754E+02  0.82929303381E+03  0.83088562098E+03  0.00000000000E+00 0.  1.
          3    1    1    2  501    0  0.69941524908E+02  0.71391789854E+02 -0.96938312756E+02  0.13923232759E+03  0.00000000000E+00 0.  1.
<scales pt_clust_3="50.78085" pt_clust_4="37.69446" pt_clust_5="37.69446" pt_clust_6="99.70893"></scales>
<clustering>
<clus scale="   37.694">  4  5 -1 -1</clus>
<clus scale="   50.781">  1  3  2 -1</clus>
<clus scale="   99.709">  2  6  1 -1</clus>
<clus scale="   50.781">  1  3  2 -1</clus>
</clustering>
</event>
<event>
 6    0  0.1993420E+002  0.1276337E+03  0.7546771E-02  0.1231010E+00
          2   -1    0    0  503    0 -0.00000000000E+00  0.00000000000E+00  0.24358106561E+03  0.24358106561E+03  0.00000000000E+00 0.  1.
         21   -1    0    0  504  502  0.00000000000E+00 -0.00000000000E+00 -0.68504158356E+03  0.68504158356E+03  0.00000000000E+00 0.  1.
         21    1    1    2  503  502 -0.42171798962E+02 -0.83231065962E+01 -0.68627708341E+02  0.80978374170E+02  0.00000000000E+00 0. -1.
         21    1    1    2  504  505  0.59731733705E+01 -0.39633654439E+02 -0.33617379341E+03  0.33855475885E+03  0.00000000000E+00 0.  1.
         21    1    1    2  505  501 -0.13920063254E+02 -0.62227407754E+02 -0.25314909679E+03  0.26105647596E+03  0.00000000000E+00 0.  1.
          2    1    1    2  501    0  0.50118688846E+02  0.11018416879E+03  0.21649008059E+03  0.24803304018E+03  0.00000000000E+00 0.  1.
<scales pt_clust_3="42.98529" pt_clust_4="33.57445" pt_clust_5="33.57445" pt_clust_6="120.40355"></scales>
<clustering>
<clus scale="   33.574">  4  5 -1 -1</clus>
<clus scale="   42.985">  2  3  1 -1</clus>
<clus scale="  120.404">  1  6  2 -1</clus>
<clus scale="   42.985">  2  3  1 -1</clus>
</clustering>
</event>
<event>
 6    0  0.1993420E+002  0.1321916E+03  0.7546771E-02  0.1224240E+00
         21   -1    0    0  505  502  0.00000000000E+00  0.00000000000E+00  0.34125845461E+03  0.34125845461E+03  0.00000000000E+00 0.  1.
          2   -1    0    0  503    0 -0.00000000000E+00 -0.00000000000E+00 -0.13353011422E+04  0.13353011422E+04  0.00000000000E+00 0. -1.
         21    1    1    2  503  504  0.48237787175E+02  0.56199207257E+02 -0.13618698114E+03  0.15502299455E+03  0.00000000000E+00 0.  1.
         21    1    1    2  504  502 -0.97505904566E+01 -0.13999076719E+03  0.28278486589E+03  0.31568935567E+03  0.00000000000E+00 0.  1.
         21    1    1    2  505  501 -0.88162848262E+02  0.37281538082E+02 -0.41048905128E+02  0.10415187712E+03  0.00000000000E+00 0.  1.
          2    1    1    2  501    0  0.49675651543E+02  0.46510021848E+02 -0.10995916672E+04  0.11016953695E+04  0.00000000000E+00 0. -1.
<scales pt_clust_3="14000.00000" pt_clust_4="132.19160" pt_clust_5="89.26840" pt_clust_6="68.05037"></scales>
<clustering>
<clus scale="   68.050">  2  6  1 -1</clus>
<clus scale="   89.268">  2  5  1 -1</clus>
<clus scale="  132.192">  1  4  2 -1</clus>
<clus scale="  132.192">  1  3  2 -1</clus>
</clustering>
</event>
<event>
 6    0  0.1993420E+002  0.1373685E+03  0.7546771E-02  0.1216914E+00
         21   -1    0    0  504  502  0.00000000000E+00  0.00000000000E+00  0.63665787389E+03  0.63665787389E+03  0.00000000000E+00 0.  1.
          1   -1    0    0  505    0 -0.00000000000E+00 -0.00000000000E+00 -0.15158368880E+03  0.15158368880E+03  0.00000000000E+00 0.  1.
         21    1    1    2  503  501 -0.62103750595E+01 -0.81672686138E+02  0.38478392234E+03  0.39340521515E+03  0.00000000000E+00 0.  1.
         21    1    1    2  504  503  0.31098344466E+02 -0.20761088799E+02  0.14909513745E+03  0.15371236075E+03  0.00000000000E+00 0.  1.
         21    1    1    2  505  502  0.19672448783E+02 -0.33662705141E+02  0.52727418210E+02  0.65577157529E+02  0.00000000000E+00 0.  1.
          1    1    1    2  501    0 -0.44560418189E+02  0.13609648008E+03 -0.10153229291E+03  0.17554682926E+03  0.00000000000E+00 0.  1.
<scales pt_clust_3="14000.00000" pt_clust_4="37.39157" pt_clust_5="43.13346" pt_clust_6="137.36850"></scales>
<clustering>
<clus scale="   37.392">  1  4  2 -1</clus>
<clus scale="   43.133">  1  5  2 -1</clus>
<clus scale="  137.368">  2  6  1 -1</clus>
<clus scale="   37.392">  1  3  2 -1</clus>
</clustering>
</event>
<event>
 6    0  0.1993420E+002  0.1806355E+03  0.7546771E-02  0.1167189E+00
          2   -1    0    0  505    0 -0.00000000000E+00  0.00000000000E+00  0.23554872114E+04  0.23554872114E+04  0.00000000000E+00 0. -1.
         21   -1    0    0  503  502  0.00000000000E+00 -0.00000000000E+00 -0.87418541966E+02  0.87418541966E+02  0.00000000000E+00 0. -1.
         21    1    1    2  503  501 -0.90155918076E+02  0.12643330229E+03  0.13746140662E+03  0.20738637323E+03  0.00000000000E+00 0. -1.
         21    1    1    2  504  502  0.29634082471E+02 -0.74272431316E+02  0.30875747592E+02  0.85719803353E+02  0.00000000000E+00 0. -1.
         21    1    1    2  505  504  0.37328815366E+02 -0.11254864292E+03  0.11893458877E+03  0.16794664000E+03  0.00000000000E+00 0. -1.
          2    1    1    2  501    0  0.23193020239E+02  0.60387771946E+02  0.19807969265E+04  0.19818529368E+04  0.00000000000E+00 0. -1.
<scales pt_clust_3="173.52750" pt_clust_4="41.20277" pt_clust_5="41.20277" pt_clust_6="64.68848"></scales>
<clustering>
<clus scale="   41.203">  4  5 -1 -1</clus>
<clus scale="   64.688">  1  6  2 -1</clus>
<clus scale="  173.528">  2  3  1 -1</clus>
<clus scale="  173.528">  2  3  1 -1</clus>
</clustering>
</event>
<event>
 6    0  0.1993420E+002  0.8587291E+02  0.7546771E-02  0.1313165E+00
         21   -1    0    0  504  502  0.00000000000E+00  0.00000000000E+00  0.19390352469E+04  0.19390352469E+04  0.00000000000E+00 0.  1.
          4   -1    0    0  505    0 -0.00000000000E+00 -0.00000000000E+00 -0.11925518877E+03  0.11925518877E+03  0.00000000000E+00 0.  1.
         21    1    1    2  503  502 -0.37603239168E+02 -0.17153423245E+02  0.11950083365E+04  0.11957228642E+04  0.00000000000E+00 0.  1.
         21    1    1    2  504  501 -0.95028162796E+01 -0.69407375483E+02  0.25424208231E+03  0.26371712820E+03  0.00000000000E+00 0.  1.
         21    1    1    2  505  503 -0.13626569264E+02  0.10573387310E+03  0.46933909986E+03  0.48129463530E+03  0.00000000000E+00 0.  1.
          4    1    1    2  501    0  0.60732624712E+02 -0.19173074372E+02 -0.98809460592E+02  0.11755580797E+03  0.00000000000E+00 0.  1.
<scales pt_clust_3="41.33090" pt_clust_4="14000.00000" pt_clust_5="85.87291" pt_clust_6="63.30128"></scales>
<clustering>
<clus scale="   41.331">  1  3  2 -1</clus>
<clus scale="   63.301">  2  6  1 -1</clus>
<clus scale="   85.873">  1  5  2 -1</clus>
<clus scale="   41.331">  1  3  2 -1</clus>
</clustering>
</event>
<event>
 6    0  0.1993420E+002  0.8425779E+02  0.7546771E-02  0.1317385E+00
         21   -1    0    0  504  502  0.00000000000E+00  0.00000000000E+00  0.11177311750E+03  0.11177311750E+03  0.00000000000E+00 0. -1.
          1   -1    0    0  505    0 -0.00000000000E+00 -0.00000000000E+00 -0.13007719967E+04  0.13007719967E+04  0.00000000000E+00 0. -1.
         21    1    1    2  503  501 -0.54521662379E+02  0.22627333071E+02 -0.78999212690E+02  0.98617865907E+02  0.00000000000E+00 0. -1.
         21    1    1    2  504  503 -0.42792022442E+02 -0.32937162094E+02 -0.26792675626E+02  0.60281517056E+02  0.00000000000E+00 0. -1.
         21    1    1    2  505  502  0.10307431697E+03  0.39889034316E+02  0.49099099679E+02  0.12093870955E+03  0.00000000000E+00 0. -1.
          1    1    1    2  501    0 -0.57606321510E+01 -0.29579205293E+02 -0.11323060906E+04  0.11327070217E+04  0.00000000000E+00 0. -1.
<scales pt_clust_3="57.98803" pt_clust_4="14000.00000" pt_clust_5="84.25779" pt_clust_6="30.13493"></scales>
<clustering>
<clus scale="   30.135">  2  6  1 -1</clus>
<clus scale="   57.988">  2  3  1 -1</clus>
<clus scale="   84.258">  1  5  2 -1</clus>
<clus scale="   84.258">  1  3  2 -1</clus>
</clustering>
</event>
<event>
 6    0  0.1993420E+002  0.1003461E+03  0.7546771E-02  0.1279570E+00
          2   -1    0    0  505    0 -0.00000000000E+00  0.00000000000E+00  0.79028053888E+03  0.79028053888E+03  0.00000000000E+00 0. -1.
         21   -1    0    0  501  502  0.00000000000E+00 -0.00000000000E+00 -0.95167059716E+03  0.95167059716E+03  0.00000000000E+00 0.  1.
         21    1    1    2  503  504  0.56235024025E+02 -0.53315305234E+02 -0.33787289919E+03  0.34664534572E+03  0.00000000000E+00 0.  1.
         21    1    1    2  504  502 -0.47793844983E+02  0.21561223666E+02 -0.38875148157E+03  0.39227140146E+03  0.00000000000E+00 0. -1.
         21    1    1    2  505  503  0.66220628672E+02 -0.19754186945E+02 -0.21073784285E+03  0.22177880415E+03  0.00000000000E+00 0.  1.
          2    1    1    2  501    0 -0.74661807714E+02  0.51508268512E+02  0.77597216533E+03  0.78125558470E+03  0.00000000000E+00 0. -1.
<scales pt_clust_3="40.03946" pt_clust_4="52.43222" pt_clust_5="40.03946" pt_clust_6="90.94834"></scales>
<clustering>
<clus scale="   40.039">  3  5 -1 -1</clus>
<clus scale="   52.432">  2  4  1 -1</clus>
<clus scale="   90.948">  1  6  2 -1</clus>
<clus scale="   52.432">  2  3  1 -1</clus>
</clustering>
</event>
<event>
 6    0  0.1993420E+002  0.1115059E+03  0.7546771E-02  0.1257806E+00
         21   -1    0    0  505  502  0.00000000000E+00  0.00000000000E+00  0.79464229857E+02  0.79464229857E+02  0.00000000000E+00 0. -1.
          1   -1    0    0  504    0 -0.00000000000E+00 -0.00000000000E+00 -0.20955388166E+04  0.20955388166E+04  0.00000000000E+00 0. -1.
         21    1    1    2  503  501 -0.81568161407E+02 -0.40368795381E+02 -0.35888169414E+03  0.37024191413E+03  0.00000000000E+00 0. -1.
         21    1    1    2  504  502 -0.12741504395E+01  0.47780547093E+02  0.16682137180E+02  0.50625071267E+02  0.00000000000E+00 0. -1.
         21    1    1    2  505  503  0.97326485251E+02  0.29130944754E+02 -0.24777957663E+02  0.10457056880E+03  0.00000000000E+00 0. -1.
          1    1    1    2  501    0 -0.14484173405E+02 -0.36542696466E+02 -0.16490970721E+04  0.16495654922E+04  0.00000000000E+00 0. -1.
<scales pt_clust_3="14000.00000" pt_clust_4="46.42653" pt_clust_5="111.50593" pt_clust_6="39.30852"></scales>
<clustering>
<clus scale="   39.309">  2  6  1 -1</clus>
<clus scale="   46.427">  1  4  2 -1</clus>
<clus scale="  111.506">  1  5  2 -1</clus>
<clus scale="   46.427">  1  3  2 -1</clus>
</clustering>
</event>
<event>
 6    0  0.1993420E+002  0.1210412E+03  0.7546771E-02  0.1241389E+00
          1   -1    0    0  503    0 -0.00000000000E+00  0.00000000000E+00  0.24973899398E+04  0.24973899398E+04  0.00000000000E+00 0.  1.
         21   -1    0    0  504  502  0.00000000000E+00 -0.00000000000E+00 -0.74030831322E+02  0.74030831322E+02  0.00000000000E+00 0.  1.
         21    1    1    2  503  502  0.27546243073E+02 -0.17555467884E+02  0.51828905719E+02  0.61263573419E+02  0.00000000000E+00 0. -1.
         21    1    1    2  504  505 -0.16399383216E+01  0.33802076647E+02  0.20750087974E+01  0.33905389614E+02  0.00000000000E+00 0. -1.
         21    1    1    2  505  501  0.89470799079E+02  0.23127447288E+02 -0.10652907876E+02  0.93023583849E+02  0.00000000000E+00 0.  1.
          1    1    1    2  501    0 -0.11537710383E+03 -0.39374056052E+02  0.23801081019E+04  0.23832282243E+04  0.00000000000E+00 0.  1.
<scales pt_clust_3="32.66481" pt_clust_4="30.13751" pt_clust_5="121.04116" pt_clust_6="14000.00000"></scales>
<clustering>
<clus scale="   32.665">  2  3  1 -1</clus>
<clus scale="   30.138">  2  4  1 -1</clus>
<clus scale="  121.041">  2  5  1 -1</clus>
<clus scale="   32.665">  2  3  1 -1</clus>
</clustering>
</event>
<event>
 6    0  0.1993420E+002  0.1487375E+03  0.7546771E-02  0.1202033E+00
          2   -1    0    0  505    0 -0.00000000000E+00  0.00000000000E+00  0.23391013457E+04  0.23391013457E+04  0.00000000000E+00 0. -1.
         21   -1    0    0  504  502  0.00000000000E+00 -0.00000000000E+00 -0.11846892475E+03  0.11846892475E+03  0.00000000000E+00 0. -1.
         21    1    1    2  503  501 -0.41318888030E+02 -0.37346298734E+02 -0.23991088936E+01  0.55747217515E+02  0.00000000000E+00 0. -1.
         21    1    1    2  504  503 -0.70716488646E+02  0.20502891377E+02  0.27814585870E+02  0.78707315469E+02  0.00000000000E+00 0. -1.
         21    1    1    2  505  502 -0.81683278502E+01 -0.40663715847E+02 -0.55039518490E+02  0.68917399559E+02  0.00000000000E+00 0. -1.
          2    1    1    2  501    0  0.12020370453E+03  0.57507123204E+02  0.22502564625E+04  0.22541983380E+04  0.00000000000E+00 0. -1.
<scales pt_clust_3="67.57778" pt_clust_4="67.57778" pt_clust_5="41.47601" pt_clust_6="132.38733"></scales>
<clustering>
<clus scale="   41.476">  2  5  1 -1</clus>
<clus scale="   67.578">  3  4 -1 -1</clus>
<clus scale="  132.387">  1  6  2 -1</clus>
<clus scale="   41.476">  2  3  1 -1</clus>
</clustering>
</event>
<event>
 6    0  0.1993420E+002  0.2575109E+03  0.7546771E-02  0.1108648E+00
          2   -1    0    0  503    0 -0.00000000000E+00  0.00000000000E+00  0.77751735167E+03  0.77751735167E+03  0.00000000000E+00 0. -1.
         21   -1    0    0  501  502  0.00000000000E+00 -0.00000000000E+00 -0.79134106506E+03  0.79134106506E+03  0.00000000000E+00 0.  1.
         21    1    1    2  503  504  0.38833898235E+02  0.17533594370E+03  0.17141383016E+02  0.18040119682E+03  0.00000000000E+00 0. -1.
         21    1    1    2  504  505 -0.12374438348E+02 -0.69161949490E+02 -0.24550141293E+03  0.25535748615E+03  0.00000000000E+00 0.  1.
         21    1    1    2  505  502 -0.27816736329E+02 -0.19941705551E+03 -0.43371614728E+03  0.47817426662E+03  0.00000000000E+00 0.  1.
          2    1    1    2  501    0  0.13572764411E+01  0.93243061304E+02  0.64825246380E+03  0.65492546714E+03  0.00000000000E+00 0. -1.
<scales pt_clust_3="251.65365" pt_clust_4="32.25960" pt_clust_5="32.25960" pt_clust_6="93.25294"></scales>
<clustering>
<clus scale="   32.260">  4  5 -1 -1</clus>
<clus scale="   93.253">  1  6  2 -1</clus>
<clus scale="  251.654">  1  3  2 -1</clus>
<clus scale="  257.511">  2  3  1 -1</clus>
</clustering>
</event>
<event>
 6    0  0.1993420E+002  0.1030991E+03  0.7546771E-02  0.1273911E+00
          2   -1    0    0  502    0 -0.00000000000E+00  0.00000000000E+00  0.14161698896E+04  0.14161698896E+04  0.00000000000E+00 0.  1.
         21   -1    0    0  505  502  0.00000000000E+00 -0.00000000000E+00 -0.79691859720E+03  0.79691859720E+03  0.00000000000E+00 0. -1.
         21    1    1    2  503  501 -0.43304813727E+01  0.48547543596E+02 -0.11814513493E+02  0.50151767538E+02  0.00000000000E+00 0. -1.
         21    1    1    2  504  503 -0.12770646477E+02  0.74332764922E+02 -0.78100883410E+02  0.10857346518E+03  0.00000000000E+00 0. -1.
         21    1    1    2  505  504  0.28814443860E+02 -0.87229411163E+02 -0.66920492399E+03  0.67548091952E+03  0.00000000000E+00 0. -1.
          2    1    1    2  501    0 -0.11713316010E+02 -0.35650897355E+02  0.13783716133E+04  0.13788823346E+04  0.00000000000E+00 0.  1.
<scales pt_clust_3="33.30952" pt_clust_4="33.30952" pt_clust_5="94.40615" pt_clust_6="37.52583"></scales>
<clustering>
<clus scale="   33.310">  3  4 -1 -1</clus>
<clus scale="   37.526">  1  6  2 -1</clus>
<clus scale="   94.406">  2  5  1 -1</clus>
<clus scale="   94.406">  2  3  1 -1</clus>
</clustering>
</event>
<event>
 6    0  0.1993420E+002  0.2219922E+03  0.7546771E-02  0.1132406E+00
          2   -1    0    0  503    0 -0.00000000000E+00  0.00000000000E+00  0.11333198635E+04  0.11333198635E+04  0.00000000000E+00 0.  1.
         21   -1    0    0  504  502  0.00000000000E+00 -0.00000000000E+00 -0.67142697377E+03  0.67142697377E+03  0.00000000000E+00 0. -1.
         21    1    1    2  503  502 -0.10889867857E+02 -0.54329737978E+02 -0.60576857590E+02  0.82096682797E+02  0.00000000000E+00 0.  1.
         21    1    1    2  504  505 -0.13123545434E+03  0.22566710058E+03 -0.41053929663E+03  0.48650888876E+03  0.00000000000E+00 0. -1.
         21    1    1    2  505  501  0.13847736966E+03 -0.13881736193E+03 -0.87779052961E+02  0.21482877838E+03  0.00000000000E+00 0.  1.
          2    1    1    2  501    0  0.36479525394E+01 -0.32520000671E+02  0.10207880970E+04  0.10213124874E+04  0.00000000000E+00 0.  1.
<scales pt_clust_3="58.40541" pt_clust_4="221.99220" pt_clust_5="14000.00000" pt_clust_6="32.72397"></scales>
<clustering>
<clus scale="   32.724">  1  6  2 -1</clus>
<clus scale="   58.405">  2  3  1 -1</clus>
<clus scale="  221.992">  2  4  1 -1</clus>
<clus scale="   58.405">  2  3  1 -1</clus>
</clustering>
</event>
<event>
 6    0  0.1993420E+002  0.9861772E+02  0.7546771E-02  0.1283230E+00
         21   -1    0    0  504  502  0.00000000000E+00  0.00000000000E+00  0.49107086154E+03  0.49107086154E+03  0.00000000000E+00 0.  1.
          1   -1    0    0  503    0 -0.00000000000E+00 -0.00000000000E+00 -0.72002699986E+03  0.72002699986E+03  0.00000000000E+00 0.  1.
         21    1    1    2  503  505  0.45001341451E+02  0.12850806133E+01  0.11963352551E+02  0.46582120699E+02  0.00000000000E+00 0.  1.
         21    1    1    2  504  501 -0.15173963617E+02  0.97836026064E+02  0.40695898254E+03  0.41882902315E+03  0.00000000000E+00 0.  1.
         21    1    1    2  505  502  0.58643354690E+01 -0.95701323533E+02  0.93290039247E+00  0.95885369372E+02  0.00000000000E+00 0.  1.
          1    1    1    2  501    0 -0.35691713303E+02 -0.34197831439E+01 -0.64881137380E+03  0.64980134818E+03  0.00000000000E+00 0.  1.
<scales pt_clust_3="36.26831" pt_clust_4="14000.00000" pt_clust_5="98.61772" pt_clust_6="35.85517"></scales>
<clustering>
<clus scale="   35.855">  2  6  1 -1</clus>
<clus scale="   36.268">  2  3  1 -1</clus>
<clus scale="   98.618">  2  5  1 -1</clus>
<clus scale="   98.618">  1  3  2 -1</clus>
</clustering>
</event>
<event>
 6    0  0.1993420E+002  0.8607320E+02  0.7546771E-02  0.1312650E+00
         21   -1    0    0  503  502  0.00000000000E+00  0.00000000000E+00  0.31398281121E+03  0.31398281121E+03  0.00000000000E+00 0. -1.
          2   -1    0    0  505    0 -0.00000000000E+00 -0.00000000000E+00 -0.61376383542E+03  0.61376383542E+03  0.00000000000E+00 0. -1.
         21    1    1    2  503  501 -0.48328877612E+02 -0.85010638028E+02  0.99569620587E+02  0.13955858387E+03  0.00000000000E+00 0. -1.
         21    1    1    2  504  502  0.91013046953E+01  0.30367022581E+02  0.71582071330E+02  0.78287819892E+02  0.00000000000E+00 0. -1.
         21    1    1    2  505  504 -0.44987300534E+02  0.34578590701E+02  0.10935022542E+03  0.12319499967E+03  0.00000000000E+00 0. -1.
          2    1    1    2  501    0  0.84214873451E+02  0.20065024746E+02 -0.58028294155E+03  0.58670524318E+03  0.00000000000E+00 0. -1.
<scales pt_clust_3="86.07320" pt_clust_4="31.70157" pt_clust_5="63.87864" pt_clust_6="14000.00000"></scales>
<clustering>
<clus scale="   31.702">  1  4  2 -1</clus>
<clus scale="   63.879">  1  5  2 -1</clus>
<clus scale="   86.073">  1  3  2 -1</clus>
<clus scale="   31.702">  1  3  2 -1</clus>
</clustering>
</event>
<event>
 6    0  0.1993420E+002  0.1119149E+03  0.7546771E-02  0.1257064E+00
          1   -1    0    0  503    0 -0.00000000000E+00  0.00000000000E+00  0.41422692819E+03  0.41422692819E+03  0.00000000000E+00 0.  1.
         21   -1    0    0  504  502  0.00000000000E+00 -0.00000000000E+00 -0.58488556346E+03  0.58488556346E+03  0.00000000000E+00 0.  1.
         21    1    1    2  503  505  0.11395041551E+02  0.72752730725E+02 -0.86324258231E+02  0.11346666629E+03  0.00000000000E+00 0.  1.
         21    1    1    2  504  501 -0.11263277635E+03 -0.10495265246E+03 -0.29950935687E+03  0.33675964191E+03  0.00000000000E+00 0.  1.
         21    1    1    2  505  502  0.94763490929E+02  0.22491875624E+01 -0.15270451654E+03  0.17973271107E+03  0.00000000000E+00 0.  1.
          1    1    1    2  501    0  0.64742438731E+01  0.29950734171E+02  0.36787949637E+03  0.36915347237E+03  0.00000000000E+00 0.  1.
<scales pt_clust_3="82.72392" pt_clust_4="111.91487" pt_clust_5="14000.00000" pt_clust_6="30.64249"></scales>
<clustering>
<clus scale="   30.642">  1  6  2 -1</clus>
<clus scale="   82.724">  1  3  2 -1</clus>
<clus scale="  111.915">  1  4  2 -1</clus>
<clus scale="  111.915">  2  3  1 -1</clus>
</clustering>
</event>
<event>
 6    0  0.1993420E+002  0.1747849E+03  0.7546771E-02  0.1172948E+00
          2   -1    0    0  505    0 -0.00000000000E+00  0.00000000000E+00  0.60782941094E+03  0.60782941094E+03  0.00000000000E+00 0.  1.
         21   -1    0    0  504  502  0.00000000000E+00 -0.00000000000E+00 -0.23242646296E+03  0.23242646296E+03  0.00000000000E+00 0. -1.
         21    1    1    2  503  501 -0.12386422493E+03 -0.57836603331E+02  0.14655682138E+03  0.20041537065E+03  0.00000000000E+00 0. -1.
         21    1    1    2  504  503  0.18727043214E+03  0.12776137361E+01 -0.15221386145E+03  0.24133152854E+03  0.00000000000E+00 0. -1.
         21    1    1    2  505  502 -0.24681791308E+02  0.18979913162E+02  0.29698994688E+02  0.43028574358E+02  0.00000000000E+00 0. -1.
          2    1    1    2  501    0 -0.38724415908E+02  0.37579076433E+02  0.35136099336E+03  0.35548040034E+03  0.00000000000E+00 0.  1.
<scales pt_clust_3="174.78493" pt_clust_4="14000.00000" pt_clust_5="31.13564" pt_clust_6="73.12296"></scales>
<clustering>
<clus scale="   31.136">  1  5  2 -1</clus>
<clus scale="   73.123">  1  6  2 -1</clus>
<clus scale="  174.785">  1  3  2 -1</clus>
<clus scale="  174.785">  2  3  1 -1</clus>
</clustering>
</event>
<event>
 6    0  0.1993420E+002  0.9487024E+02  0.7546771E-02  0.1291469E+00
         21   -1    0    0  504  502  0.00000000000E+00  0.00000000000E+00  0.41891750262E+02  0.41891750262E+02  0.00000000000E+00 0.  1.
          1   -1    0    0  502    0 -0.00000000000E+00 -0.00000000000E+00 -0.26265482483E+04  0.26265482483E+04  0.00000000000E+00 0.  1.
         21    1    1    2  503  505 -0.12083118378E+02 -0.90269870831E+02 -0.45028332905E+02  0.10159823864E+03  0.00000000000E+00 0.  1.
         21    1    1    2  504  503  0.51063481313E+02  0.69602577122E+00 -0.94262670230E+02  0.10720734385E+03  0.00000000000E+00 0.  1.
         21    1    1    2  505  501  0.41725070263E+02  0.10977237514E+03 -0.54780656206E+03  0.56025260844E+03  0.00000000000E+00 0. -1.
          1    1    1    2  501    0 -0.80705433198E+02 -0.20198530084E+02 -0.18975589329E+04  0.18993818077E+04  0.00000000000E+00 0.  1.
<scales pt_clust_3="14000.00000" pt_clust_4="51.06822" pt_clust_5="94.87024" pt_clust_6="81.91616"></scales>
<clustering>
<clus scale="   51.068">  1  4  2 -1</clus>
<clus scale="   81.916">  2  6  1 -1</clus>
<clus scale="   94.870">  2  5  1 -1</clus>
<clus scale="   51.068">  1  3  2 -1</clus>
</clustering>
</event>
<event>
 6    0  0.1993420E+002  0.1246468E+03  0.7546771E-02  0.1235622E+00
          2   -1    0    0  505    0 -0.00000000000E+00  0.00000000000E+00  0.24517107255E+04  0.24517107255E+04  0.00000000000E+00 0.  1.
         21   -1    0    0  503  502  0.00000000000E+00 -0.00000000000E+00 -0.18266348929E+03  0.18266348929E+03  0.00000000000E+00 0.  1.
         21    1    1    2  503  501 -0.10431215810E+02  0.12497657692E+03 -0.15387258516E+03  0.19850624047E+03  0.00000000000E+00 0.  1.
         21    1    1    2  504  502  0.40036429252E+02 -0.23945475019E+02  0.11149014118E+03  0.12085674587E+03  0.00000000000E+00 0. -1.
         21    1    1    2  505  504  0.51291593349E+00 -0.41090117594E+02  0.34516254529E+03  0.34760012013E+03  0.00000000000E+00 0. -1.
          2    1    1    2  501    0 -0.30118129375E+02 -0.59940984310E+02  0.19662671349E+04  0.19674111083E+04  0.00000000000E+00 0.  1.
<scales pt_clust_3="124.64680" pt_clust_4="47.87793" pt_clust_5="41.09332" pt_clust_6="14000.00000"></scales>
<clustering>
<clus scale="   41.093">  1  5  2 -1</clus>
<clus scale="   47.878">  1  4  2 -1</clus>
<clus scale="  124.647">  2  3  1 -1</clus>
<clus scale="  124.647">  2  3  1 -1</clus>
</clustering>
</event>
<event>
 6    0  0.1993420E+002  0.3837494E+03  0.7546771E-02  0.1049557E+00
          1   -1    0    0  504    0 -0.00000000000E+00  0.00000000000E+00  0.14952582466E+04  0.14952582466E+04  0.00000000000E+00 0. -1.
         21   -1    0    0  505  502  0.00000000000E+00 -0.00000000000E+00 -0.59718054515E+03  0.59718054515E+03  0.00000000000E+00 0.  1.
         21    1    1    2  503  501 -0.33694069459E+03  0.36024529032E+02  0.24004201681E+03  0.41526734545E+03  0.00000000000E+00 0.  1.
         21    1    1    2  504  502  0.19857458185E+02  0.23927252326E+02  0.10033044597E+02  0.32672527195E+02  0.00000000000E+00 0.  1.
         21    1    1    2  505  503  0.36476193449E+03 -0.13756242071E+03 -0.41975668253E+03  0.57286155481E+03  0.00000000000E+00 0.  1.
          1    1    1    2  501    0 -0.47678698082E+02  0.77610639356E+02  0.10677593225E+04  0.10716373643E+04  0.00000000000E+00 0. -1.
<scales pt_clust_3="14000.00000" pt_clust_4="31.09392" pt_clust_5="383.74942" pt_clust_6="91.11918"></scales>
<clustering>
<clus scale="   31.094">  2  4  1 -1</clus>
<clus scale="   91.119">  1  6  2 -1</clus>
<clus scale="  383.749">  2  5  1 -1</clus>
<clus scale="   31.094">  2  3  1 -1</clus>
</clustering>
</event>
<event>
 6    0  0.1993420E+002  0.9807751E+02  0.7546771E-02  0.1284391E+00
         21   -1    0    0  503  502  0.00000000000E+00  0.00000000000E+00  0.11331970813E+03  0.11331970813E+03  0.00000000000E+00 0.  1.
         -3   -1    0    0    0  501 -0.00000000000E+00 -0.00000000000E+00 -0.73364586034E+03  0.73364586034E+03  0.00000000000E+00 0. -1.
         21    1    1    2  503  501 -0.28829255450E+02 -0.80706644575E+02  0.47822762192E+02  0.98141250410E+02  0.00000000000E+00 0.  1.
         21    1    1    2  504  502  0.33334146877E+02 -0.69536603428E+01  0.59235104529E+01  0.34563083142E+02  0.00000000000E+00 0.  1.
         21    1    1    2  505  504 -0.72639409943E+02  0.15633802021E+02 -0.69921917263E+02  0.10202928088E+03  0.00000000000E+00 0. -1.
         -3    1    1    2    0  505  0.68134518516E+02  0.72026502897E+02 -0.60415050759E+03  0.61223195405E+03  0.00000000000E+00 0. -1.
<scales pt_clust_3="98.07751" pt_clust_4="34.05171" pt_clust_5="68.42970" pt_clust_6="14000.00000"></scales>
<clustering>
<clus scale="   34.052">  1  4  2 -1</clus>
<clus scale="   68.430">  1  5  2 -1</clus>
<clus scale="   98.078">  1  3  2 -1</clus>
<clus scale="   34.052">  1  3  2 -1</clus>
</clustering>
</event>
<event>
 6    0  0.1993420E+002  0.7401089E+02  0.7546771E-02  0.1346962E+00
          1   -1    0    0  503    0 -0.00000000000E+00  0.00000000000E+00  0.36297188078E+03  0.36297188078E+03  0.00000000000E+00 0.  1.
         21   -1    0    0  504  502  0.00000000000E+00 -0.00000000000E+00 -0.51200220056E+03  0.51200220056E+03  0.00000000000E+00 0. -1.
         21    1    1    2  503  502  0.16035163497E+02  0.12820204475E+03 -0.87958236009E+02  0.15629952664E+03  0.00000000000E+00 0. -1.
         21    1    1    2  504  505  0.13099476170E+01 -0.53872024224E+02 -0.36601143064E+03  0.36995713038E+03  0.00000000000E+00 0. -1.
         21    1    1    2  505  501 -0.52144087250E+01 -0.46520595020E+02  0.48099424375E+01  0.47058382523E+02  0.00000000000E+00 0. -1.
          1    1    1    2  501    0 -0.12130702389E+02 -0.27809425510E+02  0.30012940443E+03  0.30165904179E+03  0.00000000000E+00 0.  1.
<scales pt_clust_3="14000.00000" pt_clust_4="54.76362" pt_clust_5="74.01089" pt_clust_6="30.34004"></scales>
<clustering>
<clus scale="   30.340">  1  6  2 -1</clus>
<clus scale="   54.764">  2  4  1 -1</clus>
<clus scale="   74.011">  1  5  2 -1</clus>
<clus scale="   54.764">  2  3  1 -1</clus>
</clustering>
</event>
<event>
 6    0  0.1993420E+002  0.1673303E+03  0.7546771E-02  0.1180661E+00
          2   -1    0    0  504    0 -0.00000000000E+00  0.00000000000E+00  0.12980860869E+04  0.12980860869E+04  0.00000000000E+00 0.  1.
         21   -1    0    0  505  502  0.00000000000E+00 -0.00000000000E+00 -0.36009724991E+03  0.36009724991E+03  0.00000000000E+00 0. -1.
         21    1    1    2  503  501 -0.10739572191E+03 -0.15876993854E+02  0.18016164236E+02  0.11004772688E+03  0.00000000000E+00 0.  1.
         21    1    1    2  504  502 -0.55841550557E+01 -0.33854669352E+02 -0.67310435364E+02  0.75551413842E+02  0.00000000000E+00 0.  1.
         21    1    1    2  505  503 -0.56003218083E+02  0.25347842629E+01 -0.23305265970E+03  0.23970049596E+03  0.00000000000E+00 0. -1.
          2    1    1    2  501    0  0.16898309505E+03  0.47196878942E+02  0.12203357678E+04  0.12328837001E+04  0.00000000000E+00 0.  1.
<scales pt_clust_3="167.33028" pt_clust_4="34.31212" pt_clust_5="65.60363" pt_clust_6="14000.00000"></scales>
<clustering>
<clus scale="   34.312">  2  4  1 -1</clus>
<clus scale="   65.604">  2  5  1 -1</clus>
<clus scale="  167.330">  2  3  1 -1</clus>
<clus scale="   34.312">  2  3  1 -1</clus>
</clustering>
</event>
<event>
 6    0  0.1993420E+002  0.1141765E+03  0.7546771E-02  0.1253025E+00
          1   -1    0    0  504    0 -0.00000000000E+00  0.00000000000E+00  0.17429657283E+04  0.17429657283E+04  0.00000000000E+00 0. -1.
         21   -1    0    0  505  502  0.00000000000E+00 -0.00000000000E+00 -0.53290116334E+02  0.53290116334E+02  0.00000000000E+00 0.  1.
         21    1    1    2  503  502  0.44096069675E+02 -0.39129483549E+02  0.12568888476E+03  0.13882822334E+03  0.00000000000E+00 0.  1.
         21    1    1    2  504  503  0.70206873560E+02 -0.26667299892E+02  0.28592371797E+03  0.29562226316E+03  0.00000000000E+00 0.  1.
         21    1    1    2  505  501 -0.88547731317E+02  0.49667550123E+02  0.20126568554E+02  0.10350190828E+03  0.00000000000E+00 0.  1.
          1    1    1    2  501    0 -0.25755211917E+02  0.16129233318E+02  0.12579364407E+04  0.12583034499E+04  0.00000000000E+00 0. -1.
<scales pt_clust_3="41.32811" pt_clust_4="41.32811" pt_clust_5="105.39618" pt_clust_6="30.38886"></scales>
<clustering>
<clus scale="   30.389">  1  6  2 -1</clus>
<clus scale="   41.328">  3  4 -1 -1</clus>
<clus scale="  105.396">  2  5  1 -1</clus>
<clus scale="  105.396">  2  3  1 -1</clus>
</clustering>
</event>
<event>
 6    0  0.1993420E+002  0.2219550E+03  0.7546771E-02  0.1132434E+00
         21   -1    0    0  504  502  0.00000000000E+00  0.00000000000E+00  0.59837939347E+02  0.59837939347E+02  0.00000000000E+00 0. -1.
          2   -1    0    0  502    0 -0.00000000000E+00 -0.00000000000E+00 -0.19800521951E+04  0.19800521951E+04  0.00000000000E+00 0. -1.
         21    1    1    2  503  501  0.34846018081E+02 -0.22161188031E+03 -0.12825597040E+04  0.13020312841E+04  0.00000000000E+00 0. -1.
         21    1    1    2  504  505 -0.24335160428E+02  0.13751136178E+03 -0.11601702883E+03  0.18155309314E+03  0.00000000000E+00 0. -1.
         21    1    1    2  505  503 -0.45777555093E+02  0.66711675039E+02 -0.83000814328E+02  0.11591016917E+03  0.00000000000E+00 0. -1.
          2    1    1    2  501    0  0.35266697440E+02  0.17388843489E+02 -0.43863670860E+03  0.44039558803E+03  0.00000000000E+00 0. -1.
<scales pt_clust_3="216.81924" pt_clust_4="36.13275" pt_clust_5="36.13275" pt_clust_6="39.32063"></scales>
<clustering>
<clus scale="   36.133">  4  5 -1 -1</clus>
<clus scale="   39.321">  2  6  1 -1</clus>
<clus scale="  216.819">  2  3  1 -1</clus>
<clus scale="  221.955">  1  3  2 -1</clus>
</clustering>
</event>
<event>
 6    0  0.1993420E+002  0.1390141E+03  0.7546771E-02  0.1214662E+00
         -3   -1    0    0    0  501 -0.00000000000E+00  0.00000000000E+00  0.19189500079E+04  0.19189500079E+04  0.00000000000E+00 0. -1.
         21   -1    0    0  504  502  0.00000000000E+00 -0.00000000000E+00 -0.30102769764E+03  0.30102769764E+03  0.00000000000E+00 0. -1.
         21    1    1    2  503  505 -0.74297461676E+02  0.12892240967E+03  0.14658154034E+02  0.14951910248E+03  0.00000000000E+00 0.  1.
         21    1    1    2  504  503  0.13323932414E+03 -0.52898988104E+02 -0.20354773598E+03  0.24896325284E+03  0.00000000000E+00 0. -1.
         21    1    1    2  505  501  0.45564407491E+01  0.32518054744E+02  0.47784660292E+02  0.57978951318E+02  0.00000000000E+00 0. -1.
         -3    1    1    2    0  502 -0.63498303209E+02 -0.10854147631E+03  0.17590272320E+04  0.17635163990E+04  0.00000000000E+00 0. -1.
<scales pt_clust_3="14000.00000" pt_clust_4="139.01408" pt_clust_5="32.83573" pt_clust_6="97.80048"></scales>
<clustering>
<clus scale="   32.836">  1  5  2 -1</clus>
<clus scale="   97.800">  1  6  2 -1</clus>
<clus scale="  139.014">  2  4  1 -1</clus>
<clus scale="  139.014">  2  3  1 -1</clus>
</clustering>
</event>
<event>
 6    0  0.2535995E+002  0.7334146E+02  0.7546771E-02  0.1349085E+00
          1   -1    0    0  504    0 -0.00000000000E+00  0.00000000000E+00  0.11151165304E+04  0.11151165304E+04  0.00000000000E+00 0.  1.
         21   -1    0    0  505  502  0.00000000000E+00 -0.00000000000E+00 -0.94433167516E+03  0.94433167516E+03  0.00000000000E+00 0. -1.
         21    1    1    2  503  502  0.66419236655E+02 -0.29824872355E+02 -0.81956193975E+03  0.82278965179E+03  0.00000000000E+00 0. -1.
         21    1    1    2  504  503  0.73067887879E+02  0.25505223657E+02 -0.29103000919E+02  0.82682630191E+02  0.00000000000E+00 0. -1.
         21    1    1    2  505  501 -0.88060473076E+02  0.56626398655E+01 -0.37424422183E+02  0.95850403152E+02  0.00000000000E+00 0. -1.
          1    1    1    2  501    0 -0.51426651458E+02 -0.13429911675E+01  0.10568742181E+04  0.10581255204E+04  0.00000000000E+00 0.  1.
<scales pt_clust_3="14000.00000" pt_clust_4="55.09435" pt_clust_5="73.34146" pt_clust_6="51.44418"></scales>
<clustering>
<clus scale="   51.444">  1  6  2 -1</clus>
<clus scale="   55.094">  1  4  2 -1</clus>
<clus scale="   73.341">  1  5  2 -1</clus>
<clus scale="   73.341">  2  3  1 -1</clus>
</clustering>
</event>
<event>
 6    0  0.1993420E+002  0.7481842E+02  0.7546771E-02  0.1344434E+00
          2   -1    0    0  503    0 -0.00000000000E+00  0.00000000000E+00  0.12629195172E+04  0.12629195172E+04  0.00000000000E+00 0. -1.
         21   -1    0    0  504  502  0.00000000000E+00 -0.00000000000E+00 -0.47387128168E+02  0.47387128168E+02  0.00000000000E+00 0. -1.
         21    1    1    2  503  502 -0.70512447672E+01 -0.39836879641E+02  0.34559840096E+02  0.53207890202E+02  0.00000000000E+00 0. -1.
         21    1    1    2  504  505 -0.71245222742E+02 -0.29256369556E+01  0.20612161562E+02  0.74224674599E+02  0.00000000000E+00 0. -1.
         21    1    1    2  505  501  0.31140555660E+02  0.83177390537E+02  0.18170053847E+03  0.20224563823E+03  0.00000000000E+00 0. -1.
          2    1    1    2  501    0  0.47155911849E+02 -0.40414873940E+02  0.97865984887E+03  0.98062844230E+03  0.00000000000E+00 0. -1.
<scales pt_clust_3="40.45611" pt_clust_4="14000.00000" pt_clust_5="74.81842" pt_clust_6="62.64350"></scales>
<clustering>
<clus scale="   40.456">  2  3  1 -1</clus>
<clus scale="   62.643">  1  6  2 -1</clus>
<clus scale="   74.818">  1  5  2 -1</clus>
<clus scale="   40.456">  2  3  1 -1</clus>
</clustering>
</event>
<event>
 6    0  0.1993420E+002  0.1654889E+03  0.7546771E-02  0.1182636E+00
         21   -1    0    0  505  502  0.00000000000E+00  0.00000000000E+00  0.16967766767E+02  0.16967766767E+02  0.00000000000E+00 0.  1.
          2   -1    0    0  503    0 -0.00000000000E+00 -0.00000000000E+00 -0.21671971422E+04  0.21671971422E+04  0.00000000000E+00 0.  1.
         21    1    1    2  503  504  0.90647251198E+02 -0.31367212846E+02 -0.41614016699E+03  0.42705206331E+03  0.00000000000E+00 0.  1.
         21    1    1    2  504  502  0.52771780294E+02 -0.10682678700E+02 -0.84173586994E+02  0.99920834499E+02  0.00000000000E+00 0.  1.
         21    1    1    2  505  501 -0.94332295803E+02  0.65756552470E+01 -0.10037266673E+04  0.10081711382E+04  0.00000000000E+00 0.  1.
          2    1    1    2  501    0 -0.49086735688E+02  0.35474236299E+02 -0.64618895414E+03  0.64902087295E+03  0.00000000000E+00 0.  1.
<scales pt_clust_3="53.23818" pt_clust_4="53.23818" pt_clust_5="33.25398" pt_clust_6="155.12512"></scales>
<clustering>
<clus scale="   33.254">  5  6 -1 -1</clus>
<clus scale="   53.238">  3  4 -1 -1</clus>
<clus scale="  155.125">  2  5  1 -1</clus>
<clus scale="  165.489">  1  3  2 -1</clus>
</clustering>
</event>
<event>
 6    0  0.1993420E+002  0.1685424E+03  0.7546771E-02  0.1179376E+00
         21   -1    0    0  505  502  0.00000000000E+00  0.00000000000E+00  0.40942164090E+03  0.40942164090E+03  0.00000000000E+00 0. -1.
         -1   -1    0    0    0  501 -0.00000000000E+00 -0.00000000000E+00 -0.24510641258E+03  0.24510641258E+03  0.00000000000E+00 0.  1.
         21    1    1    2  503  501 -0.49105267956E+02  0.90615023857E+02  0.45691728205E+02  0.11273927406E+03  0.00000000000E+00 0. -1.
         21    1    1    2  504  502  0.17595516018E+03 -0.36875805354E+02  0.15976117207E+03  0.24050712155E+03  0.00000000000E+00 0. -1.
         21    1    1    2  505  503  0.25102808420E+02  0.31792251838E+02  0.79514873694E+02  0.89238519743E+02  0.00000000000E+00 0.  1.
         -1    1    1    2    0  504 -0.15195270065E+03 -0.85531470341E+02 -0.12065254565E+03  0.21204313812E+03  0.00000000000E+00 0.  1.
<scales pt_clust_3="107.34621" pt_clust_4="168.54239" pt_clust_5="40.50800" pt_clust_6="14000.00000"></scales>
<clustering>
<clus scale="   40.508">  1  5  2 -1</clus>
<clus scale="  107.346">  1  3  2 -1</clus>
<clus scale="  168.542">  1  4  2 -1</clus>
<clus scale="   40.508">  1  3  2 -1</clus>
</clustering>
</event>
<event>
 6    0  0.1993420E+002  0.2082732E+03  0.7546771E-02  0.1142941E+00
         21   -1    0    0  503  502  0.00000000000E+00  0.00000000000E+00  0.11486716641E+03  0.11486716641E+03  0.00000000000E+00 0.  1.
         -3   -1    0    0    0  501 -0.00000000000E+00 -0.00000000000E+00 -0.71169435702E+03  0.71169435702E+03  0.00000000000E+00 0. -1.
         21    1    1    2  503  501 -0.56881643931E+02 -0.21497293253E+03 -0.24646854709E+03  0.33195726809E+03  0.00000000000E+00 0.  1.
         21    1    1    2  504  502 -0.52728784116E+01  0.12728429453E+03 -0.52927707227E+02  0.13795085021E+03  0.00000000000E+00 0.  1.
         21    1    1    2  505  504  0.35141961772E+02  0.60992529906E+02 -0.15374410642E+02  0.72051500221E+02  0.00000000000E+00 0.  1.
         -3    1    1    2    0  505  0.27012560571E+02  0.26696108089E+02 -0.28205652565E+03  0.28460190491E+03  0.00000000000E+00 0. -1.
<scales pt_clust_3="200.70434" pt_clust_4="41.50213" pt_clust_5="41.50213" pt_clust_6="37.97842"></scales>
<clustering>
<clus scale="   37.978">  2  6  1 -1</clus>
<clus scale="   41.502">  4  5 -1 -1</clus>
<clus scale="  200.704">  2  3  1 -1</clus>
<clus scale="  208.273">  1  3  2 -1</clus>
</clustering>
</event>
<event>
 6    0  0.1993420E+002  0.1074273E+03  0.7546771E-02  0.1265410E+00
         21   -1    0    0  504  502  0.00000000000E+00  0.00000000000E+00  0.69814618406E+03  0.69814618406E+03  0.00000000000E+00 0.  1.
          3   -1    0    0  503    0 -0.00000000000E+00 -0.00000000000E+00 -0.36173912048E+03  0.36173912048E+03  0.00000000000E+00 0. -1.
         21    1    1    2  503  502  0.13474506847E+03 -0.78831350981E+02  0.17963494145E+03  0.23799018375E+03  0.00000000000E+00 0.  1.
         21    1    1    2  504  505 -0.34294887003E+02  0.56516311074E+02  0.42578871196E+03  0.43089007870E+03  0.00000000000E+00 0.  1.
         21    1    1    2  505  501 -0.69925122876E+02  0.48164911498E+02  0.29449733606E+02  0.89870286070E+02  0.00000000000E+00 0. -1.
          3    1    1    2  501    0 -0.30525058585E+02 -0.25849871591E+02 -0.29846632343E+03  0.30113475602E+03  0.00000000000E+00 0. -1.
<scales pt_clust_3="107.42731" pt_clust_4="65.86988" pt_clust_5="14000.00000" pt_clust_6="39.99994"></scales>
<clustering>
<clus scale="   40.000">  2  6  1 -1</clus>
<clus scale="   65.870">  1  4  2 -1</clus>
<clus scale="  107.427">  1  3  2 -1</clus>
<clus scale="   65.870">  1  3  2 -1</clus>
</clustering>
</event>
<event>
 6    0  0.1993420E+002  0.9450454E+02  0.7546771E-02  0.1292296E+00
         21   -1    0    0  503  502  0.00000000000E+00  0.00000000000E+00  0.16117154897E+04  0.16117154897E+04  0.00000000000E+00 0. -1.
          1   -1    0    0  505    0 -0.00000000000E+00 -0.00000000000E+00 -0.10020128134E+03  0.10020128134E+03  0.00000000000E+00 0.  1.
         21    1    1    2  503  504  0.62296058456E+02  0.23831826968E+02  0.77631265606E+03  0.77917269898E+03  0.00000000000E+00 0. -1.
         21    1    1    2  504  501 -0.28910610651E+02 -0.95210051750E+02  0.69774185298E+03  0.70480101501E+03  0.00000000000E+00 0. -1.
         21    1    1    2  505  502 -0.26626575284E+02 -0.22932056455E+02  0.10566692940E+03  0.11135687538E+03  0.00000000000E+00 0. -1.
          1    1    1    2  501    0 -0.67588725211E+01  0.94310281237E+02 -0.68207230122E+02  0.11658618162E+03  0.00000000000E+00 0.  1.
<scales pt_clust_3="49.97373" pt_clust_4="14000.00000" pt_clust_5="35.14049" pt_clust_6="94.50454"></scales>
<clustering>
<clus scale="   35.140">  1  5  2 -1</clus>
<clus scale="   49.974">  1  3  2 -1</clus>
<clus scale="   94.505">  2  6  1 -1</clus>
<clus scale="   35.140">  1  3  2 -1</clus>
</clustering>
</event>
<event>
 6    0  0.1993420E+002  0.1136155E+03  0.7546771E-02  0.1254017E+00
          2   -1    0    0  505    0 -0.00000000000E+00  0.00000000000E+00  0.13354026073E+04  0.13354026073E+04  0.00000000000E+00 0.  1.
         21   -1    0    0  501  502  0.00000000000E+00 -0.00000000000E+00 -0.16535429352E+02  0.16535429352E+02  0.00000000000E+00 0.  1.
         21    1    1    2  503  504 -0.43677097114E+02 -0.38959664054E+01  0.16653977398E+03  0.17221603782E+03  0.00000000000E+00 0.  1.
         21    1    1    2  504  502  0.62520068682E+01 -0.37556749250E+02  0.49146980606E+02  0.62169306790E+02  0.00000000000E+00 0.  1.
         21    1    1    2  505  503 -0.43078623121E+02 -0.42204667847E+02  0.29760817869E+03  0.30365709243E+03  0.00000000000E+00 0.  1.
          2    1    1    2  501    0  0.80503713368E+02  0.83657383502E+02  0.80557224471E+03  0.81389559965E+03  0.00000000000E+00 0.  1.
<scales pt_clust_3="31.56284" pt_clust_4="38.07357" pt_clust_5="31.56284" pt_clust_6="107.41685"></scales>
<clustering>
<clus scale="   31.563">  3  5 -1 -1</clus>
<clus scale="   38.074">  2  4  1 -1</clus>
<clus scale="  107.417">  1  6  2 -1</clus>
<clus scale="   38.074">  2  3  1 -1</clus>
</clustering>
</event>
<event>
 6    0  0.1993420E+002  0.1167943E+03  0.7546771E-02  0.1248481E+00
         21   -1    0    0  503  502  0.00000000000E+00  0.00000000000E+00  0.74658841370E+02  0.74658841370E+02  0.00000000000E+00 0.  1.
          2   -1    0    0  505    0 -0.00000000000E+00 -0.00000000000E+00 -0.11420602709E+04  0.11420602709E+04  0.00000000000E+00 0.  1.
         21    1    1    2  503  504 -0.38281625260E+02  0.94126569888E+01 -0.86061055192E+01  0.40350291156E+02  0.00000000000E+00 0.  1.
         21    1    1    2  504  501 -0.14077159733E+02  0.67255252717E+02  0.23210796624E+02  0.72527074421E+02  0.00000000000E+00 0.  1.
         21    1    1    2  505  502  0.76455672937E+01  0.35045789679E+02 -0.35591468633E+02  0.50531324077E+02  0.00000000000E+00 0.  1.
          2    1    1    2  501    0  0.44713217699E+02 -0.11171369938E+03 -0.10464146520E+04  0.10533104226E+04  0.00000000000E+00 0.  1.
<scales pt_clust_3="40.53953" pt_clust_4="14000.00000" pt_clust_5="35.87007" pt_clust_6="116.79432"></scales>
<clustering>
<clus scale="   35.870">  1  5  2 -1</clus>
<clus scale="   40.540">  1  3  2 -1</clus>
<clus scale="  116.794">  2  6  1 -1</clus>
<clus scale="   35.870">  1  3  2 -1</clus>
</clustering>
</event>
<event>
 6    0  0.1993420E+002  0.1132245E+03  0.7546771E-02  0.1254712E+00
         21   -1    0    0  503  502  0.00000000000E+00  0.00000000000E+00  0.14340598420E+04  0.14340598420E+04  0.00000000000E+00 0. -1.
         -4   -1    0    0    0  501 -0.00000000000E+00 -0.00000000000E+00 -0.37744457005E+02  0.37744457005E+02  0.00000000000E+00 0.  1.
         21    1    1    2  503  501 -0.28727140327E+02  0.76938800748E+02  0.48711144960E+03  0.49398622652E+03  0.00000000000E+00 0. -1.
         21    1    1    2  504  505  0.93416996473E+02 -0.33090017340E+02  0.66752084695E+03  0.67483758460E+03  0.00000000000E+00 0. -1.
         21    1    1    2  505  502  0.24610338705E+02 -0.45740149558E+02  0.19578512119E+03  0.20255775407E+03  0.00000000000E+00 0. -1.
         -4    1    1    2    0  504 -0.89300194851E+02  0.18913661504E+01  0.45897967213E+02  0.10042273378E+03  0.00000000000E+00 0.  1.
<scales pt_clust_3="82.12690" pt_clust_4="47.91603" pt_clust_5="47.91603" pt_clust_6="91.86435"></scales>
<clustering>
<clus scale="   47.916">  4  5 -1 -1</clus>
<clus scale="   82.127">  1  3  2 -1</clus>
<clus scale="   91.864">  2  6  1 -1</clus>
<clus scale="   82.127">  1  3  2 -1</clus>
</clustering>
</event>
<event>
 6    0  0.1993420E+002  0.1965399E+03  0.7546771E-02  0.1152692E+00
         21   -1    0    0  503  502  0.00000000000E+00  0.00000000000E+00  0.82942912672E+03  0.82942912672E+03  0.00000000000E+00 0. -1.
         -1   -1    0    0    0  501 -0.00000000000E+00 -0.00000000000E+00 -0.45788869950E+03  0.45788869950E+03  0.00000000000E+00 0.  1.
         21    1    1    2  503  501 -0.32729307288E+02 -0.29698658942E+03  0.26041277072E+03  0.39634209088E+03  0.00000000000E+00 0.  1.
         21    1    1    2  504  502 -0.11457096412E+03  0.14372540461E+03  0.38912870203E+03  0.43035409199E+03  0.00000000000E+00 0. -1.
         21    1    1    2  505  504  0.10980964161E+03  0.86139546369E+02  0.30353676594E+02  0.14282690405E+03  0.00000000000E+00 0.  1.
         -1    1    1    2    0  505  0.37490629797E+02  0.67121638438E+02 -0.30835472212E+03  0.31779473930E+03  0.00000000000E+00 0.  1.
<scales pt_clust_3="196.53991" pt_clust_4="14000.00000" pt_clust_5="167.50403" pt_clust_6="76.88213"></scales>
<clustering>
<clus scale="   76.882">  2  6  1 -1</clus>
<clus scale="  167.504">  2  5  1 -1</clus>
<clus scale="  196.540">  2  3  1 -1</clus>
<clus scale="  196.540">  1  3  2 -1</clus>
</clustering>
</event>
<event>
 6    0  0.1993420E+002  0.2810103E+03  0.7546771E-02  0.1095138E+00
         21   -1    0    0  505  502  0.00000000000E+00  0.00000000000E+00  0.41325774404E+02  0.41325774404E+02  0.00000000000E+00 0.  1.
          2   -1    0    0  503    0 -0.00000000000E+00 -0.00000000000E+00 -0.26667130437E+04  0.26667130437E+04  0.00000000000E+00 0. -1.
         21    1    1    2  503  502 -0.75346798915E+02  0.27291373180E+03 -0.14058988262E+04  0.14341236190E+04  0.00000000000E+00 0.  1.
         21    1    1    2  504  501  0.76973187249E+01 -0.17099620602E+03 -0.46748623922E+03  0.49783765933E+03  0.00000000000E+00 0.  1.
         21    1    1    2  505  504  0.34104968073E+02 -0.10050523558E+03 -0.23349674917E+03  0.25648622399E+03  0.00000000000E+00 0.  1.
          2    1    1    2  501    0  0.33544512117E+02 -0.14122902005E+01 -0.51850545470E+03  0.51959131576E+03  0.00000000000E+00 0. -1.
<scales pt_clust_3="277.12791" pt_clust_4="36.81508" pt_clust_5="36.81508" pt_clust_6="33.57423"></scales>
<clustering>
<clus scale="   33.574">  2  6  1 -1</clus>
<clus scale="   36.815">  4  5 -1 -1</clus>
<clus scale="  277.128">  2  3  1 -1</clus>
<clus scale="  281.010">  1  3  2 -1</clus>
</clustering>
</event>
<event>
 6    0  0.1993420E+002  0.1217122E+03  0.7546771E-02  0.1240299E+00
         -1   -1    0    0    0  501 -0.00000000000E+00  0.00000000000E+00  0.54705621524E+03  0.54705621524E+03  0.00000000000E+00 0.  1.
         21   -1    0    0  505  502  0.00000000000E+00 -0.00000000000E+00 -0.37582552373E+03  0.37582552373E+03  0.00000000000E+00 0. -1.
         21    1    1    2  503  502 -0.90889365422E+01  0.33120241900E+02 -0.16833349455E+01  0.34385939096E+02  0.00000000000E+00 0. -1.
         21    1    1    2  504  501 -0.12507240851E+02 -0.98348898231E+02 -0.35721729852E+02  0.10538016341E+03  0.00000000000E+00 0.  1.
         21    1    1    2  505  504  0.17303668736E+02  0.11880535567E+03 -0.27313448866E+03  0.29835646194E+03  0.00000000000E+00 0. -1.
         -1    1    1    2    0  503  0.42925086577E+01 -0.53576699339E+02  0.48177024497E+03  0.48475917452E+03  0.00000000000E+00 0.  1.
<scales pt_clust_3="34.34471" pt_clust_4="121.71223" pt_clust_5="14000.00000" pt_clust_6="53.60746"></scales>
<clustering>
<clus scale="   34.345">  2  3  1 -1</clus>
<clus scale="   53.607">  1  6  2 -1</clus>
<clus scale="  121.712">  1  4  2 -1</clus>
<clus scale="   34.345">  2  3  1 -1</clus>
</clustering>
</event>
<event>
 6    0  0.1993420E+002  0.1479683E+03  0.7546771E-02  0.1202992E+00
          1   -1    0    0  504    0 -0.00000000000E+00  0.00000000000E+00  0.12494410846E+04  0.12494410846E+04  0.00000000000E+00 0. -1.
         21   -1    0    0  501  502  0.00000000000E+00 -0.00000000000E+00 -0.36869577296E+02  0.36869577296E+02  0.00000000000E+00 0. -1.
         21    1    1    2  503  502  0.38201182386E+02 -0.27477961509E+02  0.21515828242E+02  0.51742628164E+02  0.00000000000E+00 0. -1.
         21    1    1    2  504  505 -0.88319840609E+01 -0.38585699070E+02  0.23009714388E+02  0.45785446065E+02  0.00000000000E+00 0.  1.
         21    1    1    2  505  503  0.11691208396E+02 -0.49291638286E+02  0.85855537763E+02  0.99687127169E+02  0.00000000000E+00 0. -1.
          1    1    1    2  501    0 -0.41060406722E+02  0.11535529886E+03  0.10821904269E+04  0.10890954605E+04  0.00000000000E+00 0. -1.
<scales pt_clust_3="47.02883" pt_clust_4="35.13667" pt_clust_5="47.02883" pt_clust_6="122.44510"></scales>
<clustering>
<clus scale="   35.137">  4  5 -1 -1</clus>
<clus scale="   47.029">  3  4 -1 -1</clus>
<clus scale="  122.445">  1  6  2 -1</clus>
<clus scale="  147.968">  2  3  1 -1</clus>
</clustering>
</event>
<event>
 6    0  0.1993420E+002  0.3013498E+03  0.7546771E-02  0.1084568E+00
         21   -1    0    0  504  502  0.00000000000E+00  0.00000000000E+00  0.45442164390E+03  0.45442164390E+03  0.00000000000E+00 0.  1.
          2   -1    0    0  505    0 -0.00000000000E+00 -0.00000000000E+00 -0.13557632038E+04  0.13557632038E+04  0.00000000000E+00 0. -1.
         21    1    1    2  503  502  0.28026665403E+03  0.56308270693E+02  0.21228138596E+03  0.35606657458E+03  0.00000000000E+00 0.  1.
         21    1    1    2  504  501 -0.34774046937E+03  0.12519470724E+02 -0.23894519881E+02  0.34878520505E+03  0.00000000000E+00 0.  1.
         21    1    1    2  505  503  0.31205585768E+02 -0.19304045274E+01 -0.31534335764E+02  0.44406411439E+02  0.00000000000E+00 0. -1.
          2    1    1    2  501    0  0.36268229568E+02 -0.66897336889E+02 -0.10581940903E+04  0.10609266567E+04  0.00000000000E+00 0. -1.
<scales pt_clust_3="14000.00000" pt_clust_4="301.34977" pt_clust_5="31.26524" pt_clust_6="91.92515"></scales>
<clustering>
<clus scale="   31.265">  2  5  1 -1</clus>
<clus scale="   91.925">  2  6  1 -1</clus>
<clus scale="  301.350">  2  4  1 -1</clus>
<clus scale="  301.350">  1  3  2 -1</clus>
</clustering>
</event>
<event>
 6    0  0.1993420E+002  0.1472482E+03  0.7546771E-02  0.1203896E+00
          3   -1    0    0  505    0 -0.00000000000E+00  0.00000000000E+00  0.19248573110E+04  0.19248573110E+04  0.00000000000E+00 0.  1.
         21   -1    0    0  504  502  0.00000000000E+00 -0.00000000000E+00 -0.74520304926E+02  0.74520304926E+02  0.00000000000E+00 0. -1.
         21    1    1    2  503  502  0.52138674947E+01 -0.56397995008E+02  0.29490503282E+02  0.63856151144E+02  0.00000000000E+00 0. -1.
         21    1    1    2  504  501  0.84188054082E+02  0.11611327954E+03  0.82306730199E+02  0.16536118037E+03  0.00000000000E+00 0.  1.
         21    1    1    2  505  503 -0.61980502849E+02 -0.42429314890E+02  0.74458750508E+02  0.10576358080E+03  0.00000000000E+00 0.  1.
          3    1    1    2  501    0 -0.27421418727E+02 -0.17285969647E+02  0.16640810221E+04  0.16643967036E+04  0.00000000000E+00 0.  1.
<scales pt_clust_3="58.56601" pt_clust_4="129.25137" pt_clust_5="58.56601" pt_clust_6="32.41510"></scales>
<clustering>
<clus scale="   32.415">  1  6  2 -1</clus>
<clus scale="   58.566">  3  5 -1 -1</clus>
<clus scale="  129.251">  1  4  2 -1</clus>
<clus scale="  147.248">  2  3  1 -1</clus>
</clustering>
</event>
<event>
 6    0  0.1993420E+002  0.1262400E+03  0.7546771E-02  0.1233144E+00
          1   -1    0    0  504    0 -0.00000000000E+00  0.00000000000E+00  0.37520813721E+03  0.37520813721E+03  0.00000000000E+00 0.  1.
         21   -1    0    0  505  502  0.00000000000E+00 -0.00000000000E+00 -0.12642147380E+04  0.12642147380E+04  0.00000000000E+00 0.  1.
         21    1    1    2  503  502 -0.36950172835E+02 -0.44659703208E+00 -0.26636181143E+03  0.26891286565E+03  0.00000000000E+00 0.  1.
         21    1    1    2  504  503  0.69580697371E+02  0.86431414067E+02 -0.14497066116E+03  0.18256055265E+03  0.00000000000E+00 0.  1.
         21    1    1    2  505  501  0.94008714514E+02 -0.88342541948E+02 -0.81628940742E+03  0.82642025616E+03  0.00000000000E+00 0.  1.
          1    1    1    2  501    0 -0.12663923905E+03  0.23577249127E+01  0.33861527919E+03  0.36152920080E+03  0.00000000000E+00 0.  1.
<scales pt_clust_3="36.95287" pt_clust_4="107.19641" pt_clust_5="126.24000" pt_clust_6="14000.00000"></scales>
<clustering>
<clus scale="   36.953">  2  3  1 -1</clus>
<clus scale="  107.196">  2  4  1 -1</clus>
<clus scale="  126.240">  2  5  1 -1</clus>
<clus scale="   36.953">  2  3  1 -1</clus>
</clustering>
</event>
<event>
 6    0  0.1993420E+002  0.1341060E+03  0.7546771E-02  0.1221487E+00
          2   -1    0    0  504    0 -0.00000000000E+00  0.00000000000E+00  0.34356285197E+04  0.34356285197E+04  0.00000000000E+00 0. -1.
         21   -1    0    0  505  502  0.00000000000E+00 -0.00000000000E+00 -0.20359693767E+03  0.20359693767E+03  0.00000000000E+00 0. -1.
         21    1    1    2  503  501  0.86660424131E+02  0.97472618543E+02  0.73735191226E+01  0.13063425761E+03  0.00000000000E+00 0. -1.
         21    1    1    2  504  502 -0.14255950637E+02  0.26956508290E+02 -0.41613079138E+02  0.51590055467E+02  0.00000000000E+00 0.  1.
         21    1    1    2  505  503 -0.33887764123E+02  0.43833441464E+01 -0.90914797249E+02  0.97124119672E+02  0.00000000000E+00 0. -1.
          2    1    1    2  501    0 -0.38516709371E+02 -0.12881247098E+03  0.33571859393E+04  0.33598770247E+04  0.00000000000E+00 0. -1.
<scales pt_clust_3="14000.00000" pt_clust_4="30.49402" pt_clust_5="47.13007" pt_clust_6="134.10603"></scales>
<clustering>
<clus scale="   30.494">  2  4  1 -1</clus>
<clus scale="   47.130">  2  5  1 -1</clus>
<clus scale="  134.106">  1  6  2 -1</clus>
<clus scale="   30.494">  2  3  1 -1</clus>
</clustering>
</event>
<event>
 6    0  0.1993420E+002  0.2051236E+03  0.7546771E-02  0.1145487E+00
          1   -1    0    0  505    0 -0.00000000000E+00  0.00000000000E+00  0.21449908180E+03  0.21449908180E+03  0.00000000000E+00 0. -1.
         21   -1    0    0  503  502  0.00000000000E+00 -0.00000000000E+00 -0.53171294130E+03  0.53171294130E+03  0.00000000000E+00 0.  1.
         21    1    1    2  503  504 -0.30227142011E+02 -0.11439262954E+03 -0.86755571779E+02  0.14671701688E+03  0.00000000000E+00 0.  1.
         21    1    1    2  504  501  0.37024753279E+02 -0.54776042799E+02 -0.25882065462E+02  0.71000905154E+02  0.00000000000E+00 0.  1.
         21    1    1    2  505  502 -0.86139738851E+01  0.20037920456E+03 -0.33714343158E+03  0.39229035117E+03  0.00000000000E+00 0.  1.
          1    1    1    2  501    0  0.18163626167E+01 -0.31210532220E+02  0.13256720932E+03  0.13620374988E+03  0.00000000000E+00 0. -1.
<scales pt_clust_3="58.72672" pt_clust_4="58.72672" pt_clust_5="189.80538" pt_clust_6="31.26334"></scales>
<clustering>
<clus scale="   31.263">  1  6  2 -1</clus>
<clus scale="   58.727">  3  4 -1 -1</clus>
<clus scale="  189.805">  2  5  1 -1</clus>
<clus scale="  189.805">  2  3  1 -1</clus>
</clustering>
</event>
<event>
 6    0  0.1993420E+002  0.6479070E+02  0.7546771E-02  0.1378761E+00
          2   -1    0    0  504    0 -0.00000000000E+00  0.00000000000E+00  0.15869005297E+04  0.15869005297E+04  0.00000000000E+00 0.  1.
         21   -1    0    0  503  502  0.00000000000E+00 -0.00000000000E+00 -0.22160141893E+03  0.22160141893E+03  0.00000000000E+00 0.  1.
         21    1    1    2  503  501  0.36562262860E+02 -0.87152205237E+02  0.58432696369E+00  0.94512683704E+02  0.00000000000E+00 0. -1.
         21    1    1    2  504  505 -0.27606727948E+02  0.50386570634E+02 -0.10023610865E+03  0.11553447713E+03  0.00000000000E+00 0.  1.
         21    1    1    2  505  502  0.51825456468E+02  0.14335882753E+02 -0.55119938735E+02  0.77003916255E+02  0.00000000000E+00 0.  1.
          2    1    1    2  501    0 -0.60780991380E+02  0.22429751849E+02  0.15200708312E+04  0.15214508716E+04  0.00000000000E+00 0.  1.
<scales pt_clust_3="64.79070" pt_clust_4="60.90401" pt_clust_5="53.77170" pt_clust_6="14000.00000"></scales>
<clustering>
<clus scale="   53.772">  2  5  1 -1</clus>
<clus scale="   60.904">  2  4  1 -1</clus>
<clus scale="   64.791">  2  3  1 -1</clus>
<clus scale="   53.772">  2  3  1 -1</clus>
</clustering>
</event>
<event>
 6    0  0.1993420E+002  0.1442966E+03  0.7546771E-02  0.1207662E+00
          1   -1    0    0  503    0 -0.00000000000E+00  0.00000000000E+00  0.77969400760E+03  0.77969400760E+03  0.00000000000E+00 0. -1.
         21   -1    0    0  501  502  0.00000000000E+00 -0.00000000000E+00 -0.15196854289E+03  0.15196854289E+03  0.00000000000E+00 0.  1.
         21    1    1    2  503  505 -0.35492884933E+02 -0.32389590039E+01 -0.67469352595E+02  0.76304320166E+02  0.00000000000E+00 0.  1.
         21    1    1    2  504  502 -0.25671423542E+02  0.17361254714E+02  0.50127578015E+01  0.31393675998E+02  0.00000000000E+00 0. -1.
         21    1    1    2  505  504 -0.69994574673E+02 -0.37604232388E+02 -0.34869777333E+02  0.86771078986E+02  0.00000000000E+00 0.  1.
          1    1    1    2  501    0  0.13115888315E+03  0.23481936679E+02  0.72505183684E+03  0.73719347534E+03  0.00000000000E+00 0. -1.
<scales pt_clust_3="43.42696" pt_clust_4="30.99089" pt_clust_5="43.42696" pt_clust_6="132.27615"></scales>
<clustering>
<clus scale="   30.991">  2  4  1 -1</clus>
<clus scale="   43.427">  3  5 -1 -1</clus>
<clus scale="  132.276">  1  6  2 -1</clus>
<clus scale="   30.991">  2  3  1 -1</clus>
</clustering>
</event>
<event>
 6    0  0.1993420E+002  0.8129991E+02  0.7546771E-02  0.1325402E+00
         21   -1    0    0  504  502  0.00000000000E+00  0.00000000000E+00  0.13997418628E+03  0.13997418628E+03  0.00000000000E+00 0.  1.
         -2   -1    0    0    0  501 -0.00000000000E+00 -0.00000000000E+00 -0.47549614661E+03  0.47549614661E+03  0.00000000000E+00 0. -1.
         21    1    1    2  503  505 -0.58141107863E+00  0.55066880032E+02  0.19472035939E+02  0.58411124787E+02  0.00000000000E+00 0.  1.
         21    1    1    2  504  501  0.30380336085E+02 -0.10360685884E+03  0.30183567773E+02  0.11210884792E+03  0.00000000000E+00 0.  1.
         21    1    1    2  505  502  0.33591938961E+02 -0.16257402236E+01  0.14902318945E+02  0.36785058167E+02  0.00000000000E+00 0.  1.
         -2    1    1    2    0  503 -0.63390863968E+02  0.50165719027E+02 -0.40007988299E+03  0.40816530202E+03  0.00000000000E+00 0. -1.
<scales pt_clust_3="55.58738" pt_clust_4="81.29991" pt_clust_5="33.63126" pt_clust_6="14000.00000"></scales>
<clustering>
<clus scale="   33.631">  1  5  2 -1</clus>
<clus scale="   55.587">  1  3  2 -1</clus>
<clus scale="   81.300">  1  4  2 -1</clus>
<clus scale="   33.631">  1  3  2 -1</clus>
</clustering>
</event>
<event>
 6    0  0.1993420E+002  0.1070898E+03  0.7546771E-02  0.1266056E+00
         -4   -1    0    0    0  501 -0.00000000000E+00  0.00000000000E+00  0.28501325285E+04  0.28501325285E+04  0.00000000000E+00 0. -1.
         21   -1    0    0  504  502  0.00000000000E+00 -0.00000000000E+00 -0.37442753448E+02  0.37442753448E+02  0.00000000000E+00 0. -1.
         21    1    1    2  503  502 -0.82631743485E+01  0.53534868038E+02  0.14350960246E+03  0.15339252962E+03  0.00000000000E+00 0. -1.
         21    1    1    2  504  505 -0.85063169105E+00  0.58241719813E+02  0.11081524316E+02  0.59292678150E+02  0.00000000000E+00 0. -1.
         21    1    1    2  505  501  0.64863590050E+02 -0.13567889950E+03  0.70553941571E+03  0.72138888001E+03  0.00000000000E+00 0. -1.
         -4    1    1    2    0  503 -0.55749784010E+02  0.23902311644E+02  0.19525592326E+04  0.19535011942E+04  0.00000000000E+00 0. -1.
<scales pt_clust_3="54.16883" pt_clust_4="107.08981" pt_clust_5="14000.00000" pt_clust_6="61.07710"></scales>
<clustering>
<clus scale="   54.169">  2  3  1 -1</clus>
<clus scale="   61.077">  1  6  2 -1</clus>
<clus scale="  107.090">  2  4  1 -1</clus>
<clus scale="   54.169">  2  3  1 -1</clus>
</clustering>
</event>
<event>
 6    0  0.1993420E+002  0.9999890E+02  0.7546771E-02  0.1280298E+00
         21   -1    0    0  504  502  0.00000000000E+00  0.00000000000E+00  0.99436450494E+02  0.99436450494E+02  0.00000000000E+00 0. -1.
          2   -1    0    0  505    0 -0.00000000000E+00 -0.00000000000E+00 -0.28163754587E+04  0.28163754587E+04  0.00000000000E+00 0.  1.
         21    1    1    2  503  501  0.38325681724E+01  0.66681047299E+02  0.20788574601E+01  0.66823441217E+02  0.00000000000E+00 0. -1.
         21    1    1    2  504  503  0.29859487720E+02  0.25100490180E+02  0.26947818389E+02  0.47411059154E+02  0.00000000000E+00 0. -1.
         21    1    1    2  505  502 -0.48203319688E+02  0.80965391217E+01  0.46604860785E+01  0.49100245470E+02  0.00000000000E+00 0. -1.
          2    1    1    2  501    0  0.14511263795E+02 -0.99878076601E+02 -0.27506261701E+04  0.27524771633E+04  0.00000000000E+00 0.  1.
<scales pt_clust_3="99.99890" pt_clust_4="39.00799" pt_clust_5="40.06705" pt_clust_6="14000.00000"></scales>
<clustering>
<clus scale="   39.008">  1  4  2 -1</clus>
<clus scale="   40.067">  1  5  2 -1</clus>
<clus scale="   99.999">  1  3  2 -1</clus>
<clus scale="   39.008">  1  3  2 -1</clus>
</clustering>
</event>
<event>
 6    0  0.1993420E+002  0.9083464E+02  0.7546771E-02  0.1300843E+00
         21   -1    0    0  505  502  0.00000000000E+00  0.00000000000E+00  0.42878966874E+03  0.42878966874E+03  0.00000000000E+00 0. -1.
          2   -1    0    0  504    0 -0.00000000000E+00 -0.00000000000E+00 -0.29932209277E+03  0.29932209277E+03  0.00000000000E+00 0. -1.
         21    1    1    2  503  501 -0.70967983800E+01  0.65756875159E+02  0.52299897376E+01  0.66345187999E+02  0.00000000000E+00 0. -1.
         21    1    1    2  504  502 -0.34710289199E+01  0.43782635252E+02  0.15856040004E+03  0.16453074987E+03  0.00000000000E+00 0.  1.
         21    1    1    2  505  503 -0.29453455655E+02 -0.13239219563E+03  0.20923938123E+03  0.24935179600E+03  0.00000000000E+00 0. -1.
          2    1    1    2  501    0  0.40021282955E+02  0.22852685217E+02 -0.24356219504E+03  0.24788402765E+03  0.00000000000E+00 0. -1.
<scales pt_clust_3="90.83464" pt_clust_4="43.92001" pt_clust_5="14000.00000" pt_clust_6="46.23861"></scales>
<clustering>
<clus scale="   43.920">  1  4  2 -1</clus>
<clus scale="   46.239">  2  6  1 -1</clus>
<clus scale="   90.835">  2  3  1 -1</clus>
<clus scale="   43.920">  1  3  2 -1</clus>
</clustering>
</event>
<event>
 6    0  0.1993420E+002  0.1078184E+03  0.7546771E-02  0.1264664E+00
          2   -1    0    0  502    0 -0.00000000000E+00  0.00000000000E+00  0.12287858258E+04  0.12287858258E+04  0.00000000000E+00 0.  1.
         21   -1    0    0  503  502  0.00000000000E+00 -0.00000000000E+00 -0.10751740358E+03  0.10751740358E+03  0.00000000000E+00 0. -1.
         21    1    1    2  503  504  0.36084932048E+02  0.76312023398E+02 -0.21795345085E+02  0.87181903531E+02  0.00000000000E+00 0. -1.
         21    1    1    2  504  505 -0.49356162412E+02 -0.77684071222E+01  0.31220867923E+02  0.58916224516E+02  0.00000000000E+00 0. -1.
         21    1    1    2  505  501 -0.64205235391E+02 -0.54316311963E+01 -0.88732794705E+01  0.65042677971E+02  0.00000000000E+00 0. -1.
          2    1    1    2  501    0  0.77476465756E+02 -0.63111985079E+02  0.11207161788E+04  0.11251624233E+04  0.00000000000E+00 0.  1.
<scales pt_clust_3="84.41355" pt_clust_4="37.31787" pt_clust_5="37.31787" pt_clust_6="99.14051"></scales>
<clustering>
<clus scale="   37.318">  4  5 -1 -1</clus>
<clus scale="   84.414">  2  3  1 -1</clus>
<clus scale="   99.141">  1  6  2 -1</clus>
<clus scale="   84.414">  2  3  1 -1</clus>
</clustering>
</event>
<event>
 6    0  0.1993420E+002  0.5494994E+03  0.7546771E-02  0.1001610E+00
         21   -1    0    0  504  502  0.00000000000E+00  0.00000000000E+00  0.19245905878E+04  0.19245905878E+04  0.00000000000E+00 0. -1.
          1   -1    0    0  502    0 -0.00000000000E+00 -0.00000000000E+00 -0.28877244355E+03  0.28877244355E+03  0.00000000000E+00 0. -1.
         21    1    1    2  503  501  0.44026205544E+03 -0.12152223027E+03  0.33765066586E+03  0.56798442062E+03  0.00000000000E+00 0. -1.
         21    1    1    2  504  505 -0.14279312210E+03  0.14331728833E+02  0.18674595171E+03  0.23551926599E+03  0.00000000000E+00 0. -1.
         21    1    1    2  505  503 -0.34162322712E+03  0.21312824480E+03  0.11994407529E+04  0.12652225883E+04  0.00000000000E+00 0. -1.
          1    1    1    2  501    0  0.44154293774E+02 -0.10593774337E+03 -0.88019226270E+02  0.14463675647E+03  0.00000000000E+00 0. -1.
<scales pt_clust_3="507.57686" pt_clust_4="125.36618" pt_clust_5="125.36618" pt_clust_6="114.77111"></scales>
<clustering>
<clus scale="  114.771">  2  6  1 -1</clus>
<clus scale="  125.366">  4  5 -1 -1</clus>
<clus scale="  507.577">  2  3  1 -1</clus>
<clus scale="  549.499">  1  3  2 -1</clus>
</clustering>
</event>
<event>
 6    0  0.1993420E+002  0.2011278E+03  0.7546771E-02  0.1148791E+00
          1   -1    0    0  505    0 -0.00000000000E+00  0.00000000000E+00  0.10068633400E+04  0.10068633400E+04  0.00000000000E+00 0.  1.
         21   -1    0    0  504  502  0.00000000000E+00 -0.00000000000E+00 -0.38733645658E+02  0.38733645658E+02  0.00000000000E+00 0.  1.
         21    1    1    2  503  502  0.30626839738E+02 -0.17889117715E+02  0.78413019462E+02  0.86061753794E+02  0.00000000000E+00 0. -1.
         21    1    1    2  504  501  0.18782572896E+02  0.56886636846E+02  0.91914569456E+02  0.10971400355E+03  0.00000000000E+00 0.  1.
         21    1    1    2  505  503  0.12251492591E+02 -0.15767176635E+03  0.39935028621E+03  0.42952431372E+03  0.00000000000E+00 0.  1.
          1    1    1    2  501    0 -0.61660905224E+02  0.11867424722E+03  0.39845181918E+03  0.42029691457E+03  0.00000000000E+00 0.  1.
<scales pt_clust_3="33.18780" pt_clust_4="59.08042" pt_clust_5="193.83296" pt_clust_6="59.08042"></scales>
<clustering>
<clus scale="   33.188">  3  5 -1 -1</clus>
<clus scale="   59.080">  4  6 -1 -1</clus>
<clus scale="  193.833">  1  3  2 -1</clus>
<clus scale="  201.128">  2  3  1 -1</clus>
</clustering>
</event>
<event>
 6    0  0.1993420E+002  0.1106067E+03  0.7546771E-02  0.1259451E+00
         21   -1    0    0  504  502  0.00000000000E+00  0.00000000000E+00  0.23568021035E+03  0.23568021035E+03  0.00000000000E+00 0. -1.
          1   -1    0    0  503    0 -0.00000000000E+00 -0.00000000000E+00 -0.19635672642E+04  0.19635672642E+04  0.00000000000E+00 0.  1.
         21    1    1    2  503  505 -0.32249937862E+01 -0.78261121950E+02 -0.34133637409E+03  0.35020811537E+03  0.00000000000E+00 0. -1.
         21    1    1    2  504  501  0.25809603636E+02  0.99024804623E+02  0.21384665785E+03  0.23707053938E+03  0.00000000000E+00 0. -1.
         21    1    1    2  505  502  0.12562463940E+00 -0.52548097076E+02 -0.11934605200E+03  0.13040244789E+03  0.00000000000E+00 0.  1.
          1    1    1    2  501    0 -0.22710234489E+02  0.31784414403E+02 -0.14810512857E+04  0.14815663720E+04  0.00000000000E+00 0.  1.
<scales pt_clust_3="33.14517" pt_clust_4="102.93821" pt_clust_5="33.14517" pt_clust_6="39.06410"></scales>
<clustering>
<clus scale="   33.145">  3  5 -1 -1</clus>
<clus scale="   39.064">  2  6  1 -1</clus>
<clus scale="  102.938">  1  4  2 -1</clus>
<clus scale="  102.938">  1  3  2 -1</clus>
</clustering>
</event>
<event>
 6    0  0.1993420E+002  0.1172248E+03  0.7546771E-02  0.1247747E+00
          2   -1    0    0  503    0 -0.00000000000E+00  0.00000000000E+00  0.24930742018E+04  0.24930742018E+04  0.00000000000E+00 0. -1.
         21   -1    0    0  504  502  0.00000000000E+00 -0.00000000000E+00 -0.78251039734E+02  0.78251039734E+02  0.00000000000E+00 0.  1.
         21    1    1    2  503  505 -0.31145302454E+02 -0.45932149614E+02  0.79916979057E+02  0.97296021371E+02  0.00000000000E+00 0.  1.
         21    1    1    2  504  501  0.43041173064E+02  0.91912232505E+02  0.84016169849E+01  0.10183804903E+03  0.00000000000E+00 0.  1.
         21    1    1    2  505  502 -0.41573455797E+02 -0.65977089244E+02  0.44263022647E+02  0.89669078873E+02  0.00000000000E+00 0.  1.
          2    1    1    2  501    0  0.29677585188E+02  0.19997006353E+02  0.22822415434E+04  0.22825220923E+04  0.00000000000E+00 0. -1.
<scales pt_clust_3="35.02245" pt_clust_4="109.62695" pt_clust_5="35.02245" pt_clust_6="35.78602"></scales>
<clustering>
<clus scale="   35.022">  3  5 -1 -1</clus>
<clus scale="   35.786">  1  6  2 -1</clus>
<clus scale="  109.627">  2  4  1 -1</clus>
<clus scale="  109.627">  2  3  1 -1</clus>
</clustering>
</event>
<event>
 6    0  0.1993420E+002  0.1392417E+03  0.7546771E-02  0.1214353E+00
         -2   -1    0    0    0  501 -0.00000000000E+00  0.00000000000E+00  0.21589677954E+04  0.21589677954E+04  0.00000000000E+00 0. -1.
         21   -1    0    0  501  502  0.00000000000E+00 -0.00000000000E+00 -0.37218994705E+02  0.37218994705E+02  0.00000000000E+00 0. -1.
         21    1    1    2  503  505  0.70615781578E+02 -0.56888265024E+02  0.78029129975E+02  0.11963029896E+03  0.00000000000E+00 0. -1.
         21    1    1    2  504  503 -0.99464837341E+02  0.11762204387E+03  0.69853108602E+03  0.71531383127E+03  0.00000000000E+00 0. -1.
         21    1    1    2  505  502 -0.40315901389E+00 -0.42550921987E+02  0.50253116708E+02  0.65849215925E+02  0.00000000000E+00 0. -1.
         -2    1    1    2    0  504  0.29252214777E+02 -0.18182856863E+02  0.12949354680E+04  0.12953934440E+04  0.00000000000E+00 0. -1.
<scales pt_clust_3="38.06011" pt_clust_4="127.51426" pt_clust_5="38.06011" pt_clust_6="34.44283"></scales>
<clustering>
<clus scale="   34.443">  1  6  2 -1</clus>
<clus scale="   38.060">  3  5 -1 -1</clus>
<clus scale="  127.514">  1  4  2 -1</clus>
<clus scale="  139.242">  2  3  1 -1</clus>
</clustering>
</event>
<event>
 6    0  0.1993420E+002  0.1307380E+03  0.7546771E-02  0.1226365E+00
          3   -1    0    0  503    0 -0.00000000000E+00  0.00000000000E+00  0.17626871100E+03  0.17626871100E+03  0.00000000000E+00 0.  1.
         21   -1    0    0  501  502  0.00000000000E+00 -0.00000000000E+00 -0.30238494407E+03  0.30238494407E+03  0.00000000000E+00 0. -1.
         21    1    1    2  503  504  0.54032102217E+02  0.16674460854E+02 -0.25636277858E+02  0.62086427319E+02  0.00000000000E+00 0. -1.
         21    1    1    2  504  505  0.40445946716E+02  0.61789755144E+01 -0.65650701843E+02  0.77356764389E+02  0.00000000000E+00 0. -1.
         21    1    1    2  505  502  0.32430660742E+02  0.91640907601E+01 -0.15675330158E+03  0.16033504256E+03  0.00000000000E+00 0.  1.
          3    1    1    2  501    0 -0.12690870968E+03 -0.32017527128E+02  0.12192404821E+03  0.17887542080E+03  0.00000000000E+00 0.  1.
<scales pt_clust_3="37.85105" pt_clust_4="37.85105" pt_clust_5="33.70057" pt_clust_6="124.21644"></scales>
<clustering>
<clus scale="   33.701">  2  5  1 -1</clus>
<clus scale="   37.851">  3  4 -1 -1</clus>
<clus scale="  124.216">  1  6  2 -1</clus>
<clus scale="   33.701">  2  3  1 -1</clus>
</clustering>
</event>
<event>
 6    0  0.1993420E+002  0.2038280E+03  0.7546771E-02  0.1146549E+00
         21   -1    0    0  501  502  0.00000000000E+00  0.00000000000E+00  0.75519522158E+02  0.75519522158E+02  0.00000000000E+00 0.  1.
          1   -1    0    0  503    0 -0.00000000000E+00 -0.00000000000E+00 -0.12773732452E+04  0.12773732452E+04  0.00000000000E+00 0.  1.
         21    1    1    2  503  505 -0.12742370002E+02 -0.63490159981E+02 -0.58356077459E+02  0.87171097183E+02  0.00000000000E+00 0.  1.
         21    1    1    2  504  502 -0.63726915861E+02 -0.32575377165E+02 -0.19650011104E+02  0.74218582167E+02  0.00000000000E+00 0.  1.
         21    1    1    2  505  504 -0.36938768872E+01 -0.58092162907E+02 -0.40990169183E+01  0.58353629341E+02  0.00000000000E+00 0.  1.
          1    1    1    2  501    0  0.80163162750E+02  0.15415770005E+03 -0.11197486175E+04  0.11331494586E+04  0.00000000000E+00 0.  1.
<scales pt_clust_3="67.05391" pt_clust_4="67.05391" pt_clust_5="44.71592" pt_clust_6="173.75480"></scales>
<clustering>
<clus scale="   44.716">  3  5 -1 -1</clus>
<clus scale="   67.054">  3  4 -1 -1</clus>
<clus scale="  173.755">  2  6  1 -1</clus>
<clus scale="  203.828">  1  3  2 -1</clus>
</clustering>
</event>
<event>
 6    0  0.1993420E+002  0.1134116E+03  0.7546771E-02  0.1254379E+00
          2   -1    0    0  504    0 -0.00000000000E+00  0.00000000000E+00  0.12459196322E+04  0.12459196322E+04  0.00000000000E+00 0.  1.
         21   -1    0    0  505  502  0.00000000000E+00 -0.00000000000E+00 -0.42231855069E+03  0.42231855069E+03  0.00000000000E+00 0. -1.
         21    1    1    2  503  501  0.11935550667E+03 -0.92404820485E+02 -0.37944128637E+02  0.15564107658E+03  0.00000000000E+00 0. -1.
         21    1    1    2  504  502 -0.17326173241E+02  0.79284559573E+02 -0.27656601835E+02  0.85738703576E+02  0.00000000000E+00 0.  1.
         21    1    1    2  505  503 -0.10523551008E+02 -0.52075431286E+02 -0.26344491786E+03  0.26874861937E+03  0.00000000000E+00 0. -1.
          2    1    1    2  501    0 -0.91505782425E+02  0.65195692198E+02  0.11526467298E+04  0.11581097834E+04  0.00000000000E+00 0.  1.
<scales pt_clust_3="113.41159" pt_clust_4="63.98012" pt_clust_5="53.12811" pt_clust_6="14000.00000"></scales>
<clustering>
<clus scale="   53.128">  2  5  1 -1</clus>
<clus scale="   63.980">  2  4  1 -1</clus>
<clus scale="  113.412">  2  3  1 -1</clus>
<clus scale="   53.128">  2  3  1 -1</clus>
</clustering>
</event>
<event>
 6    0  0.1993420E+002  0.2064935E+03  0.7546771E-02  0.1144373E+00
         21   -1    0    0  505  502  0.00000000000E+00  0.00000000000E+00  0.48602441825E+03  0.48602441825E+03  0.00000000000E+00 0. -1.
          1   -1    0    0  504    0 -0.00000000000E+00 -0.00000000000E+00 -0.47951274194E+03  0.47951274194E+03  0.00000000000E+00 0.  1.
         21    1    1    2  503  501 -0.65403163775E+02 -0.55617634663E+02  0.71461786979E+02  0.11170354567E+03  0.00000000000E+00 0. -1.
         21    1    1    2  504  502  0.16985099519E+03  0.14453231824E+03  0.19559883275E+03  0.29664432399E+03  0.00000000000E+00 0. -1.
         21    1    1    2  505  503 -0.63359074249E+02 -0.83645447898E+02  0.12852260916E+03  0.16591863762E+03  0.00000000000E+00 0. -1.
          1    1    1    2  501    0 -0.41088757162E+02 -0.52692356822E+01 -0.38907155257E+03  0.39127065291E+03  0.00000000000E+00 0.  1.
<scales pt_clust_3="30.08706" pt_clust_4="203.79688" pt_clust_5="30.08706" pt_clust_6="41.42524"></scales>
<clustering>
<clus scale="   30.087">  3  5 -1 -1</clus>
<clus scale="   41.425">  2  6  1 -1</clus>
<clus scale="  203.797">  2  4  1 -1</clus>
<clus scale="  206.494">  1  3  2 -1</clus>
</clustering>
</event>
<event>
 6    0  0.1993420E+002  0.1689855E+03  0.7546771E-02  0.1178910E+00
         -4   -1    0    0    0  501 -0.00000000000E+00  0.00000000000E+00  0.99044143884E+02  0.99044143884E+02  0.00000000000E+00 0.  1.
         21   -1    0    0  505  502  0.00000000000E+00 -0.00000000000E+00 -0.67128614692E+03  0.67128614692E+03  0.00000000000E+00 0. -1.
         21    1    1    2  503  504 -0.69884214243E+02  0.71224395676E+02 -0.27072668833E+03  0.28853016777E+03  0.00000000000E+00 0. -1.
         21    1    1    2  504  501  0.10666268721E+03 -0.74288033578E+02 -0.12557786982E+03  0.18073583531E+03  0.00000000000E+00 0.  1.
         21    1    1    2  505  503 -0.80741545378E+02  0.45439524397E+02 -0.21114647515E+03  0.23057923040E+03  0.00000000000E+00 0. -1.
         -4    1    1    2    0  502  0.43963072409E+02 -0.42375886495E+02  0.35209030269E+02  0.70485057313E+02  0.00000000000E+00 0.  1.
<scales pt_clust_3="30.07626" pt_clust_4="166.07789" pt_clust_5="30.07626" pt_clust_6="61.06118"></scales>
<clustering>
<clus scale="   30.076">  3  5 -1 -1</clus>
<clus scale="   61.061">  1  6  2 -1</clus>
<clus scale="  166.078">  1  4  2 -1</clus>
<clus scale="  168.985">  2  3  1 -1</clus>
</clustering>
</event>
<event>
 6    0  0.1993420E+002  0.2650835E+03  0.7546771E-02  0.1104127E+00
         -2   -1    0    0    0  501 -0.00000000000E+00  0.00000000000E+00  0.38335683681E+03  0.38335683681E+03  0.00000000000E+00 0.  1.
         21   -1    0    0  505  502  0.00000000000E+00 -0.00000000000E+00 -0.84269957085E+03  0.84269957085E+03  0.00000000000E+00 0.  1.
         21    1    1    2  503  501 -0.44379821432E+02 -0.84585081647E+01 -0.38353041503E+02  0.59262726087E+02  0.00000000000E+00 0. -1.
         21    1    1    2  504  502  0.13358518846E+03 -0.22401338451E+03 -0.13694467206E+03  0.29458588259E+03  0.00000000000E+00 0. -1.
         21    1    1    2  505  503 -0.13362653713E+03  0.23087809444E+03 -0.54537743031E+03  0.60712213550E+03  0.00000000000E+00 0.  1.
         -2    1    1    2    0  504  0.44421170108E+02  0.15937982306E+01  0.26133240984E+03  0.26508566348E+03  0.00000000000E+00 0.  1.
<scales pt_clust_3="41.35988" pt_clust_4="14000.00000" pt_clust_5="265.08346" pt_clust_6="44.44975"></scales>
<clustering>
<clus scale="   44.450">  1  6  2 -1</clus>
<clus scale="   41.360">  1  3  2 -1</clus>
<clus scale="  265.083">  2  5  1 -1</clus>
<clus scale="  265.083">  2  3  1 -1</clus>
</clustering>
</event>
<event>
 6    0  0.1993420E+002  0.1376620E+03  0.7546771E-02  0.1216510E+00
         21   -1    0    0  501  502  0.00000000000E+00  0.00000000000E+00  0.43397521043E+03  0.43397521043E+03  0.00000000000E+00 0.  1.
          1   -1    0    0  504    0 -0.00000000000E+00 -0.00000000000E+00 -0.17995194722E+03  0.17995194722E+03  0.00000000000E+00 0. -1.
         21    1    1    2  503  502  0.35503262089E+02  0.14775662158E+02  0.23069507192E+03  0.23387821194E+03  0.00000000000E+00 0.  1.
         21    1    1    2  504  505  0.20573984475E+02  0.52581176028E+02  0.10557922324E+03  0.11972903277E+03  0.00000000000E+00 0.  1.
         21    1    1    2  505  503  0.39361054041E+02  0.30996541197E+02  0.49345588415E+02  0.70321157822E+02  0.00000000000E+00 0. -1.
          1    1    1    2  501    0 -0.95438300605E+02 -0.98353379382E+02 -0.13159662035E+03  0.18999875512E+03  0.00000000000E+00 0. -1.
<scales pt_clust_3="38.45519" pt_clust_4="36.96502" pt_clust_5="36.96502" pt_clust_6="131.95033"></scales>
<clustering>
<clus scale="   36.965">  4  5 -1 -1</clus>
<clus scale="   38.455">  1  3  2 -1</clus>
<clus scale="  131.950">  2  6  1 -1</clus>
<clus scale="   38.455">  1  3  2 -1</clus>
</clustering>
</event>
<event>
 6    0  0.1993420E+002  0.1781375E+03  0.7546771E-02  0.1169618E+00
         21   -1    0    0  505  502  0.00000000000E+00  0.00000000000E+00  0.42421977790E+03  0.42421977790E+03  0.00000000000E+00 0.  1.
         -2   -1    0    0    0  501 -0.00000000000E+00 -0.00000000000E+00 -0.35571412206E+03  0.35571412206E+03  0.00000000000E+00 0. -1.
         21    1    1    2  503  504 -0.54539553560E+02 -0.21835699532E+02  0.87051230739E+02  0.10502036683E+03  0.00000000000E+00 0.  1.
         21    1    1    2  504  502 -0.91884099649E+02  0.17045352255E+02  0.21638504237E+03  0.23570260577E+03  0.00000000000E+00 0.  1.
         21    1    1    2  505  501 -0.22010800408E+02  0.43607722653E+02  0.71970495488E+02  0.86981958074E+02  0.00000000000E+00 0.  1.
         -2    1    1    2    0  503  0.16843445362E+03 -0.38817375376E+02 -0.30690111276E+03  0.35222896929E+03  0.00000000000E+00 0. -1.
<scales pt_clust_3="40.08317" pt_clust_4="40.08317" pt_clust_5="48.84781" pt_clust_6="170.81348"></scales>
<clustering>
<clus scale="   40.083">  3  4 -1 -1</clus>
<clus scale="   48.848">  1  5  2 -1</clus>
<clus scale="  170.813">  2  6  1 -1</clus>
<clus scale="   48.848">  1  3  2 -1</clus>
</clustering>
</event>
<event>
 6    0  0.3198599E+002  0.1204338E+03  0.7546771E-02  0.1242383E+00
          1   -1    0    0  503    0 -0.00000000000E+00  0.00000000000E+00  0.78371137241E+03  0.78371137241E+03  0.00000000000E+00 0.  1.
         21   -1    0    0  504  502  0.00000000000E+00 -0.00000000000E+00 -0.51583351802E+03  0.51583351802E+03  0.00000000000E+00 0.  1.
         21    1    1    2  503  505  0.47874517198E+02 -0.28193443158E+02  0.29786889888E+02  0.63040450849E+02  0.00000000000E+00 0. -1.
         21    1    1    2  504  501 -0.18260582698E+02  0.11018058763E+03 -0.45432206136E+03  0.46784799477E+03  0.00000000000E+00 0.  1.
         21    1    1    2  505  502 -0.41875413702E+02 -0.35446740389E+01 -0.23638230220E+02  0.48217018932E+02  0.00000000000E+00 0. -1.
          1    1    1    2  501    0  0.12261479202E+02 -0.78442470434E+02  0.71605125608E+03  0.72043942589E+03  0.00000000000E+00 0.  1.
<scales pt_clust_3="54.37803" pt_clust_4="14000.00000" pt_clust_5="42.02517" pt_clust_6="120.43384"></scales>
<clustering>
<clus scale="   42.025">  2  5  1 -1</clus>
<clus scale="   54.378">  1  3  2 -1</clus>
<clus scale="  120.434">  1  6  2 -1</clus>
<clus scale="   42.025">  2  3  1 -1</clus>
</clustering>
</event>
<event>
 6    0  0.1993420E+002  0.2241587E+03  0.7546771E-02  0.1130820E+00
         21   -1    0    0  505  502  0.00000000000E+00  0.00000000000E+00  0.28912345282E+04  0.28912345282E+04  0.00000000000E+00 0.  1.
          2   -1    0    0  504    0 -0.00000000000E+00 -0.00000000000E+00 -0.15805854348E+03  0.15805854348E+03  0.00000000000E+00 0. -1.
         21    1    1    2  503  502  0.10605004891E+03  0.27559832261E+00  0.13894900005E+04  0.13935311803E+04  0.00000000000E+00 0.  1.
         21    1    1    2  504  503  0.43666799366E+02 -0.29895835955E+02  0.11243918460E+04  0.11256365194E+04  0.00000000000E+00 0.  1.
         21    1    1    2  505  501  0.68049974905E+02  0.96514415227E+01  0.29176349099E+03  0.29974970239E+03  0.00000000000E+00 0.  1.
          2    1    1    2  501    0 -0.21776682319E+03  0.19968796109E+02 -0.72469352753E+02  0.23037566969E+03  0.00000000000E+00 0. -1.
<scales pt_clust_3="40.65041" pt_clust_4="40.65041" pt_clust_5="68.73099" pt_clust_6="216.64640"></scales>
<clustering>
<clus scale="   40.650">  3  4 -1 -1</clus>
<clus scale="   68.731">  1  5  2 -1</clus>
<clus scale="  216.646">  2  6  1 -1</clus>
<clus scale="   68.731">  1  3  2 -1</clus>
</clustering>
</event>
<event>
 6    0  0.1993420E+002  0.1008340E+03  0.7546771E-02  0.1278552E+00
          2   -1    0    0  505    0 -0.00000000000E+00  0.00000000000E+00  0.19583526158E+03  0.19583526158E+03  0.00000000000E+00 0.  1.
         21   -1    0    0  504  502  0.00000000000E+00 -0.00000000000E+00 -0.88196550642E+03  0.88196550642E+03  0.00000000000E+00 0.  1.
         21    1    1    2  503  502 -0.81881529687E+02 -0.97170585467E+01 -0.31653745488E+03  0.32710085061E+03  0.00000000000E+00 0.  1.
         21    1    1    2  504  501 -0.58201321921E+02  0.68555141575E+01 -0.65515506871E+02  0.87901499351E+02  0.00000000000E+00 0.  1.
         21    1    1    2  505  503  0.13885756370E+03 -0.37038832629E+02 -0.47034245465E+03  0.49180821746E+03  0.00000000000E+00 0.  1.
          2    1    1    2  501    0  0.12252879070E+01  0.39900377018E+02  0.16626517156E+03  0.17099020057E+03  0.00000000000E+00 0.  1.
<scales pt_clust_3="14000.00000" pt_clust_4="62.21315" pt_clust_5="100.83397" pt_clust_6="39.91919"></scales>
<clustering>
<clus scale="   39.919">  1  6  2 -1</clus>
<clus scale="   62.213">  1  4  2 -1</clus>
<clus scale="  100.834">  1  5  2 -1</clus>
<clus scale="  100.834">  2  3  1 -1</clus>
</clustering>
</event>
<event>
 6    0  0.1993420E+002  0.1247556E+03  0.7546771E-02  0.1235452E+00
         21   -1    0    0  505  502  0.00000000000E+00  0.00000000000E+00  0.19950323829E+03  0.19950323829E+03  0.00000000000E+00 0.  1.
          2   -1    0    0  504    0 -0.00000000000E+00 -0.00000000000E+00 -0.21093798180E+04  0.21093798180E+04  0.00000000000E+00 0.  1.
         21    1    1    2  503  502 -0.48963990096E+02 -0.11956202375E+03  0.74443102509E+02  0.14911178813E+03  0.00000000000E+00 0.  1.
         21    1    1    2  504  503  0.97747741843E+02  0.76056788092E+02 -0.80196790683E+02  0.14754925037E+03  0.00000000000E+00 0.  1.
         21    1    1    2  505  501 -0.11735357793E+03  0.40550734312E+01 -0.11543101312E+02  0.11798961421E+03  0.00000000000E+00 0.  1.
          2    1    1    2  501    0  0.68569826180E+02  0.39450162225E+02 -0.18925797903E+04  0.18942324036E+04  0.00000000000E+00 0.  1.
<scales pt_clust_3="124.75557" pt_clust_4="14000.00000" pt_clust_5="98.08571" pt_clust_6="79.10838"></scales>
<clustering>
<clus scale="   79.108">  2  6  1 -1</clus>
<clus scale="   98.086">  2  5  1 -1</clus>
<clus scale="  124.756">  1  3  2 -1</clus>
<clus scale="  124.756">  1  3  2 -1</clus>
</clustering>
</event>
<event>
 6    0  0.1993420E+002  0.1230327E+03  0.7546771E-02  0.1238176E+00
         21   -1    0    0  505  502  0.00000000000E+00  0.00000000000E+00  0.41921103937E+03  0.41921103937E+03  0.00000000000E+00 0. -1.
         -2   -1    0    0    0  501 -0.00000000000E+00 -0.00000000000E+00 -0.87258152004E+03  0.87258152004E+03  0.00000000000E+00 0. -1.
         21    1    1    2  503  504  0.15618555965E+02  0.61026215689E+02  0.12234678898E+03  0.13761131882E+03  0.00000000000E+00 0. -1.
         21    1    1    2  504  502 -0.32887601020E+02  0.53447628538E+02  0.21044160986E+03  0.21959944093E+03  0.00000000000E+00 0. -1.
         21    1    1    2  505  501  0.39936945122E+02 -0.83788477322E+02  0.44578102075E+02  0.10296929495E+03  0.00000000000E+00 0. -1.
         -2    1    1    2    0  503 -0.22667900068E+02 -0.30685366905E+02 -0.83073698159E+03  0.83161250472E+03  0.00000000000E+00 0. -1.
<scales pt_clust_3="56.39933" pt_clust_4="56.39933" pt_clust_5="108.11159" pt_clust_6="38.15004"></scales>
<clustering>
<clus scale="   38.150">  2  6  1 -1</clus>
<clus scale="   56.399">  3  4 -1 -1</clus>
<clus scale="  108.112">  2  5  1 -1</clus>
<clus scale="  123.033">  1  3  2 -1</clus>
</clustering>
</event>
<event>
 6    0  0.1993420E+002  0.1652045E+03  0.7546771E-02  0.1182943E+00
         21   -1    0    0  504  502  0.00000000000E+00  0.00000000000E+00  0.10442822125E+03  0.10442822125E+03  0.00000000000E+00 0.  1.
          3   -1    0    0  505    0 -0.00000000000E+00 -0.00000000000E+00 -0.79548548374E+03  0.79548548374E+03  0.00000000000E+00 0. -1.
         21    1    1    2  503  502 -0.14747910416E+02 -0.80490104975E+02 -0.35518692131E+02  0.89206139650E+02  0.00000000000E+00 0.  1.
         21    1    1    2  504  501 -0.82728820251E+01  0.13807325936E+03 -0.16298784837E+02  0.13927783712E+03  0.00000000000E+00 0.  1.
         21    1    1    2  505  503  0.24377875338E+02 -0.92123676641E+02 -0.13088478647E+03  0.16190083364E+03  0.00000000000E+00 0.  1.
          3    1    1    2  501    0 -0.13570828973E+01  0.34540522257E+02 -0.50835499905E+03  0.50952889458E+03  0.00000000000E+00 0. -1.
<scales pt_clust_3="72.25587" pt_clust_4="147.70301" pt_clust_5="72.25587" pt_clust_6="34.56717"></scales>
<clustering>
<clus scale="   34.567">  2  6  1 -1</clus>
<clus scale="   72.256">  3  5 -1 -1</clus>
<clus scale="  147.703">  1  4  2 -1</clus>
<clus scale="  147.703">  1  3  2 -1</clus>
</clustering>
</event>
<event>
 6    0  0.1993420E+002  0.8131174E+02  0.7546771E-02  0.1325370E+00
         -4   -1    0    0    0  501 -0.00000000000E+00  0.00000000000E+00  0.12483531489E+04  0.12483531489E+04  0.00000000000E+00 0. -1.
         21   -1    0    0  504  502  0.00000000000E+00 -0.00000000000E+00 -0.36905157393E+03  0.36905157393E+03  0.00000000000E+00 0.  1.
         21    1    1    2  503  501 -0.10249755439E+03 -0.56761868262E+01 -0.21956379790E+03  0.24237621398E+03  0.00000000000E+00 0.  1.
         21    1    1    2  504  503  0.14930916151E+02 -0.33650841802E+02 -0.31236236516E+02  0.48280574591E+02  0.00000000000E+00 0.  1.
         21    1    1    2  505  502  0.31188189855E+02 -0.19314108859E+02 -0.93503265925E+02  0.10044201674E+03  0.00000000000E+00 0. -1.
         -4    1    1    2    0  505  0.56378448385E+02  0.58641137487E+02  0.12236048753E+04  0.12263059175E+04  0.00000000000E+00 0. -1.
<scales pt_clust_3="81.31174" pt_clust_4="41.35324" pt_clust_5="36.68430" pt_clust_6="14000.00000"></scales>
<clustering>
<clus scale="   36.684">  2  5  1 -1</clus>
<clus scale="   41.353">  2  4  1 -1</clus>
<clus scale="   81.312">  2  3  1 -1</clus>
<clus scale="   36.684">  2  3  1 -1</clus>
</clustering>
</event>
<event>
 6    0  0.1993420E+002  0.1329141E+03  0.7546771E-02  0.1223195E+00
          2   -1    0    0  504    0 -0.00000000000E+00  0.00000000000E+00  0.22507984604E+04  0.22507984604E+04  0.00000000000E+00 0.  1.
         21   -1    0    0  501  502  0.00000000000E+00 -0.00000000000E+00 -0.26483019825E+03  0.26483019825E+03  0.00000000000E+00 0.  1.
         21    1    1    2  503  505 -0.42428118896E+02  0.17638246920E+02 -0.20111706637E+01  0.45992367137E+02  0.00000000000E+00 0.  1.
         21    1    1    2  504  503  0.59168783726E+00  0.62213191020E+02 -0.12297469525E+02  0.63419705046E+02  0.00000000000E+00 0.  1.
         21    1    1    2  505  502 -0.30045914446E+02  0.15238415202E+02 -0.19994736310E+03  0.20276566348E+03  0.00000000000E+00 0.  1.
          2    1    1    2  501    0  0.71882345504E+02 -0.95089853142E+02  0.22002242654E+04  0.22034509229E+04  0.00000000000E+00 0.  1.
<scales pt_clust_3="53.94118" pt_clust_4="53.94118" pt_clust_5="33.68926" pt_clust_6="118.43325"></scales>
<clustering>
<clus scale="   33.689">  2  5  1 -1</clus>
<clus scale="   53.941">  3  4 -1 -1</clus>
<clus scale="  118.433">  1  6  2 -1</clus>
<clus scale="   33.689">  2  3  1 -1</clus>
</clustering>
</event>
<event>
 6    0  0.1993420E+002  0.2148556E+03  0.7546771E-02  0.1137778E+00
         21   -1    0    0  503  502  0.00000000000E+00  0.00000000000E+00  0.11042129311E+03  0.11042129311E+03  0.00000000000E+00 0. -1.
          2   -1    0    0  502    0 -0.00000000000E+00 -0.00000000000E+00 -0.13281815347E+04  0.13281815347E+04  0.00000000000E+00 0. -1.
         21    1    1    2  503  505 -0.10165658579E+03 -0.62718613155E+02 -0.36201335643E+02  0.12481275004E+03  0.00000000000E+00 0. -1.
         21    1    1    2  504  501  0.21964449802E+03  0.96179616086E+02 -0.41292897019E+03  0.47749822878E+03  0.00000000000E+00 0. -1.
         21    1    1    2  505  504 -0.85850264857E+02 -0.11632048067E+02 -0.22980187741E+02  0.89630695339E+02  0.00000000000E+00 0. -1.
          2    1    1    2  501    0 -0.32137647375E+02 -0.21828954864E+02 -0.74564974802E+03  0.74666115365E+03  0.00000000000E+00 0. -1.
<scales pt_clust_3="36.09900" pt_clust_4="210.63294" pt_clust_5="36.09900" pt_clust_6="38.85012"></scales>
<clustering>
<clus scale="   36.099">  3  5 -1 -1</clus>
<clus scale="   38.850">  2  6  1 -1</clus>
<clus scale="  210.633">  2  4  1 -1</clus>
<clus scale="  214.856">  1  3  2 -1</clus>
</clustering>
</event>
<event>
 6    0  0.1993420E+002  0.9944400E+02  0.7546771E-02  0.1281470E+00
         21   -1    0    0  503  502  0.00000000000E+00  0.00000000000E+00  0.73076864761E+02  0.73076864761E+02  0.00000000000E+00 0.  1.
          2   -1    0    0  504    0 -0.00000000000E+00 -0.00000000000E+00 -0.17282001685E+04  0.17282001685E+04  0.00000000000E+00 0. -1.
         21    1    1    2  503  501  0.80692722205E+02 -0.25682860380E+01 -0.16625115955E+03  0.18481709759E+03  0.00000000000E+00 0.  1.
         21    1    1    2  504  505 -0.11856378596E+03  0.69890721488E+02 -0.11387967729E+03  0.17863556530E+03  0.00000000000E+00 0.  1.
         21    1    1    2  505  502  0.25506213821E+02 -0.37833709416E+02  0.14566778567E+02  0.47897260354E+02  0.00000000000E+00 0.  1.
          2    1    1    2  501    0  0.12364849940E+02 -0.29488726034E+02 -0.13895592455E+04  0.13899271100E+04  0.00000000000E+00 0. -1.
<scales pt_clust_3="14000.00000" pt_clust_4="99.44400" pt_clust_5="47.17374" pt_clust_6="31.97615"></scales>
<clustering>
<clus scale="   31.976">  2  6  1 -1</clus>
<clus scale="   47.174">  1  5  2 -1</clus>
<clus scale="   99.444">  1  4  2 -1</clus>
<clus scale="   47.174">  1  3  2 -1</clus>
</clustering>
</event>
<event>
 6    0  0.1993420E+002  0.6821857E+02  0.7546771E-02  0.1366258E+00
          2   -1    0    0  503    0 -0.00000000000E+00  0.00000000000E+00  0.82530933881E+03  0.82530933881E+03  0.00000000000E+00 0.  1.
         21   -1    0    0  504  502  0.00000000000E+00 -0.00000000000E+00 -0.15271255639E+03  0.15271255639E+03  0.00000000000E+00 0.  1.
         21    1    1    2  503  502  0.82699097375E+00 -0.35902978041E+02  0.10709677387E+02  0.37475391072E+02  0.00000000000E+00 0.  1.
         21    1    1    2  504  505  0.51317375492E+02 -0.99847867663E+01 -0.97194304418E+02  0.11036259242E+03  0.00000000000E+00 0.  1.
         21    1    1    2  505  501 -0.10177306237E+03 -0.36185537395E+00  0.42324167191E+02  0.11022351061E+03  0.00000000000E+00 0. -1.
          2    1    1    2  501    0  0.49628695903E+02  0.46249620182E+02  0.71675724226E+03  0.71996040110E+03  0.00000000000E+00 0.  1.
<scales pt_clust_3="35.91250" pt_clust_4="63.60763" pt_clust_5="68.21857" pt_clust_6="14000.00000"></scales>
<clustering>
<clus scale="   35.913">  2  3  1 -1</clus>
<clus scale="   63.608">  2  4  1 -1</clus>
<clus scale="   68.219">  2  5  1 -1</clus>
<clus scale="   35.913">  2  3  1 -1</clus>
</clustering>
</event>
<event>
 6    0  0.1993420E+002  0.2867878E+03  0.7546771E-02  0.1092038E+00
         21   -1    0    0  504  502  0.00000000000E+00  0.00000000000E+00  0.83349401681E+02  0.83349401681E+02  0.00000000000E+00 0. -1.
          2   -1    0    0  502    0 -0.00000000000E+00 -0.00000000000E+00 -0.22299364417E+04  0.22299364417E+04  0.00000000000E+00 0. -1.
         21    1    1    2  503  505 -0.27958628569E+02  0.10551619184E+03 -0.43886733829E+02  0.11764946689E+03  0.00000000000E+00 0. -1.
         21    1    1    2  504  503  0.15238557906E+02  0.66733403097E+02 -0.28954887190E+02  0.74323254962E+02  0.00000000000E+00 0.  1.
         21    1    1    2  505  501  0.14976985756E+02  0.91319439340E+02 -0.12884504709E+03  0.15863352818E+03  0.00000000000E+00 0. -1.
          2    1    1    2  501    0 -0.22569150925E+01 -0.26356903428E+03 -0.19449003719E+04  0.19626795933E+04  0.00000000000E+00 0. -1.
<scales pt_clust_3="75.06350" pt_clust_4="32.80272" pt_clust_5="75.06350" pt_clust_6="263.57870"></scales>
<clustering>
<clus scale="   32.803">  3  4 -1 -1</clus>
<clus scale="   75.064">  3  5 -1 -1</clus>
<clus scale="  263.579">  2  6  1 -1</clus>
<clus scale="  286.788">  1  3  2 -1</clus>
</clustering>
</event>
<event>
 6    0  0.1993420E+002  0.1944459E+03  0.7546771E-02  0.1154511E+00
         -1   -1    0    0    0  501 -0.00000000000E+00  0.00000000000E+00  0.46117680851E+03  0.46117680851E+03  0.00000000000E+00 0.  1.
         21   -1    0    0  505  502  0.00000000000E+00 -0.00000000000E+00 -0.11236134644E+04  0.11236134644E+04  0.00000000000E+00 0.  1.
         21    1    1    2  503  501  0.25431758081E+02 -0.36649204191E+02 -0.51063236553E+02  0.67804075204E+02  0.00000000000E+00 0.  1.
         21    1    1    2  504  503 -0.28642428853E+02 -0.19575800705E+03 -0.99469907013E+02  0.22144039481E+03  0.00000000000E+00 0.  1.
         21    1    1    2  505  504 -0.87629373263E+02  0.14836475176E+03 -0.88543607958E+03  0.90204659394E+03  0.00000000000E+00 0.  1.
         -1    1    1    2    0  502  0.90840044034E+02  0.84042459475E+02  0.37353256729E+03  0.39349920892E+03  0.00000000000E+00 0.  1.
<scales pt_clust_3="39.66780" pt_clust_4="39.66780" pt_clust_5="175.58616" pt_clust_6="123.75398"></scales>
<clustering>
<clus scale="   39.668">  3  4 -1 -1</clus>
<clus scale="  123.754">  1  6  2 -1</clus>
<clus scale="  175.586">  2  5  1 -1</clus>
<clus scale="  175.586">  2  3  1 -1</clus>
</clustering>
</event>
<event>
 6    0  0.1993420E+002  0.8879344E+02  0.7546771E-02  0.1305800E+00
         21   -1    0    0  504  502  0.00000000000E+00  0.00000000000E+00  0.10438040116E+03  0.10438040116E+03  0.00000000000E+00 0.  1.
          1   -1    0    0  503    0 -0.00000000000E+00 -0.00000000000E+00 -0.54568650508E+03  0.54568650508E+03  0.00000000000E+00 0. -1.
         21    1    1    2  503  502  0.26712096815E+02 -0.12868730008E+03 -0.10591681483E+03  0.16879670904E+03  0.00000000000E+00 0.  1.
         21    1    1    2  504  505 -0.25955831731E+02  0.28425471812E+02  0.47310673387E+02  0.60991904914E+02  0.00000000000E+00 0.  1.
         21    1    1    2  505  501  0.11712265522E+02  0.61719074562E+02 -0.38450707806E+02  0.73653772879E+02  0.00000000000E+00 0.  1.
          1    1    1    2  501    0 -0.12468530606E+02  0.38542753710E+02 -0.34424925466E+03  0.34662451941E+03  0.00000000000E+00 0. -1.
<scales pt_clust_3="14000.00000" pt_clust_4="38.49302" pt_clust_5="88.79344" pt_clust_6="41.33945"></scales>
<clustering>
<clus scale="   38.493">  1  4  2 -1</clus>
<clus scale="   41.339">  2  6  1 -1</clus>
<clus scale="   88.793">  1  5  2 -1</clus>
<clus scale="   38.493">  1  3  2 -1</clus>
</clustering>
</event>
<event>
 6    0  0.1993420E+002  0.1929067E+03  0.7546771E-02  0.1155866E+00
         21   -1    0    0  503  502  0.00000000000E+00  0.00000000000E+00  0.14226940045E+04  0.14226940045E+04  0.00000000000E+00 0. -1.
          1   -1    0    0  505    0 -0.00000000000E+00 -0.00000000000E+00 -0.44737602895E+03  0.44737602895E+03  0.00000000000E+00 0. -1.
         21    1    1    2  503  501  0.66286295038E+02  0.75935062127E+01  0.10108737530E+04  0.10130731853E+04  0.00000000000E+00 0. -1.
         21    1    1    2  504  502  0.22016387035E+02 -0.22180774682E+02  0.12524419802E+03  0.12908453510E+03  0.00000000000E+00 0.  1.
         21    1    1    2  505  504  0.93106545296E+02  0.96276219380E+02  0.24316646036E+03  0.27761099877E+03  0.00000000000E+00 0. -1.
          1    1    1    2  501    0 -0.18140922737E+03 -0.81688950911E+02 -0.40396643577E+03  0.45030131435E+03  0.00000000000E+00 0. -1.
<scales pt_clust_3="84.04928" pt_clust_4="31.25233" pt_clust_5="14000.00000" pt_clust_6="192.90668"></scales>
<clustering>
<clus scale="   31.252">  1  4  2 -1</clus>
<clus scale="   84.049">  1  3  2 -1</clus>
<clus scale="  192.907">  2  6  1 -1</clus>
<clus scale="   31.252">  1  3  2 -1</clus>
</clustering>
</event>
<event>
 6    0  0.1993420E+002  0.9260414E+02  0.7546771E-02  0.1296665E+00
         -1   -1    0    0    0  501 -0.00000000000E+00  0.00000000000E+00  0.15418215681E+04  0.15418215681E+04  0.00000000000E+00 0. -1.
         21   -1    0    0  503  502  0.00000000000E+00 -0.00000000000E+00 -0.14513528750E+02  0.14513528750E+02  0.00000000000E+00 0.  1.
         21    1    1    2  503  501  0.15568037705E+02 -0.26474983013E+02  0.16203542873E+03  0.16492049202E+03  0.00000000000E+00 0. -1.
         21    1    1    2  504  505 -0.10444745182E+02  0.92451074714E+02  0.48490817945E+03  0.49375321408E+03  0.00000000000E+00 0.  1.
         21    1    1    2  505  502  0.30515969724E+02  0.18399317993E+02  0.45525230882E+02  0.57812679904E+02  0.00000000000E+00 0.  1.
         -1    1    1    2    0  504 -0.35639262247E+02 -0.84375409693E+02  0.83483920033E+03  0.83984871088E+03  0.00000000000E+00 0. -1.
<scales pt_clust_3="30.71300" pt_clust_4="92.60414" pt_clust_5="35.63961" pt_clust_6="14000.00000"></scales>
<clustering>
<clus scale="   30.713">  1  3  2 -1</clus>
<clus scale="   35.640">  2  5  1 -1</clus>
<clus scale="   92.604">  2  4  1 -1</clus>
<clus scale="   35.640">  2  3  1 -1</clus>
</clustering>
</event>
<event>
 6    0  0.1993420E+002  0.1939538E+03  0.7546771E-02  0.1154943E+00
         21   -1    0    0  505  502  0.00000000000E+00  0.00000000000E+00  0.12349933749E+03  0.12349933749E+03  0.00000000000E+00 0.  1.
          2   -1    0    0  503    0 -0.00000000000E+00 -0.00000000000E+00 -0.17482417268E+04  0.17482417268E+04  0.00000000000E+00 0. -1.
         21    1    1    2  503  502  0.73859238479E+02  0.75104681118E+00 -0.12179489074E+03  0.14244208153E+03  0.00000000000E+00 0. -1.
         21    1    1    2  504  501 -0.35897047072E+02  0.87550135127E+02  0.20875686773E+02  0.96899011591E+02  0.00000000000E+00 0.  1.
         21    1    1    2  505  504 -0.93927907913E+01  0.10024785668E+03 -0.41124451330E+01  0.10077087622E+03  0.00000000000E+00 0.  1.
          2    1    1    2  501    0 -0.28569400616E+02 -0.18854903862E+03 -0.15197107403E+04  0.15316290950E+04  0.00000000000E+00 0. -1.
<scales pt_clust_3="73.86306" pt_clust_4="37.20769" pt_clust_5="37.20769" pt_clust_6="190.11826"></scales>
<clustering>
<clus scale="   37.208">  4  5 -1 -1</clus>
<clus scale="   73.863">  1  3  2 -1</clus>
<clus scale="  190.118">  2  6  1 -1</clus>
<clus scale="   73.863">  1  3  2 -1</clus>
</clustering>
</event>
<event>
 6    0  0.1993420E+002  0.1606778E+03  0.7546771E-02  0.1187934E+00
          1   -1    0    0  504    0 -0.00000000000E+00  0.00000000000E+00  0.17424104994E+04  0.17424104994E+04  0.00000000000E+00 0. -1.
         21   -1    0    0  505  502  0.00000000000E+00 -0.00000000000E+00 -0.16885835349E+04  0.16885835349E+04  0.00000000000E+00 0. -1.
         21    1    1    2  503  501 -0.27276903419E+02  0.31721516720E+02 -0.76156615562E+03  0.76271442459E+03  0.00000000000E+00 0. -1.
         21    1    1    2  504  502 -0.39739172825E+02  0.65212002181E+02 -0.34065180434E+02  0.83619636469E+02  0.00000000000E+00 0.  1.
         21    1    1    2  505  503 -0.56797012151E+02 -0.48934072149E+01 -0.86319335222E+03  0.86507375948E+03  0.00000000000E+00 0. -1.
          1    1    1    2  501    0  0.12381308839E+03 -0.92040111686E+02  0.17126516528E+04  0.17195862138E+04  0.00000000000E+00 0. -1.
<scales pt_clust_3="38.90756" pt_clust_4="76.36627" pt_clust_5="38.90756" pt_clust_6="154.12532"></scales>
<clustering>
<clus scale="   38.908">  3  5 -1 -1</clus>
<clus scale="   76.366">  2  4  1 -1</clus>
<clus scale="  154.125">  1  6  2 -1</clus>
<clus scale="   76.366">  2  3  1 -1</clus>
</clustering>
</event>
<event>
 6    0  0.1993420E+002  0.1150224E+03  0.7546771E-02  0.1251542E+00
         21   -1    0    0  504  502  0.00000000000E+00  0.00000000000E+00  0.11587517983E+03  0.11587517983E+03  0.00000000000E+00 0. -1.
          2   -1    0    0  505    0 -0.00000000000E+00 -0.00000000000E+00 -0.11587010476E+04  0.11587010476E+04  0.00000000000E+00 0. -1.
         21    1    1    2  503  501  0.62237343598E+01 -0.35955500805E+02  0.12576695961E+02  0.38596712150E+02  0.00000000000E+00 0. -1.
         21    1    1    2  504  503 -0.32166365838E+02  0.14501164354E+02  0.50818346349E+02  0.61866494845E+02  0.00000000000E+00 0. -1.
         21    1    1    2  505  502  0.12410615895E+03 -0.36295077363E+02 -0.10536412374E+03  0.16679709201E+03  0.00000000000E+00 0. -1.
          2    1    1    2  501    0 -0.98163527471E+02  0.57749413814E+02 -0.10008567863E+04  0.10073159284E+04  0.00000000000E+00 0. -1.
<scales pt_clust_3="30.67955" pt_clust_4="35.28397" pt_clust_5="14000.00000" pt_clust_6="115.02237"></scales>
<clustering>
<clus scale="   35.284">  1  4  2 -1</clus>
<clus scale="   30.680">  1  3  2 -1</clus>
<clus scale="  115.022">  2  6  1 -1</clus>
<clus scale="   35.284">  1  3  2 -1</clus>
</clustering>
</event>
<event>
 6    0  0.1993420E+002  0.8064346E+02  0.7546771E-02  0.1327235E+00
         21   -1    0    0  503  502  0.00000000000E+00  0.00000000000E+00  0.20489461220E+04  0.20489461220E+04  0.00000000000E+00 0.  1.
          1   -1    0    0  504    0 -0.00000000000E+00 -0.00000000000E+00 -0.11017064723E+03  0.11017064723E+03  0.00000000000E+00 0.  1.
         21    1    1    2  503  501 -0.45893148336E+02  0.76037898165E+01  0.22910204162E+03  0.23377712497E+03  0.00000000000E+00 0.  1.
         21    1    1    2  504  505 -0.79689727972E+02  0.28772348289E+02  0.11853696216E+04  0.11883936387E+04  0.00000000000E+00 0.  1.
         21    1    1    2  505  502  0.49458268087E+02 -0.99210019517E+01  0.61416916323E+03  0.61623721701E+03  0.00000000000E+00 0.  1.
          1    1    1    2  501    0  0.76124608221E+02 -0.26455136154E+02 -0.89865351651E+02  0.12070878855E+03  0.00000000000E+00 0.  1.
<scales pt_clust_3="46.51880" pt_clust_4="80.64346" pt_clust_5="34.71052" pt_clust_6="14000.00000"></scales>
<clustering>
<clus scale="   46.519">  1  3  2 -1</clus>
<clus scale="   34.711">  1  5  2 -1</clus>
<clus scale="   80.643">  1  4  2 -1</clus>
<clus scale="   46.519">  1  3  2 -1</clus>
</clustering>
</event>
<event>
 6    0  0.1993420E+002  0.1281734E+03  0.7546771E-02  0.1230192E+00
          2   -1    0    0  504    0 -0.00000000000E+00  0.00000000000E+00  0.10555222790E+04  0.10555222790E+04  0.00000000000E+00 0. -1.
         21   -1    0    0  503  502  0.00000000000E+00 -0.00000000000E+00 -0.68039194788E+03  0.68039194788E+03  0.00000000000E+00 0. -1.
         21    1    1    2  503  505  0.55794219884E+02  0.89300273890E+01 -0.21066489499E+03  0.21811106882E+03  0.00000000000E+00 0. -1.
         21    1    1    2  504  502 -0.98999391200E+02 -0.35329870575E+01 -0.26073957932E+03  0.27892380623E+03  0.00000000000E+00 0. -1.
         21    1    1    2  505  501  0.94918690252E+02  0.22578623046E+02 -0.18315018805E+03  0.20751709173E+03  0.00000000000E+00 0. -1.
          2    1    1    2  501    0 -0.51713518935E+02 -0.27975663378E+02  0.10296849935E+04  0.10313622601E+04  0.00000000000E+00 0. -1.
<scales pt_clust_3="36.98400" pt_clust_4="118.60264" pt_clust_5="36.98400" pt_clust_6="58.79563"></scales>
<clustering>
<clus scale="   36.984">  3  5 -1 -1</clus>
<clus scale="   58.796">  1  6  2 -1</clus>
<clus scale="  118.603">  2  4  1 -1</clus>
<clus scale="  118.603">  2  3  1 -1</clus>
</clustering>
</event>
<event>
 6    0  0.1993420E+002  0.3005840E+03  0.7546771E-02  0.1084949E+00
          2   -1    0    0  503    0 -0.00000000000E+00  0.00000000000E+00  0.24611701489E+04  0.24611701489E+04  0.00000000000E+00 0.  1.
         21   -1    0    0  501  502  0.00000000000E+00 -0.00000000000E+00 -0.62373296382E+02  0.62373296382E+02  0.00000000000E+00 0. -1.
         21    1    1    2  503  505  0.33796072447E+02  0.31010387390E+02  0.30566162311E+03  0.30908388260E+03  0.00000000000E+00 0. -1.
         21    1    1    2  504  502  0.54722507282E+02  0.11335022124E+03  0.14835329226E+03  0.19455468327E+03  0.00000000000E+00 0. -1.
         21    1    1    2  505  504  0.25415847304E+02  0.16065769791E+03  0.28203186507E+03  0.32557462141E+03  0.00000000000E+00 0. -1.
          2    1    1    2  501    0 -0.11393442703E+03 -0.30501830654E+03  0.16627500721E+04  0.16943302580E+04  0.00000000000E+00 0.  1.
<scales pt_clust_3="45.86740" pt_clust_4="54.11484" pt_clust_5="54.11484" pt_clust_6="294.19403"></scales>
<clustering>
<clus scale="   45.867">  1  3  2 -1</clus>
<clus scale="   54.115">  4  5 -1 -1</clus>
<clus scale="  294.194">  1  6  2 -1</clus>
<clus scale="  300.584">  2  3  1 -1</clus>
</clustering>
</event>
<event>
 6    0  0.1993420E+002  0.7260846E+02  0.7546771E-02  0.1351441E+00
         21   -1    0    0  503  502  0.00000000000E+00  0.00000000000E+00  0.15921414471E+03  0.15921414471E+03  0.00000000000E+00 0.  1.
          1   -1    0    0  504    0 -0.00000000000E+00 -0.00000000000E+00 -0.77520932053E+03  0.77520932053E+03  0.00000000000E+00 0.  1.
         21    1    1    2  503  501  0.50776555749E+02  0.89637505433E+02 -0.13844644735E+03  0.17257044874E+03  0.00000000000E+00 0.  1.
         21    1    1    2  504  505  0.28599273808E+02 -0.65542176278E+02 -0.65297058018E+01  0.71807606780E+02  0.00000000000E+00 0.  1.
         21    1    1    2  505  502 -0.45338921743E+02 -0.53969950766E+02  0.97176162853E+02  0.12004824046E+03  0.00000000000E+00 0.  1.
          1    1    1    2  501    0 -0.34036907814E+02  0.29874621612E+02 -0.56819518552E+03  0.56999716925E+03  0.00000000000E+00 0.  1.
<scales pt_clust_3="72.60846" pt_clust_4="63.82475" pt_clust_5="14000.00000" pt_clust_6="45.28801"></scales>
<clustering>
<clus scale="   45.288">  2  6  1 -1</clus>
<clus scale="   63.825">  2  4  1 -1</clus>
<clus scale="   72.608">  2  3  1 -1</clus>
<clus scale="   72.608">  1  3  2 -1</clus>
</clustering>
</event>
<event>
 6    0  0.1993420E+002  0.7280066E+02  0.7546771E-02  0.1350820E+00
          3   -1    0    0  505    0 -0.00000000000E+00  0.00000000000E+00  0.23016456537E+04  0.23016456537E+04  0.00000000000E+00 0. -1.
         21   -1    0    0  504  502  0.00000000000E+00 -0.00000000000E+00 -0.20386516789E+02  0.20386516789E+02  0.00000000000E+00 0. -1.
         21    1    1    2  503  502 -0.15867170623E+02 -0.38023029283E+02  0.74777221433E+02  0.85376523147E+02  0.00000000000E+00 0. -1.
         21    1    1    2  504  501  0.97726794300E+02  0.29026138208E+02  0.24071216853E+03  0.26141038828E+03  0.00000000000E+00 0. -1.
         21    1    1    2  505  503 -0.50140046143E+02  0.42108122014E+02  0.23730036080E+03  0.24616778709E+03  0.00000000000E+00 0. -1.
          3    1    1    2  501    0 -0.31719577534E+02 -0.33111230939E+02  0.17284693861E+04  0.17290774720E+04  0.00000000000E+00 0. -1.
<scales pt_clust_3="41.20094" pt_clust_4="72.80066" pt_clust_5="14000.00000" pt_clust_6="46.62837"></scales>
<clustering>
<clus scale="   41.201">  2  3  1 -1</clus>
<clus scale="   46.628">  1  6  2 -1</clus>
<clus scale="   72.801">  2  4  1 -1</clus>
<clus scale="   41.201">  2  3  1 -1</clus>
</clustering>
</event>
<event>
 6    0  0.1993420E+002  0.8116764E+02  0.7546771E-02  0.1325770E+00
         21   -1    0    0  505  502  0.00000000000E+00  0.00000000000E+00  0.90467101422E+02  0.90467101422E+02  0.00000000000E+00 0. -1.
          1   -1    0    0  503    0 -0.00000000000E+00 -0.00000000000E+00 -0.10707261811E+04  0.10707261811E+04  0.00000000000E+00 0. -1.
         21    1    1    2  503  502  0.86012178352E+02  0.32033864681E+02  0.23862799213E+02  0.94835101611E+02  0.00000000000E+00 0. -1.
         21    1    1    2  504  501 -0.71716601516E+02 -0.38116587839E+01 -0.22365194175E+03  0.23489995897E+03  0.00000000000E+00 0. -1.
         21    1    1    2  505  504 -0.35227414191E+02 -0.68596841767E+02 -0.35140947170E+02  0.84743044428E+02  0.00000000000E+00 0. -1.
          1    1    1    2  501    0  0.20931837355E+02  0.40374635869E+02 -0.74532899001E+03  0.74671517755E+03  0.00000000000E+00 0. -1.
<scales pt_clust_3="81.16764" pt_clust_4="62.06217" pt_clust_5="14000.00000" pt_clust_6="45.47805"></scales>
<clustering>
<clus scale="   45.478">  2  6  1 -1</clus>
<clus scale="   62.062">  2  4  1 -1</clus>
<clus scale="   81.168">  1  3  2 -1</clus>
<clus scale="   81.168">  1  3  2 -1</clus>
</clustering>
</event>
<event>
 6    0  0.1993420E+002  0.1350869E+03  0.7546771E-02  0.1220097E+00
         21   -1    0    0  503  502  0.00000000000E+00  0.00000000000E+00  0.81674279218E+02  0.81674279218E+02  0.00000000000E+00 0. -1.
          1   -1    0    0  505    0 -0.00000000000E+00 -0.00000000000E+00 -0.63606935201E+03  0.63606935201E+03  0.00000000000E+00 0. -1.
         21    1    1    2  503  501  0.98630588994E+02  0.43578804120E+02 -0.95018536550E+02  0.14372065802E+03  0.00000000000E+00 0.  1.
         21    1    1    2  504  502 -0.74418795641E+02 -0.65943775007E+01 -0.38067269080E+02  0.83849626919E+02  0.00000000000E+00 0. -1.
         21    1    1    2  505  504 -0.69192984541E+02 -0.34550061479E+02 -0.11848021824E+02  0.78241622421E+02  0.00000000000E+00 0. -1.
          1    1    1    2  501    0  0.44981191189E+02 -0.24343651406E+01 -0.40946124534E+03  0.41193172387E+03  0.00000000000E+00 0. -1.
<scales pt_clust_3="129.55167" pt_clust_4="37.61696" pt_clust_5="37.61696" pt_clust_6="45.04702"></scales>
<clustering>
<clus scale="   37.617">  4  5 -1 -1</clus>
<clus scale="   45.047">  2  6  1 -1</clus>
<clus scale="  129.552">  2  3  1 -1</clus>
<clus scale="  135.087">  1  3  2 -1</clus>
</clustering>
</event>
<event>
 6    0  0.1993420E+002  0.1290705E+03  0.7546771E-02  0.1228841E+00
         21   -1    0    0  505  502  0.00000000000E+00  0.00000000000E+00  0.31598889917E+02  0.31598889917E+02  0.00000000000E+00 0. -1.
          2   -1    0    0  503    0 -0.00000000000E+00 -0.00000000000E+00 -0.23355644871E+04  0.23355644871E+04  0.00000000000E+00 0. -1.
         21    1    1    2  503  504 -0.73053171105E+02  0.91874610408E+02 -0.19634534145E+03  0.22875577141E+03  0.00000000000E+00 0. -1.
         21    1    1    2  504  502 -0.40788786450E+02  0.13296606631E+00 -0.44989654536E+02  0.60727356235E+02  0.00000000000E+00 0.  1.
         21    1    1    2  505  501  0.30498608092E+01 -0.83279342074E+02 -0.29459274728E+03  0.30615296376E+03  0.00000000000E+00 0.  1.
          2    1    1    2  501    0  0.11079209675E+03 -0.87282344000E+01 -0.17680378540E+04  0.17715272857E+04  0.00000000000E+00 0. -1.
<scales pt_clust_3="37.89523" pt_clust_4="37.89523" pt_clust_5="83.33517" pt_clust_6="111.92270"></scales>
<clustering>
<clus scale="   37.895">  3  4 -1 -1</clus>
<clus scale="   83.335">  1  5  2 -1</clus>
<clus scale="  111.923">  2  6  1 -1</clus>
<clus scale="   83.335">  1  3  2 -1</clus>
</clustering>
</event>
<event>
 6    0  0.1993420E+002  0.1636569E+03  0.7546771E-02  0.1184629E+00
         21   -1    0    0  503  502  0.00000000000E+00  0.00000000000E+00  0.96775098290E+03  0.96775098290E+03  0.00000000000E+00 0.  1.
         -1   -1    0    0    0  501 -0.00000000000E+00 -0.00000000000E+00 -0.34723614069E+03  0.34723614069E+03  0.00000000000E+00 0. -1.
         21    1    1    2  503  501  0.40788146622E+02 -0.39085214829E+01  0.89466338267E+02  0.98403125601E+02  0.00000000000E+00 0. -1.
         21    1    1    2  504  502  0.72830594367E+02 -0.11951053946E+01  0.59205210307E+03  0.59651606559E+03  0.00000000000E+00 0.  1.
         21    1    1    2  505  504  0.44088264220E+02 -0.22466110853E+02  0.25823530867E+03  0.26293340568E+03  0.00000000000E+00 0.  1.
         -1    1    1    2    0  505 -0.15770700521E+03  0.27569737731E+02 -0.31923890780E+03  0.35713452673E+03  0.00000000000E+00 0. -1.
<scales pt_clust_3="40.97499" pt_clust_4="31.22054" pt_clust_5="31.22054" pt_clust_6="159.21287"></scales>
<clustering>
<clus scale="   31.221">  4  5 -1 -1</clus>
<clus scale="   40.975">  1  3  2 -1</clus>
<clus scale="  159.213">  2  6  1 -1</clus>
<clus scale="   40.975">  1  3  2 -1</clus>
</clustering>
</event>
<event>
 6    0  0.1993420E+002  0.9393635E+02  0.7546771E-02  0.1293590E+00
          3   -1    0    0  503    0 -0.00000000000E+00  0.00000000000E+00  0.42500502578E+03  0.42500502578E+03  0.00000000000E+00 0. -1.
         21   -1    0    0  505  502  0.00000000000E+00 -0.00000000000E+00 -0.19766042010E+03  0.19766042010E+03  0.00000000000E+00 0.  1.
         21    1    1    2  503  502  0.60310869731E+02 -0.27456439931E+02 -0.29725523962E+02  0.72628258111E+02  0.00000000000E+00 0.  1.
         21    1    1    2  504  501 -0.18577010567E+02  0.39867314719E+02 -0.72337853959E+02  0.84659749704E+02  0.00000000000E+00 0.  1.
         21    1    1    2  505  504 -0.55191943713E+00  0.63073218931E+02 -0.47388779288E+02  0.78893801809E+02  0.00000000000E+00 0.  1.
          3    1    1    2  501    0 -0.41181939727E+02 -0.75484093719E+02  0.37679676289E+03  0.38648363625E+03  0.00000000000E+00 0. -1.
<scales pt_clust_3="66.26656" pt_clust_4="31.82651" pt_clust_5="31.82651" pt_clust_6="85.85691"></scales>
<clustering>
<clus scale="   31.827">  4  5 -1 -1</clus>
<clus scale="   66.267">  2  3  1 -1</clus>
<clus scale="   85.857">  1  6  2 -1</clus>
<clus scale="   66.267">  2  3  1 -1</clus>
</clustering>
</event>
<event>
 6    0  0.1993420E+002  0.1181106E+03  0.7546771E-02  0.1246247E+00
         21   -1    0    0  504  502  0.00000000000E+00  0.00000000000E+00  0.48605690536E+03  0.48605690536E+03  0.00000000000E+00 0. -1.
          2   -1    0    0  503    0 -0.00000000000E+00 -0.00000000000E+00 -0.12340723626E+03  0.12340723626E+03  0.00000000000E+00 0. -1.
         21    1    1    2  503  502 -0.41762636177E+02  0.58104765912E+02  0.99607419764E+02  0.12264550409E+03  0.00000000000E+00 0. -1.
         21    1    1    2  504  505  0.53834713167E+02  0.26790603634E+02  0.45781978998E+02  0.75577128722E+02  0.00000000000E+00 0. -1.
         21    1    1    2  505  501 -0.12761264406E+03 -0.58646657174E+02  0.25137133484E+03  0.28794437883E+03  0.00000000000E+00 0. -1.
          2    1    1    2  501    0  0.11554056707E+03 -0.26248712372E+02 -0.34111064492E+02  0.12329712998E+03  0.00000000000E+00 0. -1.
<scales pt_clust_3="70.75096" pt_clust_4="60.13246" pt_clust_5="118.11056" pt_clust_6="14000.00000"></scales>
<clustering>
<clus scale="   60.132">  1  4  2 -1</clus>
<clus scale="   70.751">  1  3  2 -1</clus>
<clus scale="  118.111">  1  5  2 -1</clus>
<clus scale="   60.132">  1  3  2 -1</clus>
</clustering>
</event>
<event>
 6    0  0.1993420E+002  0.2488236E+03  0.7546771E-02  0.1114051E+00
         21   -1    0    0  505  502  0.00000000000E+00  0.00000000000E+00  0.15490953492E+03  0.15490953492E+03  0.00000000000E+00 0.  1.
          2   -1    0    0  504    0 -0.00000000000E+00 -0.00000000000E+00 -0.14646887155E+04  0.14646887155E+04  0.00000000000E+00 0. -1.
         21    1    1    2  503  502  0.14992173667E+03 -0.22197093420E+03 -0.91334160584E+02  0.28300097464E+03  0.00000000000E+00 0.  1.
         21    1    1    2  504  503 -0.12522732895E+03 -0.64133594045E+02 -0.34335663185E+03  0.37106438583E+03  0.00000000000E+00 0.  1.
         21    1    1    2  505  501 -0.53933603388E+02  0.22116354921E+03 -0.25687275734E+03  0.34322844074E+03  0.00000000000E+00 0. -1.
          2    1    1    2  501    0  0.29239195671E+02  0.64940979035E+02 -0.61821563077E+03  0.62230444917E+03  0.00000000000E+00 0. -1.
<scales pt_clust_3="14000.00000" pt_clust_4="118.66412" pt_clust_5="248.82364" pt_clust_6="71.21981"></scales>
<clustering>
<clus scale="   71.220">  2  6  1 -1</clus>
<clus scale="  118.664">  2  4  1 -1</clus>
<clus scale="  248.824">  2  5  1 -1</clus>
<clus scale="  248.824">  1  3  2 -1</clus>
</clustering>
</event>
<event>
 6    0  0.1993420E+002  0.1018853E+03  0.7546771E-02  0.1276381E+00
         21   -1    0    0  501  502  0.00000000000E+00  0.00000000000E+00  0.19657191356E+03  0.19657191356E+03  0.00000000000E+00 0. -1.
          2   -1    0    0  505    0 -0.00000000000E+00 -0.00000000000E+00 -0.16543969079E+04  0.16543969079E+04  0.00000000000E+00 0. -1.
         21    1    1    2  503  504  0.43262070442E+01  0.47007809015E+02  0.12462937608E+03  0.13327014503E+03  0.00000000000E+00 0. -1.
         21    1    1    2  504  502  0.25081746641E+01  0.45338427450E+02  0.45278453334E+02  0.64124895946E+02  0.00000000000E+00 0. -1.
         21    1    1    2  505  503  0.16032166383E+02 -0.14035656794E+03 -0.39167866408E+03  0.41637623902E+03  0.00000000000E+00 0. -1.
          2    1    1    2  501    0 -0.22866548091E+02  0.48010331472E+02 -0.12360541597E+04  0.12371975415E+04  0.00000000000E+00 0. -1.
<scales pt_clust_3="38.25726" pt_clust_4="38.25726" pt_clust_5="94.12237" pt_clust_6="53.17773"></scales>
<clustering>
<clus scale="   38.257">  3  4 -1 -1</clus>
<clus scale="   53.178">  2  6  1 -1</clus>
<clus scale="   94.122">  2  5  1 -1</clus>
<clus scale="  101.885">  1  3  2 -1</clus>
</clustering>
</event>
<event>
 6    0  0.1993420E+002  0.1435474E+03  0.7546771E-02  0.1208634E+00
          2   -1    0    0  504    0 -0.00000000000E+00  0.00000000000E+00  0.20828601596E+04  0.20828601596E+04  0.00000000000E+00 0.  1.
         21   -1    0    0  503  502  0.00000000000E+00 -0.00000000000E+00 -0.11394148009E+03  0.11394148009E+03  0.00000000000E+00 0. -1.
         21    1    1    2  503  505 -0.27468835315E+00 -0.50696840915E+02  0.76228708946E+02  0.91548135972E+02  0.00000000000E+00 0. -1.
         21    1    1    2  504  502  0.27504446330E+02 -0.52085295380E+02  0.10490030130E+02  0.59828198159E+02  0.00000000000E+00 0. -1.
         21    1    1    2  505  501 -0.16609987990E+03  0.66682562216E+02  0.22724523750E+02  0.18042211113E+03  0.00000000000E+00 0. -1.
          2    1    1    2  501    0  0.13887012192E+03  0.36099574079E+02  0.18594754167E+04  0.18650031945E+04  0.00000000000E+00 0.  1.
<scales pt_clust_3="50.69759" pt_clust_4="69.49921" pt_clust_5="143.54743" pt_clust_6="14000.00000"></scales>
<clustering>
<clus scale="   50.698">  2  3  1 -1</clus>
<clus scale="   69.499">  2  4  1 -1</clus>
<clus scale="  143.547">  2  5  1 -1</clus>
<clus scale="   50.698">  2  3  1 -1</clus>
</clustering>
</event>
<event>
 6    0  0.1993420E+002  0.1405693E+03  0.7546771E-02  0.1212565E+00
         21   -1    0    0  503  502  0.00000000000E+00  0.00000000000E+00  0.29839239928E+03  0.29839239928E+03  0.00000000000E+00 0. -1.
          2   -1    0    0  504    0 -0.00000000000E+00 -0.00000000000E+00 -0.44083688966E+03  0.44083688966E+03  0.00000000000E+00 0.  1.
         21    1    1    2  503  501 -0.43880589930E+02 -0.10803094612E+03  0.18432628219E+03  0.21811091169E+03  0.00000000000E+00 0. -1.
         21    1    1    2  504  505 -0.39436590779E+02 -0.12675513390E+02  0.18371012906E+02  0.45314539026E+02  0.00000000000E+00 0. -1.
         21    1    1    2  505  502 -0.20336843234E+02  0.22651177750E+02  0.48409491273E+02  0.57185154468E+02  0.00000000000E+00 0. -1.
          2    1    1    2  501    0  0.10365402394E+03  0.98055281757E+02 -0.39355127675E+03  0.41861868376E+03  0.00000000000E+00 0.  1.
<scales pt_clust_3="14000.00000" pt_clust_4="43.18577" pt_clust_5="30.44114" pt_clust_6="140.56934"></scales>
<clustering>
<clus scale="   30.441">  1  5  2 -1</clus>
<clus scale="   43.186">  1  4  2 -1</clus>
<clus scale="  140.569">  2  6  1 -1</clus>
<clus scale="   30.441">  1  3  2 -1</clus>
</clustering>
</event>
<event>
 6    0  0.1993420E+002  0.1070696E+03  0.7546771E-02  0.1266095E+00
         21   -1    0    0  504  502  0.00000000000E+00  0.00000000000E+00  0.59980262042E+02  0.59980262042E+02  0.00000000000E+00 0.  1.
          1   -1    0    0  503    0 -0.00000000000E+00 -0.00000000000E+00 -0.19709733077E+04  0.19709733077E+04  0.00000000000E+00 0. -1.
         21    1    1    2  503  505  0.28623039272E+02  0.74087222156E+02 -0.10638905966E+01  0.79431270462E+02  0.00000000000E+00 0.  1.
         21    1    1    2  504  501 -0.22919191633E+02 -0.23645984670E+02 -0.43525475163E+02  0.54579198641E+02  0.00000000000E+00 0.  1.
         21    1    1    2  505  502 -0.18074541642E+02  0.57432725855E+02 -0.52769205520E+02  0.80061202251E+02  0.00000000000E+00 0.  1.
          1    1    1    2  501    0  0.12370694004E+02 -0.10787396334E+03 -0.18136344743E+04  0.18168818984E+04  0.00000000000E+00 0. -1.
<scales pt_clust_3="107.06958" pt_clust_4="32.93056" pt_clust_5="56.74749" pt_clust_6="14000.00000"></scales>
<clustering>
<clus scale="   32.931">  1  4  2 -1</clus>
<clus scale="   56.747">  1  5  2 -1</clus>
<clus scale="  107.070">  1  3  2 -1</clus>
<clus scale="   32.931">  1  3  2 -1</clus>
</clustering>
</event>
<event>
 6    0  0.1993420E+002  0.2556981E+03  0.7546771E-02  0.1109756E+00
          2   -1    0    0  505    0 -0.00000000000E+00  0.00000000000E+00  0.10095383636E+04  0.10095383636E+04  0.00000000000E+00 0. -1.
         21   -1    0    0  503  502  0.00000000000E+00 -0.00000000000E+00 -0.83455914898E+02  0.83455914898E+02  0.00000000000E+00 0. -1.
         21    1    1    2  503  501 -0.50423268578E+02 -0.18814428466E+02  0.90869268813E+02  0.10561113931E+03  0.00000000000E+00 0. -1.
         21    1    1    2  504  502  0.17291489582E+03  0.49589938866E+02  0.13322625367E+03  0.22384806879E+03  0.00000000000E+00 0. -1.
         21    1    1    2  505  504  0.32017949655E+02  0.68590823132E+02  0.62433485839E+02  0.98121303864E+02  0.00000000000E+00 0. -1.
          2    1    1    2  501    0 -0.15450957690E+03 -0.99366333532E+02  0.63955344039E+03  0.66541376655E+03  0.00000000000E+00 0. -1.
<scales pt_clust_3="38.26517" pt_clust_4="62.95105" pt_clust_5="62.95105" pt_clust_6="246.90498"></scales>
<clustering>
<clus scale="   38.265">  3  6 -1 -1</clus>
<clus scale="   62.951">  4  5 -1 -1</clus>
<clus scale="  246.905">  1  3  2 -1</clus>
<clus scale="  255.698">  2  3  1 -1</clus>
</clustering>
</event>
<event>
 6    0  0.1993420E+002  0.7250611E+02  0.7546771E-02  0.1351772E+00
          1   -1    0    0  504    0 -0.00000000000E+00  0.00000000000E+00  0.17693273616E+04  0.17693273616E+04  0.00000000000E+00 0.  1.
         21   -1    0    0  503  502  0.00000000000E+00 -0.00000000000E+00 -0.31061610103E+02  0.31061610103E+02  0.00000000000E+00 0.  1.
         21    1    1    2  503  501 -0.43119254295E+02 -0.35422521673E+02  0.25355447403E+02  0.61293750461E+02  0.00000000000E+00 0.  1.
         21    1    1    2  504  505 -0.24187560052E+02 -0.22914424773E+02  0.22060437151E+03  0.22310624745E+03  0.00000000000E+00 0. -1.
         21    1    1    2  505  502  0.11108277103E+03  0.56184441737E+02  0.32752372099E+03  0.35038245008E+03  0.00000000000E+00 0.  1.
          1    1    1    2  501    0 -0.43775956683E+02  0.21525047085E+01  0.11647822116E+04  0.11656065238E+04  0.00000000000E+00 0.  1.
<scales pt_clust_3="56.73397" pt_clust_4="33.31830" pt_clust_5="14000.00000" pt_clust_6="72.50611"></scales>
<clustering>
<clus scale="   33.318">  1  4  2 -1</clus>
<clus scale="   56.734">  2  3  1 -1</clus>
<clus scale="   72.506">  1  6  2 -1</clus>
<clus scale="   56.734">  2  3  1 -1</clus>
</clustering>
</event>
<event>
 6    0  0.1993420E+002  0.1229738E+03  0.7546771E-02  0.1238270E+00
         21   -1    0    0  504  502  0.00000000000E+00  0.00000000000E+00  0.88751398476E+03  0.88751398476E+03  0.00000000000E+00 0.  1.
          1   -1    0    0  505    0 -0.00000000000E+00 -0.00000000000E+00 -0.23792427586E+04  0.23792427586E+04  0.00000000000E+00 0. -1.
         21    1    1    2  503  501 -0.68078415041E+02 -0.11831101272E+03 -0.82464522166E+02  0.15947590332E+03  0.00000000000E+00 0.  1.
         21    1    1    2  504  503  0.20338561008E+02  0.12134065008E+03  0.68803699031E+03  0.69895072105E+03  0.00000000000E+00 0.  1.
         21    1    1    2  505  502  0.74646251958E+02 -0.42397867768E+02  0.14339421711E+03  0.16712732758E+03  0.00000000000E+00 0.  1.
          1    1    1    2  501    0 -0.26906397925E+02  0.39368230402E+02 -0.22406954591E+04  0.22412027914E+04  0.00000000000E+00 0. -1.
<scales pt_clust_3="14000.00000" pt_clust_4="122.97380" pt_clust_5="82.19038" pt_clust_6="47.68450"></scales>
<clustering>
<clus scale="   47.685">  2  6  1 -1</clus>
<clus scale="   82.190">  1  5  2 -1</clus>
<clus scale="  122.974">  1  4  2 -1</clus>
<clus scale="   82.190">  1  3  2 -1</clus>
</clustering>
</event>
<event>
 6    0  0.1993420E+002  0.1300856E+03  0.7546771E-02  0.1227329E+00
         21   -1    0    0  505  502  0.00000000000E+00  0.00000000000E+00  0.39191594256E+03  0.39191594256E+03  0.00000000000E+00 0. -1.
          2   -1    0    0  504    0 -0.00000000000E+00 -0.00000000000E+00 -0.10042986628E+04  0.10042986628E+04  0.00000000000E+00 0.  1.
         21    1    1    2  503  501  0.64248413893E+02 -0.81050701005E+01  0.11351838571E+03  0.13069037739E+03  0.00000000000E+00 0. -1.
         21    1    1    2  504  502 -0.84336716577E+02  0.40097400753E+02 -0.41939715152E+01  0.93477658867E+02  0.00000000000E+00 0. -1.
         21    1    1    2  505  503  0.53012289467E+02 -0.39834037409E+02  0.21997717858E+03  0.22975424363E+03  0.00000000000E+00 0. -1.
          2    1    1    2  501    0 -0.32923986783E+02  0.78417067564E+01 -0.94168431298E+03  0.94229232544E+03  0.00000000000E+00 0.  1.
<scales pt_clust_3="49.96625" pt_clust_4="119.45490" pt_clust_5="49.96625" pt_clust_6="33.84496"></scales>
<clustering>
<clus scale="   33.845">  2  6  1 -1</clus>
<clus scale="   49.966">  3  5 -1 -1</clus>
<clus scale="  119.455">  2  4  1 -1</clus>
<clus scale="  130.086">  1  3  2 -1</clus>
</clustering>
</event>
<event>
 6    0  0.1993420E+002  0.8426134E+02  0.7546771E-02  0.1317376E+00
         21   -1    0    0  505  502  0.00000000000E+00  0.00000000000E+00  0.34206346715E+03  0.34206346715E+03  0.00000000000E+00 0. -1.
          1   -1    0    0  504    0 -0.00000000000E+00 -0.00000000000E+00 -0.29774989244E+03  0.29774989244E+03  0.00000000000E+00 0.  1.
         21    1    1    2  503  502 -0.25492357510E+02  0.33967315370E+02  0.60534326996E+02  0.73946220659E+02  0.00000000000E+00 0. -1.
         21    1    1    2  504  503 -0.52998926075E+02  0.58647547513E+01  0.66268294711E+02  0.85057441752E+02  0.00000000000E+00 0. -1.
         21    1    1    2  505  501  0.71671613061E+02  0.41164259251E+02  0.18426171068E+03  0.20194973232E+03  0.00000000000E+00 0. -1.
          1    1    1    2  501    0  0.68196705237E+01 -0.80996329373E+02 -0.26675075769E+03  0.27885996487E+03  0.00000000000E+00 0.  1.
<scales pt_clust_3="34.05109" pt_clust_4="34.05109" pt_clust_5="75.12782" pt_clust_6="81.28292"></scales>
<clustering>
<clus scale="   34.051">  3  4 -1 -1</clus>
<clus scale="   81.283">  2  6  1 -1</clus>
<clus scale="   75.128">  1  5  2 -1</clus>
<clus scale="   75.128">  1  3  2 -1</clus>
</clustering>
</event>
<event>
 6    0  0.1993420E+002  0.1191909E+03  0.7546771E-02  0.1244438E+00
         21   -1    0    0  505  502  0.00000000000E+00  0.00000000000E+00  0.20485642042E+02  0.20485642042E+02  0.00000000000E+00 0.  1.
          2   -1    0    0  502    0 -0.00000000000E+00 -0.00000000000E+00 -0.48359702432E+04  0.48359702432E+04  0.00000000000E+00 0.  1.
         21    1    1    2  503  504  0.10179245391E+03  0.12731236795E+02 -0.27884260971E+03  0.29711443764E+03  0.00000000000E+00 0.  1.
         21    1    1    2  504  501 -0.88940964497E+02 -0.10486192829E+03 -0.87976990961E+03  0.89045023051E+03  0.00000000000E+00 0.  1.
         21    1    1    2  505  503  0.24502886074E+02 -0.28828004826E+02 -0.68237249587E+02  0.78024147028E+02  0.00000000000E+00 0.  1.
          2    1    1    2  501    0 -0.37354375490E+02  0.12095869632E+03 -0.35886348323E+04  0.35908670701E+04  0.00000000000E+00 0.  1.
<scales pt_clust_3="116.22387" pt_clust_4="14000.00000" pt_clust_5="37.83445" pt_clust_6="119.19092"></scales>
<clustering>
<clus scale="   37.834">  1  5  2 -1</clus>
<clus scale="  116.224">  1  3  2 -1</clus>
<clus scale="  119.191">  2  6  1 -1</clus>
<clus scale="   37.834">  1  3  2 -1</clus>
</clustering>
</event>
<event>
 6    0  0.1993420E+002  0.1644368E+03  0.7546771E-02  0.1183777E+00
          2   -1    0    0  503    0 -0.00000000000E+00  0.00000000000E+00  0.29980930296E+04  0.29980930296E+04  0.00000000000E+00 0. -1.
         21   -1    0    0  505  502  0.00000000000E+00 -0.00000000000E+00 -0.14806470431E+03  0.14806470431E+03  0.00000000000E+00 0. -1.
         21    1    1    2  503  504  0.24051852314E+02 -0.11420164252E+03  0.27040914855E+03  0.29451929372E+03  0.00000000000E+00 0.  1.
         21    1    1    2  504  502  0.65965215246E+01 -0.30092087533E+02  0.13605662811E+02  0.33677320096E+02  0.00000000000E+00 0. -1.
         21    1    1    2  505  501 -0.16102260570E+03  0.87044932518E+02 -0.56514987693E+02  0.19156994455E+03  0.00000000000E+00 0. -1.
          2    1    1    2  501    0  0.13037423186E+03  0.57248797533E+02  0.26225285016E+04  0.26263911755E+04  0.00000000000E+00 0. -1.
<scales pt_clust_3="119.39741" pt_clust_4="30.80662" pt_clust_5="164.43680" pt_clust_6="14000.00000"></scales>
<clustering>
<clus scale="   30.807">  2  4  1 -1</clus>
<clus scale="  119.397">  1  3  2 -1</clus>
<clus scale="  164.437">  2  5  1 -1</clus>
<clus scale="   30.807">  2  3  1 -1</clus>
</clustering>
</event>
<event>
 6    0  0.1993420E+002  0.1010674E+03  0.7546771E-02  0.1278067E+00
         21   -1    0    0  503  502  0.00000000000E+00  0.00000000000E+00  0.98295576716E+03  0.98295576716E+03  0.00000000000E+00 0. -1.
          1   -1    0    0  504    0 -0.00000000000E+00 -0.00000000000E+00 -0.16760872845E+03  0.16760872845E+03  0.00000000000E+00 0. -1.
         21    1    1    2  503  501 -0.13457321574E+02 -0.34819071894E+02  0.53010340226E+02  0.64834893710E+02  0.00000000000E+00 0. -1.
         21    1    1    2  504  505  0.37276475233E+01 -0.89897344976E+02  0.49631711310E+03  0.50440668586E+03  0.00000000000E+00 0. -1.
         21    1    1    2  505  502 -0.36243020720E+02  0.33882902690E+02  0.40556505407E+03  0.40858857147E+03  0.00000000000E+00 0. -1.
          1    1    1    2  501    0  0.45972694771E+02  0.90833514179E+02 -0.13954546869E+03  0.17273434457E+03  0.00000000000E+00 0. -1.
<scales pt_clust_3="37.32917" pt_clust_4="101.06737" pt_clust_5="46.06848" pt_clust_6="14000.00000"></scales>
<clustering>
<clus scale="   37.329">  1  3  2 -1</clus>
<clus scale="   46.068">  1  5  2 -1</clus>
<clus scale="  101.067">  1  4  2 -1</clus>
<clus scale="   37.329">  1  3  2 -1</clus>
</clustering>
</event>
<event>
 6    0  0.1993420E+002  0.1076061E+03  0.7546771E-02  0.1265068E+00
         21   -1    0    0  504  502  0.00000000000E+00  0.00000000000E+00  0.55022527523E+02  0.55022527523E+02  0.00000000000E+00 0.  1.
          2   -1    0    0  502    0 -0.00000000000E+00 -0.00000000000E+00 -0.16931347170E+04  0.16931347170E+04  0.00000000000E+00 0.  1.
         21    1    1    2  503  501 -0.10478313441E+03 -0.18302037900E+02 -0.23694105901E+03  0.25972203467E+03  0.00000000000E+00 0.  1.
         21    1    1    2  504  505  0.46728644637E+02 -0.43981032623E+02 -0.30697673752E+01  0.64244228783E+02  0.00000000000E+00 0.  1.
         21    1    1    2  505  503  0.41710260481E+02  0.24169166201E+01 -0.23005025757E+02  0.47695057662E+02  0.00000000000E+00 0.  1.
          2    1    1    2  501    0  0.16344229289E+02  0.59866153902E+02 -0.13750963374E+04  0.13764959234E+04  0.00000000000E+00 0.  1.
<scales pt_clust_3="96.32024" pt_clust_4="38.70984" pt_clust_5="38.70984" pt_clust_6="62.05715"></scales>
<clustering>
<clus scale="   38.710">  4  5 -1 -1</clus>
<clus scale="   62.057">  2  6  1 -1</clus>
<clus scale="   96.320">  2  3  1 -1</clus>
<clus scale="  107.606">  1  3  2 -1</clus>
</clustering>
</event>
<event>
 6    0  0.1993420E+002  0.1013860E+03  0.7546771E-02  0.1277408E+00
          2   -1    0    0  503    0 -0.00000000000E+00  0.00000000000E+00  0.71803925485E+03  0.71803925485E+03  0.00000000000E+00 0.  1.
         21   -1    0    0  505  502  0.00000000000E+00 -0.00000000000E+00 -0.20819564466E+03  0.20819564466E+03  0.00000000000E+00 0. -1.
         21    1    1    2  503  504 -0.12062554196E+03  0.17342273905E+02 -0.10368437631E+03  0.16000539281E+03  0.00000000000E+00 0. -1.
         21    1    1    2  504  502 -0.17743209145E+02 -0.25202232981E+02 -0.50107773817E+02  0.58828250143E+02  0.00000000000E+00 0. -1.
         21    1    1    2  505  501  0.40905886877E+02  0.33578206584E+02  0.21045985372E+02  0.56953674498E+02  0.00000000000E+00 0.  1.
          2    1    1    2  501    0  0.97462864223E+02 -0.25718247508E+02  0.64258977494E+03  0.65044758207E+03  0.00000000000E+00 0.  1.
<scales pt_clust_3="14000.00000" pt_clust_4="30.82165" pt_clust_5="49.46258" pt_clust_6="101.38605"></scales>
<clustering>
<clus scale="   30.822">  2  4  1 -1</clus>
<clus scale="   49.463">  2  5  1 -1</clus>
<clus scale="  101.386">  1  6  2 -1</clus>
<clus scale="   30.822">  2  3  1 -1</clus>
</clustering>
</event>
<event>
 6    0  0.1993420E+002  0.1107874E+03  0.7546771E-02  0.1259119E+00
         21   -1    0    0  504  502  0.00000000000E+00  0.00000000000E+00  0.22287066452E+03  0.22287066452E+03  0.00000000000E+00 0.  1.
         -1   -1    0    0    0  501 -0.00000000000E+00 -0.00000000000E+00 -0.34029806271E+03  0.34029806271E+03  0.00000000000E+00 0.  1.
         21    1    1    2  503  501  0.19510978362E+02 -0.75451627939E+02 -0.69720439525E+02  0.10456847576E+03  0.00000000000E+00 0.  1.
         21    1    1    2  504  505  0.33079797037E+02  0.24608522820E+02  0.18189478906E+03  0.18650889162E+03  0.00000000000E+00 0.  1.
         21    1    1    2  505  503 -0.18693105331E+02 -0.41452135728E+02 -0.51904433814E+02  0.69005666383E+02  0.00000000000E+00 0.  1.
         -1    1    1    2    0  502 -0.33897670067E+02  0.92295240848E+02 -0.17769731391E+03  0.20308569346E+03  0.00000000000E+00 0.  1.
<scales pt_clust_3="31.19869" pt_clust_4="41.22927" pt_clust_5="31.19869" pt_clust_6="102.98371"></scales>
<clustering>
<clus scale="   31.199">  3  5 -1 -1</clus>
<clus scale="   41.229">  1  4  2 -1</clus>
<clus scale="  102.984">  2  6  1 -1</clus>
<clus scale="   41.229">  1  3  2 -1</clus>
</clustering>
</event>
<event>
 6    0  0.1993420E+002  0.1018453E+04  0.7546771E-02  0.9288534E-01
          2   -1    0    0  504    0 -0.00000000000E+00  0.00000000000E+00  0.17734732689E+04  0.17734732689E+04  0.00000000000E+00 0.  1.
         21   -1    0    0  501  502  0.00000000000E+00 -0.00000000000E+00 -0.80433753125E+03  0.80433753125E+03  0.00000000000E+00 0.  1.
         21    1    1    2  503  505 -0.90697341127E+01  0.75301173623E+02 -0.47466385859E+02  0.89473932586E+02  0.00000000000E+00 0.  1.
         21    1    1    2  504  503 -0.14008474768E+03  0.39195164042E+03 -0.90333864541E+02  0.42592256578E+03  0.00000000000E+00 0.  1.
         21    1    1    2  505  502 -0.18762043298E+03  0.48332634835E+03 -0.57891422132E+02  0.52168688180E+03  0.00000000000E+00 0.  1.
          2    1    1    2  501    0  0.33677491477E+03 -0.95057916239E+03  0.11648274102E+04  0.15407274200E+04  0.00000000000E+00 0.  1.
<scales pt_clust_3="33.26414" pt_clust_4="88.68823" pt_clust_5="88.68823" pt_clust_6="1008.47315"></scales>
<clustering>
<clus scale="   33.264">  3  4 -1 -1</clus>
<clus scale="   88.688">  3  5 -1 -1</clus>
<clus scale=" 1008.473">  1  6  2 -1</clus>
<clus scale=" 1018.453">  2  3  1 -1</clus>
</clustering>
</event>
<event>
 6    0  0.1993420E+002  0.2195588E+03  0.7546771E-02  0.1134212E+00
         21   -1    0    0  501  502  0.00000000000E+00  0.00000000000E+00  0.42219229396E+03  0.42219229396E+03  0.00000000000E+00 0.  1.
          2   -1    0    0  504    0 -0.00000000000E+00 -0.00000000000E+00 -0.84191083502E+03  0.84191083502E+03  0.00000000000E+00 0.  1.
         21    1    1    2  503  505  0.13139378849E+01  0.64300698621E+02  0.10437497148E+03  0.12259869880E+03  0.00000000000E+00 0.  1.
         21    1    1    2  504  503 -0.91276554293E+01 -0.21496654882E+03  0.10440624881E+03  0.23915391695E+03  0.00000000000E+00 0.  1.
         21    1    1    2  505  502  0.48664552799E+02  0.13543202885E+03  0.98278125437E+02  0.17426606978E+03  0.00000000000E+00 0.  1.
          2    1    1    2  501    0 -0.40850835255E+02  0.15233821348E+02 -0.72677788680E+03  0.72808444345E+03  0.00000000000E+00 0.  1.
<scales pt_clust_3="45.97204" pt_clust_4="208.65440" pt_clust_5="45.97204" pt_clust_6="43.59885"></scales>
<clustering>
<clus scale="   43.599">  2  6  1 -1</clus>
<clus scale="   45.972">  3  5 -1 -1</clus>
<clus scale="  208.654">  2  4  1 -1</clus>
<clus scale="  219.559">  1  3  2 -1</clus>
</clustering>
</event>
<event>
 6    0  0.1993420E+002  0.8479211E+02  0.7546771E-02  0.1315977E+00
          1   -1    0    0  504    0 -0.00000000000E+00  0.00000000000E+00  0.24097685325E+04  0.24097685325E+04  0.00000000000E+00 0. -1.
         21   -1    0    0  503  502  0.00000000000E+00 -0.00000000000E+00 -0.32414241760E+02  0.32414241760E+02  0.00000000000E+00 0.  1.
         21    1    1    2  503  501  0.87503546825E+02  0.25537906294E+02  0.26856808736E+03  0.28361571344E+03  0.00000000000E+00 0.  1.
         21    1    1    2  504  505 -0.55381091313E+02 -0.58487280208E+02  0.13939520528E+03  0.16099332432E+03  0.00000000000E+00 0. -1.
         21    1    1    2  505  502 -0.73488650227E+02  0.30601681706E+02  0.10042820806E+03  0.12815174447E+03  0.00000000000E+00 0.  1.
          1    1    1    2  501    0  0.41366194715E+02  0.23476922083E+01  0.18689627901E+04  0.18694219920E+04  0.00000000000E+00 0. -1.
<scales pt_clust_3="14000.00000" pt_clust_4="84.79211" pt_clust_5="71.82431" pt_clust_6="41.43276"></scales>
<clustering>
<clus scale="   41.433">  1  6  2 -1</clus>
<clus scale="   71.824">  2  5  1 -1</clus>
<clus scale="   84.792">  1  4  2 -1</clus>
<clus scale="   71.824">  2  3  1 -1</clus>
</clustering>
</event>
<event>
 6    0  0.1993420E+002  0.3665248E+03  0.7546771E-02  0.1056030E+00
          2   -1    0    0  505    0 -0.00000000000E+00  0.00000000000E+00  0.32964436853E+04  0.32964436853E+04  0.00000000000E+00 0.  1.
         21   -1    0    0  503  502  0.00000000000E+00 -0.00000000000E+00 -0.67013530728E+02  0.67013530728E+02  0.00000000000E+00 0. -1.
         21    1    1    2  503  504 -0.19557341873E+03  0.16962286814E+03  0.11268210453E+04  0.11561775589E+04  0.00000000000E+00 0. -1.
         21    1    1    2  504  501 -0.76696526787E+02  0.15429494582E+02  0.53526273026E+03  0.54094973605E+03  0.00000000000E+00 0.  1.
         21    1    1    2  505  502  0.29109530667E+03 -0.21751880156E+03  0.62297700145E+03  0.72121512112E+03  0.00000000000E+00 0. -1.
          2    1    1    2  501    0 -0.18825361154E+02  0.32466438843E+02  0.94436937756E+03  0.94511479999E+03  0.00000000000E+00 0.  1.
<scales pt_clust_3="53.36161" pt_clust_4="53.36161" pt_clust_5="353.54934" pt_clust_6="37.52951"></scales>
<clustering>
<clus scale="   37.530">  1  6  2 -1</clus>
<clus scale="   53.362">  3  4 -1 -1</clus>
<clus scale="  353.549">  2  5  1 -1</clus>
<clus scale="  353.549">  2  3  1 -1</clus>
</clustering>
</event>
<event>
 6    0  0.1993420E+002  0.1197246E+03  0.7546771E-02  0.1243552E+00
          2   -1    0    0  503    0 -0.00000000000E+00  0.00000000000E+00  0.48297132184E+03  0.48297132184E+03  0.00000000000E+00 0.  1.
         21   -1    0    0  504  502  0.00000000000E+00 -0.00000000000E+00 -0.42899137250E+03  0.42899137250E+03  0.00000000000E+00 0. -1.
         21    1    1    2  503  502  0.23695558254E+02 -0.24720056412E+02 -0.25071009012E+02  0.42439558938E+02  0.00000000000E+00 0. -1.
         21    1    1    2  504  505  0.73451605245E+01  0.14272657477E+03 -0.36128048710E+03  0.38852080625E+03  0.00000000000E+00 0. -1.
         21    1    1    2  505  501 -0.78396533642E+02 -0.71427836557E+02  0.15346557130E+03  0.18654659980E+03  0.00000000000E+00 0. -1.
          2    1    1    2  501    0  0.47355814864E+02 -0.46578681799E+02  0.28686587415E+03  0.29445572935E+03  0.00000000000E+00 0.  1.
<scales pt_clust_3="34.24267" pt_clust_4="14000.00000" pt_clust_5="119.72455" pt_clust_6="66.75264"></scales>
<clustering>
<clus scale="   34.243">  2  3  1 -1</clus>
<clus scale="   66.753">  1  6  2 -1</clus>
<clus scale="  119.725">  1  5  2 -1</clus>
<clus scale="   34.243">  2  3  1 -1</clus>
</clustering>
</event>
<event>
 6    0  0.3461698E+002  0.1235288E+03  0.7546771E-02  0.1237387E+00
          1   -1    0    0  504    0 -0.00000000000E+00  0.00000000000E+00  0.24103455809E+04  0.24103455809E+04  0.00000000000E+00 0.  1.
         21   -1    0    0  503  502  0.00000000000E+00 -0.00000000000E+00 -0.12155608056E+04  0.12155608056E+04  0.00000000000E+00 0. -1.
         21    1    1    2  503  505  0.44750505753E+02  0.12499063329E+01 -0.53455098651E+03  0.53642234034E+03  0.00000000000E+00 0.  1.
         21    1    1    2  504  502  0.26326932904E+02 -0.23468892141E+02 -0.72323300522E+01  0.36002817841E+02  0.00000000000E+00 0.  1.
         21    1    1    2  505  501  0.29790463114E+02  0.93717837807E+02 -0.65317787993E+03  0.66053905838E+03  0.00000000000E+00 0. -1.
          1    1    1    2  501    0 -0.10086790177E+03 -0.71498851998E+02  0.23897459718E+04  0.23929421700E+04  0.00000000000E+00 0.  1.
<scales pt_clust_3="57.31382" pt_clust_4="35.26891" pt_clust_5="14000.00000" pt_clust_6="123.52879"></scales>
<clustering>
<clus scale="   35.269">  2  4  1 -1</clus>
<clus scale="   57.314">  2  3  1 -1</clus>
<clus scale="  123.529">  1  6  2 -1</clus>
<clus scale="   35.269">  2  3  1 -1</clus>
</clustering>
</event>
<event>
 6    0  0.1993420E+002  0.9326830E+02  0.7546771E-02  0.1295125E+00
          3   -1    0    0  505    0 -0.00000000000E+00  0.00000000000E+00  0.32882676732E+03  0.32882676732E+03  0.00000000000E+00 0. -1.
         21   -1    0    0  503  502  0.00000000000E+00 -0.00000000000E+00 -0.63071485367E+03  0.63071485367E+03  0.00000000000E+00 0.  1.
         21    1    1    2  503  504  0.27412252063E+02 -0.12623432756E+02 -0.26011650206E+03  0.26186137032E+03  0.00000000000E+00 0. -1.
         21    1    1    2  504  501 -0.12122289660E+03 -0.37579861518E+02 -0.31624603743E+03  0.34076207659E+03  0.00000000000E+00 0.  1.
         21    1    1    2  505  502  0.12345461180E+01  0.54687858398E+02 -0.11846146658E+02  0.55969787841E+02  0.00000000000E+00 0.  1.
          3    1    1    2  501    0  0.92576098416E+02 -0.44845641239E+01  0.28632059981E+03  0.30094838625E+03  0.00000000000E+00 0. -1.
<scales pt_clust_3="30.17918" pt_clust_4="93.26830" pt_clust_5="53.66124" pt_clust_6="14000.00000"></scales>
<clustering>
<clus scale="   30.179">  2  3  1 -1</clus>
<clus scale="   53.661">  2  5  1 -1</clus>
<clus scale="   93.268">  2  4  1 -1</clus>
<clus scale="   30.179">  2  3  1 -1</clus>
</clustering>
</event>
<event>
 6    0  0.1993420E+002  0.6802426E+02  0.7546771E-02  0.1366943E+00
         21   -1    0    0  503  502  0.00000000000E+00  0.00000000000E+00  0.63987257458E+03  0.63987257458E+03  0.00000000000E+00 0.  1.
         -1   -1    0    0    0  501 -0.00000000000E+00 -0.00000000000E+00 -0.76989767610E+03  0.76989767610E+03  0.00000000000E+00 0.  1.
         21    1    1    2  503  504  0.44601662374E+02  0.32033818181E+02  0.27980949628E+03  0.28514702875E+03  0.00000000000E+00 0.  1.
         21    1    1    2  504  501  0.67706747959E+02  0.93810497120E+01  0.78215692250E+02  0.10387445464E+03  0.00000000000E+00 0. -1.
         21    1    1    2  505  502 -0.96338038622E+02 -0.83314761507E+01  0.25710532209E+03  0.27468814650E+03  0.00000000000E+00 0. -1.
         -1    1    1    2    0  505 -0.15970371711E+02 -0.33083391742E+02 -0.74515561215E+03  0.74606062079E+03  0.00000000000E+00 0.  1.
<scales pt_clust_3="51.40385" pt_clust_4="14000.00000" pt_clust_5="68.02426" pt_clust_6="36.73641"></scales>
<clustering>
<clus scale="   36.736">  2  6  1 -1</clus>
<clus scale="   51.404">  1  3  2 -1</clus>
<clus scale="   68.024">  1  5  2 -1</clus>
<clus scale="   51.404">  1  3  2 -1</clus>
</clustering>
</event>
<event>
 6    0  0.1993420E+002  0.1590330E+03  0.7546771E-02  0.1189793E+00
          2   -1    0    0  503    0 -0.00000000000E+00  0.00000000000E+00  0.11271443469E+04  0.11271443469E+04  0.00000000000E+00 0.  1.
         21   -1    0    0  501  502  0.00000000000E+00 -0.00000000000E+00 -0.24505506905E+03  0.24505506905E+03  0.00000000000E+00 0. -1.
         21    1    1    2  503  504 -0.53045216261E+02  0.51121373250E+01 -0.79038320366E+02  0.95325678610E+02  0.00000000000E+00 0. -1.
         21    1    1    2  504  505 -0.48550235532E+02 -0.23160214344E+02 -0.54039908707E+02  0.76248492652E+02  0.00000000000E+00 0.  1.
         21    1    1    2  505  502 -0.25289943189E+02 -0.42938660547E+02 -0.81191377796E+02  0.95264629451E+02  0.00000000000E+00 0. -1.
          2    1    1    2  501    0  0.12688539498E+03  0.60986737566E+02  0.10963588848E+04  0.11053606153E+04  0.00000000000E+00 0.  1.
<scales pt_clust_3="32.71787" pt_clust_4="42.67250" pt_clust_5="42.67250" pt_clust_6="140.78098"></scales>
<clustering>
<clus scale="   32.718">  3  4 -1 -1</clus>
<clus scale="   42.672">  3  5 -1 -1</clus>
<clus scale="  140.781">  1  6  2 -1</clus>
<clus scale="  159.033">  2  3  1 -1</clus>
</clustering>
</event>
<event>
 6    0  0.1993420E+002  0.1423667E+03  0.7546771E-02  0.1210179E+00
         21   -1    0    0  505  502  0.00000000000E+00  0.00000000000E+00  0.20852795696E+03  0.20852795696E+03  0.00000000000E+00 0. -1.
          2   -1    0    0  504    0 -0.00000000000E+00 -0.00000000000E+00 -0.20832395335E+04  0.20832395335E+04  0.00000000000E+00 0.  1.
         21    1    1    2  503  501 -0.29540149946E+02 -0.82017769455E+02  0.68173569074E+02  0.11066693492E+03  0.00000000000E+00 0.  1.
         21    1    1    2  504  502  0.25740784853E+02  0.28843310563E+02 -0.69805106642E+01  0.39284247457E+02  0.00000000000E+00 0. -1.
         21    1    1    2  505  503 -0.68102778156E+02 -0.60946114496E+02  0.79966620341E+02  0.12143754623E+03  0.00000000000E+00 0. -1.
          2    1    1    2  501    0  0.71902143249E+02  0.11412057339E+03 -0.20158712553E+04  0.20203787619E+04  0.00000000000E+00 0.  1.
<scales pt_clust_3="44.05315" pt_clust_4="38.65908" pt_clust_5="44.05315" pt_clust_6="135.32967"></scales>
<clustering>
<clus scale="   38.659">  1  4  2 -1</clus>
<clus scale="   44.053">  3  5 -1 -1</clus>
<clus scale="  135.330">  2  6  1 -1</clus>
<clus scale="   38.659">  1  3  2 -1</clus>
</clustering>
</event>
<event>
 6    0  0.1993420E+002  0.2500550E+03  0.7546771E-02  0.1113270E+00
          1   -1    0    0  504    0 -0.00000000000E+00  0.00000000000E+00  0.60553226420E+03  0.60553226420E+03  0.00000000000E+00 0.  1.
         21   -1    0    0  503  502  0.00000000000E+00 -0.00000000000E+00 -0.60285235093E+03  0.60285235093E+03  0.00000000000E+00 0. -1.
         21    1    1    2  503  501  0.78726648921E+02 -0.23901901520E+03 -0.13214729449E+03  0.28423736967E+03  0.00000000000E+00 0. -1.
         21    1    1    2  504  505 -0.80868929338E+02  0.10643838037E+03 -0.19892881634E+03  0.23966974469E+03  0.00000000000E+00 0. -1.
         21    1    1    2  505  502 -0.43534373795E+02  0.10742366177E+03 -0.15466654282E+03  0.19327913564E+03  0.00000000000E+00 0. -1.
          1    1    1    2  501    0  0.45676654212E+02  0.25156973061E+02  0.48842256691E+03  0.49119836512E+03  0.00000000000E+00 0.  1.
<scales pt_clust_3="247.64003" pt_clust_4="32.28269" pt_clust_5="32.28269" pt_clust_6="52.14624"></scales>
<clustering>
<clus scale="   32.283">  4  5 -1 -1</clus>
<clus scale="   52.146">  1  6  2 -1</clus>
<clus scale="  247.640">  1  3  2 -1</clus>
<clus scale="  250.055">  2  3  1 -1</clus>
</clustering>
</event>
<event>
 6    0  0.1993420E+002  0.1363582E+03  0.7546771E-02  0.1218315E+00
         21   -1    0    0  504  502  0.00000000000E+00  0.00000000000E+00  0.54592121042E+03  0.54592121042E+03  0.00000000000E+00 0. -1.
          2   -1    0    0  503    0 -0.00000000000E+00 -0.00000000000E+00 -0.26063233149E+03  0.26063233149E+03  0.00000000000E+00 0. -1.
         21    1    1    2  503  502  0.94677761507E+02  0.18416186812E+02  0.84453300701E+02  0.12820060242E+03  0.00000000000E+00 0. -1.
         21    1    1    2  504  505 -0.96559789015E+02  0.78558788936E+02  0.35334916495E+03  0.37463436647E+03  0.00000000000E+00 0. -1.
         21    1    1    2  505  501 -0.33652972922E+02  0.23071237893E+02  0.50673255023E+02  0.65058307533E+02  0.00000000000E+00 0. -1.
          2    1    1    2  501    0  0.35535000430E+02 -0.12004621364E+03 -0.20318684174E+03  0.23866026549E+03  0.00000000000E+00 0. -1.
<scales pt_clust_3="96.45224" pt_clust_4="30.35711" pt_clust_5="30.35711" pt_clust_6="125.62668"></scales>
<clustering>
<clus scale="   30.357">  4  5 -1 -1</clus>
<clus scale="   96.452">  1  3  2 -1</clus>
<clus scale="  125.627">  2  6  1 -1</clus>
<clus scale="   96.452">  1  3  2 -1</clus>
</clustering>
</event>
<event>
 6    0  0.1993420E+002  0.1700452E+03  0.7546771E-02  0.1177801E+00
          1   -1    0    0  505    0 -0.00000000000E+00  0.00000000000E+00  0.26574666237E+04  0.26574666237E+04  0.00000000000E+00 0.  1.
         21   -1    0    0  504  502  0.00000000000E+00 -0.00000000000E+00 -0.77154751683E+02  0.77154751683E+02  0.00000000000E+00 0.  1.
         21    1    1    2  503  501 -0.96951071593E+02 -0.11814522753E+03  0.71823892107E+02  0.16886822243E+03  0.00000000000E+00 0.  1.
         21    1    1    2  504  503  0.95412555981E+01 -0.36535603745E+02  0.48367608796E+01  0.38069412331E+02  0.00000000000E+00 0.  1.
         21    1    1    2  505  502  0.39645784355E+02  0.96914085091E+01  0.33448123731E+02  0.52768253687E+02  0.00000000000E+00 0. -1.
          1    1    1    2  501    0  0.47764031640E+02  0.14498942276E+03  0.24702030953E+04  0.24749154869E+04  0.00000000000E+00 0.  1.
<scales pt_clust_3="36.45793" pt_clust_4="36.45793" pt_clust_5="40.81313" pt_clust_6="153.41344"></scales>
<clustering>
<clus scale="   36.458">  3  4 -1 -1</clus>
<clus scale="   40.813">  2  5  1 -1</clus>
<clus scale="  153.413">  1  6  2 -1</clus>
<clus scale="   40.813">  2  3  1 -1</clus>
</clustering>
</event>
<event>
 6    0  0.1993420E+002  0.1484119E+03  0.7546771E-02  0.1202438E+00
          2   -1    0    0  503    0 -0.00000000000E+00  0.00000000000E+00  0.11303289131E+04  0.11303289131E+04  0.00000000000E+00 0. -1.
         21   -1    0    0  505  502  0.00000000000E+00 -0.00000000000E+00 -0.53789593243E+02  0.53789593243E+02  0.00000000000E+00 0.  1.
         21    1    1    2  503  502  0.22336223406E+00 -0.40696474551E+02  0.10081174316E+03  0.10871642235E+03  0.00000000000E+00 0.  1.
         21    1    1    2  504  501 -0.10797305698E+03 -0.68203707068E+02  0.86292597903E+02  0.15413091560E+03  0.00000000000E+00 0.  1.
         21    1    1    2  505  504 -0.36031774953E+02  0.19309382229E+02  0.48446386765E+02  0.63389221788E+02  0.00000000000E+00 0.  1.
          2    1    1    2  501    0  0.14378146970E+03  0.89590799390E+02  0.84098859202E+03  0.85788194659E+03  0.00000000000E+00 0. -1.
<scales pt_clust_3="40.69709" pt_clust_4="14000.00000" pt_clust_5="39.86847" pt_clust_6="148.41192"></scales>
<clustering>
<clus scale="   40.697">  1  3  2 -1</clus>
<clus scale="   39.868">  2  5  1 -1</clus>
<clus scale="  148.412">  1  6  2 -1</clus>
<clus scale="   39.868">  2  3  1 -1</clus>
</clustering>
</event>
<event>
 6    0  0.1993420E+002  0.1086600E+03  0.7546771E-02  0.1263072E+00
         21   -1    0    0  503  502  0.00000000000E+00  0.00000000000E+00  0.69364906070E+02  0.69364906070E+02  0.00000000000E+00 0.  1.
          1   -1    0    0  505    0 -0.00000000000E+00 -0.00000000000E+00 -0.18759060762E+04  0.18759060762E+04  0.00000000000E+00 0. -1.
         21    1    1    2  503  501  0.86814991523E+02  0.12730699233E+02  0.11908044344E+02  0.88547811809E+02  0.00000000000E+00 0.  1.
         21    1    1    2  504  502 -0.54954882207E+02  0.48258244195E+02 -0.11955284781E+03  0.14014913710E+03  0.00000000000E+00 0.  1.
         21    1    1    2  505  504 -0.69866011978E+02 -0.66088510491E+01 -0.14327845860E+03  0.15954201090E+03  0.00000000000E+00 0. -1.
          1    1    1    2  501    0  0.38005902662E+02 -0.54380092379E+02 -0.15556179081E+04  0.15570320225E+04  0.00000000000E+00 0. -1.
<scales pt_clust_3="91.58295" pt_clust_4="57.28215" pt_clust_5="57.28215" pt_clust_6="66.34488"></scales>
<clustering>
<clus scale="   57.282">  4  5 -1 -1</clus>
<clus scale="   66.345">  2  6  1 -1</clus>
<clus scale="   91.583">  1  3  2 -1</clus>
<clus scale="   91.583">  1  3  2 -1</clus>
</clustering>
</event>
<event>
 6    0  0.1993420E+002  0.1392848E+03  0.7546771E-02  0.1214295E+00
         -4   -1    0    0    0  501 -0.00000000000E+00  0.00000000000E+00  0.13058102601E+04  0.13058102601E+04  0.00000000000E+00 0. -1.
         21   -1    0    0  505  502  0.00000000000E+00 -0.00000000000E+00 -0.27409731758E+03  0.27409731758E+03  0.00000000000E+00 0. -1.
         21    1    1    2  503  501  0.35310442769E+02  0.15558665865E+02  0.41577623113E+02  0.56723876770E+02  0.00000000000E+00 0.  1.
         21    1    1    2  504  502 -0.12828757009E+03 -0.10661356803E+03 -0.80325985840E+02  0.18513891414E+03  0.00000000000E+00 0.  1.
         21    1    1    2  505  503  0.12868536109E+03  0.21221975933E+02 -0.10037986990E+03  0.16457950268E+03  0.00000000000E+00 0. -1.
         -4    1    1    2    0  504 -0.35708233769E+02  0.69832926229E+02  0.11708411751E+04  0.11734652841E+04  0.00000000000E+00 0. -1.
<scales pt_clust_3="38.58626" pt_clust_4="14000.00000" pt_clust_5="139.28476" pt_clust_6="84.39087"></scales>
<clustering>
<clus scale="   38.586">  1  3  2 -1</clus>
<clus scale="   84.391">  1  6  2 -1</clus>
<clus scale="  139.285">  2  5  1 -1</clus>
<clus scale="  139.285">  2  3  1 -1</clus>
</clustering>
</event>
<event>
 6    0  0.1993420E+002  0.1206093E+03  0.7546771E-02  0.1242095E+00
         21   -1    0    0  503  502  0.00000000000E+00  0.00000000000E+00  0.23477610960E+04  0.23477610960E+04  0.00000000000E+00 0. -1.
          2   -1    0    0  504    0 -0.00000000000E+00 -0.00000000000E+00 -0.50293563366E+03  0.50293563366E+03  0.00000000000E+00 0.  1.
         21    1    1    2  503  501  0.25094716276E+02 -0.27570918689E+02  0.61872943979E+02  0.72236843363E+02  0.00000000000E+00 0. -1.
         21    1    1    2  504  505 -0.81883942038E+02 -0.75698931075E+02  0.68060958173E+03  0.68968450096E+03  0.00000000000E+00 0. -1.
         21    1    1    2  505  502  0.33530293872E+02  0.12925785120E+03  0.15921440340E+04  0.15977341762E+04  0.00000000000E+00 0. -1.
          2    1    1    2  501    0  0.23258931890E+02 -0.25988001436E+02 -0.48980109736E+03  0.49104120918E+03  0.00000000000E+00 0.  1.
<scales pt_clust_3="51.72244" pt_clust_4="14000.00000" pt_clust_5="120.60932" pt_clust_6="34.87627"></scales>
<clustering>
<clus scale="   34.876">  2  6  1 -1</clus>
<clus scale="   51.722">  2  3  1 -1</clus>
<clus scale="  120.609">  1  5  2 -1</clus>
<clus scale="  120.609">  1  3  2 -1</clus>
</clustering>
</event>
<event>
 6    0  0.3463959E+002  0.1195133E+03  0.7546771E-02  0.1243902E+00
          2   -1    0    0  503    0 -0.00000000000E+00  0.00000000000E+00  0.10474280410E+04  0.10474280410E+04  0.00000000000E+00 0.  1.
         21   -1    0    0  505  502  0.00000000000E+00 -0.00000000000E+00 -0.82736084923E+03  0.82736084923E+03  0.00000000000E+00 0.  1.
         21    1    1    2  503  502 -0.26685467571E+02 -0.13810464065E+02 -0.50544140968E+02  0.58800963286E+02  0.00000000000E+00 0. -1.
         21    1    1    2  504  501  0.28166584454E+02 -0.72459431679E+02 -0.62366011468E+02  0.99665666634E+02  0.00000000000E+00 0.  1.
         21    1    1    2  505  504  0.73507469266E+02 -0.93527782367E+01 -0.68606746453E+03  0.69005752542E+03  0.00000000000E+00 0.  1.
          2    1    1    2  501    0 -0.74988586149E+02  0.95622673981E+02  0.10190448087E+04  0.10262647349E+04  0.00000000000E+00 0.  1.
<scales pt_clust_3="30.04735" pt_clust_4="14000.00000" pt_clust_5="54.25201" pt_clust_6="119.51329"></scales>
<clustering>
<clus scale="   30.047">  2  3  1 -1</clus>
<clus scale="   54.252">  2  5  1 -1</clus>
<clus scale="  119.513">  1  6  2 -1</clus>
<clus scale="   30.047">  2  3  1 -1</clus>
</clustering>
</event>
<event>
 6    0  0.1993420E+002  0.1574381E+03  0.7546771E-02  0.1191620E+00
         21   -1    0    0  505  502  0.00000000000E+00  0.00000000000E+00  0.35206384305E+03  0.35206384305E+03  0.00000000000E+00 0. -1.
          1   -1    0    0  504    0 -0.00000000000E+00 -0.00000000000E+00 -0.21040454856E+04  0.21040454856E+04  0.00000000000E+00 0. -1.
         21    1    1    2  503  501  0.16744813703E+03 -0.43187555807E+02 -0.21803529766E+03  0.27828660514E+03  0.00000000000E+00 0. -1.
         21    1    1    2  504  502 -0.12031435851E+03  0.82488528888E+01  0.26689164247E+03  0.29287324435E+03  0.00000000000E+00 0. -1.
         21    1    1    2  505  503 -0.38771413709E+02 -0.40851338288E+02  0.22038211159E+02  0.60479228765E+02  0.00000000000E+00 0.  1.
          1    1    1    2  501    0 -0.83623648138E+01  0.75790041206E+02 -0.18228761985E+04  0.18244702504E+04  0.00000000000E+00 0. -1.
<scales pt_clust_3="14000.00000" pt_clust_4="157.43805" pt_clust_5="56.32099" pt_clust_6="76.15684"></scales>
<clustering>
<clus scale="   56.321">  1  5  2 -1</clus>
<clus scale="   76.157">  2  6  1 -1</clus>
<clus scale="  157.438">  1  4  2 -1</clus>
<clus scale="   56.321">  1  3  2 -1</clus>
</clustering>
</event>
<event>
 6    0  0.1993420E+002  0.2139915E+03  0.7546771E-02  0.1138444E+00
          3   -1    0    0  504    0 -0.00000000000E+00  0.00000000000E+00  0.53290361473E+03  0.53290361473E+03  0.00000000000E+00 0. -1.
         21   -1    0    0  505  502  0.00000000000E+00 -0.00000000000E+00 -0.41813313953E+03  0.41813313953E+03  0.00000000000E+00 0.  1.
         21    1    1    2  503  502 -0.58381808496E+02  0.71660444063E+01 -0.19680765785E+03  0.20540944950E+03  0.00000000000E+00 0.  1.
         21    1    1    2  504  503 -0.53060171819E+02  0.10545567557E+01 -0.78113107957E+02  0.94435965385E+02  0.00000000000E+00 0.  1.
         21    1    1    2  505  501 -0.11944508151E+03 -0.66317569031E+02 -0.54601756755E+02  0.14712749335E+03  0.00000000000E+00 0.  1.
          3    1    1    2  501    0  0.23088706183E+03  0.58096967869E+02  0.44429299776E+03  0.50406384601E+03  0.00000000000E+00 0. -1.
<scales pt_clust_3="119.69062" pt_clust_4="40.73334" pt_clust_5="14000.00000" pt_clust_6="213.99154"></scales>
<clustering>
<clus scale="   40.733">  3  4 -1 -1</clus>
<clus scale="  119.691">  2  3  1 -1</clus>
<clus scale="  213.992">  1  6  2 -1</clus>
<clus scale="  119.691">  2  3  1 -1</clus>
</clustering>
</event>
<event>
 6    0  0.1993420E+002  0.1213589E+03  0.7546771E-02  0.1240872E+00
         21   -1    0    0  501  502  0.00000000000E+00  0.00000000000E+00  0.19838162388E+03  0.19838162388E+03  0.00000000000E+00 0. -1.
          2   -1    0    0  504    0 -0.00000000000E+00 -0.00000000000E+00 -0.16761897883E+03  0.16761897883E+03  0.00000000000E+00 0. -1.
         21    1    1    2  503  505 -0.48884244510E+02  0.43014003553E+02  0.21643470355E+02  0.68617152899E+02  0.00000000000E+00 0. -1.
         21    1    1    2  504  503  0.11320839999E+03 -0.30960375538E+02  0.54824405809E+01  0.11749359062E+03  0.00000000000E+00 0. -1.
         21    1    1    2  505  502 -0.15200925052E+02  0.61435444289E+02  0.49460884736E+02  0.80322855130E+02  0.00000000000E+00 0. -1.
          2    1    1    2  501    0 -0.49123230430E+02 -0.73489072303E+02 -0.45824150622E+02  0.99567004053E+02  0.00000000000E+00 0. -1.
<scales pt_clust_3="45.29352" pt_clust_4="112.32672" pt_clust_5="45.29352" pt_clust_6="88.39534"></scales>
<clustering>
<clus scale="   45.294">  3  5 -1 -1</clus>
<clus scale="   88.395">  2  6  1 -1</clus>
<clus scale="  112.327">  2  4  1 -1</clus>
<clus scale="  121.359">  1  3  2 -1</clus>
</clustering>
</event>
<event>
 6    0  0.1993420E+002  0.1316402E+03  0.7546771E-02  0.1225042E+00
         -3   -1    0    0    0  501 -0.00000000000E+00  0.00000000000E+00  0.52342629165E+03  0.52342629165E+03  0.00000000000E+00 0.  1.
         21   -1    0    0  503  502  0.00000000000E+00 -0.00000000000E+00 -0.49028730921E+03  0.49028730921E+03  0.00000000000E+00 0. -1.
         21    1    1    2  503  505  0.65510516491E+02 -0.18220315604E+02  0.17948669753E+02  0.70326114762E+02  0.00000000000E+00 0. -1.
         21    1    1    2  504  502 -0.43908311672E+02 -0.20662245916E+01 -0.38678938674E+03  0.38927912712E+03  0.00000000000E+00 0. -1.
         21    1    1    2  505  501  0.91907188244E+02  0.35770721169E+01 -0.37924315030E+02  0.99488594152E+02  0.00000000000E+00 0. -1.
         -3    1    1    2    0  504 -0.11350939306E+03  0.16709468079E+02  0.43990401446E+03  0.45461976483E+03  0.00000000000E+00 0.  1.
<scales pt_clust_3="56.26631" pt_clust_4="43.95690" pt_clust_5="56.26631" pt_clust_6="117.83844"></scales>
<clustering>
<clus scale="   43.957">  2  4  1 -1</clus>
<clus scale="   56.266">  3  5 -1 -1</clus>
<clus scale="  117.838">  1  6  2 -1</clus>
<clus scale="   43.957">  2  3  1 -1</clus>
</clustering>
</event>
<event>
 6    0  0.1993420E+002  0.1771327E+03  0.7546771E-02  0.1170607E+00
          2   -1    0    0  504    0 -0.00000000000E+00  0.00000000000E+00  0.10889669234E+03  0.10889669234E+03  0.00000000000E+00 0.  1.
         21   -1    0    0  501  502  0.00000000000E+00 -0.00000000000E+00 -0.80761066129E+03  0.80761066129E+03  0.00000000000E+00 0.  1.
         21    1    1    2  503  505  0.18313534193E+02  0.45163907541E+02 -0.25494508818E+03  0.25956148032E+03  0.00000000000E+00 0.  1.
         21    1    1    2  504  503  0.48830934476E+01  0.47305984901E+02 -0.11632852609E+03  0.12567428851E+03  0.00000000000E+00 0.  1.
         21    1    1    2  505  502 -0.17195336889E+02  0.70284274650E+02 -0.35827928924E+03  0.36551280138E+03  0.00000000000E+00 0.  1.
          2    1    1    2  501    0 -0.60012907524E+01 -0.16275416709E+03  0.30838934568E+02  0.16575878342E+03  0.00000000000E+00 0.  1.
<scales pt_clust_3="30.08933" pt_clust_4="36.24655" pt_clust_5="36.24655" pt_clust_6="162.86477"></scales>
<clustering>
<clus scale="   30.089">  3  5 -1 -1</clus>
<clus scale="   36.247">  3  4 -1 -1</clus>
<clus scale="  162.865">  1  6  2 -1</clus>
<clus scale="  177.133">  2  3  1 -1</clus>
</clustering>
</event>
<event>
 6    0  0.1993420E+002  0.1424341E+03  0.7546771E-02  0.1210091E+00
         21   -1    0    0  504  502  0.00000000000E+00  0.00000000000E+00  0.14818129193E+03  0.14818129193E+03  0.00000000000E+00 0. -1.
          2   -1    0    0  502    0 -0.00000000000E+00 -0.00000000000E+00 -0.23487640980E+04  0.23487640980E+04  0.00000000000E+00 0.  1.
         21    1    1    2  503  505  0.66394653896E+02  0.51754199767E+02 -0.89408555563E+02  0.12280324535E+03  0.00000000000E+00 0.  1.
         21    1    1    2  504  503 -0.85998287561E+02 -0.10811494980E+03  0.90344928092E+02  0.16506590764E+03  0.00000000000E+00 0. -1.
         21    1    1    2  505  501  0.34981577112E+02  0.26150153880E+01 -0.86829712622E+02  0.93648000709E+02  0.00000000000E+00 0. -1.
          2    1    1    2  501    0 -0.15377943447E+02  0.53745734641E+02 -0.21146894660E+04  0.21154282362E+04  0.00000000000E+00 0.  1.
<scales pt_clust_3="32.64890" pt_clust_4="133.15186" pt_clust_5="32.64890" pt_clust_6="55.90246"></scales>
<clustering>
<clus scale="   32.649">  3  5 -1 -1</clus>
<clus scale="   55.902">  2  6  1 -1</clus>
<clus scale="  133.152">  1  4  2 -1</clus>
<clus scale="  133.152">  1  3  2 -1</clus>
</clustering>
</event>
<event>
 6    0  0.1993420E+002  0.3405898E+03  0.7546771E-02  0.1066545E+00
         21   -1    0    0  504  502  0.00000000000E+00  0.00000000000E+00  0.14347549584E+03  0.14347549584E+03  0.00000000000E+00 0. -1.
          1   -1    0    0  505    0 -0.00000000000E+00 -0.00000000000E+00 -0.30702388984E+04  0.30702388984E+04  0.00000000000E+00 0.  1.
         21    1    1    2  503  502 -0.73387895264E+02 -0.92806223181E+02 -0.51347463294E+02  0.12897806100E+03  0.00000000000E+00 0. -1.
         21    1    1    2  504  501 -0.19336214965E+03  0.10211168532E+03 -0.14946735984E+03  0.26487017358E+03  0.00000000000E+00 0. -1.
         21    1    1    2  505  503 -0.54291689344E+02 -0.15096702826E+03 -0.14840743298E+03  0.21854838668E+03  0.00000000000E+00 0. -1.
          1    1    1    2  501    0  0.32104173426E+03  0.14166156612E+03 -0.25775411465E+04  0.26013177730E+04  0.00000000000E+00 0.  1.
<scales pt_clust_3="61.59915" pt_clust_4="218.66805" pt_clust_5="61.59915" pt_clust_6="332.95083"></scales>
<clustering>
<clus scale="   61.599">  3  5 -1 -1</clus>
<clus scale="  218.668">  1  4  2 -1</clus>
<clus scale="  332.951">  2  6  1 -1</clus>
<clus scale="  218.668">  1  3  2 -1</clus>
</clustering>
</event>
<event>
 6    0  0.1993420E+002  0.1176526E+03  0.7546771E-02  0.1247020E+00
          2   -1    0    0  503    0 -0.00000000000E+00  0.00000000000E+00  0.76948008557E+03  0.76948008557E+03  0.00000000000E+00 0. -1.
         21   -1    0    0  501  502  0.00000000000E+00 -0.00000000000E+00 -0.33746053940E+03  0.33746053940E+03  0.00000000000E+00 0. -1.
         21    1    1    2  503  505 -0.71880289121E+02 -0.10372374330E+03 -0.46489427542E+02  0.13448664529E+03  0.00000000000E+00 0. -1.
         21    1    1    2  504  502  0.31932662940E+02 -0.21228475262E+02 -0.98275340311E+02  0.10549116379E+03  0.00000000000E+00 0. -1.
         21    1    1    2  505  504  0.96947358135E+02  0.57001842066E+02 -0.12005445611E+03  0.16450250053E+03  0.00000000000E+00 0. -1.
          2    1    1    2  501    0 -0.56999731953E+02  0.67950376496E+02  0.69683877013E+03  0.70246031537E+03  0.00000000000E+00 0. -1.
<scales pt_clust_3="117.65263" pt_clust_4="38.34505" pt_clust_5="14000.00000" pt_clust_6="88.25291"></scales>
<clustering>
<clus scale="   38.345">  2  4  1 -1</clus>
<clus scale="   88.253">  1  6  2 -1</clus>
<clus scale="  117.653">  1  3  2 -1</clus>
<clus scale="   38.345">  2  3  1 -1</clus>
</clustering>
</event>
<event>
 6    0  0.1993420E+002  0.1007811E+03  0.7546771E-02  0.1278662E+00
         21   -1    0    0  503  502  0.00000000000E+00  0.00000000000E+00  0.17790280970E+03  0.17790280970E+03  0.00000000000E+00 0. -1.
          1   -1    0    0  504    0 -0.00000000000E+00 -0.00000000000E+00 -0.19091148591E+04  0.19091148591E+04  0.00000000000E+00 0. -1.
         21    1    1    2  503  505 -0.44918481606E+02 -0.47895835462E+02  0.38319956787E+02  0.76026969771E+02  0.00000000000E+00 0. -1.
         21    1    1    2  504  502 -0.62623216686E+02  0.53522954868E+02  0.97007443098E+02  0.12726671985E+03  0.00000000000E+00 0. -1.
         21    1    1    2  505  501  0.87145776600E+02  0.24878223538E+02 -0.23647283902E+03  0.25324437996E+03  0.00000000000E+00 0. -1.
          1    1    1    2  501    0  0.20395921692E+02 -0.30505342944E+02 -0.16300666103E+04  0.16304795993E+04  0.00000000000E+00 0. -1.
<scales pt_clust_3="66.26859" pt_clust_4="14000.00000" pt_clust_5="100.78113" pt_clust_6="36.69563"></scales>
<clustering>
<clus scale="   36.696">  2  6  1 -1</clus>
<clus scale="   66.269">  1  3  2 -1</clus>
<clus scale="  100.781">  2  5  1 -1</clus>
<clus scale="   66.269">  1  3  2 -1</clus>
</clustering>
</event>
<event>
 6    0  0.1993420E+002  0.6622845E+02  0.7546771E-02  0.1373409E+00
         21   -1    0    0  505  502  0.00000000000E+00  0.00000000000E+00  0.17742244944E+03  0.17742244944E+03  0.00000000000E+00 0.  1.
         -2   -1    0    0    0  501 -0.00000000000E+00 -0.00000000000E+00 -0.15818610791E+04  0.15818610791E+04  0.00000000000E+00 0.  1.
         21    1    1    2  503  502 -0.29880265956E+02 -0.12678560479E+02  0.69402585083E+02  0.76617850437E+02  0.00000000000E+00 0.  1.
         21    1    1    2  504  503 -0.67725521982E+02 -0.74501093591E+02  0.38782978272E+02  0.10789475742E+03  0.00000000000E+00 0. -1.
         21    1    1    2  505  501  0.58446331297E+02  0.34182829127E+02 -0.74074162074E+01  0.68112475099E+02  0.00000000000E+00 0. -1.
         -2    1    1    2    0  504  0.39159456641E+02  0.52996824943E+02 -0.15052167768E+04  0.15066584456E+04  0.00000000000E+00 0.  1.
<scales pt_clust_3="32.45884" pt_clust_4="66.22845" pt_clust_5="58.36225" pt_clust_6="14000.00000"></scales>
<clustering>
<clus scale="   32.459">  1  3  2 -1</clus>
<clus scale="   58.362">  1  5  2 -1</clus>
<clus scale="   66.228">  1  4  2 -1</clus>
<clus scale="   32.459">  1  3  2 -1</clus>
</clustering>
</event>
<event>
 6    0  0.1993420E+002  0.3026267E+03  0.7546771E-02  0.1083935E+00
         21   -1    0    0  503  502  0.00000000000E+00  0.00000000000E+00  0.48002739629E+03  0.48002739629E+03  0.00000000000E+00 0.  1.
         -2   -1    0    0    0  501 -0.00000000000E+00 -0.00000000000E+00 -0.13207930580E+04  0.13207930580E+04  0.00000000000E+00 0.  1.
         21    1    1    2  503  501 -0.65901578417E+02 -0.16756639814E+03  0.29784635982E+03  0.34804305751E+03  0.00000000000E+00 0.  1.
         21    1    1    2  504  505 -0.11841855284E+03 -0.88860497602E+01 -0.37393049761E+02  0.12449962131E+03  0.00000000000E+00 0.  1.
         21    1    1    2  505  502 -0.88334529683E+02  0.22927931859E+02  0.70611956237E+02  0.11538946034E+03  0.00000000000E+00 0.  1.
         -2    1    1    2    0  504  0.27265466094E+03  0.15352451605E+03 -0.11718309281E+04  0.12128883152E+04  0.00000000000E+00 0.  1.
<scales pt_clust_3="14000.00000" pt_clust_4="128.51391" pt_clust_5="91.26160" pt_clust_6="302.62673"></scales>
<clustering>
<clus scale="   91.262">  1  5  2 -1</clus>
<clus scale="  128.514">  1  4  2 -1</clus>
<clus scale="  302.627">  2  6  1 -1</clus>
<clus scale="   91.262">  1  3  2 -1</clus>
</clustering>
</event>
<event>
 6    0  0.1993420E+002  0.9685969E+02  0.7546771E-02  0.1287042E+00
         21   -1    0    0  503  502  0.00000000000E+00  0.00000000000E+00  0.59455544001E+03  0.59455544001E+03  0.00000000000E+00 0.  1.
         -2   -1    0    0    0  501 -0.00000000000E+00 -0.00000000000E+00 -0.12406420098E+03  0.12406420098E+03  0.00000000000E+00 0.  1.
         21    1    1    2  503  504 -0.35415245839E+02  0.71924039867E+02  0.23787105735E+03  0.25101782222E+03  0.00000000000E+00 0.  1.
         21    1    1    2  504  501  0.47064406061E+02  0.83491491931E+02  0.38424380790E+02  0.10325851336E+03  0.00000000000E+00 0.  1.
         21    1    1    2  505  502 -0.53609894709E+02 -0.16857741382E+02  0.21122497281E+03  0.21857308479E+03  0.00000000000E+00 0.  1.
         -2    1    1    2    0  505  0.41960734487E+02 -0.13855779042E+03 -0.17029171920E+02  0.14577022062E+03  0.00000000000E+00 0.  1.
<scales pt_clust_3="96.85969" pt_clust_4="88.48163" pt_clust_5="56.19790" pt_clust_6="14000.00000"></scales>
<clustering>
<clus scale="   56.198">  1  5  2 -1</clus>
<clus scale="   88.482">  2  4  1 -1</clus>
<clus scale="   96.860">  1  3  2 -1</clus>
<clus scale="   56.198">  1  3  2 -1</clus>
</clustering>
</event>
<event>
 6    0  0.1993420E+002  0.1058218E+03  0.7546771E-02  0.1268509E+00
         21   -1    0    0  505  502  0.00000000000E+00  0.00000000000E+00  0.10638458070E+03  0.10638458070E+03  0.00000000000E+00 0. -1.
          2   -1    0    0  503    0 -0.00000000000E+00 -0.00000000000E+00 -0.18469700769E+04  0.18469700769E+04  0.00000000000E+00 0.  1.
         21    1    1    2  503  504 -0.68108633434E+02 -0.14388778252E+02  0.99514291476E+01  0.70319654648E+02  0.00000000000E+00 0.  1.
         21    1    1    2  504  502 -0.53086587568E+02 -0.65951819158E+02  0.22384139041E+02  0.87572129759E+02  0.00000000000E+00 0. -1.
         21    1    1    2  505  501  0.40617987378E+02  0.37442928892E+02 -0.65853100605E+02  0.85955946170E+02  0.00000000000E+00 0. -1.
          2    1    1    2  501    0  0.80577233623E+02  0.42897668518E+02 -0.17070679638E+04  0.17095069271E+04  0.00000000000E+00 0.  1.
<scales pt_clust_3="47.47620" pt_clust_4="47.47620" pt_clust_5="55.24304" pt_clust_6="91.96151"></scales>
<clustering>
<clus scale="   47.476">  3  4 -1 -1</clus>
<clus scale="   55.243">  1  5  2 -1</clus>
<clus scale="   91.962">  2  6  1 -1</clus>
<clus scale="   55.243">  1  3  2 -1</clus>
</clustering>
</event>
<event>
 6    0  0.1993420E+002  0.8937535E+02  0.7546771E-02  0.1304371E+00
         21   -1    0    0  505  502  0.00000000000E+00  0.00000000000E+00  0.43395247595E+03  0.43395247595E+03  0.00000000000E+00 0. -1.
         -3   -1    0    0    0  501 -0.00000000000E+00 -0.00000000000E+00 -0.30436903244E+03  0.30436903244E+03  0.00000000000E+00 0. -1.
         21    1    1    2  503  501  0.68836234382E+02  0.16765938640E+02  0.80374921669E+01  0.71303051427E+02  0.00000000000E+00 0. -1.
         21    1    1    2  504  502 -0.45450758797E+02  0.81501640479E+02  0.32982839439E+03  0.34277552221E+03  0.00000000000E+00 0. -1.
         21    1    1    2  505  503  0.14820382757E+02 -0.75089320141E+02  0.29702204415E+02  0.82099151588E+02  0.00000000000E+00 0. -1.
         -3    1    1    2    0  504 -0.38205858342E+02 -0.23178258978E+02 -0.23798464746E+03  0.24214378317E+03  0.00000000000E+00 0. -1.
<scales pt_clust_3="50.32871" pt_clust_4="89.37535" pt_clust_5="14000.00000" pt_clust_6="44.68690"></scales>
<clustering>
<clus scale="   44.687">  2  6  1 -1</clus>
<clus scale="   50.329">  2  3  1 -1</clus>
<clus scale="   89.375">  1  4  2 -1</clus>
<clus scale="   89.375">  1  3  2 -1</clus>
</clustering>
</event>
<event>
 6    0  0.1993420E+002  0.1185658E+03  0.7546771E-02  0.1245482E+00
         -3   -1    0    0    0  501 -0.00000000000E+00  0.00000000000E+00  0.18525147393E+04  0.18525147393E+04  0.00000000000E+00 0. -1.
         21   -1    0    0  505  502  0.00000000000E+00 -0.00000000000E+00 -0.10558834770E+03  0.10558834770E+03  0.00000000000E+00 0.  1.
         21    1    1    2  503  502 -0.67895613001E+02 -0.10566038973E+02 -0.24968476722E+02  0.73108688089E+02  0.00000000000E+00 0.  1.
         21    1    1    2  504  503 -0.78460971206E+02  0.83839219806E+01  0.93266101729E+01  0.79456905349E+02  0.00000000000E+00 0.  1.
         21    1    1    2  505  501  0.36334240264E+02  0.16054316776E+02  0.24001125881E+00  0.39723742373E+02  0.00000000000E+00 0. -1.
         -3    1    1    2    0  504  0.11002234394E+03 -0.13872199784E+02  0.17623282469E+04  0.17658137511E+04  0.00000000000E+00 0. -1.
<scales pt_clust_3="37.40337" pt_clust_4="37.40337" pt_clust_5="39.72302" pt_clust_6="111.58526"></scales>
<clustering>
<clus scale="   37.403">  3  4 -1 -1</clus>
<clus scale="   39.723">  2  5  1 -1</clus>
<clus scale="  111.585">  1  6  2 -1</clus>
<clus scale="   39.723">  2  3  1 -1</clus>
</clustering>
</event>
<event>
 6    0  0.1993420E+002  0.1227131E+03  0.7546771E-02  0.1238687E+00
         -1   -1    0    0    0  501 -0.00000000000E+00  0.00000000000E+00  0.62711635450E+03  0.62711635450E+03  0.00000000000E+00 0. -1.
         21   -1    0    0  505  502  0.00000000000E+00 -0.00000000000E+00 -0.45491258081E+02  0.45491258081E+02  0.00000000000E+00 0. -1.
         21    1    1    2  503  502 -0.10900464938E+02  0.42144145582E+02  0.67452993508E+02  0.80279857223E+02  0.00000000000E+00 0. -1.
         21    1    1    2  504  503 -0.12003308767E+02  0.65280154087E+02  0.36004278250E+02  0.75510833602E+02  0.00000000000E+00 0. -1.
         21    1    1    2  505  501  0.77289237078E+02 -0.11658105633E+03  0.31744213717E+03  0.34689231660E+03  0.00000000000E+00 0. -1.
         -1    1    1    2    0  504 -0.54385463373E+02  0.91567566590E+01  0.16072568748E+03  0.16992460515E+03  0.00000000000E+00 0. -1.
<scales pt_clust_3="31.39387" pt_clust_4="31.39387" pt_clust_5="116.42909" pt_clust_6="55.15093"></scales>
<clustering>
<clus scale="   31.394">  3  4 -1 -1</clus>
<clus scale="   55.151">  1  6  2 -1</clus>
<clus scale="  116.429">  1  5  2 -1</clus>
<clus scale="  122.713">  2  3  1 -1</clus>
</clustering>
</event>
<event>
 6    0  0.1993420E+002  0.3952751E+03  0.7546771E-02  0.1045428E+00
         -3   -1    0    0    0  501 -0.00000000000E+00  0.00000000000E+00  0.10851540058E+04  0.10851540058E+04  0.00000000000E+00 0.  1.
         21   -1    0    0  503  502  0.00000000000E+00 -0.00000000000E+00 -0.35013232006E+03  0.35013232006E+03  0.00000000000E+00 0. -1.
         21    1    1    2  503  505 -0.34863884149E+02 -0.88230880909E+01 -0.47566190394E+02  0.59631197959E+02  0.00000000000E+00 0. -1.
         21    1    1    2  504  501 -0.78637575004E+02 -0.11911139795E+02 -0.87550346302E+01  0.80014961633E+02  0.00000000000E+00 0. -1.
         21    1    1    2  505  504 -0.24647466487E+03  0.10358888749E+03 -0.13416993882E+03  0.29913540499E+03  0.00000000000E+00 0. -1.
         -3    1    1    2    0  502  0.35997612402E+03 -0.82854659608E+02  0.92551284956E+03  0.99650476124E+03  0.00000000000E+00 0.  1.
<scales pt_clust_3="31.87541" pt_clust_4="53.83737" pt_clust_5="53.83737" pt_clust_6="369.38828"></scales>
<clustering>
<clus scale="   31.875">  3  5 -1 -1</clus>
<clus scale="   53.837">  3  4 -1 -1</clus>
<clus scale="  369.388">  1  6  2 -1</clus>
<clus scale="  395.275">  2  3  1 -1</clus>
</clustering>
</event>
<event>
 6    0  0.1993420E+002  0.1600333E+03  0.7546771E-02  0.1188659E+00
          2   -1    0    0  504    0 -0.00000000000E+00  0.00000000000E+00  0.14793995494E+04  0.14793995494E+04  0.00000000000E+00 0. -1.
         21   -1    0    0  501  502  0.00000000000E+00 -0.00000000000E+00 -0.85989094180E+02  0.85989094180E+02  0.00000000000E+00 0.  1.
         21    1    1    2  503  505  0.15794120724E+03 -0.11018970819E+03  0.18433807648E+03  0.26658530188E+03  0.00000000000E+00 0.  1.
         21    1    1    2  504  503  0.32353730109E+02  0.14080531283E+02  0.16543177758E+03  0.16915288424E+03  0.00000000000E+00 0. -1.
         21    1    1    2  505  502 -0.15899742098E+03 -0.53339078194E+02  0.15623452269E+03  0.22920397733E+03  0.00000000000E+00 0.  1.
          2    1    1    2  501    0 -0.31297516369E+02  0.14944825511E+03  0.88740607846E+03  0.90044648013E+03  0.00000000000E+00 0. -1.
<scales pt_clust_3="160.03331" pt_clust_4="35.28491" pt_clust_5="14000.00000" pt_clust_6="159.31026"></scales>
<clustering>
<clus scale="   35.285">  1  4  2 -1</clus>
<clus scale="  159.310">  1  6  2 -1</clus>
<clus scale="  160.033">  1  3  2 -1</clus>
<clus scale="  160.033">  2  3  1 -1</clus>
</clustering>
</event>
<event>
 6    0  0.1993420E+002  0.1424128E+03  0.7546771E-02  0.1210119E+00
         21   -1    0    0  504  502  0.00000000000E+00  0.00000000000E+00  0.85761499076E+03  0.85761499076E+03  0.00000000000E+00 0.  1.
          2   -1    0    0  505    0 -0.00000000000E+00 -0.00000000000E+00 -0.37343974517E+03  0.37343974517E+03  0.00000000000E+00 0. -1.
         21    1    1    2  503  501 -0.13414007832E+03  0.85195853026E+02  0.33745031220E+03  0.37299411146E+03  0.00000000000E+00 0.  1.
         21    1    1    2  504  503  0.12006952338E+03 -0.51477842062E+02  0.40852474372E+03  0.42890456386E+03  0.00000000000E+00 0. -1.
         21    1    1    2  505  502  0.24792204761E+02  0.47837481254E+02  0.69419313765E+02  0.87875589063E+02  0.00000000000E+00 0.  1.
          2    1    1    2  501    0 -0.10721649829E+02 -0.81555492219E+02 -0.33121912410E+03  0.34128047154E+03  0.00000000000E+00 0. -1.
<scales pt_clust_3="142.41280" pt_clust_4="14000.00000" pt_clust_5="53.88022" pt_clust_6="81.93014"></scales>
<clustering>
<clus scale="   53.880">  1  5  2 -1</clus>
<clus scale="   81.930">  2  6  1 -1</clus>
<clus scale="  142.413">  2  3  1 -1</clus>
<clus scale="   53.880">  1  3  2 -1</clus>
</clustering>
</event>
<event>
 6    0  0.1993420E+002  0.1309791E+03  0.7546771E-02  0.1226010E+00
         21   -1    0    0  503  502  0.00000000000E+00  0.00000000000E+00  0.17618949611E+03  0.17618949611E+03  0.00000000000E+00 0. -1.
          2   -1    0    0  505    0 -0.00000000000E+00 -0.00000000000E+00 -0.16053401058E+04  0.16053401058E+04  0.00000000000E+00 0. -1.
         21    1    1    2  503  501  0.55247623669E+02 -0.13502898716E+03  0.12393138780E+03  0.19142652944E+03  0.00000000000E+00 0. -1.
         21    1    1    2  504  502 -0.32747727222E+02  0.53806197121E+01 -0.11639203900E+02  0.35168676036E+02  0.00000000000E+00 0. -1.
         21    1    1    2  505  504 -0.11165257253E+02  0.30112377299E+02 -0.45786984379E+02  0.55927329407E+02  0.00000000000E+00 0. -1.
          2    1    1    2  501    0 -0.11334639194E+02  0.99535990144E+02 -0.14956558092E+04  0.14990070671E+04  0.00000000000E+00 0. -1.
<scales pt_clust_3="14000.00000" pt_clust_4="33.42884" pt_clust_5="32.11570" pt_clust_6="130.97909"></scales>
<clustering>
<clus scale="   32.116">  2  5  1 -1</clus>
<clus scale="   33.429">  1  4  2 -1</clus>
<clus scale="  130.979">  2  6  1 -1</clus>
<clus scale="   33.429">  1  3  2 -1</clus>
</clustering>
</event>
<event>
 6    0  0.1993420E+002  0.4050022E+03  0.7546771E-02  0.1042061E+00
          1   -1    0    0  504    0 -0.00000000000E+00  0.00000000000E+00  0.49433588999E+03  0.49433588999E+03  0.00000000000E+00 0. -1.
         21   -1    0    0  501  502  0.00000000000E+00 -0.00000000000E+00 -0.37916530098E+03  0.37916530098E+03  0.00000000000E+00 0. -1.
         21    1    1    2  503  505 -0.13233040869E+03 -0.35109026051E+02 -0.39087307364E+02  0.14237906578E+03  0.00000000000E+00 0. -1.
         21    1    1    2  504  503 -0.14437826766E+03 -0.64545286746E+02 -0.35337686079E+01  0.15818870293E+03  0.00000000000E+00 0. -1.
         21    1    1    2  505  502 -0.94383284621E+02 -0.19123189269E+02 -0.72308050106E+02  0.12042572356E+03  0.00000000000E+00 0. -1.
          1    1    1    2  501    0  0.37109196098E+03  0.11877750207E+03  0.23009971509E+03  0.45250769870E+03  0.00000000000E+00 0. -1.
<scales pt_clust_3="76.19498" pt_clust_4="76.19498" pt_clust_5="40.37215" pt_clust_6="389.63744"></scales>
<clustering>
<clus scale="   40.372">  3  5 -1 -1</clus>
<clus scale="   76.195">  3  4 -1 -1</clus>
<clus scale="  389.637">  1  6  2 -1</clus>
<clus scale="  405.002">  2  3  1 -1</clus>
</clustering>
</event>
<event>
 6    0  0.1993420E+002  0.1141264E+03  0.7546771E-02  0.1253114E+00
          1   -1    0    0  503    0 -0.00000000000E+00  0.00000000000E+00  0.34011583758E+03  0.34011583758E+03  0.00000000000E+00 0.  1.
         21   -1    0    0  501  502  0.00000000000E+00 -0.00000000000E+00 -0.15527807620E+03  0.15527807620E+03  0.00000000000E+00 0.  1.
         21    1    1    2  503  505  0.54131922776E+02 -0.50075200580E+02  0.18831489836E+02  0.76107921967E+02  0.00000000000E+00 0. -1.
         21    1    1    2  504  502 -0.28994781120E+02  0.73855929019E+02 -0.86712510396E+02  0.11753490989E+03  0.00000000000E+00 0.  1.
         21    1    1    2  505  504 -0.20989243233E+02  0.36292907745E+02 -0.32931452758E-01  0.41925225921E+02  0.00000000000E+00 0.  1.
          1    1    1    2  501    0 -0.41478984235E+01 -0.60073636184E+02  0.25275171340E+03  0.25982585601E+03  0.00000000000E+00 0.  1.
<scales pt_clust_3="98.75854" pt_clust_4="41.57781" pt_clust_5="41.57781" pt_clust_6="60.21667"></scales>
<clustering>
<clus scale="   41.578">  4  5 -1 -1</clus>
<clus scale="   60.217">  1  6  2 -1</clus>
<clus scale="   98.759">  1  3  2 -1</clus>
<clus scale="  114.126">  2  3  1 -1</clus>
</clustering>
</event>
<event>
 6    0  0.1993420E+002  0.1254813E+03  0.7546771E-02  0.1234319E+00
          2   -1    0    0  504    0 -0.00000000000E+00  0.00000000000E+00  0.17649951875E+04  0.17649951875E+04  0.00000000000E+00 0.  1.
         21   -1    0    0  505  502  0.00000000000E+00 -0.00000000000E+00 -0.67389303552E+02  0.67389303552E+02  0.00000000000E+00 0. -1.
         21    1    1    2  503  501 -0.33425462830E+02  0.61541519003E+02 -0.31304093747E+01  0.70102921405E+02  0.00000000000E+00 0. -1.
         21    1    1    2  504  502  0.65460277062E+02  0.51292274594E+01  0.99579309058E+02  0.11927864704E+03  0.00000000000E+00 0. -1.
         21    1    1    2  505  503  0.23367759280E+02  0.52814579222E+02  0.27716066229E+02  0.64059443327E+02  0.00000000000E+00 0. -1.
          2    1    1    2  501    0 -0.55402573512E+02 -0.11948532568E+03  0.15734409180E+04  0.15789434792E+04  0.00000000000E+00 0.  1.
<scales pt_clust_3="125.48129" pt_clust_4="71.87220" pt_clust_5="57.75320" pt_clust_6="14000.00000"></scales>
<clustering>
<clus scale="   57.753">  2  5  1 -1</clus>
<clus scale="   71.872">  2  4  1 -1</clus>
<clus scale="  125.481">  2  3  1 -1</clus>
<clus scale="   57.753">  2  3  1 -1</clus>
</clustering>
</event>
<event>
 6    0  0.1993420E+002  0.1550583E+03  0.7546771E-02  0.1194392E+00
          1   -1    0    0  503    0 -0.00000000000E+00  0.00000000000E+00  0.18976212208E+04  0.18976212208E+04  0.00000000000E+00 0.  1.
         21   -1    0    0  505  502  0.00000000000E+00 -0.00000000000E+00 -0.17588520914E+03  0.17588520914E+03  0.00000000000E+00 0.  1.
         21    1    1    2  503  504 -0.90027204353E+01 -0.17365056732E+03 -0.28653089460E+02  0.17622873784E+03  0.00000000000E+00 0.  1.
         21    1    1    2  504  502  0.35101391196E+02 -0.81128743427E+01  0.48907964407E+02  0.60744673647E+02  0.00000000000E+00 0.  1.
         21    1    1    2  505  501 -0.51650666039E+02  0.13304289983E+03  0.88321741413E+01  0.14299025070E+03  0.00000000000E+00 0.  1.
          1    1    1    2  501    0  0.25551995278E+02  0.48720541840E+02  0.16926489626E+04  0.16935427678E+04  0.00000000000E+00 0.  1.
<scales pt_clust_3="155.05826" pt_clust_4="36.02675" pt_clust_5="14000.00000" pt_clust_6="55.03856"></scales>
<clustering>
<clus scale="   36.027">  2  4  1 -1</clus>
<clus scale="   55.039">  1  6  2 -1</clus>
<clus scale="  155.058">  2  3  1 -1</clus>
<clus scale="   36.027">  2  3  1 -1</clus>
</clustering>
</event>
<event>
 6    0  0.1993420E+002  0.9288641E+02  0.7546771E-02  0.1296009E+00
          2   -1    0    0  503    0 -0.00000000000E+00  0.00000000000E+00  0.96394769656E+03  0.96394769656E+03  0.00000000000E+00 0.  1.
         21   -1    0    0  501  502  0.00000000000E+00 -0.00000000000E+00 -0.16238023189E+03  0.16238023189E+03  0.00000000000E+00 0.  1.
         21    1    1    2  503  504  0.84867718972E+02  0.23920387845E+02 -0.12781287982E+02  0.89095880941E+02  0.00000000000E+00 0.  1.
         21    1    1    2  504  505 -0.38321544091E+02  0.25394640754E+02 -0.34258983597E+02  0.57333292925E+02  0.00000000000E+00 0.  1.
         21    1    1    2  505  502  0.16881349526E+01  0.31629601369E+02 -0.59238871243E+02  0.67175332887E+02  0.00000000000E+00 0.  1.
          2    1    1    2  501    0 -0.48234309834E+02 -0.80944629968E+02  0.90784660750E+03  0.91272342170E+03  0.00000000000E+00 0.  1.
<scales pt_clust_3="14000.00000" pt_clust_4="54.85841" pt_clust_5="31.67462" pt_clust_6="92.88641"></scales>
<clustering>
<clus scale="   31.675">  2  5  1 -1</clus>
<clus scale="   54.858">  2  4  1 -1</clus>
<clus scale="   92.886">  1  6  2 -1</clus>
<clus scale="   31.675">  2  3  1 -1</clus>
</clustering>
</event>
<event>
 6    0  0.1993420E+002  0.4790324E+03  0.7546771E-02  0.1019401E+00
          1   -1    0    0  504    0 -0.00000000000E+00  0.00000000000E+00  0.84777262718E+03  0.84777262718E+03  0.00000000000E+00 0.  1.
         21   -1    0    0  503  502  0.00000000000E+00 -0.00000000000E+00 -0.14919722280E+04  0.14919722280E+04  0.00000000000E+00 0.  1.
         21    1    1    2  503  505 -0.49950584777E+03  0.25358640350E+03 -0.10684931860E+04  0.12064368382E+04  0.00000000000E+00 0.  1.
         21    1    1    2  504  502  0.77677756333E+02  0.83577703553E+02 -0.11455784929E+03  0.16168663270E+03  0.00000000000E+00 0. -1.
         21    1    1    2  505  501  0.30758814341E+03 -0.17248150700E+03 -0.43896899154E+02  0.35536920798E+03  0.00000000000E+00 0.  1.
          1    1    1    2  501    0  0.11423994802E+03 -0.16468260005E+03  0.58274833362E+03  0.61625217632E+03  0.00000000000E+00 0.  1.
<scales pt_clust_3="479.03240" pt_clust_4="114.10112" pt_clust_5="14000.00000" pt_clust_6="200.13023"></scales>
<clustering>
<clus scale="  114.101">  2  4  1 -1</clus>
<clus scale="  200.130">  1  6  2 -1</clus>
<clus scale="  479.032">  2  3  1 -1</clus>
<clus scale="  114.101">  2  3  1 -1</clus>
</clustering>
</event>
<event>
 6    0  0.1993420E+002  0.2171235E+03  0.7546771E-02  0.1136046E+00
         21   -1    0    0  503  502  0.00000000000E+00  0.00000000000E+00  0.45321638857E+03  0.45321638857E+03  0.00000000000E+00 0. -1.
          2   -1    0    0  504    0 -0.00000000000E+00 -0.00000000000E+00 -0.37800868047E+03  0.37800868047E+03  0.00000000000E+00 0.  1.
         21    1    1    2  503  501  0.10724668550E+03 -0.56951957455E+02  0.68900899484E+02  0.13961629904E+03  0.00000000000E+00 0. -1.
         21    1    1    2  504  505 -0.13733063988E+03 -0.40319562930E+02 -0.22704173993E+02  0.14491670477E+03  0.00000000000E+00 0. -1.
         21    1    1    2  505  502 -0.97240134422E+02 -0.16121358632E+03  0.14341267206E+03  0.23666993613E+03  0.00000000000E+00 0. -1.
          2    1    1    2  501    0  0.12732408881E+03  0.25848510671E+03 -0.11440168945E+03  0.31002212910E+03  0.00000000000E+00 0.  1.
<scales pt_clust_3="121.43054" pt_clust_4="128.77723" pt_clust_5="217.12350" pt_clust_6="14000.00000"></scales>
<clustering>
<clus scale="  121.431">  1  3  2 -1</clus>
<clus scale="  128.777">  2  4  1 -1</clus>
<clus scale="  217.124">  1  5  2 -1</clus>
<clus scale="  121.431">  1  3  2 -1</clus>
</clustering>
</event>
<event>
 6    0  0.1993420E+002  0.1655783E+03  0.7546771E-02  0.1182539E+00
         21   -1    0    0  504  502  0.00000000000E+00  0.00000000000E+00  0.18575416302E+03  0.18575416302E+03  0.00000000000E+00 0.  1.
          2   -1    0    0  503    0 -0.00000000000E+00 -0.00000000000E+00 -0.27751625509E+04  0.27751625509E+04  0.00000000000E+00 0.  1.
         21    1    1    2  503  502 -0.15955557795E+02  0.31220041943E+02 -0.19352595787E+02  0.40047394512E+02  0.00000000000E+00 0. -1.
         21    1    1    2  504  505 -0.10779582409E+03 -0.21476993140E+02  0.12832938186E+03  0.16896636107E+03  0.00000000000E+00 0.  1.
         21    1    1    2  505  501 -0.30877015913E+02  0.14441140291E+02  0.12646414312E+02  0.36357508709E+02  0.00000000000E+00 0.  1.
          2    1    1    2  501    0  0.15462839780E+03 -0.24184189094E+02 -0.27110315883E+04  0.27155454496E+04  0.00000000000E+00 0.  1.
<scales pt_clust_3="35.06096" pt_clust_4="30.52264" pt_clust_5="30.52264" pt_clust_6="156.24372"></scales>
<clustering>
<clus scale="   30.523">  4  5 -1 -1</clus>
<clus scale="   35.061">  1  3  2 -1</clus>
<clus scale="  156.244">  2  6  1 -1</clus>
<clus scale="   35.061">  1  3  2 -1</clus>
</clustering>
</event>
<event>
 6    0  0.1993420E+002  0.8732083E+02  0.7546771E-02  0.1309473E+00
         21   -1    0    0  505  502  0.00000000000E+00  0.00000000000E+00  0.93155226809E+02  0.93155226809E+02  0.00000000000E+00 0.  1.
         -3   -1    0    0    0  501 -0.00000000000E+00 -0.00000000000E+00 -0.29279836049E+04  0.29279836049E+04  0.00000000000E+00 0.  1.
         21    1    1    2  503  501 -0.23037125653E+02 -0.53354838665E+02 -0.10297904851E+03  0.11824606716E+03  0.00000000000E+00 0.  1.
         21    1    1    2  504  502 -0.39268028356E+02 -0.15641572190E+02  0.41750937817E+02  0.59411931799E+02  0.00000000000E+00 0.  1.
         21    1    1    2  505  503  0.49572702791E+02  0.11530774934E+03 -0.78684360817E+02  0.14813695878E+03  0.00000000000E+00 0.  1.
         -3    1    1    2    0  504  0.12732451217E+02 -0.46311338483E+02 -0.26949159066E+04  0.26953438739E+04  0.00000000000E+00 0.  1.
<scales pt_clust_3="87.32083" pt_clust_4="42.26863" pt_clust_5="14000.00000" pt_clust_6="48.05368"></scales>
<clustering>
<clus scale="   42.269">  1  4  2 -1</clus>
<clus scale="   48.054">  2  6  1 -1</clus>
<clus scale="   87.321">  2  3  1 -1</clus>
<clus scale="   42.269">  1  3  2 -1</clus>
</clustering>
</event>
<event>
 6    0  0.1993420E+002  0.1590440E+03  0.7546771E-02  0.1189780E+00
          2   -1    0    0  505    0 -0.00000000000E+00  0.00000000000E+00  0.26925143228E+04  0.26925143228E+04  0.00000000000E+00 0.  1.
         21   -1    0    0  503  502  0.00000000000E+00 -0.00000000000E+00 -0.51235398729E+02  0.51235398729E+02  0.00000000000E+00 0.  1.
         21    1    1    2  503  501  0.44355235693E+01  0.30229200533E+02  0.24429470296E+02  0.39118760885E+02  0.00000000000E+00 0. -1.
         21    1    1    2  504  502 -0.46673017462E+02  0.19064704808E+02  0.31145947097E+02  0.59261315789E+02  0.00000000000E+00 0.  1.
         21    1    1    2  505  504 -0.10814218838E+03 -0.22781141786E+02  0.83505629041E+02  0.13851679829E+03  0.00000000000E+00 0.  1.
          2    1    1    2  501    0  0.15037968227E+03 -0.26512763555E+02  0.25021978777E+04  0.25068528466E+04  0.00000000000E+00 0.  1.
<scales pt_clust_3="30.55288" pt_clust_4="30.12742" pt_clust_5="30.12742" pt_clust_6="152.66087"></scales>
<clustering>
<clus scale="   30.127">  4  5 -1 -1</clus>
<clus scale="   30.553">  2  3  1 -1</clus>
<clus scale="  152.661">  1  6  2 -1</clus>
<clus scale="   30.553">  2  3  1 -1</clus>
</clustering>
</event>
<event>
 6    0  0.1993420E+002  0.1276031E+03  0.7546771E-02  0.1231056E+00
         21   -1    0    0  501  502  0.00000000000E+00  0.00000000000E+00  0.16553156449E+03  0.16553156449E+03  0.00000000000E+00 0.  1.
         -2   -1    0    0    0  501 -0.00000000000E+00 -0.00000000000E+00 -0.23497421196E+03  0.23497421196E+03  0.00000000000E+00 0. -1.
         21    1    1    2  503  502 -0.32576705420E+02 -0.21290969202E+02  0.37683719378E+02  0.54172039021E+02  0.00000000000E+00 0.  1.
         21    1    1    2  504  503  0.31868576528E+02  0.90264302048E+02  0.38188854622E+02  0.10306133616E+03  0.00000000000E+00 0.  1.
         21    1    1    2  505  504 -0.16461004741E+02  0.45474971225E+02  0.10195040201E+02  0.49425464385E+02  0.00000000000E+00 0.  1.
         -2    1    1    2    0  505  0.17169133633E+02 -0.11444830407E+03 -0.15551026167E+03  0.19384693688E+03  0.00000000000E+00 0. -1.
<scales pt_clust_3="38.91718" pt_clust_4="33.70591" pt_clust_5="33.70591" pt_clust_6="118.46459"></scales>
<clustering>
<clus scale="   33.706">  4  5 -1 -1</clus>
<clus scale="   38.917">  1  3  2 -1</clus>
<clus scale="  118.465">  2  6  1 -1</clus>
<clus scale="   38.917">  1  3  2 -1</clus>
</clustering>
</event>
<event>
 6    0  0.1993420E+002  0.9160002E+02  0.7546771E-02  0.1299023E+00
         21   -1    0    0  504  502  0.00000000000E+00  0.00000000000E+00  0.23711481101E+03  0.23711481101E+03  0.00000000000E+00 0.  1.
          2   -1    0    0  503    0 -0.00000000000E+00 -0.00000000000E+00 -0.19536201706E+03  0.19536201706E+03  0.00000000000E+00 0.  1.
         21    1    1    2  503  502  0.13009751516E+02  0.51379303498E+02  0.17969828501E+02  0.55964285029E+02  0.00000000000E+00 0. -1.
         21    1    1    2  504  505  0.43014740103E+02  0.23004349546E+02  0.12570262333E+03  0.13483552009E+03  0.00000000000E+00 0.  1.
         21    1    1    2  505  501  0.50595411626E+02 -0.71633471713E+02  0.85588106606E+01  0.88116418375E+02  0.00000000000E+00 0.  1.
          2    1    1    2  501    0 -0.10661990324E+03 -0.27501813309E+01 -0.11047846855E+03  0.15356060458E+03  0.00000000000E+00 0.  1.
<scales pt_clust_3="65.56699" pt_clust_4="48.77979" pt_clust_5="91.60002" pt_clust_6="14000.00000"></scales>
<clustering>
<clus scale="   48.780">  1  4  2 -1</clus>
<clus scale="   65.567">  1  3  2 -1</clus>
<clus scale="   91.600">  1  5  2 -1</clus>
<clus scale="   48.780">  1  3  2 -1</clus>
</clustering>
</event>
<event>
 6    0  0.1993420E+002  0.3349946E+03  0.7546771E-02  0.1068948E+00
         21   -1    0    0  503  502  0.00000000000E+00  0.00000000000E+00  0.22427142122E+04  0.22427142122E+04  0.00000000000E+00 0.  1.
          2   -1    0    0  505    0 -0.00000000000E+00 -0.00000000000E+00 -0.11343521435E+04  0.11343521435E+04  0.00000000000E+00 0.  1.
         21    1    1    2  503  504 -0.11062919753E+03  0.16931362687E+03  0.14566352951E+04  0.14706095017E+04  0.00000000000E+00 0.  1.
         21    1    1    2  504  501 -0.20503008455E+02  0.99826790326E+02  0.65304765400E+03  0.66095158659E+03  0.00000000000E+00 0.  1.
         21    1    1    2  505  502 -0.71178209335E+02 -0.75721652287E+01  0.84328792729E+02  0.11061202671E+03  0.00000000000E+00 0. -1.
          2    1    1    2  501    0  0.20231041532E+03 -0.26156825197E+03 -0.10856496732E+04  0.11348932406E+04  0.00000000000E+00 0.  1.
<scales pt_clust_3="39.89241" pt_clust_4="39.89241" pt_clust_5="71.57985" pt_clust_6="330.24694"></scales>
<clustering>
<clus scale="   39.892">  3  4 -1 -1</clus>
<clus scale="   71.580">  1  5  2 -1</clus>
<clus scale="  330.247">  2  6  1 -1</clus>
<clus scale="   71.580">  1  3  2 -1</clus>
</clustering>
</event>
<event>
 6    0  0.1993420E+002  0.8236130E+02  0.7546771E-02  0.1322481E+00
         21   -1    0    0  505  502  0.00000000000E+00  0.00000000000E+00  0.21762112492E+04  0.21762112492E+04  0.00000000000E+00 0.  1.
         -1   -1    0    0    0  501 -0.00000000000E+00 -0.00000000000E+00 -0.39588780078E+02  0.39588780078E+02  0.00000000000E+00 0. -1.
         21    1    1    2  503  501 -0.58737341403E+02 -0.98136752253E+01  0.62006287835E+03  0.62291601087E+03  0.00000000000E+00 0.  1.
         21    1    1    2  504  502  0.10259661714E+03  0.55048781631E+02  0.60573947516E+03  0.61682797114E+03  0.00000000000E+00 0.  1.
         21    1    1    2  505  503 -0.30242107513E+02  0.60115042160E+01  0.92145869171E+03  0.92197442685E+03  0.00000000000E+00 0.  1.
         -1    1    1    2    0  504 -0.13617168219E+02 -0.51246610621E+02 -0.10638576057E+02  0.54081620455E+02  0.00000000000E+00 0. -1.
<scales pt_clust_3="82.36130" pt_clust_4="14000.00000" pt_clust_5="30.83380" pt_clust_6="53.06147"></scales>
<clustering>
<clus scale="   30.834">  1  5  2 -1</clus>
<clus scale="   53.061">  2  6  1 -1</clus>
<clus scale="   82.361">  1  3  2 -1</clus>
<clus scale="   30.834">  1  3  2 -1</clus>
</clustering>
</event>
<event>
 6    0  0.1993420E+002  0.1176091E+03  0.7546771E-02  0.1247094E+00
         21   -1    0    0  501  502  0.00000000000E+00  0.00000000000E+00  0.30034068820E+02  0.30034068820E+02  0.00000000000E+00 0.  1.
          1   -1    0    0  504    0 -0.00000000000E+00 -0.00000000000E+00 -0.24901972888E+04  0.24901972888E+04  0.00000000000E+00 0.  1.
         21    1    1    2  503  502  0.11006876910E+02 -0.42431341685E+02 -0.21368309692E+02  0.48766533151E+02  0.00000000000E+00 0.  1.
         21    1    1    2  504  505  0.59292768374E+02  0.14721431952E+02 -0.13292938594E+03  0.14629618787E+03  0.00000000000E+00 0.  1.
         21    1    1    2  505  503  0.35300379193E+02 -0.90319513786E+01 -0.31818813480E+02  0.48374888198E+02  0.00000000000E+00 0.  1.
          1    1    1    2  501    0 -0.10560002448E+03  0.36741861111E+02 -0.22740467108E+04  0.22767937484E+04  0.00000000000E+00 0.  1.
<scales pt_clust_3="43.83572" pt_clust_4="32.53359" pt_clust_5="32.53359" pt_clust_6="109.80561"></scales>
<clustering>
<clus scale="   32.534">  4  5 -1 -1</clus>
<clus scale="   43.836">  1  3  2 -1</clus>
<clus scale="  109.806">  2  6  1 -1</clus>
<clus scale="   43.836">  1  3  2 -1</clus>
</clustering>
</event>
<event>
 6    0  0.1993420E+002  0.9124043E+02  0.7546771E-02  0.1299875E+00
         21   -1    0    0  505  502  0.00000000000E+00  0.00000000000E+00  0.30710458628E+02  0.30710458628E+02  0.00000000000E+00 0.  1.
          2   -1    0    0  503    0 -0.00000000000E+00 -0.00000000000E+00 -0.23093071013E+04  0.23093071013E+04  0.00000000000E+00 0.  1.
         21    1    1    2  503  504  0.40113770849E+02 -0.75154952697E+02 -0.21041283741E+03  0.22700428118E+03  0.00000000000E+00 0.  1.
         21    1    1    2  504  502 -0.52225950359E+02  0.82729841866E+02 -0.12041383588E+03  0.15514918143E+03  0.00000000000E+00 0.  1.
         21    1    1    2  505  501 -0.23259285258E+02 -0.21767071861E+02 -0.47388687964E+02  0.57100678762E+02  0.00000000000E+00 0.  1.
          2    1    1    2  501    0  0.35371464769E+02  0.14192182692E+02 -0.19003812814E+04  0.19007634186E+04  0.00000000000E+00 0.  1.
<scales pt_clust_3="91.24043" pt_clust_4="14000.00000" pt_clust_5="31.85592" pt_clust_6="37.89311"></scales>
<clustering>
<clus scale="   31.856">  1  5  2 -1</clus>
<clus scale="   37.893">  2  6  1 -1</clus>
<clus scale="   91.240">  2  3  1 -1</clus>
<clus scale="   31.856">  1  3  2 -1</clus>
</clustering>
</event>
<event>
 6    0  0.1993420E+002  0.8970846E+02  0.7546771E-02  0.1303559E+00
         21   -1    0    0  501  502  0.00000000000E+00  0.00000000000E+00  0.27383832667E+03  0.27383832667E+03  0.00000000000E+00 0.  1.
          2   -1    0    0  505    0 -0.00000000000E+00 -0.00000000000E+00 -0.23318495980E+03  0.23318495980E+03  0.00000000000E+00 0.  1.
         21    1    1    2  503  504  0.11165567773E+03 -0.28202903520E+02  0.16809725695E+03  0.20376231725E+03  0.00000000000E+00 0.  1.
         21    1    1    2  504  502 -0.31911310201E+02  0.12495904095E+02  0.39672444850E+01  0.34499541543E+02  0.00000000000E+00 0.  1.
         21    1    1    2  505  503 -0.23028463320E+02 -0.85466238929E+02  0.62709791271E+01  0.88736200611E+02  0.00000000000E+00 0.  1.
          2    1    1    2  501    0 -0.56715904211E+02  0.10117323835E+03 -0.13768211369E+03  0.18002522707E+03  0.00000000000E+00 0.  1.
<scales pt_clust_3="89.70846" pt_clust_4="34.27068" pt_clust_5="88.04187" pt_clust_6="14000.00000"></scales>
<clustering>
<clus scale="   34.271">  1  4  2 -1</clus>
<clus scale="   88.042">  2  5  1 -1</clus>
<clus scale="   89.708">  1  3  2 -1</clus>
<clus scale="   34.271">  1  3  2 -1</clus>
</clustering>
</event>
<event>
 6    0  0.1993420E+002  0.1105462E+03  0.7546771E-02  0.1259562E+00
         21   -1    0    0  503  502  0.00000000000E+00  0.00000000000E+00  0.37122432194E+02  0.37122432194E+02  0.00000000000E+00 0. -1.
          2   -1    0    0  504    0 -0.00000000000E+00 -0.00000000000E+00 -0.12817028646E+04  0.12817028646E+04  0.00000000000E+00 0.  1.
         21    1    1    2  503  505 -0.17950156160E+02  0.48028490993E+02 -0.12340384220E+03  0.13363177886E+03  0.00000000000E+00 0.  1.
         21    1    1    2  504  502 -0.24576024921E+02 -0.70819464358E+02 -0.82864181075E+02  0.11174010040E+03  0.00000000000E+00 0.  1.
         21    1    1    2  505  501 -0.47786987730E+02  0.66730951039E+02 -0.98166832310E+02  0.12795836428E+03  0.00000000000E+00 0. -1.
          2    1    1    2  501    0  0.90313168811E+02 -0.43939977675E+02 -0.94014557682E+03  0.94549505324E+03  0.00000000000E+00 0.  1.
<scales pt_clust_3="33.94706" pt_clust_4="74.96251" pt_clust_5="33.94706" pt_clust_6="101.86133"></scales>
<clustering>
<clus scale="   33.947">  3  5 -1 -1</clus>
<clus scale="   74.963">  1  4  2 -1</clus>
<clus scale="  101.861">  2  6  1 -1</clus>
<clus scale="   74.963">  1  3  2 -1</clus>
</clustering>
</event>
<event>
 6    0  0.1993420E+002  0.9386462E+02  0.7546771E-02  0.1293754E+00
          1   -1    0    0  503    0 -0.00000000000E+00  0.00000000000E+00  0.60664864185E+02  0.60664864185E+02  0.00000000000E+00 0. -1.
         21   -1    0    0  504  502  0.00000000000E+00 -0.00000000000E+00 -0.10244720041E+04  0.10244720041E+04  0.00000000000E+00 0. -1.
         21    1    1    2  503  505  0.73518967774E+02  0.10379252911E+03 -0.29230194002E+03  0.31877633517E+03  0.00000000000E+00 0. -1.
         21    1    1    2  504  501 -0.39337421157E+02 -0.74298557189E+02 -0.60317799779E+03  0.60900854290E+03  0.00000000000E+00 0. -1.
         21    1    1    2  505  502 -0.23802899261E+02  0.19677553575E+02 -0.95396104736E+02  0.10027063841E+03  0.00000000000E+00 0. -1.
          1    1    1    2  501    0 -0.10378647356E+02 -0.49171525499E+02  0.27068902597E+02  0.57081351847E+02  0.00000000000E+00 0. -1.
<scales pt_clust_3="14000.00000" pt_clust_4="93.86462" pt_clust_5="30.88340" pt_clust_6="50.02468"></scales>
<clustering>
<clus scale="   30.883">  2  5  1 -1</clus>
<clus scale="   50.025">  1  6  2 -1</clus>
<clus scale="   93.865">  2  4  1 -1</clus>
<clus scale="   30.883">  2  3  1 -1</clus>
</clustering>
</event>
<event>
 6    0  0.1993420E+002  0.8662198E+02  0.7546771E-02  0.1311245E+00
         21   -1    0    0  503  502  0.00000000000E+00  0.00000000000E+00  0.33771480916E+03  0.33771480916E+03  0.00000000000E+00 0.  1.
          2   -1    0    0  505    0 -0.00000000000E+00 -0.00000000000E+00 -0.22922985192E+04  0.22922985192E+04  0.00000000000E+00 0. -1.
         21    1    1    2  503  504  0.21369503663E+02  0.61026514232E+02  0.18558373337E+03  0.19652535007E+03  0.00000000000E+00 0.  1.
         21    1    1    2  504  501  0.83725451100E+02  0.60948596053E+01  0.10793384704E+03  0.13673629296E+03  0.00000000000E+00 0.  1.
         21    1    1    2  505  502 -0.30822770886E+02 -0.22390949976E+02  0.80472344372E+01  0.38937845703E+02  0.00000000000E+00 0. -1.
          2    1    1    2  501    0 -0.74272183878E+02 -0.44730423862E+02 -0.22561485249E+04  0.22578138396E+04  0.00000000000E+00 0. -1.
<scales pt_clust_3="47.48510" pt_clust_4="14000.00000" pt_clust_5="38.09722" pt_clust_6="86.62198"></scales>
<clustering>
<clus scale="   38.097">  1  5  2 -1</clus>
<clus scale="   47.485">  1  3  2 -1</clus>
<clus scale="   86.622">  2  6  1 -1</clus>
<clus scale="   38.097">  1  3  2 -1</clus>
</clustering>
</event>
<event>
 6    0  0.1993420E+002  0.7659864E+02  0.7546771E-02  0.1338991E+00
         21   -1    0    0  505  502  0.00000000000E+00  0.00000000000E+00  0.22394712811E+03  0.22394712811E+03  0.00000000000E+00 0. -1.
          2   -1    0    0  504    0 -0.00000000000E+00 -0.00000000000E+00 -0.28141164312E+03  0.28141164312E+03  0.00000000000E+00 0. -1.
         21    1    1    2  503  501  0.28162144613E+02  0.59023367933E+02  0.66252208507E+02  0.93092531835E+02  0.00000000000E+00 0. -1.
         21    1    1    2  504  502 -0.57385442435E+01 -0.73051177329E+02  0.75866379676E+02  0.10547565105E+03  0.00000000000E+00 0. -1.
         21    1    1    2  505  503  0.44781048270E+02 -0.28563799933E+02  0.31938960048E+02  0.61978464967E+02  0.00000000000E+00 0. -1.
          2    1    1    2  501    0 -0.67204648639E+02  0.42591609328E+02 -0.23152206325E+03  0.24481212338E+03  0.00000000000E+00 0. -1.
<scales pt_clust_3="66.82893" pt_clust_4="14000.00000" pt_clust_5="53.11528" pt_clust_6="76.59864"></scales>
<clustering>
<clus scale="   53.115">  1  5  2 -1</clus>
<clus scale="   66.829">  1  3  2 -1</clus>
<clus scale="   76.599">  2  6  1 -1</clus>
<clus scale="   53.115">  1  3  2 -1</clus>
</clustering>
</event>
<event>
 6    0  0.1993420E+002  0.1517165E+03  0.7546771E-02  0.1198380E+00
          2   -1    0    0  504    0 -0.00000000000E+00  0.00000000000E+00  0.16831566800E+04  0.16831566800E+04  0.00000000000E+00 0. -1.
         21   -1    0    0  503  502  0.00000000000E+00 -0.00000000000E+00 -0.35772584726E+03  0.35772584726E+03  0.00000000000E+00 0. -1.
         21    1    1    2  503  505 -0.12524364406E+03  0.98491221709E+02 -0.26973138171E+03  0.31327545293E+03  0.00000000000E+00 0. -1.
         21    1    1    2  504  502 -0.18246756840E+02 -0.10615366922E+03  0.96254175483E+02  0.14445210944E+03  0.00000000000E+00 0.  1.
         21    1    1    2  505  501  0.15093303940E+03  0.39321658479E+02  0.10309712029E+03  0.18696521446E+03  0.00000000000E+00 0. -1.
          2    1    1    2  501    0 -0.74426385005E+01 -0.31659210971E+02  0.13958109187E+04  0.13961897504E+04  0.00000000000E+00 0. -1.
<scales pt_clust_3="151.71646" pt_clust_4="121.31897" pt_clust_5="14000.00000" pt_clust_6="32.52228"></scales>
<clustering>
<clus scale="   32.522">  1  6  2 -1</clus>
<clus scale="  121.319">  1  4  2 -1</clus>
<clus scale="  151.716">  2  3  1 -1</clus>
<clus scale="  151.716">  2  3  1 -1</clus>
</clustering>
</event>
<event>
 6    0  0.1993420E+002  0.1819065E+03  0.7546771E-02  0.1165971E+00
          2   -1    0    0  502    0 -0.00000000000E+00  0.00000000000E+00  0.96623550427E+03  0.96623550427E+03  0.00000000000E+00 0. -1.
         21   -1    0    0  503  502  0.00000000000E+00 -0.00000000000E+00 -0.19176023895E+03  0.19176023895E+03  0.00000000000E+00 0. -1.
         21    1    1    2  503  504 -0.56471654276E+01 -0.34426556746E+02 -0.53465987800E+02  0.63841132025E+02  0.00000000000E+00 0. -1.
         21    1    1    2  504  505  0.39800916077E+02 -0.48483892666E+02 -0.58466091127E+02  0.85750128748E+02  0.00000000000E+00 0. -1.
         21    1    1    2  505  501  0.16493917666E+02 -0.72918744819E+02 -0.27700274452E+02  0.79727648095E+02  0.00000000000E+00 0. -1.
          2    1    1    2  501    0 -0.50647668316E+02  0.15582919423E+03  0.91410761870E+03  0.92867683435E+03  0.00000000000E+00 0. -1.
<scales pt_clust_3="31.71131" pt_clust_4="55.07725" pt_clust_5="55.07725" pt_clust_6="163.85336"></scales>
<clustering>
<clus scale="   31.711">  3  4 -1 -1</clus>
<clus scale="   55.077">  3  5 -1 -1</clus>
<clus scale="  163.853">  1  6  2 -1</clus>
<clus scale="  181.906">  2  3  1 -1</clus>
</clustering>
</event>
<event>
 6    0  0.1993420E+002  0.5718975E+02  0.7546771E-02  0.1410018E+00
         21   -1    0    0  505  502  0.00000000000E+00  0.00000000000E+00  0.12703558139E+03  0.12703558139E+03  0.00000000000E+00 0.  1.
          2   -1    0    0  503    0 -0.00000000000E+00 -0.00000000000E+00 -0.15773885050E+04  0.15773885050E+04  0.00000000000E+00 0. -1.
         21    1    1    2  503  502  0.30930973702E+02  0.24075779968E+02 -0.14997619653E+02  0.41967808025E+02  0.00000000000E+00 0.  1.
         21    1    1    2  504  501  0.86553488881E+02  0.33192227309E+01 -0.15458507148E+03  0.17719782166E+03  0.00000000000E+00 0.  1.
         21    1    1    2  505  504 -0.77204034384E+02 -0.33272803830E+02  0.84608300397E+02  0.11927324468E+03  0.00000000000E+00 0.  1.
          2    1    1    2  501    0 -0.40280428198E+02  0.58778011317E+01 -0.13653785328E+04  0.13659852120E+04  0.00000000000E+00 0. -1.
<scales pt_clust_3="39.19653" pt_clust_4="14000.00000" pt_clust_5="57.18975" pt_clust_6="40.63461"></scales>
<clustering>
<clus scale="   39.197">  1  3  2 -1</clus>
<clus scale="   40.635">  2  6  1 -1</clus>
<clus scale="   57.190">  1  5  2 -1</clus>
<clus scale="   39.197">  1  3  2 -1</clus>
</clustering>
</event>
<event>
 6    0  0.1993420E+002  0.2142339E+03  0.7546771E-02  0.1138256E+00
         21   -1    0    0  505  502  0.00000000000E+00  0.00000000000E+00  0.19736003145E+03  0.19736003145E+03  0.00000000000E+00 0.  1.
          2   -1    0    0  504    0 -0.00000000000E+00 -0.00000000000E+00 -0.17506727852E+04  0.17506727852E+04  0.00000000000E+00 0. -1.
         21    1    1    2  503  502 -0.63163284386E+02  0.56618162154E+02  0.61225691789E+02  0.10461262885E+03  0.00000000000E+00 0.  1.
         21    1    1    2  504  503 -0.21339895905E+02  0.19471371356E+03 -0.36214513247E+02  0.19919917765E+03  0.00000000000E+00 0.  1.
         21    1    1    2  505  501  0.67280096179E+01 -0.49347509352E+02  0.13163242554E+01  0.49821436172E+02  0.00000000000E+00 0.  1.
          2    1    1    2  501    0  0.77775170673E+02 -0.20198436636E+03 -0.15796402565E+04  0.15943995740E+04  0.00000000000E+00 0. -1.
<scales pt_clust_3="68.30599" pt_clust_4="214.23388" pt_clust_5="49.80404" pt_clust_6="14000.00000"></scales>
<clustering>
<clus scale="   49.804">  1  5  2 -1</clus>
<clus scale="   68.306">  1  3  2 -1</clus>
<clus scale="  214.234">  1  4  2 -1</clus>
<clus scale="   49.804">  1  3  2 -1</clus>
</clustering>
</event>
<event>
 6    0  0.1993420E+002  0.1610902E+03  0.7546771E-02  0.1187471E+00
         21   -1    0    0  504  502  0.00000000000E+00  0.00000000000E+00  0.47481494051E+03  0.47481494051E+03  0.00000000000E+00 0.  1.
         -4   -1    0    0    0  501 -0.00000000000E+00 -0.00000000000E+00 -0.16560862066E+03  0.16560862066E+03  0.00000000000E+00 0.  1.
         21    1    1    2  503  502  0.44878910493E+02  0.16073123424E+02  0.83417584677E+02  0.96077860806E+02  0.00000000000E+00 0.  1.
         21    1    1    2  504  505 -0.15598131119E+03  0.63594507560E+02  0.13122173669E+03  0.21352652063E+03  0.00000000000E+00 0.  1.
         21    1    1    2  505  501  0.38670746421E+02  0.10857185786E+03  0.37684684432E+02  0.12125761992E+03  0.00000000000E+00 0.  1.
         -4    1    1    2    0  503  0.72431654278E+02 -0.18823948884E+03  0.56882314047E+02  0.20956155982E+03  0.00000000000E+00 0.  1.
<scales pt_clust_3="47.67035" pt_clust_4="14000.00000" pt_clust_5="121.72401" pt_clust_6="161.09022"></scales>
<clustering>
<clus scale="   47.670">  1  3  2 -1</clus>
<clus scale="  121.724">  2  5  1 -1</clus>
<clus scale="  161.090">  2  6  1 -1</clus>
<clus scale="   47.670">  1  3  2 -1</clus>
</clustering>
</event>
<event>
 6    0  0.1993420E+002  0.7547730E+02  0.7546771E-02  0.1342399E+00
         21   -1    0    0  505  502  0.00000000000E+00  0.00000000000E+00  0.22559902603E+03  0.22559902603E+03  0.00000000000E+00 0. -1.
          2   -1    0    0  503    0 -0.00000000000E+00 -0.00000000000E+00 -0.16346086804E+03  0.16346086804E+03  0.00000000000E+00 0.  1.
         21    1    1    2  503  504 -0.88545880645E+02 -0.53146507694E+02 -0.63180915461E+01  0.10346420898E+03  0.00000000000E+00 0. -1.
         21    1    1    2  504  502  0.43617749802E+02 -0.40949337920E+02  0.49890709239E+02  0.77900187691E+02  0.00000000000E+00 0. -1.
         21    1    1    2  505  501  0.26100339108E+02  0.61250688820E+02  0.98706395685E+02  0.11906228257E+03  0.00000000000E+00 0. -1.
          2    1    1    2  501    0  0.18827791735E+02  0.32845156794E+02 -0.80140855389E+02  0.88633214817E+02  0.00000000000E+00 0.  1.
<scales pt_clust_3="75.47730" pt_clust_4="58.64119" pt_clust_5="14000.00000" pt_clust_6="37.85882"></scales>
<clustering>
<clus scale="   37.859">  2  6  1 -1</clus>
<clus scale="   58.641">  1  4  2 -1</clus>
<clus scale="   75.477">  2  3  1 -1</clus>
<clus scale="   58.641">  1  3  2 -1</clus>
</clustering>
</event>
<event>
 6    0  0.1993420E+002  0.1244779E+03  0.7546771E-02  0.1235887E+00
          1   -1    0    0  505    0 -0.00000000000E+00  0.00000000000E+00  0.15656748662E+04  0.15656748662E+04  0.00000000000E+00 0. -1.
         21   -1    0    0  504  502  0.00000000000E+00 -0.00000000000E+00 -0.31224694022E+02  0.31224694022E+02  0.00000000000E+00 0. -1.
         21    1    1    2  503  501  0.48332814631E+02 -0.65322571829E+02  0.17451129458E+03  0.19250270465E+03  0.00000000000E+00 0. -1.
         21    1    1    2  504  503  0.32208826401E+02 -0.35517465258E+02  0.19796359227E+03  0.20368721781E+03  0.00000000000E+00 0. -1.
         21    1    1    2  505  502 -0.47857816054E+02  0.10367284110E+03  0.15155054157E+03  0.18975245766E+03  0.00000000000E+00 0. -1.
          1    1    1    2  501    0 -0.32683824978E+02 -0.28328040117E+01  0.10104247438E+04  0.10109571801E+04  0.00000000000E+00 0. -1.
<scales pt_clust_3="30.46780" pt_clust_4="30.46780" pt_clust_5="117.98946" pt_clust_6="32.80636"></scales>
<clustering>
<clus scale="   30.468">  3  4 -1 -1</clus>
<clus scale="   32.806">  1  6  2 -1</clus>
<clus scale="  117.989">  2  5  1 -1</clus>
<clus scale="  117.989">  2  3  1 -1</clus>
</clustering>
</event>
<event>
 6    0  0.1993420E+002  0.1039952E+03  0.7546771E-02  0.1272112E+00
          2   -1    0    0  504    0 -0.00000000000E+00  0.00000000000E+00  0.10279068715E+04  0.10279068715E+04  0.00000000000E+00 0. -1.
         21   -1    0    0  503  502  0.00000000000E+00 -0.00000000000E+00 -0.40147954417E+02  0.40147954417E+02  0.00000000000E+00 0. -1.
         21    1    1    2  503  501 -0.13478941961E+02 -0.38538969762E+02  0.11916220585E+03  0.12596255543E+03  0.00000000000E+00 0. -1.
         21    1    1    2  504  505  0.71796118596E+01  0.10611927099E+03  0.31625504129E+03  0.33366165144E+03  0.00000000000E+00 0. -1.
         21    1    1    2  505  502 -0.56105507253E+01 -0.10313382231E+03  0.70317791705E+02  0.12495061190E+03  0.00000000000E+00 0. -1.
          2    1    1    2  501    0  0.11909880827E+02  0.35553521083E+02  0.48202387822E+03  0.48348000713E+03  0.00000000000E+00 0. -1.
<scales pt_clust_3="32.39929" pt_clust_4="103.99524" pt_clust_5="14000.00000" pt_clust_6="37.49531"></scales>
<clustering>
<clus scale="   37.495">  1  6  2 -1</clus>
<clus scale="   32.399">  1  3  2 -1</clus>
<clus scale="  103.995">  1  4  2 -1</clus>
<clus scale="  103.995">  2  3  1 -1</clus>
</clustering>
</event>
<event>
 6    0  0.1993420E+002  0.9753496E+02  0.7546771E-02  0.1285567E+00
         -4   -1    0    0    0  501 -0.00000000000E+00  0.00000000000E+00  0.31078817958E+02  0.31078817958E+02  0.00000000000E+00 0.  1.
         21   -1    0    0  504  502  0.00000000000E+00 -0.00000000000E+00 -0.10122634051E+04  0.10122634051E+04  0.00000000000E+00 0.  1.
         21    1    1    2  503  502  0.66416476151E+01  0.86773982218E+02 -0.41181193723E+03  0.42090724289E+03  0.00000000000E+00 0.  1.
         21    1    1    2  504  505  0.60438053077E+02  0.17417625006E+02 -0.34892548118E+03  0.35454918324E+03  0.00000000000E+00 0.  1.
         21    1    1    2  505  501 -0.35361770065E+02 -0.92539972433E+02 -0.21052462668E+03  0.23266869089E+03  0.00000000000E+00 0.  1.
         -4    1    1    2    0  503 -0.31717930627E+02 -0.11651634791E+02 -0.99225420417E+01  0.35217106030E+02  0.00000000000E+00 0.  1.
<scales pt_clust_3="97.53496" pt_clust_4="57.75718" pt_clust_5="14000.00000" pt_clust_6="33.79035"></scales>
<clustering>
<clus scale="   33.790">  1  6  2 -1</clus>
<clus scale="   57.757">  2  4  1 -1</clus>
<clus scale="   97.535">  2  3  1 -1</clus>
<clus scale="   57.757">  2  3  1 -1</clus>
</clustering>
</event>
<event>
 6    0  0.1993420E+002  0.3204719E+03  0.7546771E-02  0.1075432E+00
         21   -1    0    0  505  502  0.00000000000E+00  0.00000000000E+00  0.12405058914E+03  0.12405058914E+03  0.00000000000E+00 0. -1.
          2   -1    0    0  502    0 -0.00000000000E+00 -0.00000000000E+00 -0.16760081934E+04  0.16760081934E+04  0.00000000000E+00 0.  1.
         21    1    1    2  503  504 -0.12261008610E+03  0.89338461987E+02 -0.15830245189E+02  0.15252931085E+03  0.00000000000E+00 0. -1.
         21    1    1    2  504  501 -0.10585461207E+03  0.40550515679E+02 -0.97820968540E+02  0.14972803714E+03  0.00000000000E+00 0.  1.
         21    1    1    2  505  503  0.38660600802E+01  0.39652644267E+02 -0.87225594780E+01  0.40784331081E+02  0.00000000000E+00 0. -1.
          2    1    1    2  501    0  0.22459863809E+03 -0.16954162193E+03 -0.14295838310E+04  0.14570171034E+04  0.00000000000E+00 0.  1.
<scales pt_clust_3="99.01713" pt_clust_4="99.01713" pt_clust_5="39.78929" pt_clust_6="281.40524"></scales>
<clustering>
<clus scale="   39.789">  3  5 -1 -1</clus>
<clus scale="   99.017">  3  4 -1 -1</clus>
<clus scale="  281.405">  2  6  1 -1</clus>
<clus scale="  320.472">  1  3  2 -1</clus>
</clustering>
</event>
<event>
 6    0  0.1993420E+002  0.8589912E+02  0.7546771E-02  0.1313098E+00
          2   -1    0    0  504    0 -0.00000000000E+00  0.00000000000E+00  0.16408804277E+04  0.16408804277E+04  0.00000000000E+00 0.  1.
         21   -1    0    0  503  502  0.00000000000E+00 -0.00000000000E+00 -0.10091338871E+03  0.10091338871E+03  0.00000000000E+00 0. -1.
         21    1    1    2  503  505 -0.96323822081E+01 -0.29979491577E+02  0.14243504838E+02  0.34560528530E+02  0.00000000000E+00 0. -1.
         21    1    1    2  504  502  0.63171422777E+02  0.82378341719E+02 -0.39786383830E+02  0.11117453026E+03  0.00000000000E+00 0. -1.
         21    1    1    2  505  501  0.29667880490E+02 -0.30827223676E+02  0.18417257936E+02  0.46579998307E+02  0.00000000000E+00 0. -1.
          2    1    1    2  501    0 -0.83206921059E+02 -0.21571626465E+02  0.15470926601E+04  0.15494787593E+04  0.00000000000E+00 0.  1.
<scales pt_clust_3="31.48893" pt_clust_4="85.89912" pt_clust_5="45.30432" pt_clust_6="14000.00000"></scales>
<clustering>
<clus scale="   31.489">  2  3  1 -1</clus>
<clus scale="   45.304">  2  5  1 -1</clus>
<clus scale="   85.899">  2  4  1 -1</clus>
<clus scale="   31.489">  2  3  1 -1</clus>
</clustering>
</event>
<event>
 6    0  0.1993420E+002  0.1282761E+03  0.7546771E-02  0.1230036E+00
         -1   -1    0    0    0  501 -0.00000000000E+00  0.00000000000E+00  0.11310350069E+04  0.11310350069E+04  0.00000000000E+00 0.  1.
         21   -1    0    0  504  502  0.00000000000E+00 -0.00000000000E+00 -0.91330185697E+02  0.91330185697E+02  0.00000000000E+00 0. -1.
         21    1    1    2  503  505 -0.24278620362E+02  0.82303189666E+02  0.28993149819E+02  0.90575212792E+02  0.00000000000E+00 0.  1.
         21    1    1    2  504  501 -0.30993231717E+02  0.19079739885E+02 -0.23774707184E+02  0.43472446308E+02  0.00000000000E+00 0. -1.
         21    1    1    2  505  502 -0.75877647152E+02 -0.51041166032E+02  0.74070266341E+02  0.11768186913E+03  0.00000000000E+00 0. -1.
         -1    1    1    2    0  503  0.13114949923E+03 -0.50341763519E+02  0.96041611220E+03  0.97063566433E+03  0.00000000000E+00 0.  1.
<scales pt_clust_3="14000.00000" pt_clust_4="36.39529" pt_clust_5="97.94416" pt_clust_6="128.27606"></scales>
<clustering>
<clus scale="   36.395">  2  4  1 -1</clus>
<clus scale="   97.944">  2  5  1 -1</clus>
<clus scale="  128.276">  1  6  2 -1</clus>
<clus scale="   36.395">  2  3  1 -1</clus>
</clustering>
</event>
<event>
 6    0  0.1993420E+002  0.8522514E+02  0.7546771E-02  0.1314845E+00
         21   -1    0    0  505  502  0.00000000000E+00  0.00000000000E+00  0.80015808918E+02  0.80015808918E+02  0.00000000000E+00 0.  1.
         -4   -1    0    0    0  501 -0.00000000000E+00 -0.00000000000E+00 -0.13741417817E+04  0.13741417817E+04  0.00000000000E+00 0.  1.
         21    1    1    2  503  504  0.39821611877E+02 -0.29846394467E+02 -0.11333758120E+03  0.12378196697E+03  0.00000000000E+00 0. -1.
         21    1    1    2  504  502  0.29736790797E+02 -0.12535490865E+02  0.15511987912E+02  0.35805544643E+02  0.00000000000E+00 0.  1.
         21    1    1    2  505  501 -0.11676383999E+03  0.54881538878E+02 -0.36968831391E+02  0.13421055150E+03  0.00000000000E+00 0.  1.
         -4    1    1    2    0  503  0.47205437314E+02 -0.12499653546E+02 -0.11593315481E+04  0.11603595275E+04  0.00000000000E+00 0.  1.
<scales pt_clust_3="14000.00000" pt_clust_4="32.27097" pt_clust_5="85.22514" pt_clust_6="49.13449"></scales>
<clustering>
<clus scale="   32.271">  1  4  2 -1</clus>
<clus scale="   49.134">  2  6  1 -1</clus>
<clus scale="   85.225">  1  5  2 -1</clus>
<clus scale="   32.271">  1  3  2 -1</clus>
</clustering>
</event>
<event>
 6    0  0.1993420E+002  0.1225142E+03  0.7546771E-02  0.1239006E+00
          2   -1    0    0  505    0 -0.00000000000E+00  0.00000000000E+00  0.15601854713E+04  0.15601854713E+04  0.00000000000E+00 0.  1.
         21   -1    0    0  504  502  0.00000000000E+00 -0.00000000000E+00 -0.41255307249E+03  0.41255307249E+03  0.00000000000E+00 0. -1.
         21    1    1    2  503  501  0.21921395882E+02 -0.46174462526E+02 -0.21957470719E+01  0.51161019264E+02  0.00000000000E+00 0.  1.
         21    1    1    2  504  503 -0.44988764535E+02 -0.11365591946E+02  0.69883744439E+01  0.46925504708E+02  0.00000000000E+00 0.  1.
         21    1    1    2  505  502  0.10358577364E+03 -0.35055467381E+02 -0.35517032021E+03  0.37162461524E+03  0.00000000000E+00 0. -1.
          2    1    1    2  501    0 -0.80518404984E+02  0.92595521853E+02  0.14980100916E+04  0.15030274046E+04  0.00000000000E+00 0.  1.
<scales pt_clust_3="50.59506" pt_clust_4="46.40222" pt_clust_5="122.51423" pt_clust_6="14000.00000"></scales>
<clustering>
<clus scale="   46.402">  2  4  1 -1</clus>
<clus scale="   50.595">  2  3  1 -1</clus>
<clus scale="  122.514">  2  5  1 -1</clus>
<clus scale="   46.402">  2  3  1 -1</clus>
</clustering>
</event>
<event>
 6    0  0.1993420E+002  0.9422254E+02  0.7546771E-02  0.1292937E+00
          2   -1    0    0  504    0 -0.00000000000E+00  0.00000000000E+00  0.41829120351E+03  0.41829120351E+03  0.00000000000E+00 0. -1.
         21   -1    0    0  503  502  0.00000000000E+00 -0.00000000000E+00 -0.34382062753E+03  0.34382062753E+03  0.00000000000E+00 0.  1.
         21    1    1    2  503  505  0.61515168746E+02 -0.34600811016E+02 -0.13474235851E+03  0.15210797246E+03  0.00000000000E+00 0.  1.
         21    1    1    2  504  502 -0.44037901086E+02  0.14657379770E+02 -0.11760060975E+02  0.47879792689E+02  0.00000000000E+00 0. -1.
         21    1    1    2  505  501  0.76705395696E+02  0.30244274981E+02 -0.15436887444E+03  0.17500909489E+03  0.00000000000E+00 0.  1.
          2    1    1    2  501    0 -0.94182663355E+02 -0.10300843735E+02  0.37534186992E+03  0.38711497100E+03  0.00000000000E+00 0. -1.
<scales pt_clust_3="49.92697" pt_clust_4="46.41310" pt_clust_5="14000.00000" pt_clust_6="94.22254"></scales>
<clustering>
<clus scale="   46.413">  2  4  1 -1</clus>
<clus scale="   49.927">  2  3  1 -1</clus>
<clus scale="   94.223">  1  6  2 -1</clus>
<clus scale="   46.413">  2  3  1 -1</clus>
</clustering>
</event>
<event>
 6    0  0.1993420E+002  0.6684228E+02  0.7546771E-02  0.1371173E+00
         21   -1    0    0  501  502  0.00000000000E+00  0.00000000000E+00  0.34528977086E+02  0.34528977086E+02  0.00000000000E+00 0.  1.
          1   -1    0    0  503    0 -0.00000000000E+00 -0.00000000000E+00 -0.10324404744E+04  0.10324404744E+04  0.00000000000E+00 0.  1.
         21    1    1    2  503  505 -0.41490719609E+02 -0.34657251610E+02 -0.32028570411E+03  0.32481615902E+03  0.00000000000E+00 0. -1.
         21    1    1    2  504  502  0.26316443331E+02 -0.48377048240E+02 -0.81026277349E+02  0.97970156717E+02  0.00000000000E+00 0.  1.
         21    1    1    2  505  504  0.73663526343E+02 -0.12577631195E+02 -0.46655784174E+03  0.47250474242E+03  0.00000000000E+00 0.  1.
          1    1    1    2  501    0 -0.58489250065E+02  0.95611931045E+02 -0.13004167413E+03  0.17167839335E+03  0.00000000000E+00 0.  1.
<scales pt_clust_3="54.06112" pt_clust_4="56.80479" pt_clust_5="14000.00000" pt_clust_6="66.84228"></scales>
<clustering>
<clus scale="   54.061">  2  3  1 -1</clus>
<clus scale="   56.805">  1  4  2 -1</clus>
<clus scale="   66.842">  1  6  2 -1</clus>
<clus scale="   56.805">  1  3  2 -1</clus>
</clustering>
</event>
<event>
 6    0  0.1993420E+002  0.9143541E+02  0.7546771E-02  0.1299412E+00
         -3   -1    0    0    0  501 -0.00000000000E+00  0.00000000000E+00  0.21455446029E+03  0.21455446029E+03  0.00000000000E+00 0. -1.
         21   -1    0    0  505  502  0.00000000000E+00 -0.00000000000E+00 -0.27523210191E+03  0.27523210191E+03  0.00000000000E+00 0.  1.
         21    1    1    2  503  502  0.23434476772E+02  0.26872268664E+02 -0.38545488544E+02  0.52507601467E+02  0.00000000000E+00 0.  1.
         21    1    1    2  504  501 -0.17774944466E+02 -0.97484188377E+02 -0.17040581421E+03  0.19712244203E+03  0.00000000000E+00 0.  1.
         21    1    1    2  505  504  0.29734019571E+02 -0.14189521460E+02 -0.26775340132E+02  0.42454367011E+02  0.00000000000E+00 0.  1.
         -3    1    1    2    0  503 -0.35393551877E+02  0.84801441173E+02  0.17504900127E+03  0.19770215170E+03  0.00000000000E+00 0. -1.
<scales pt_clust_3="37.80927" pt_clust_4="14000.00000" pt_clust_5="32.94624" pt_clust_6="91.43541"></scales>
<clustering>
<clus scale="   32.946">  2  5  1 -1</clus>
<clus scale="   37.809">  2  3  1 -1</clus>
<clus scale="   91.435">  1  6  2 -1</clus>
<clus scale="   32.946">  2  3  1 -1</clus>
</clustering>
</event>
<event>
 6    0  0.1993420E+002  0.8420382E+02  0.7546771E-02  0.1317528E+00
         21   -1    0    0  503  502  0.00000000000E+00  0.00000000000E+00  0.26052571514E+02  0.26052571514E+02  0.00000000000E+00 0. -1.
          2   -1    0    0  505    0 -0.00000000000E+00 -0.00000000000E+00 -0.27138954417E+04  0.27138954417E+04  0.00000000000E+00 0. -1.
         21    1    1    2  503  504 -0.84679141013E+02  0.15337650845E+02 -0.14316464060E+03  0.16703866252E+03  0.00000000000E+00 0. -1.
         21    1    1    2  504  501  0.82358630877E+02  0.36439965166E+02 -0.50773262587E+03  0.51565805968E+03  0.00000000000E+00 0. -1.
         21    1    1    2  505  502  0.10823007894E+02 -0.10473296154E+03 -0.27466470078E+03  0.29415442983E+03  0.00000000000E+00 0. -1.
          2    1    1    2  501    0 -0.85024977583E+01  0.52955345532E+02 -0.17622809029E+04  0.17630968612E+04  0.00000000000E+00 0. -1.
<scales pt_clust_3="14000.00000" pt_clust_4="84.20382" pt_clust_5="89.28421" pt_clust_6="53.63358"></scales>
<clustering>
<clus scale="   53.634">  2  6  1 -1</clus>
<clus scale="   89.284">  2  5  1 -1</clus>
<clus scale="   84.204">  2  4  1 -1</clus>
<clus scale="   84.204">  1  3  2 -1</clus>
</clustering>
</event>
<event>
 6    0  0.1993420E+002  0.8397419E+02  0.7546771E-02  0.1318137E+00
         21   -1    0    0  505  502  0.00000000000E+00  0.00000000000E+00  0.15839680543E+03  0.15839680543E+03  0.00000000000E+00 0. -1.
          1   -1    0    0  504    0 -0.00000000000E+00 -0.00000000000E+00 -0.26440093179E+03  0.26440093179E+03  0.00000000000E+00 0.  1.
         21    1    1    2  503  501  0.61687896564E+02 -0.77300212140E+02 -0.81435893068E+02  0.12811137365E+03  0.00000000000E+00 0. -1.
         21    1    1    2  504  502 -0.39618170016E+02 -0.90316844655E+01  0.34226645404E+02  0.53128466713E+02  0.00000000000E+00 0. -1.
         21    1    1    2  505  503  0.37030738513E+02  0.91756061125E+02  0.55007993791E+02  0.11320922988E+03  0.00000000000E+00 0. -1.
          1    1    1    2  501    0 -0.59100465061E+02 -0.54241645202E+01 -0.11380287249E+03  0.12834866699E+03  0.00000000000E+00 0.  1.
<scales pt_clust_3="14000.00000" pt_clust_4="40.63460" pt_clust_5="83.97419" pt_clust_6="61.90330"></scales>
<clustering>
<clus scale="   40.635">  1  4  2 -1</clus>
<clus scale="   61.903">  2  6  1 -1</clus>
<clus scale="   83.974">  1  5  2 -1</clus>
<clus scale="   40.635">  1  3  2 -1</clus>
</clustering>
</event>
<event>
 6    0  0.1993420E+002  0.8874428E+02  0.7546771E-02  0.1305921E+00
         21   -1    0    0  504  502  0.00000000000E+00  0.00000000000E+00  0.19135617236E+04  0.19135617236E+04  0.00000000000E+00 0.  1.
          1   -1    0    0  503    0 -0.00000000000E+00 -0.00000000000E+00 -0.21780322261E+02  0.21780322261E+02  0.00000000000E+00 0.  1.
         21    1    1    2  503  502  0.17785576914E+02  0.78039571687E+02  0.60029225535E+03  0.60560489869E+03  0.00000000000E+00 0.  1.
         21    1    1    2  504  505 -0.39449573425E+02  0.14010893707E+02  0.36581025526E+03  0.36819793160E+03  0.00000000000E+00 0.  1.
         21    1    1    2  505  501  0.50685512489E+02 -0.10017948867E+03  0.92458945935E+03  0.93138102808E+03  0.00000000000E+00 0.  1.
          1    1    1    2  501    0 -0.29021515977E+02  0.81290232744E+01  0.10894313438E+01  0.30158187440E+02  0.00000000000E+00 0.  1.
<scales pt_clust_3="88.74428" pt_clust_4="46.81905" pt_clust_5="14000.00000" pt_clust_6="30.13850"></scales>
<clustering>
<clus scale="   30.139">  2  6  1 -1</clus>
<clus scale="   46.819">  1  4  2 -1</clus>
<clus scale="   88.744">  2  3  1 -1</clus>
<clus scale="   46.819">  1  3  2 -1</clus>
</clustering>
</event>
<event>
 6    0  0.1993420E+002  0.1238618E+03  0.7546771E-02  0.1236859E+00
         21   -1    0    0  505  502  0.00000000000E+00  0.00000000000E+00  0.15749181816E+03  0.15749181816E+03  0.00000000000E+00 0. -1.
          2   -1    0    0  502    0 -0.00000000000E+00 -0.00000000000E+00 -0.73409893800E+03  0.73409893800E+03  0.00000000000E+00 0. -1.
         21    1    1    2  503  504  0.26902999285E+02  0.66191918246E+02 -0.62044728033E+02  0.94629222169E+02  0.00000000000E+00 0. -1.
         21    1    1    2  504  501 -0.11439778907E+02  0.56932565193E+02 -0.23233539975E+02  0.62545846390E+02  0.00000000000E+00 0. -1.
         21    1    1    2  505  503  0.16834749352E+02 -0.11300074966E+03  0.94098614608E+02  0.14801056543E+03  0.00000000000E+00 0. -1.
          2    1    1    2  501    0 -0.32297969730E+02 -0.10123733781E+02 -0.58542746645E+03  0.58640512217E+03  0.00000000000E+00 0. -1.
<scales pt_clust_3="43.68902" pt_clust_4="43.68902" pt_clust_5="115.36411" pt_clust_6="33.84743"></scales>
<clustering>
<clus scale="   33.847">  2  6  1 -1</clus>
<clus scale="   43.689">  3  4 -1 -1</clus>
<clus scale="  115.364">  1  5  2 -1</clus>
<clus scale="  115.364">  1  3  2 -1</clus>
</clustering>
</event>
<event>
 6    0  0.1993420E+002  0.2357220E+03  0.7546771E-02  0.1122676E+00
         21   -1    0    0  501  502  0.00000000000E+00  0.00000000000E+00  0.15207341608E+03  0.15207341608E+03  0.00000000000E+00 0. -1.
          1   -1    0    0  503    0 -0.00000000000E+00 -0.00000000000E+00 -0.90467002364E+03  0.90467002364E+03  0.00000000000E+00 0.  1.
         21    1    1    2  503  504 -0.21221093653E+02  0.11837149793E+03  0.30599670468E+02  0.12409063692E+03  0.00000000000E+00 0. -1.
         21    1    1    2  504  505 -0.11441021053E+02  0.11346376276E+03 -0.24385193850E+02  0.11661715183E+03  0.00000000000E+00 0. -1.
         21    1    1    2  505  502 -0.30052982339E+02 -0.11953046314E+02 -0.11178817280E+02  0.34220213609E+02  0.00000000000E+00 0. -1.
          1    1    1    2  501    0  0.62715097045E+02 -0.21988221438E+03 -0.74763226689E+03  0.78181543736E+03  0.00000000000E+00 0.  1.
<scales pt_clust_3="54.03384" pt_clust_4="54.03384" pt_clust_5="32.34281" pt_clust_6="229.08003"></scales>
<clustering>
<clus scale="   32.343">  1  5  2 -1</clus>
<clus scale="   54.034">  3  4 -1 -1</clus>
<clus scale="  229.080">  2  6  1 -1</clus>
<clus scale="   32.343">  1  3  2 -1</clus>
</clustering>
</event>
<event>
 6    0  0.1993420E+002  0.1379681E+03  0.7546771E-02  0.1216089E+00
         21   -1    0    0  503  502  0.00000000000E+00  0.00000000000E+00  0.26970761238E+03  0.26970761238E+03  0.00000000000E+00 0. -1.
          1   -1    0    0  505    0 -0.00000000000E+00 -0.00000000000E+00 -0.11565270055E+04  0.11565270055E+04  0.00000000000E+00 0.  1.
         21    1    1    2  503  504  0.22355916837E+02 -0.87118077985E+02  0.16547852995E+03  0.18834141978E+03  0.00000000000E+00 0. -1.
         21    1    1    2  504  501 -0.16689039144E+02 -0.46436547976E+02  0.48930638014E+02  0.69491613536E+02  0.00000000000E+00 0.  1.
         21    1    1    2  505  502  0.53288006859E+02  0.10181909261E+03 -0.69082669654E+02  0.13408636971E+03  0.00000000000E+00 0. -1.
          1    1    1    2  501    0 -0.58954884552E+02  0.31735533351E+02 -0.10321458914E+04  0.10343152149E+04  0.00000000000E+00 0.  1.
<scales pt_clust_3="38.04064" pt_clust_4="38.04064" pt_clust_5="128.05297" pt_clust_6="66.95388"></scales>
<clustering>
<clus scale="   38.041">  3  4 -1 -1</clus>
<clus scale="   66.954">  2  6  1 -1</clus>
<clus scale="  128.053">  2  5  1 -1</clus>
<clus scale="  137.968">  1  3  2 -1</clus>
</clustering>
</event>
<event>
 6    0  0.1993420E+002  0.1442302E+03  0.7546771E-02  0.1207748E+00
          2   -1    0    0  503    0 -0.00000000000E+00  0.00000000000E+00  0.11417091766E+04  0.11417091766E+04  0.00000000000E+00 0.  1.
         21   -1    0    0  501  502  0.00000000000E+00 -0.00000000000E+00 -0.14860990042E+03  0.14860990042E+03  0.00000000000E+00 0. -1.
         21    1    1    2  503  505  0.59372330486E+02  0.11209482574E+03  0.20208288582E+02  0.12844725966E+03  0.00000000000E+00 0. -1.
         21    1    1    2  504  502  0.40590121319E+02 -0.87225654732E+02 -0.27740614444E+02  0.10012699177E+03  0.00000000000E+00 0. -1.
         21    1    1    2  505  504 -0.19865087754E+02 -0.56709963386E+02  0.27541729347E+01  0.60151700950E+02  0.00000000000E+00 0. -1.
          2    1    1    2  501    0 -0.80097364051E+02  0.31840792374E+02  0.99787742909E+03  0.10015931246E+04  0.00000000000E+00 0.  1.
<scales pt_clust_3="129.94000" pt_clust_4="49.46763" pt_clust_5="49.46763" pt_clust_6="86.19411"></scales>
<clustering>
<clus scale="   49.468">  4  5 -1 -1</clus>
<clus scale="   86.194">  1  6  2 -1</clus>
<clus scale="  129.940">  1  3  2 -1</clus>
<clus scale="  144.230">  2  3  1 -1</clus>
</clustering>
</event>
<event>
 6    0  0.1993420E+002  0.1593147E+03  0.7546771E-02  0.1189473E+00
          2   -1    0    0  504    0 -0.00000000000E+00  0.00000000000E+00  0.84819293340E+03  0.84819293340E+03  0.00000000000E+00 0.  1.
         21   -1    0    0  503  502  0.00000000000E+00 -0.00000000000E+00 -0.37190766534E+03  0.37190766534E+03  0.00000000000E+00 0.  1.
         21    1    1    2  503  501 -0.25221370297E+02  0.11643395114E+03  0.76300612312E+02  0.14147355208E+03  0.00000000000E+00 0.  1.
         21    1    1    2  504  505 -0.25577382838E+01 -0.19987590654E+03 -0.26494889746E+03  0.33189582448E+03  0.00000000000E+00 0.  1.
         21    1    1    2  505  502  0.20578286939E+02  0.33887275080E+02 -0.30173869908E+02  0.49822442041E+02  0.00000000000E+00 0.  1.
          2    1    1    2  501    0  0.72008216419E+01  0.49554680323E+02  0.69510742311E+03  0.69690878014E+03  0.00000000000E+00 0.  1.
<scales pt_clust_3="14000.00000" pt_clust_4="159.31473" pt_clust_5="39.64610" pt_clust_6="50.17417"></scales>
<clustering>
<clus scale="   39.646">  2  5  1 -1</clus>
<clus scale="   50.174">  1  6  2 -1</clus>
<clus scale="  159.315">  2  4  1 -1</clus>
<clus scale="   39.646">  2  3  1 -1</clus>
</clustering>
</event>
<event>
 6    0  0.1993420E+002  0.1151865E+03  0.7546771E-02  0.1251256E+00
         -4   -1    0    0    0  501 -0.00000000000E+00  0.00000000000E+00  0.15938954573E+04  0.15938954573E+04  0.00000000000E+00 0.  1.
         21   -1    0    0  505  502  0.00000000000E+00 -0.00000000000E+00 -0.18096883354E+03  0.18096883354E+03  0.00000000000E+00 0. -1.
         21    1    1    2  503  501 -0.56113461015E+01  0.68019296965E+02 -0.29590159070E+02  0.74388772530E+02  0.00000000000E+00 0. -1.
         21    1    1    2  504  502  0.48199064565E+02 -0.54916815218E+02  0.55691249521E+01  0.73280431026E+02  0.00000000000E+00 0. -1.
         21    1    1    2  505  503  0.23896693365E+02  0.67665602561E+02 -0.79526209905E+02  0.10711724318E+03  0.00000000000E+00 0. -1.
         -4    1    1    2    0  504 -0.66484411829E+02 -0.80768084307E+02  0.15164738678E+04  0.15200778441E+04  0.00000000000E+00 0.  1.
<scales pt_clust_3="46.70230" pt_clust_4="73.06850" pt_clust_5="46.70230" pt_clust_6="104.75982"></scales>
<clustering>
<clus scale="   46.702">  3  5 -1 -1</clus>
<clus scale="   73.069">  2  4  1 -1</clus>
<clus scale="  104.760">  1  6  2 -1</clus>
<clus scale="   73.069">  2  3  1 -1</clus>
</clustering>
</event>
<event>
 6    0  0.1993420E+002  0.1781275E+03  0.7546771E-02  0.1169628E+00
         21   -1    0    0  503  502  0.00000000000E+00  0.00000000000E+00  0.11587063879E+04  0.11587063879E+04  0.00000000000E+00 0. -1.
          2   -1    0    0  504    0 -0.00000000000E+00 -0.00000000000E+00 -0.27214481529E+03  0.27214481529E+03  0.00000000000E+00 0. -1.
         21    1    1    2  503  505 -0.95749582617E+01 -0.16552057664E+03  0.97999725546E+03  0.99392321727E+03  0.00000000000E+00 0. -1.
         21    1    1    2  504  502 -0.13601128505E+02  0.40373817162E+02  0.40440257036E+02  0.58740532837E+02  0.00000000000E+00 0.  1.
         21    1    1    2  505  501 -0.12865187249E+01 -0.36989058905E+02  0.91945049690E+02  0.99114770704E+02  0.00000000000E+00 0.  1.
          2    1    1    2  501    0  0.24462605492E+02  0.16213581838E+03 -0.22582098963E+03  0.27907268234E+03  0.00000000000E+00 0. -1.
<scales pt_clust_3="31.84783" pt_clust_4="42.60324" pt_clust_5="31.84783" pt_clust_6="164.88119"></scales>
<clustering>
<clus scale="   31.848">  3  5 -1 -1</clus>
<clus scale="   42.603">  1  4  2 -1</clus>
<clus scale="  164.881">  2  6  1 -1</clus>
<clus scale="   42.603">  1  3  2 -1</clus>
</clustering>
</event>
<event>
 6    0  0.1993420E+002  0.1533567E+03  0.7546771E-02  0.1196408E+00
         21   -1    0    0  505  502  0.00000000000E+00  0.00000000000E+00  0.67037563473E+02  0.67037563473E+02  0.00000000000E+00 0.  1.
          2   -1    0    0  504    0 -0.00000000000E+00 -0.00000000000E+00 -0.20829552320E+04  0.20829552320E+04  0.00000000000E+00 0. -1.
         21    1    1    2  503  501  0.19687886099E+01 -0.46315482874E+02 -0.23885513072E+03  0.24331209085E+03  0.00000000000E+00 0. -1.
         21    1    1    2  504  502 -0.15980545504E+03  0.19125933331E+02 -0.74985082285E+02  0.17755660323E+03  0.00000000000E+00 0.  1.
         21    1    1    2  505  503  0.13358476565E+03  0.52061925836E+02 -0.37318871527E+03  0.39978137893E+03  0.00000000000E+00 0.  1.
          2    1    1    2  501    0  0.24251900783E+02 -0.24872376293E+02 -0.13288887402E+04  0.13293427224E+04  0.00000000000E+00 0. -1.
<scales pt_clust_3="55.13427" pt_clust_4="153.35667" pt_clust_5="14000.00000" pt_clust_6="34.73888"></scales>
<clustering>
<clus scale="   34.739">  2  6  1 -1</clus>
<clus scale="   55.134">  2  3  1 -1</clus>
<clus scale="  153.357">  1  4  2 -1</clus>
<clus scale="  153.357">  1  3  2 -1</clus>
</clustering>
</event>
<event>
 6    0  0.1993420E+002  0.1172205E+03  0.7546771E-02  0.1247754E+00
         21   -1    0    0  504  502  0.00000000000E+00  0.00000000000E+00  0.67737965429E+03  0.67737965429E+03  0.00000000000E+00 0. -1.
          4   -1    0    0  503    0 -0.00000000000E+00 -0.00000000000E+00 -0.34137295583E+03  0.34137295583E+03  0.00000000000E+00 0.  1.
         21    1    1    2  503  505  0.31833867259E+02  0.22419874212E+02  0.10025582811E+02  0.40206444447E+02  0.00000000000E+00 0. -1.
         21    1    1    2  504  501  0.36270859910E+02  0.43515216570E+02  0.13321112826E+03  0.14475618827E+03  0.00000000000E+00 0. -1.
         21    1    1    2  505  502 -0.96866140881E+02  0.58169376372E+02  0.49398537641E+03  0.50674281219E+03  0.00000000000E+00 0. -1.
          4    1    1    2  501    0  0.28761413712E+02 -0.12410446715E+03 -0.30121538902E+03  0.32704716520E+03  0.00000000000E+00 0.  1.
<scales pt_clust_3="38.93643" pt_clust_4="57.31492" pt_clust_5="14000.00000" pt_clust_6="117.22050"></scales>
<clustering>
<clus scale="   38.936">  2  3  1 -1</clus>
<clus scale="   57.315">  1  4  2 -1</clus>
<clus scale="  117.220">  2  6  1 -1</clus>
<clus scale="   57.315">  1  3  2 -1</clus>
</clustering>
</event>
<event>
 6    0  0.1993420E+002  0.3459894E+03  0.7546771E-02  0.1064273E+00
         21   -1    0    0  501  502  0.00000000000E+00  0.00000000000E+00  0.16603335780E+04  0.16603335780E+04  0.00000000000E+00 0. -1.
          2   -1    0    0  505    0 -0.00000000000E+00 -0.00000000000E+00 -0.10152305137E+04  0.10152305137E+04  0.00000000000E+00 0.  1.
         21    1    1    2  503  502 -0.99692493262E+02 -0.18127662899E+03  0.10885004209E+04  0.11079859998E+04  0.00000000000E+00 0. -1.
         21    1    1    2  504  503 -0.10010383316E+03 -0.78742598181E+02  0.42832199301E+03  0.44685669277E+03  0.00000000000E+00 0. -1.
         21    1    1    2  505  504 -0.19055529810E+03 -0.57521390645E+02 -0.28735656924E+03  0.34956234051E+03  0.00000000000E+00 0.  1.
          2    1    1    2  501    0  0.39035162451E+03  0.31754061782E+03 -0.58436278037E+03  0.77115905870E+03  0.00000000000E+00 0.  1.
<scales pt_clust_3="75.49098" pt_clust_4="75.49098" pt_clust_5="199.04781" pt_clust_6="332.34268"></scales>
<clustering>
<clus scale="   75.491">  3  4 -1 -1</clus>
<clus scale="  199.048">  2  5  1 -1</clus>
<clus scale="  332.343">  2  6  1 -1</clus>
<clus scale="  345.989">  1  3  2 -1</clus>
</clustering>
</event>
<event>
 6    0  0.1993420E+002  0.9598122E+02  0.7546771E-02  0.1288981E+00
          1   -1    0    0  504    0 -0.00000000000E+00  0.00000000000E+00  0.15437956141E+04  0.15437956141E+04  0.00000000000E+00 0.  1.
         21   -1    0    0  505  502  0.00000000000E+00 -0.00000000000E+00 -0.56680740123E+03  0.56680740123E+03  0.00000000000E+00 0.  1.
         21    1    1    2  503  501  0.13479867899E+03  0.15804022002E+02 -0.48129404928E+03  0.50006440869E+03  0.00000000000E+00 0.  1.
         21    1    1    2  504  502 -0.39354954503E+02  0.15017220989E+02  0.23491902010E+02  0.48230683493E+02  0.00000000000E+00 0. -1.
         21    1    1    2  505  503 -0.42491517061E+02  0.77376205447E+01 -0.55641666012E+02  0.70437169097E+02  0.00000000000E+00 0.  1.
          1    1    1    2  501    0 -0.52952207426E+02 -0.38558863536E+02  0.14904320262E+04  0.14918707541E+04  0.00000000000E+00 0.  1.
<scales pt_clust_3="95.98122" pt_clust_4="42.12279" pt_clust_5="43.39344" pt_clust_6="14000.00000"></scales>
<clustering>
<clus scale="   42.123">  1  4  2 -1</clus>
<clus scale="   43.393">  2  5  1 -1</clus>
<clus scale="   95.981">  2  3  1 -1</clus>
<clus scale="   43.393">  2  3  1 -1</clus>
</clustering>
</event>
<event>
 6    0  0.1993420E+002  0.1402824E+03  0.7546771E-02  0.1212950E+00
         21   -1    0    0  503  502  0.00000000000E+00  0.00000000000E+00  0.42576494009E+03  0.42576494009E+03  0.00000000000E+00 0. -1.
          1   -1    0    0  504    0 -0.00000000000E+00 -0.00000000000E+00 -0.57025769336E+03  0.57025769336E+03  0.00000000000E+00 0. -1.
         21    1    1    2  503  505  0.30331025081E+02 -0.52659333065E+02  0.23444508057E+03  0.24219304747E+03  0.00000000000E+00 0. -1.
         21    1    1    2  504  502 -0.75059028373E+02 -0.99300471423E+02  0.83622215153E+02  0.14995704796E+03  0.00000000000E+00 0. -1.
         21    1    1    2  505  501 -0.93354342583E+02  0.11073890283E+03 -0.29962707854E+02  0.14790504299E+03  0.00000000000E+00 0. -1.
          1    1    1    2  501    0  0.13808234588E+03  0.41220901658E+02 -0.43259734113E+03  0.45596749504E+03  0.00000000000E+00 0. -1.
<scales pt_clust_3="60.76986" pt_clust_4="14000.00000" pt_clust_5="126.06684" pt_clust_6="140.28238"></scales>
<clustering>
<clus scale="   60.770">  1  3  2 -1</clus>
<clus scale="  126.067">  1  5  2 -1</clus>
<clus scale="  140.282">  2  6  1 -1</clus>
<clus scale="   60.770">  1  3  2 -1</clus>
</clustering>
</event>
<event>
 6    0  0.1993420E+002  0.2141117E+03  0.7546771E-02  0.1138351E+00
         21   -1    0    0  504  502  0.00000000000E+00  0.00000000000E+00  0.82085419113E+02  0.82085419113E+02  0.00000000000E+00 0.  1.
          2   -1    0    0  502    0 -0.00000000000E+00 -0.00000000000E+00 -0.22731498313E+04  0.22731498313E+04  0.00000000000E+00 0.  1.
         21    1    1    2  503  505  0.37028617355E+02  0.47285713386E+02 -0.59343243417E+02  0.84431497280E+02  0.00000000000E+00 0.  1.
         21    1    1    2  504  503  0.53065175691E+02  0.13796668396E+03 -0.68476212004E+02  0.16291012972E+03  0.00000000000E+00 0.  1.
         21    1    1    2  505  501 -0.12912472914E+03 -0.17562939010E+03 -0.51637721451E+03  0.56050361819E+03  0.00000000000E+00 0.  1.
          2    1    1    2  501    0  0.39030936088E+02 -0.96230072447E+01 -0.15468677423E+04  0.15473900053E+04  0.00000000000E+00 0.  1.
<scales pt_clust_3="31.25752" pt_clust_4="31.25752" pt_clust_5="208.42052" pt_clust_6="40.19970"></scales>
<clustering>
<clus scale="   31.258">  3  4 -1 -1</clus>
<clus scale="   40.200">  2  6  1 -1</clus>
<clus scale="  208.421">  2  5  1 -1</clus>
<clus scale="  214.112">  1  3  2 -1</clus>
</clustering>
</event>
<event>
 6    0  0.1993420E+002  0.2165141E+03  0.7546771E-02  0.1136509E+00
          2   -1    0    0  503    0 -0.00000000000E+00  0.00000000000E+00  0.65640024988E+03  0.65640024988E+03  0.00000000000E+00 0. -1.
         21   -1    0    0  501  502  0.00000000000E+00 -0.00000000000E+00 -0.95456582180E+02  0.95456582180E+02  0.00000000000E+00 0. -1.
         21    1    1    2  503  504  0.78842904983E+02  0.40523007620E+02  0.14857842680E+03  0.17301406510E+03  0.00000000000E+00 0. -1.
         21    1    1    2  504  505  0.96631544089E+02  0.45850110231E+02  0.88380772212E+02  0.13874814888E+03  0.00000000000E+00 0. -1.
         21    1    1    2  505  502 -0.18418918050E+03 -0.12484558208E+03  0.16694758892E+03  0.27817902694E+03  0.00000000000E+00 0. -1.
          2    1    1    2  501    0  0.87147314301E+01  0.38472464233E+02  0.15703687977E+03  0.16191559114E+03  0.00000000000E+00 0. -1.
<scales pt_clust_3="49.11710" pt_clust_4="49.11710" pt_clust_5="209.96170" pt_clust_6="39.44714"></scales>
<clustering>
<clus scale="   39.447">  1  6  2 -1</clus>
<clus scale="   49.117">  3  4 -1 -1</clus>
<clus scale="  209.962">  2  5  1 -1</clus>
<clus scale="  209.962">  2  3  1 -1</clus>
</clustering>
</event>
<event>
 6    0  0.2224452E+002  0.1085596E+03  0.7546771E-02  0.1263261E+00
          1   -1    0    0  505    0 -0.00000000000E+00  0.00000000000E+00  0.12927174558E+04  0.12927174558E+04  0.00000000000E+00 0.  1.
         21   -1    0    0  503  502  0.00000000000E+00 -0.00000000000E+00 -0.10990204941E+04  0.10990204941E+04  0.00000000000E+00 0.  1.
         21    1    1    2  503  504 -0.96483239165E+01  0.29725429557E+02 -0.89618914778E+01  0.32511641232E+02  0.00000000000E+00 0.  1.
         21    1    1    2  504  501  0.68320414414E+02  0.10096897735E+02 -0.23472726143E+02  0.72942410450E+02  0.00000000000E+00 0.  1.
         21    1    1    2  505  502 -0.96912590986E+01  0.57217943079E+02 -0.10269038743E+04  0.10285423572E+04  0.00000000000E+00 0.  1.
          1    1    1    2  501    0 -0.48980831399E+02 -0.97040270371E+02  0.12530354536E+04  0.12577415410E+04  0.00000000000E+00 0.  1.
<scales pt_clust_3="31.25206" pt_clust_4="68.84384" pt_clust_5="14000.00000" pt_clust_6="108.55956"></scales>
<clustering>
<clus scale="   31.252">  2  3  1 -1</clus>
<clus scale="   68.844">  2  4  1 -1</clus>
<clus scale="  108.560">  1  6  2 -1</clus>
<clus scale="   31.252">  2  3  1 -1</clus>
</clustering>
</event>
<event>
 6    0  0.1993420E+002  0.1335967E+03  0.7546771E-02  0.1222214E+00
         21   -1    0    0  501  502  0.00000000000E+00  0.00000000000E+00  0.26194138334E+04  0.26194138334E+04  0.00000000000E+00 0. -1.
         -1   -1    0    0    0  501 -0.00000000000E+00 -0.00000000000E+00 -0.47733453784E+03  0.47733453784E+03  0.00000000000E+00 0.  1.
         21    1    1    2  503  502 -0.34731229214E+02 -0.41380091535E+02  0.10419247980E+04  0.10433244246E+04  0.00000000000E+00 0. -1.
         21    1    1    2  504  505  0.43161549122E+02  0.81787608535E+02  0.95447031901E+02  0.13289946626E+03  0.00000000000E+00 0. -1.
         21    1    1    2  505  503  0.80257245872E+01 -0.82162537380E+02  0.14603476871E+04  0.14626792068E+04  0.00000000000E+00 0. -1.
         -1    1    1    2    0  504 -0.16456044496E+02  0.41755020380E+02 -0.45564022145E+03  0.45784527357E+03  0.00000000000E+00 0.  1.
<scales pt_clust_3="42.11734" pt_clust_4="123.03424" pt_clust_5="42.11734" pt_clust_6="44.88077"></scales>
<clustering>
<clus scale="   42.117">  3  5 -1 -1</clus>
<clus scale="   44.881">  2  6  1 -1</clus>
<clus scale="  123.034">  2  4  1 -1</clus>
<clus scale="  133.597">  1  3  2 -1</clus>
</clustering>
</event>
<event>
 6    0  0.1993420E+002  0.1367507E+03  0.7546771E-02  0.1217769E+00
          1   -1    0    0  502    0 -0.00000000000E+00  0.00000000000E+00  0.29801054378E+04  0.29801054378E+04  0.00000000000E+00 0. -1.
         21   -1    0    0  504  502  0.00000000000E+00 -0.00000000000E+00 -0.11314857776E+04  0.11314857776E+04  0.00000000000E+00 0.  1.
         21    1    1    2  503  505 -0.80385070726E+02  0.81581266090E+02 -0.17941025472E+03  0.21285042183E+03  0.00000000000E+00 0. -1.
         21    1    1    2  504  503 -0.40388396052E+02 -0.94573371056E+02 -0.89464873663E+03  0.90053967542E+03  0.00000000000E+00 0.  1.
         21    1    1    2  505  501  0.99367384609E+00  0.36569094149E+02 -0.27332163327E+02  0.45665448501E+02  0.00000000000E+00 0.  1.
          1    1    1    2  501    0  0.11977979293E+03 -0.23576989183E+02  0.29500108149E+04  0.29525356697E+04  0.00000000000E+00 0. -1.
<scales pt_clust_3="34.95602" pt_clust_4="102.83650" pt_clust_5="34.95602" pt_clust_6="121.96405"></scales>
<clustering>
<clus scale="   34.956">  3  5 -1 -1</clus>
<clus scale="  102.836">  2  4  1 -1</clus>
<clus scale="  121.964">  1  6  2 -1</clus>
<clus scale="  102.836">  2  3  1 -1</clus>
</clustering>
</event>
<event>
 6    0  0.1993420E+002  0.6048848E+02  0.7546771E-02  0.1395793E+00
         21   -1    0    0  503  502  0.00000000000E+00  0.00000000000E+00  0.20986270287E+03  0.20986270287E+03  0.00000000000E+00 0.  1.
          1   -1    0    0  505    0 -0.00000000000E+00 -0.00000000000E+00 -0.21759404381E+04  0.21759404381E+04  0.00000000000E+00 0.  1.
         21    1    1    2  503  501  0.73230569667E+02  0.54338987905E+02  0.14270246475E+03  0.16935003804E+03  0.00000000000E+00 0.  1.
         21    1    1    2  504  502 -0.45057579084E+02  0.32061949753E+00  0.31839073003E+02  0.55172591017E+02  0.00000000000E+00 0.  1.
         21    1    1    2  505  504 -0.62488536201E+02 -0.13964707786E+02 -0.92667353218E+02  0.11263688815E+03  0.00000000000E+00 0.  1.
          1    1    1    2  501    0  0.34315545617E+02 -0.40694899616E+02 -0.20479519198E+04  0.20486436238E+04  0.00000000000E+00 0.  1.
<scales pt_clust_3="14000.00000" pt_clust_4="45.05872" pt_clust_5="60.48848" pt_clust_6="53.17102"></scales>
<clustering>
<clus scale="   45.059">  1  4  2 -1</clus>
<clus scale="   53.171">  2  6  1 -1</clus>
<clus scale="   60.488">  2  5  1 -1</clus>
<clus scale="   45.059">  1  3  2 -1</clus>
</clustering>
</event>
<event>
 6    0  0.1993420E+002  0.9145743E+02  0.7546771E-02  0.1299360E+00
          1   -1    0    0  503    0 -0.00000000000E+00  0.00000000000E+00  0.21778961358E+04  0.21778961358E+04  0.00000000000E+00 0.  1.
         21   -1    0    0  505  502  0.00000000000E+00 -0.00000000000E+00 -0.90056460650E+03  0.90056460650E+03  0.00000000000E+00 0.  1.
         21    1    1    2  503  504  0.65643646004E+01  0.12394664717E+03 -0.55556176154E+02  0.13598658366E+03  0.00000000000E+00 0. -1.
         21    1    1    2  504  502  0.30838037497E+02 -0.40884082519E+01 -0.52941906849E+03  0.53033220694E+03  0.00000000000E+00 0.  1.
         21    1    1    2  505  501  0.17155485425E+01 -0.37452643441E+02 -0.27266088933E+03  0.27522645981E+03  0.00000000000E+00 0. -1.
          1    1    1    2  501    0 -0.39117950640E+02 -0.82405595476E+02  0.21349676633E+04  0.21369154919E+04  0.00000000000E+00 0.  1.
<scales pt_clust_3="91.45743" pt_clust_4="31.10787" pt_clust_5="47.31441" pt_clust_6="14000.00000"></scales>
<clustering>
<clus scale="   31.108">  2  4  1 -1</clus>
<clus scale="   47.314">  2  5  1 -1</clus>
<clus scale="   91.457">  2  3  1 -1</clus>
<clus scale="   31.108">  2  3  1 -1</clus>
</clustering>
</event>
<event>
 6    0  0.1993420E+002  0.8636693E+02  0.7546771E-02  0.1311896E+00
          1   -1    0    0  503    0 -0.00000000000E+00  0.00000000000E+00  0.13036629600E+03  0.13036629600E+03  0.00000000000E+00 0. -1.
         21   -1    0    0  504  502  0.00000000000E+00 -0.00000000000E+00 -0.13989038329E+04  0.13989038329E+04  0.00000000000E+00 0.  1.
         21    1    1    2  503  502  0.63665624500E+02 -0.43445642701E+02 -0.54187565675E+02  0.94218511380E+02  0.00000000000E+00 0. -1.
         21    1    1    2  504  505 -0.38894339723E+02 -0.18197557648E+02 -0.95068467973E+03  0.95165397127E+03  0.00000000000E+00 0.  1.
         21    1    1    2  505  501 -0.57415174841E+02 -0.20836600773E+02 -0.35256239145E+03  0.35781406638E+03  0.00000000000E+00 0.  1.
          1    1    1    2  501    0  0.32643890063E+02  0.82479801122E+02  0.88897099953E+02  0.12558357986E+03  0.00000000000E+00 0. -1.
<scales pt_clust_3="73.70728" pt_clust_4="42.94090" pt_clust_5="14000.00000" pt_clust_6="86.36693"></scales>
<clustering>
<clus scale="   42.941">  2  4  1 -1</clus>
<clus scale="   73.707">  2  3  1 -1</clus>
<clus scale="   86.367">  1  6  2 -1</clus>
<clus scale="   42.941">  2  3  1 -1</clus>
</clustering>
</event>
<event>
 6    0  0.1993420E+002  0.1941823E+03  0.7546771E-02  0.1154742E+00
          1   -1    0    0  502    0 -0.00000000000E+00  0.00000000000E+00  0.23241680513E+04  0.23241680513E+04  0.00000000000E+00 0. -1.
         21   -1    0    0  505  502  0.00000000000E+00 -0.00000000000E+00 -0.10016218193E+03  0.10016218193E+03  0.00000000000E+00 0. -1.
         21    1    1    2  503  504  0.26158267513E+02 -0.78430674272E+02  0.25335134554E+02  0.86472508169E+02  0.00000000000E+00 0. -1.
         21    1    1    2  504  501  0.30719890697E+02 -0.22859938978E+02 -0.15445195775E+02  0.41289739247E+02  0.00000000000E+00 0. -1.
         21    1    1    2  505  503  0.10716589611E+03 -0.71719206134E+00  0.40781530867E+02  0.11466550010E+03  0.00000000000E+00 0. -1.
          1    1    1    2  501    0 -0.16404405432E+03  0.10200780531E+03  0.21733343998E+04  0.21819024857E+04  0.00000000000E+00 0. -1.
<scales pt_clust_3="35.56140" pt_clust_4="35.56140" pt_clust_5="107.16830" pt_clust_6="187.01952"></scales>
<clustering>
<clus scale="   35.561">  3  4 -1 -1</clus>
<clus scale="  107.168">  2  5  1 -1</clus>
<clus scale="  187.020">  1  6  2 -1</clus>
<clus scale="  107.168">  2  3  1 -1</clus>
</clustering>
</event>
<event>
 6    0  0.1993420E+002  0.7993024E+02  0.7546771E-02  0.1329250E+00
          2   -1    0    0  505    0 -0.00000000000E+00  0.00000000000E+00  0.24161670079E+04  0.24161670079E+04  0.00000000000E+00 0. -1.
         21   -1    0    0  503  502  0.00000000000E+00 -0.00000000000E+00 -0.56843414008E+02  0.56843414008E+02  0.00000000000E+00 0. -1.
         21    1    1    2  503  501 -0.43647046874E+02 -0.24919861064E+02  0.45807265798E+02  0.68002718888E+02  0.00000000000E+00 0. -1.
         21    1    1    2  504  502  0.56480083027E+01 -0.51573816664E+02  0.46156757282E+02  0.69442096785E+02  0.00000000000E+00 0. -1.
         21    1    1    2  505  504  0.94206231662E+01  0.14981662960E+03  0.13540483812E+03  0.20215894942E+03  0.00000000000E+00 0. -1.
          2    1    1    2  501    0  0.28578415405E+02 -0.73322951867E+02  0.21319547327E+04  0.21334066569E+04  0.00000000000E+00 0. -1.
<scales pt_clust_3="50.25997" pt_clust_4="58.17299" pt_clust_5="79.93024" pt_clust_6="14000.00000"></scales>
<clustering>
<clus scale="   50.260">  2  3  1 -1</clus>
<clus scale="   58.173">  2  4  1 -1</clus>
<clus scale="   79.930">  2  5  1 -1</clus>
<clus scale="   50.260">  2  3  1 -1</clus>
</clustering>
</event>
<event>
 6    0  0.1993420E+002  0.1709635E+03  0.7546771E-02  0.1176847E+00
         21   -1    0    0  503  502  0.00000000000E+00  0.00000000000E+00  0.81231305199E+03  0.81231305199E+03  0.00000000000E+00 0. -1.
          4   -1    0    0  505    0 -0.00000000000E+00 -0.00000000000E+00 -0.29094644717E+03  0.29094644717E+03  0.00000000000E+00 0.  1.
         21    1    1    2  503  504  0.36179991443E+02  0.19880148318E+02  0.14393233915E+02  0.43719300778E+02  0.00000000000E+00 0.  1.
         21    1    1    2  504  501  0.15241796732E+03 -0.38136316173E+02  0.12028293821E+03  0.19787268785E+03  0.00000000000E+00 0.  1.
         21    1    1    2  505  502 -0.10374656001E+03  0.12222238493E+03  0.59370075782E+03  0.61496524286E+03  0.00000000000E+00 0. -1.
          4    1    1    2  501    0 -0.84851398758E+02 -0.10396621708E+03 -0.20701032512E+03  0.24670226767E+03  0.00000000000E+00 0.  1.
<scales pt_clust_3="33.71633" pt_clust_4="33.71633" pt_clust_5="157.80363" pt_clust_6="134.19663"></scales>
<clustering>
<clus scale="   33.716">  3  4 -1 -1</clus>
<clus scale="  134.197">  2  6  1 -1</clus>
<clus scale="  157.804">  1  5  2 -1</clus>
<clus scale="  157.804">  1  3  2 -1</clus>
</clustering>
</event>
<event>
 6    0  0.1993420E+002  0.1690048E+03  0.7546771E-02  0.1178890E+00
         21   -1    0    0  505  502  0.00000000000E+00  0.00000000000E+00  0.56053369962E+03  0.56053369962E+03  0.00000000000E+00 0. -1.
          1   -1    0    0  503    0 -0.00000000000E+00 -0.00000000000E+00 -0.89333239272E+03  0.89333239272E+03  0.00000000000E+00 0. -1.
         21    1    1    2  503  504  0.21545759588E+03 -0.19148876594E+02 -0.22332600181E+03  0.31090699282E+03  0.00000000000E+00 0.  1.
         21    1    1    2  504  502 -0.11344759922E+03  0.11314102934E+03  0.47692717915E+03  0.50312104359E+03  0.00000000000E+00 0. -1.
         21    1    1    2  505  501 -0.34403928415E+02 -0.40172942912E+02 -0.62171356830E+01  0.53255501206E+02  0.00000000000E+00 0. -1.
          1    1    1    2  501    0 -0.67606068246E+02 -0.53819209837E+02 -0.58018273476E+03  0.58658255474E+03  0.00000000000E+00 0. -1.
<scales pt_clust_3="169.00476" pt_clust_4="14000.00000" pt_clust_5="52.89136" pt_clust_6="86.72181"></scales>
<clustering>
<clus scale="   52.891">  1  5  2 -1</clus>
<clus scale="   86.722">  2  6  1 -1</clus>
<clus scale="  169.005">  2  3  1 -1</clus>
<clus scale="   52.891">  1  3  2 -1</clus>
</clustering>
</event>
<event>
 6    0  0.1993420E+002  0.1532521E+03  0.7546771E-02  0.1196533E+00
         21   -1    0    0  505  502  0.00000000000E+00  0.00000000000E+00  0.44195790595E+02  0.44195790595E+02  0.00000000000E+00 0.  1.
          4   -1    0    0  502    0 -0.00000000000E+00 -0.00000000000E+00 -0.17052620354E+04  0.17052620354E+04  0.00000000000E+00 0.  1.
         21    1    1    2  503  501 -0.81163444207E+02  0.62466741916E+02 -0.32364895179E+03  0.33946758684E+03  0.00000000000E+00 0.  1.
         21    1    1    2  504  503 -0.35330915081E+02  0.12255222871E+02 -0.49826069607E+02  0.62298485219E+02  0.00000000000E+00 0.  1.
         21    1    1    2  505  504 -0.28455476649E+02 -0.45846940975E+02 -0.23821940985E+01  0.54012322639E+02  0.00000000000E+00 0.  1.
          4    1    1    2  501    0  0.14494983594E+03 -0.28875023811E+02 -0.12852090293E+04  0.12936794313E+04  0.00000000000E+00 0.  1.
<scales pt_clust_3="31.84896" pt_clust_4="31.84896" pt_clust_5="53.95976" pt_clust_6="143.90315"></scales>
<clustering>
<clus scale="   31.849">  3  4 -1 -1</clus>
<clus scale="   53.960">  1  5  2 -1</clus>
<clus scale="  143.903">  2  6  1 -1</clus>
<clus scale="   53.960">  1  3  2 -1</clus>
</clustering>
</event>
<event>
 6    0  0.1993420E+002  0.2282955E+03  0.7546771E-02  0.1127845E+00
          2   -1    0    0  504    0 -0.00000000000E+00  0.00000000000E+00  0.31882937363E+04  0.31882937363E+04  0.00000000000E+00 0.  1.
         21   -1    0    0  501  502  0.00000000000E+00 -0.00000000000E+00 -0.10516506829E+03  0.10516506829E+03  0.00000000000E+00 0.  1.
         21    1    1    2  503  502  0.14058317563E+02 -0.39842275740E+02 -0.15566056382E+02  0.45026051793E+02  0.00000000000E+00 0.  1.
         21    1    1    2  504  505 -0.29345334814E+02 -0.11232161728E+02  0.90727787527E+01  0.32705128752E+02  0.00000000000E+00 0.  1.
         21    1    1    2  505  503 -0.26022652483E+02 -0.14622051734E+03  0.32582933261E+02  0.15205020774E+03  0.00000000000E+00 0.  1.
          2    1    1    2  501    0  0.41309669733E+02  0.19729495481E+03  0.30570390124E+04  0.30636774163E+04  0.00000000000E+00 0.  1.
<scales pt_clust_3="35.84215" pt_clust_4="31.00026" pt_clust_5="35.84215" pt_clust_6="201.57328"></scales>
<clustering>
<clus scale="   31.000">  4  5 -1 -1</clus>
<clus scale="   35.842">  3  4 -1 -1</clus>
<clus scale="  201.573">  1  6  2 -1</clus>
<clus scale="  228.295">  2  3  1 -1</clus>
</clustering>
</event>
<event>
 6    0  0.1993420E+002  0.1115266E+03  0.7546771E-02  0.1257769E+00
         21   -1    0    0  503  502  0.00000000000E+00  0.00000000000E+00  0.17959393965E+04  0.17959393965E+04  0.00000000000E+00 0. -1.
         -3   -1    0    0    0  501 -0.00000000000E+00 -0.00000000000E+00 -0.27951195409E+03  0.27951195409E+03  0.00000000000E+00 0.  1.
         21    1    1    2  503  505  0.35096150443E+02  0.79791670192E+02  0.99679403374E+02  0.13241764937E+03  0.00000000000E+00 0. -1.
         21    1    1    2  504  502  0.46865031871E+02 -0.16035279631E+03  0.16311137348E+04  0.16396467200E+04  0.00000000000E+00 0. -1.
         21    1    1    2  505  501 -0.41997304595E+02  0.38703223801E+02  0.21122157124E+02  0.60892188722E+02  0.00000000000E+00 0. -1.
         -3    1    1    2    0  504 -0.39963877719E+02  0.41857902320E+02 -0.23548785292E+03  0.24249479249E+03  0.00000000000E+00 0.  1.
<scales pt_clust_3="88.40231" pt_clust_4="14000.00000" pt_clust_5="57.11141" pt_clust_6="111.52660"></scales>
<clustering>
<clus scale="   57.111">  2  5  1 -1</clus>
<clus scale="   88.402">  1  3  2 -1</clus>
<clus scale="  111.527">  2  6  1 -1</clus>
<clus scale="   88.402">  1  3  2 -1</clus>
</clustering>
</event>
<event>
 6    0  0.1993420E+002  0.6675336E+02  0.7546771E-02  0.1371495E+00
          1   -1    0    0  505    0 -0.00000000000E+00  0.00000000000E+00  0.15382111151E+04  0.15382111151E+04  0.00000000000E+00 0.  1.
         21   -1    0    0  504  502  0.00000000000E+00 -0.00000000000E+00 -0.79736169517E+02  0.79736169517E+02  0.00000000000E+00 0.  1.
         21    1    1    2  503  501 -0.10293578383E+03  0.38910283835E+02  0.14534547541E+03  0.18230494508E+03  0.00000000000E+00 0.  1.
         21    1    1    2  504  503  0.48129939881E+01 -0.64015227607E+02  0.92258553644E+01  0.64855459939E+02  0.00000000000E+00 0.  1.
         21    1    1    2  505  502  0.46985284387E+02  0.33132722926E+02 -0.78379429442E+01  0.58024370974E+02  0.00000000000E+00 0.  1.
          1    1    1    2  501    0  0.51137505451E+02 -0.80277791540E+01  0.13117415578E+04  0.13127625087E+04  0.00000000000E+00 0.  1.
<scales pt_clust_3="14000.00000" pt_clust_4="66.75336" pt_clust_5="61.74962" pt_clust_6="51.76379"></scales>
<clustering>
<clus scale="   51.764">  1  6  2 -1</clus>
<clus scale="   61.750">  2  5  1 -1</clus>
<clus scale="   66.753">  2  4  1 -1</clus>
<clus scale="   61.750">  2  3  1 -1</clus>
</clustering>
</event>
<event>
 6    0  0.1993420E+002  0.6131683E+02  0.7546771E-02  0.1392387E+00
         21   -1    0    0  503  502  0.00000000000E+00  0.00000000000E+00  0.65079296748E+02  0.65079296748E+02  0.00000000000E+00 0. -1.
          1   -1    0    0  504    0 -0.00000000000E+00 -0.00000000000E+00 -0.12644627729E+04  0.12644627729E+04  0.00000000000E+00 0. -1.
         21    1    1    2  503  505  0.19653817757E+02 -0.60884999713E+02  0.12692132441E+02  0.65225347591E+02  0.00000000000E+00 0. -1.
         21    1    1    2  504  502 -0.68767962479E+02 -0.38713553316E+02 -0.11583586454E+03  0.14016318842E+03  0.00000000000E+00 0. -1.
         21    1    1    2  505  501  0.27768126063E+02  0.60420159658E+02 -0.68574692239E+02  0.95520432023E+02  0.00000000000E+00 0. -1.
          1    1    1    2  501    0  0.21346018659E+02  0.39178393371E+02 -0.10276650518E+04  0.10286331016E+04  0.00000000000E+00 0. -1.
<scales pt_clust_3="14000.00000" pt_clust_4="59.82057" pt_clust_5="61.31683" pt_clust_6="44.61613"></scales>
<clustering>
<clus scale="   44.616">  2  6  1 -1</clus>
<clus scale="   59.821">  2  4  1 -1</clus>
<clus scale="   61.317">  2  5  1 -1</clus>
<clus scale="   61.317">  1  3  2 -1</clus>
</clustering>
</event>
<event>
 6    0  0.1993420E+002  0.8774000E+02  0.7546771E-02  0.1308419E+00
         21   -1    0    0  503  502  0.00000000000E+00  0.00000000000E+00  0.43167162642E+02  0.43167162642E+02  0.00000000000E+00 0.  1.
          2   -1    0    0  505    0 -0.00000000000E+00 -0.00000000000E+00 -0.13181947599E+04  0.13181947599E+04  0.00000000000E+00 0. -1.
         21    1    1    2  503  501 -0.38401552884E+02 -0.86812650552E+02 -0.14088009892E+03  0.16987736115E+03  0.00000000000E+00 0. -1.
         21    1    1    2  504  502  0.40657842751E+02  0.30539775483E+02 -0.46137861777E+02  0.68661782333E+02  0.00000000000E+00 0.  1.
         21    1    1    2  505  504 -0.12715794241E+02  0.88153465219E+02 -0.98703192171E+02  0.13294752724E+03  0.00000000000E+00 0.  1.
          2    1    1    2  501    0  0.10459504374E+02 -0.31880590150E+02 -0.98930644443E+03  0.98987525186E+03  0.00000000000E+00 0. -1.
<scales pt_clust_3="87.74000" pt_clust_4="49.27995" pt_clust_5="14000.00000" pt_clust_6="33.55254"></scales>
<clustering>
<clus scale="   33.553">  2  6  1 -1</clus>
<clus scale="   49.280">  1  4  2 -1</clus>
<clus scale="   87.740">  1  3  2 -1</clus>
<clus scale="   49.280">  1  3  2 -1</clus>
</clustering>
</event>
<event>
 6    0  0.1993420E+002  0.8680875E+02  0.7546771E-02  0.1310769E+00
         21   -1    0    0  504  502  0.00000000000E+00  0.00000000000E+00  0.33845497477E+03  0.33845497477E+03  0.00000000000E+00 0.  1.
          2   -1    0    0  503    0 -0.00000000000E+00 -0.00000000000E+00 -0.33135974522E+04  0.33135974522E+04  0.00000000000E+00 0. -1.
         21    1    1    2  503  502 -0.51411979257E+02 -0.68983517244E+02  0.29296721840E+03  0.30533867806E+03  0.00000000000E+00 0.  1.
         21    1    1    2  504  505 -0.33701949958E+02  0.29875144262E+01 -0.19289222226E+02  0.38946383240E+02  0.00000000000E+00 0. -1.
         21    1    1    2  505  501 -0.80493195618E+00  0.53252870611E+02  0.43511493163E+01  0.53436398120E+02  0.00000000000E+00 0.  1.
          2    1    1    2  501    0  0.85918861171E+02  0.12743132208E+02 -0.32531716229E+04  0.32543309675E+04  0.00000000000E+00 0. -1.
<scales pt_clust_3="14000.00000" pt_clust_4="33.83411" pt_clust_5="53.64804" pt_clust_6="86.80875"></scales>
<clustering>
<clus scale="   33.834">  1  4  2 -1</clus>
<clus scale="   53.648">  1  5  2 -1</clus>
<clus scale="   86.809">  2  6  1 -1</clus>
<clus scale="   33.834">  1  3  2 -1</clus>
</clustering>
</event>
<event>
 6    0  0.1993420E+002  0.9497195E+02  0.7546771E-02  0.1291239E+00
         21   -1    0    0  503  502  0.00000000000E+00  0.00000000000E+00  0.16825115926E+03  0.16825115926E+03  0.00000000000E+00 0.  1.
          1   -1    0    0  504    0 -0.00000000000E+00 -0.00000000000E+00 -0.48380991253E+03  0.48380991253E+03  0.00000000000E+00 0. -1.
         21    1    1    2  503  501 -0.75026645172E+02  0.22073292655E+02  0.82446673828E+02  0.11363838154E+03  0.00000000000E+00 0.  1.
         21    1    1    2  504  505  0.76392084562E+02  0.16892865388E+02  0.10466468486E+02  0.78934570673E+02  0.00000000000E+00 0.  1.
         21    1    1    2  505  502  0.43650595644E+02 -0.19638489154E+02  0.22514415460E+00  0.47865388812E+02  0.00000000000E+00 0.  1.
          1    1    1    2  501    0 -0.45016035034E+02 -0.19327668890E+02 -0.40869703973E+03  0.41162273076E+03  0.00000000000E+00 0. -1.
<scales pt_clust_3="86.44962" pt_clust_4="30.75562" pt_clust_5="30.75562" pt_clust_6="48.98982"></scales>
<clustering>
<clus scale="   30.756">  4  5 -1 -1</clus>
<clus scale="   48.990">  2  6  1 -1</clus>
<clus scale="   86.450">  1  3  2 -1</clus>
<clus scale="   86.450">  1  3  2 -1</clus>
</clustering>
</event>
<event>
 6    0  0.1993420E+002  0.3201932E+03  0.7546771E-02  0.1075560E+00
          4   -1    0    0  503    0 -0.00000000000E+00  0.00000000000E+00  0.17423630544E+03  0.17423630544E+03  0.00000000000E+00 0.  1.
         21   -1    0    0  504  502  0.00000000000E+00 -0.00000000000E+00 -0.13496096401E+04  0.13496096401E+04  0.00000000000E+00 0.  1.
         21    1    1    2  503  502 -0.41972505799E+02 -0.31453115623E+03 -0.78090119329E+03  0.84291056060E+03  0.00000000000E+00 0.  1.
         21    1    1    2  504  505  0.34311794213E+02  0.22489864905E+03 -0.32158433723E+03  0.39392028067E+03  0.00000000000E+00 0.  1.
         21    1    1    2  505  501 -0.26370140173E+02  0.75806063254E+02 -0.16738312501E+03  0.18563150071E+03  0.00000000000E+00 0.  1.
          4    1    1    2  501    0  0.34030851759E+02  0.13826443927E+02  0.94495320821E+02  0.10138360361E+03  0.00000000000E+00 0.  1.
<scales pt_clust_3="310.19187" pt_clust_4="46.31751" pt_clust_5="46.31751" pt_clust_6="36.73240"></scales>
<clustering>
<clus scale="   36.732">  1  6  2 -1</clus>
<clus scale="   46.318">  4  5 -1 -1</clus>
<clus scale="  310.192">  2  3  1 -1</clus>
<clus scale="  310.192">  2  3  1 -1</clus>
</clustering>
</event>
<event>
 6    0  0.1993420E+002  0.7562750E+03  0.7546771E-02  0.9625557E-01
         21   -1    0    0  503  502  0.00000000000E+00  0.00000000000E+00  0.16714903061E+04  0.16714903061E+04  0.00000000000E+00 0. -1.
          2   -1    0    0  505    0 -0.00000000000E+00 -0.00000000000E+00 -0.15973958732E+04  0.15973958732E+04  0.00000000000E+00 0. -1.
         21    1    1    2  503  504 -0.15815335104E+02 -0.11691523263E+03  0.99374504001E+02  0.15425494640E+03  0.00000000000E+00 0. -1.
         21    1    1    2  504  501 -0.29659635712E+03 -0.52647697486E+03  0.13674828370E+04  0.14950440508E+04  0.00000000000E+00 0. -1.
         21    1    1    2  505  502  0.19966976683E+02 -0.54587830039E+02 -0.43548728129E+02  0.72629216352E+02  0.00000000000E+00 0.  1.
          2    1    1    2  501    0  0.29244471554E+03  0.69798003753E+03 -0.13492141800E+04  0.15469579658E+04  0.00000000000E+00 0. -1.
<scales pt_clust_3="105.73048" pt_clust_4="105.73048" pt_clust_5="58.12496" pt_clust_6="717.62789"></scales>
<clustering>
<clus scale="   58.125">  2  5  1 -1</clus>
<clus scale="  105.730">  3  4 -1 -1</clus>
<clus scale="  717.628">  2  6  1 -1</clus>
<clus scale="  756.275">  1  3  2 -1</clus>
</clustering>
</event>
<event>
 6    0  0.1993420E+002  0.1290170E+03  0.7546771E-02  0.1228922E+00
         21   -1    0    0  501  502  0.00000000000E+00  0.00000000000E+00  0.24094198276E+03  0.24094198276E+03  0.00000000000E+00 0.  1.
         -3   -1    0    0    0  501 -0.00000000000E+00 -0.00000000000E+00 -0.17655813906E+03  0.17655813906E+03  0.00000000000E+00 0.  1.
         21    1    1    2  503  502 -0.11297247268E+03 -0.67191836938E+02  0.14137974286E+03  0.19304339984E+03  0.00000000000E+00 0.  1.
         21    1    1    2  504  505  0.50787895758E+02  0.16568607837E+02  0.16597736395E+02  0.55941165296E+02  0.00000000000E+00 0.  1.
         21    1    1    2  505  503  0.25845418280E+02  0.53480995286E+02  0.85977723259E+01  0.60017698988E+02  0.00000000000E+00 0.  1.
         -3    1    1    2    0  504  0.36339158639E+02 -0.28577661848E+01 -0.10219140788E+03  0.10849785769E+03  0.00000000000E+00 0.  1.
<scales pt_clust_3="120.88566" pt_clust_4="44.20743" pt_clust_5="44.20743" pt_clust_6="36.45135"></scales>
<clustering>
<clus scale="   36.451">  2  6  1 -1</clus>
<clus scale="   44.207">  4  5 -1 -1</clus>
<clus scale="  120.886">  1  3  2 -1</clus>
<clus scale="  120.886">  1  3  2 -1</clus>
</clustering>
</event>
<event>
 6    0  0.1993420E+002  0.1451274E+03  0.7546771E-02  0.1206591E+00
         21   -1    0    0  504  502  0.00000000000E+00  0.00000000000E+00  0.82773978465E+02  0.82773978465E+02  0.00000000000E+00 0.  1.
          4   -1    0    0  505    0 -0.00000000000E+00 -0.00000000000E+00 -0.46178168045E+03  0.46178168045E+03  0.00000000000E+00 0.  1.
         21    1    1    2  503  501  0.95528684009E+02 -0.44977779783E+02 -0.10701041199E+03  0.15033282548E+03  0.00000000000E+00 0.  1.
         21    1    1    2  504  503  0.42113199996E+02  0.15205290272E+02 -0.36026449372E+02  0.57468491546E+02  0.00000000000E+00 0.  1.
         21    1    1    2  505  502 -0.13236364493E+03 -0.35667362532E+02 -0.61326011765E+02  0.15017714529E+03  0.00000000000E+00 0.  1.
          4    1    1    2  501    0 -0.52782390751E+01  0.65439852043E+02 -0.17464482885E+03  0.18657719659E+03  0.00000000000E+00 0.  1.
<scales pt_clust_3="35.00803" pt_clust_4="35.00803" pt_clust_5="134.80289" pt_clust_6="65.65237"></scales>
<clustering>
<clus scale="   35.008">  3  4 -1 -1</clus>
<clus scale="   65.652">  2  6  1 -1</clus>
<clus scale="  134.803">  1  5  2 -1</clus>
<clus scale="  134.803">  1  3  2 -1</clus>
</clustering>
</event>
<event>
 6    0  0.1993420E+002  0.1028458E+03  0.7546771E-02  0.1274423E+00
         21   -1    0    0  504  502  0.00000000000E+00  0.00000000000E+00  0.12690273641E+04  0.12690273641E+04  0.00000000000E+00 0. -1.
          2   -1    0    0  503    0 -0.00000000000E+00 -0.00000000000E+00 -0.61827967735E+03  0.61827967735E+03  0.00000000000E+00 0.  1.
         21    1    1    2  503  502  0.37284655034E+02 -0.53877336352E+02  0.60218875334E+02  0.88990032138E+02  0.00000000000E+00 0.  1.
         21    1    1    2  504  505 -0.18303854250E+02 -0.39947349361E+02  0.26786973783E+03  0.27144984481E+03  0.00000000000E+00 0. -1.
         21    1    1    2  505  501 -0.62478334645E+02  0.22309045736E+00  0.91927157821E+03  0.92139233043E+03  0.00000000000E+00 0. -1.
          2    1    1    2  501    0  0.43497533861E+02  0.93601595256E+02 -0.59661250460E+03  0.60547483411E+03  0.00000000000E+00 0.  1.
<scales pt_clust_3="67.25414" pt_clust_4="43.94112" pt_clust_5="14000.00000" pt_clust_6="102.84578"></scales>
<clustering>
<clus scale="   43.941">  1  4  2 -1</clus>
<clus scale="   67.254">  1  3  2 -1</clus>
<clus scale="  102.846">  2  6  1 -1</clus>
<clus scale="   43.941">  1  3  2 -1</clus>
</clustering>
</event>
<event>
 6    0  0.1993420E+002  0.8127438E+02  0.7546771E-02  0.1325473E+00
          1   -1    0    0  505    0 -0.00000000000E+00  0.00000000000E+00  0.11460891558E+04  0.11460891558E+04  0.00000000000E+00 0.  1.
         21   -1    0    0  504  502  0.00000000000E+00 -0.00000000000E+00 -0.14127003608E+04  0.14127003608E+04  0.00000000000E+00 0. -1.
         21    1    1    2  503  502  0.12755817215E+02 -0.42669222464E+02 -0.12778815638E+03  0.13532622189E+03  0.00000000000E+00 0. -1.
         21    1    1    2  504  501  0.85413799017E+01  0.11817300649E+03 -0.12265570602E+04  0.12322662198E+04  0.00000000000E+00 0. -1.
         21    1    1    2  505  503 -0.56616447099E+02 -0.78426473902E+02 -0.59774004528E+01  0.96911625758E+02  0.00000000000E+00 0. -1.
          1    1    1    2  501    0  0.35319249982E+02  0.29226898778E+01  0.10937114120E+04  0.10942854492E+04  0.00000000000E+00 0.  1.
<scales pt_clust_3="45.13422" pt_clust_4="81.27438" pt_clust_5="14000.00000" pt_clust_6="35.43997"></scales>
<clustering>
<clus scale="   35.440">  1  6  2 -1</clus>
<clus scale="   45.134">  2  3  1 -1</clus>
<clus scale="   81.274">  2  4  1 -1</clus>
<clus scale="   45.134">  2  3  1 -1</clus>
</clustering>
</event>
<event>
 6    0  0.1993420E+002  0.1729177E+03  0.7546771E-02  0.1174839E+00
         21   -1    0    0  503  502  0.00000000000E+00  0.00000000000E+00  0.43152545460E+03  0.43152545460E+03  0.00000000000E+00 0.  1.
          1   -1    0    0  505    0 -0.00000000000E+00 -0.00000000000E+00 -0.16102174733E+04  0.16102174733E+04  0.00000000000E+00 0.  1.
         21    1    1    2  503  504 -0.17254019947E+03 -0.11708618826E+03  0.30152820998E+03  0.36660408799E+03  0.00000000000E+00 0.  1.
         21    1    1    2  504  501  0.92562396100E+02  0.85064031140E+02  0.45782176375E+02  0.13378973892E+03  0.00000000000E+00 0.  1.
         21    1    1    2  505  502  0.43880787926E+02 -0.10745626816E+02 -0.64347127593E+02  0.78622801236E+02  0.00000000000E+00 0.  1.
          1    1    1    2  501    0  0.36097015444E+02  0.42767783940E+02 -0.14616552774E+04  0.14627262997E+04  0.00000000000E+00 0.  1.
<scales pt_clust_3="14000.00000" pt_clust_4="172.91774" pt_clust_5="45.17734" pt_clust_6="84.33270"></scales>
<clustering>
<clus scale="   45.177">  2  5  1 -1</clus>
<clus scale="   84.333">  2  6  1 -1</clus>
<clus scale="  172.918">  2  4  1 -1</clus>
<clus scale="  172.918">  1  3  2 -1</clus>
</clustering>
</event>
<event>
 6    0  0.1993420E+002  0.1858813E+03  0.7546771E-02  0.1162229E+00
         21   -1    0    0  504  502  0.00000000000E+00  0.00000000000E+00  0.79643661923E+02  0.79643661923E+02  0.00000000000E+00 0.  1.
          1   -1    0    0  503    0 -0.00000000000E+00 -0.00000000000E+00 -0.17448917862E+04  0.17448917862E+04  0.00000000000E+00 0.  1.
         21    1    1    2  503  502  0.71570460226E+02  0.11737716549E+03 -0.23518799355E+03  0.27242085468E+03  0.00000000000E+00 0.  1.
         21    1    1    2  504  505 -0.31919346670E+02 -0.74914059811E+02 -0.70214211759E+02  0.10752207486E+03  0.00000000000E+00 0.  1.
         21    1    1    2  505  501 -0.91037439605E+02 -0.99687291772E+02 -0.69286033153E+02  0.15174296010E+03  0.00000000000E+00 0.  1.
          1    1    1    2  501    0  0.51386326049E+02  0.57224186089E+02 -0.12905598859E+04  0.12928495585E+04  0.00000000000E+00 0.  1.
<scales pt_clust_3="179.99394" pt_clust_4="36.04554" pt_clust_5="36.04554" pt_clust_6="76.91009"></scales>
<clustering>
<clus scale="   36.046">  4  5 -1 -1</clus>
<clus scale="   76.910">  2  6  1 -1</clus>
<clus scale="  179.994">  2  3  1 -1</clus>
<clus scale="  185.881">  1  3  2 -1</clus>
</clustering>
</event>
<event>
 6    0  0.1993420E+002  0.1091206E+03  0.7546771E-02  0.1262207E+00
         21   -1    0    0  505  502  0.00000000000E+00  0.00000000000E+00  0.31797624353E+02  0.31797624353E+02  0.00000000000E+00 0.  1.
         -3   -1    0    0    0  501 -0.00000000000E+00 -0.00000000000E+00 -0.10465215683E+04  0.10465215683E+04  0.00000000000E+00 0. -1.
         21    1    1    2  503  501  0.29210276795E+02  0.14435416356E+03 -0.30384675627E+03  0.33765991190E+03  0.00000000000E+00 0.  1.
         21    1    1    2  504  502  0.74248585188E+01 -0.82624228218E+02 -0.24520500535E+03  0.25885784953E+03  0.00000000000E+00 0. -1.
         21    1    1    2  505  503 -0.20812825532E+02 -0.31358980289E+02 -0.40636823455E+02  0.55388724231E+02  0.00000000000E+00 0. -1.
         -3    1    1    2    0  504 -0.15822309783E+02 -0.30370955051E+02 -0.42503535886E+03  0.42641270699E+03  0.00000000000E+00 0. -1.
<scales pt_clust_3="109.12056" pt_clust_4="14000.00000" pt_clust_5="40.27195" pt_clust_6="34.24530"></scales>
<clustering>
<clus scale="   34.245">  2  6  1 -1</clus>
<clus scale="   40.272">  1  5  2 -1</clus>
<clus scale="  109.121">  1  3  2 -1</clus>
<clus scale="   40.272">  1  3  2 -1</clus>
</clustering>
</event>
<event>
 6    0  0.1993420E+002  0.1149117E+03  0.7546771E-02  0.1251735E+00
         -1   -1    0    0    0  501 -0.00000000000E+00  0.00000000000E+00  0.21778593440E+03  0.21778593440E+03  0.00000000000E+00 0. -1.
         21   -1    0    0  505  502  0.00000000000E+00 -0.00000000000E+00 -0.74026983440E+03  0.74026983440E+03  0.00000000000E+00 0.  1.
         21    1    1    2  503  502  0.18889949823E+01  0.79665162527E+02 -0.72611754183E+02  0.10780803898E+03  0.00000000000E+00 0. -1.
         21    1    1    2  504  501  0.24837990310E+02 -0.33291930748E+02 -0.13267434748E+03  0.13902431763E+03  0.00000000000E+00 0. -1.
         21    1    1    2  505  504  0.72911300644E+02 -0.22778944039E+02 -0.49779325047E+03  0.50361995420E+03  0.00000000000E+00 0.  1.
         -1    1    1    2    0  503 -0.99638285936E+02 -0.23594287741E+02  0.18059545213E+03  0.20760345799E+03  0.00000000000E+00 0. -1.
<scales pt_clust_3="79.68756" pt_clust_4="39.04347" pt_clust_5="39.04347" pt_clust_6="101.98679"></scales>
<clustering>
<clus scale="   39.043">  4  5 -1 -1</clus>
<clus scale="   79.688">  2  3  1 -1</clus>
<clus scale="  101.987">  1  6  2 -1</clus>
<clus scale="   79.688">  2  3  1 -1</clus>
</clustering>
</event>
<event>
 6    0  0.1993420E+002  0.1651421E+03  0.7546771E-02  0.1183011E+00
          2   -1    0    0  503    0 -0.00000000000E+00  0.00000000000E+00  0.16972778532E+04  0.16972778532E+04  0.00000000000E+00 0. -1.
         21   -1    0    0  505  502  0.00000000000E+00 -0.00000000000E+00 -0.19303301322E+03  0.19303301322E+03  0.00000000000E+00 0. -1.
         21    1    1    2  503  502  0.47246303943E+02  0.11026291677E+02  0.50377534480E+02  0.69940605693E+02  0.00000000000E+00 0. -1.
         21    1    1    2  504  501  0.12939461965E+02  0.46977120158E+02 -0.32557438538E+02  0.58602613410E+02  0.00000000000E+00 0.  1.
         21    1    1    2  505  504  0.67820738160E+02  0.20124266407E+02 -0.12486577886E+03  0.14351341872E+03  0.00000000000E+00 0. -1.
          2    1    1    2  501    0 -0.12800650407E+03 -0.78127678243E+02  0.16112905229E+04  0.16182542286E+04  0.00000000000E+00 0. -1.
<scales pt_clust_3="48.51590" pt_clust_4="51.34100" pt_clust_5="51.34100" pt_clust_6="149.09021"></scales>
<clustering>
<clus scale="   48.516">  2  3  1 -1</clus>
<clus scale="   51.341">  4  5 -1 -1</clus>
<clus scale="  149.090">  1  6  2 -1</clus>
<clus scale="   48.516">  2  3  1 -1</clus>
</clustering>
</event>
<event>
 6    0  0.1993420E+002  0.7621408E+02  0.7546771E-02  0.1340152E+00
         21   -1    0    0  504  502  0.00000000000E+00  0.00000000000E+00  0.13688400108E+04  0.13688400108E+04  0.00000000000E+00 0.  1.
          4   -1    0    0  505    0 -0.00000000000E+00 -0.00000000000E+00 -0.65863134316E+03  0.65863134316E+03  0.00000000000E+00 0.  1.
         21    1    1    2  503  501 -0.53605406841E+02 -0.30988425730E+02  0.88743153594E+03  0.88958897990E+03  0.00000000000E+00 0.  1.
         21    1    1    2  504  503 -0.13077942650E+02 -0.49742766589E+02  0.32748925224E+03  0.33150352297E+03  0.00000000000E+00 0.  1.
         21    1    1    2  505  502 -0.94191661894E+01  0.75732749862E+02  0.13878185890E+03  0.15838110510E+03  0.00000000000E+00 0. -1.
          4    1    1    2  501    0  0.76102515680E+02  0.49984424573E+01 -0.64349397940E+03  0.64799774602E+03  0.00000000000E+00 0.  1.
<scales pt_clust_3="14000.00000" pt_clust_4="51.43321" pt_clust_5="69.54401" pt_clust_6="76.21408"></scales>
<clustering>
<clus scale="   51.433">  1  4  2 -1</clus>
<clus scale="   69.544">  1  5  2 -1</clus>
<clus scale="   76.214">  2  6  1 -1</clus>
<clus scale="   51.433">  1  3  2 -1</clus>
</clustering>
</event>
<event>
 6    0  0.1993420E+002  0.2038753E+03  0.7546771E-02  0.1146510E+00
         21   -1    0    0  504  502  0.00000000000E+00  0.00000000000E+00  0.53832676532E+02  0.53832676532E+02  0.00000000000E+00 0.  1.
         -2   -1    0    0    0  501 -0.00000000000E+00 -0.00000000000E+00 -0.11547767243E+04  0.11547767243E+04  0.00000000000E+00 0. -1.
         21    1    1    2  503  501  0.12088792079E+03  0.66392399427E+02 -0.27104914394E+03  0.30412082882E+03  0.00000000000E+00 0.  1.
         21    1    1    2  504  503  0.55824987329E+02 -0.15141589206E+01 -0.20831379756E+03  0.21566956239E+03  0.00000000000E+00 0.  1.
         21    1    1    2  505  502 -0.34797942476E+02  0.83350147456E+02 -0.16136455777E+03  0.18492340140E+03  0.00000000000E+00 0.  1.
         -2    1    1    2    0  505 -0.14191496564E+03 -0.14822838796E+03 -0.46021654855E+03  0.50389560827E+03  0.00000000000E+00 0. -1.
<scales pt_clust_3="44.79940" pt_clust_4="44.79940" pt_clust_5="90.32244" pt_clust_6="191.33364"></scales>
<clustering>
<clus scale="   44.799">  3  4 -1 -1</clus>
<clus scale="   90.322">  1  5  2 -1</clus>
<clus scale="  191.334">  1  6  2 -1</clus>
<clus scale="   90.322">  1  3  2 -1</clus>
</clustering>
</event>
<event>
 6    0  0.1993420E+002  0.1796797E+03  0.7546771E-02  0.1168113E+00
         -1   -1    0    0    0  501 -0.00000000000E+00  0.00000000000E+00  0.16084215060E+03  0.16084215060E+03  0.00000000000E+00 0.  1.
         21   -1    0    0  504  502  0.00000000000E+00 -0.00000000000E+00 -0.59017105919E+03  0.59017105919E+03  0.00000000000E+00 0.  1.
         21    1    1    2  503  505  0.48758986632E+02 -0.17156465758E+03 -0.34088699822E+03  0.38472823663E+03  0.00000000000E+00 0.  1.
         21    1    1    2  504  503  0.45809138452E+02 -0.14358375464E+02 -0.49174753696E+02  0.68722605544E+02  0.00000000000E+00 0.  1.
         21    1    1    2  505  501 -0.41756834568E+02  0.15997378659E+03 -0.11519183048E+03  0.20150534345E+03  0.00000000000E+00 0.  1.
         -1    1    1    2    0  502 -0.52811290517E+02  0.25949246451E+02  0.75924673807E+02  0.96057024158E+02  0.00000000000E+00 0.  1.
<scales pt_clust_3="14000.00000" pt_clust_4="48.00667" pt_clust_5="179.67967" pt_clust_6="57.94323"></scales>
<clustering>
<clus scale="   48.007">  2  4  1 -1</clus>
<clus scale="   57.943">  1  6  2 -1</clus>
<clus scale="  179.680">  1  5  2 -1</clus>
<clus scale="   48.007">  2  3  1 -1</clus>
</clustering>
</event>
<event>
 6    0  0.1993420E+002  0.1069140E+03  0.7546771E-02  0.1266394E+00
          2   -1    0    0  503    0 -0.00000000000E+00  0.00000000000E+00  0.61856475076E+03  0.61856475076E+03  0.00000000000E+00 0.  1.
         21   -1    0    0  504  502  0.00000000000E+00 -0.00000000000E+00 -0.22283272336E+03  0.22283272336E+03  0.00000000000E+00 0. -1.
         21    1    1    2  503  505 -0.85591594626E+02 -0.11252748231E+02 -0.70085520467E+02  0.11119588838E+03  0.00000000000E+00 0. -1.
         21    1    1    2  504  501 -0.11504902446E+02  0.28898792476E+02 -0.13107726434E+02  0.33753747631E+02  0.00000000000E+00 0. -1.
         21    1    1    2  505  502  0.95718283415E+00  0.33569671812E+02 -0.10097088287E+03  0.10640938986E+03  0.00000000000E+00 0. -1.
          2    1    1    2  501    0  0.96139314238E+02 -0.51215716057E+02  0.57989615717E+03  0.59003844825E+03  0.00000000000E+00 0.  1.
<scales pt_clust_3="106.91399" pt_clust_4="31.10471" pt_clust_5="48.85635" pt_clust_6="14000.00000"></scales>
<clustering>
<clus scale="   31.105">  2  4  1 -1</clus>
<clus scale="   48.856">  2  5  1 -1</clus>
<clus scale="  106.914">  2  3  1 -1</clus>
<clus scale="   31.105">  2  3  1 -1</clus>
</clustering>
</event>
<event>
 6    0  0.1993420E+002  0.1385596E+03  0.7546771E-02  0.1215280E+00
         21   -1    0    0  505  502  0.00000000000E+00  0.00000000000E+00  0.27405124020E+03  0.27405124020E+03  0.00000000000E+00 0. -1.
          2   -1    0    0  503    0 -0.00000000000E+00 -0.00000000000E+00 -0.64275557082E+03  0.64275557082E+03  0.00000000000E+00 0. -1.
         21    1    1    2  503  502  0.13284325163E+03 -0.24232660505E+02  0.23132028656E+03  0.26785000712E+03  0.00000000000E+00 0. -1.
         21    1    1    2  504  501 -0.57528801154E+02  0.42401971292E+02 -0.11998282497E+03  0.13965446079E+03  0.00000000000E+00 0. -1.
         21    1    1    2  505  504 -0.38090903601E+02  0.26175737804E+02 -0.29006243949E+02  0.54566000172E+02  0.00000000000E+00 0. -1.
          2    1    1    2  501    0 -0.37223546877E+02 -0.44345048591E+02 -0.45103554826E+03  0.45473634292E+03  0.00000000000E+00 0. -1.
<scales pt_clust_3="132.36672" pt_clust_4="32.94009" pt_clust_5="32.94009" pt_clust_6="57.89711"></scales>
<clustering>
<clus scale="   32.940">  4  5 -1 -1</clus>
<clus scale="   57.897">  2  6  1 -1</clus>
<clus scale="  132.367">  1  3  2 -1</clus>
<clus scale="  132.367">  1  3  2 -1</clus>
</clustering>
</event>
<event>
 6    0  0.1993420E+002  0.1197559E+03  0.7546771E-02  0.1243500E+00
          2   -1    0    0  503    0 -0.00000000000E+00  0.00000000000E+00  0.22696814217E+04  0.22696814217E+04  0.00000000000E+00 0. -1.
         21   -1    0    0  505  502  0.00000000000E+00 -0.00000000000E+00 -0.58225200296E+03  0.58225200296E+03  0.00000000000E+00 0.  1.
         21    1    1    2  503  504  0.53196103439E+02 -0.12158824234E+02 -0.15950013308E+03  0.16857625836E+03  0.00000000000E+00 0.  1.
         21    1    1    2  504  502  0.30139087549E+02 -0.44613231442E+01 -0.88611991550E+01  0.31729936226E+02  0.00000000000E+00 0.  1.
         21    1    1    2  505  501 -0.97589520587E+01 -0.78194894038E+02 -0.39240060986E+03  0.40023482759E+03  0.00000000000E+00 0.  1.
          2    1    1    2  501    0 -0.73576238929E+02  0.94815041416E+02  0.22481913609E+04  0.22513924025E+04  0.00000000000E+00 0. -1.
<scales pt_clust_3="63.43849" pt_clust_4="30.46749" pt_clust_5="119.75588" pt_clust_6="14000.00000"></scales>
<clustering>
<clus scale="   30.467">  2  4  1 -1</clus>
<clus scale="   63.438">  2  3  1 -1</clus>
<clus scale="  119.756">  2  5  1 -1</clus>
<clus scale="   30.467">  2  3  1 -1</clus>
</clustering>
</event>
<event>
 6    0  0.1993420E+002  0.7687445E+02  0.7546771E-02  0.1338163E+00
         -1   -1    0    0    0  501 -0.00000000000E+00  0.00000000000E+00  0.97741117084E+02  0.97741117084E+02  0.00000000000E+00 0. -1.
         21   -1    0    0  504  502  0.00000000000E+00 -0.00000000000E+00 -0.82944918384E+03  0.82944918384E+03  0.00000000000E+00 0.  1.
         21    1    1    2  503  505 -0.24912283848E+02 -0.60939617927E+02 -0.50215073739E+03  0.50644804470E+03  0.00000000000E+00 0.  1.
         21    1    1    2  504  501 -0.34438864864E+02  0.78744985124E+02 -0.16199937502E+03  0.18338649242E+03  0.00000000000E+00 0.  1.
         21    1    1    2  505  502 -0.55492641194E+01 -0.60578397976E+02 -0.12612791333E+03  0.14003137918E+03  0.00000000000E+00 0.  1.
         -1    1    1    2    0  503  0.64900412831E+02  0.42773030779E+02  0.58569958983E+02  0.97324384626E+02  0.00000000000E+00 0. -1.
<scales pt_clust_3="76.87445" pt_clust_4="73.09737" pt_clust_5="60.83204" pt_clust_6="14000.00000"></scales>
<clustering>
<clus scale="   60.832">  2  5  1 -1</clus>
<clus scale="   73.097">  2  4  1 -1</clus>
<clus scale="   76.874">  2  3  1 -1</clus>
<clus scale="   60.832">  2  3  1 -1</clus>
</clustering>
</event>
<event>
 6    0  0.1993420E+002  0.9790180E+02  0.7546771E-02  0.1284771E+00
         21   -1    0    0  505  502  0.00000000000E+00  0.00000000000E+00  0.18036248733E+03  0.18036248733E+03  0.00000000000E+00 0. -1.
          2   -1    0    0  503    0 -0.00000000000E+00 -0.00000000000E+00 -0.27327749344E+03  0.27327749344E+03  0.00000000000E+00 0.  1.
         21    1    1    2  503  502 -0.15048723105E+02  0.71378743714E+02  0.78258376645E+02  0.10698487106E+03  0.00000000000E+00 0. -1.
         21    1    1    2  504  501  0.52094953424E+02  0.31492546214E+02  0.17380247330E+02  0.63306695037E+02  0.00000000000E+00 0. -1.
         21    1    1    2  505  504  0.31061176503E+02 -0.14345847520E+02  0.24982978938E+02  0.42364481154E+02  0.00000000000E+00 0.  1.
          2    1    1    2  501    0 -0.68107406821E+02 -0.88525442408E+02 -0.21353660902E+03  0.24098393351E+03  0.00000000000E+00 0.  1.
<scales pt_clust_3="62.48743" pt_clust_4="14000.00000" pt_clust_5="34.21403" pt_clust_6="97.90180"></scales>
<clustering>
<clus scale="   34.214">  1  5  2 -1</clus>
<clus scale="   62.487">  1  3  2 -1</clus>
<clus scale="   97.902">  2  6  1 -1</clus>
<clus scale="   34.214">  1  3  2 -1</clus>
</clustering>
</event>
<event>
 6    0  0.1993420E+002  0.1549319E+03  0.7546771E-02  0.1194540E+00
          3   -1    0    0  505    0 -0.00000000000E+00  0.00000000000E+00  0.67714514874E+03  0.67714514874E+03  0.00000000000E+00 0.  1.
         21   -1    0    0  501  502  0.00000000000E+00 -0.00000000000E+00 -0.29840619652E+03  0.29840619652E+03  0.00000000000E+00 0. -1.
         21    1    1    2  503  504  0.39243321747E+02 -0.39525059926E+02 -0.52770106084E+02  0.76726480175E+02  0.00000000000E+00 0. -1.
         21    1    1    2  504  502  0.84731119710E+02 -0.34168532032E+02 -0.20236789070E+03  0.22203516481E+03  0.00000000000E+00 0. -1.
         21    1    1    2  505  503 -0.48913098791E+02 -0.53010403418E+02  0.10217282491E+03  0.12506750279E+03  0.00000000000E+00 0. -1.
          3    1    1    2  501    0 -0.75061342667E+02  0.12670399538E+03  0.53170412409E+03  0.55172219747E+03  0.00000000000E+00 0.  1.
<scales pt_clust_3="45.27769" pt_clust_4="45.27769" pt_clust_5="72.12901" pt_clust_6="143.67042"></scales>
<clustering>
<clus scale="   45.278">  3  4 -1 -1</clus>
<clus scale="   72.129">  1  5  2 -1</clus>
<clus scale="  143.670">  1  6  2 -1</clus>
<clus scale="  154.932">  2  3  1 -1</clus>
</clustering>
</event>
<event>
 6    0  0.1993420E+002  0.1397985E+03  0.7546771E-02  0.1213600E+00
         21   -1    0    0  505  502  0.00000000000E+00  0.00000000000E+00  0.54470202276E+03  0.54470202276E+03  0.00000000000E+00 0.  1.
          2   -1    0    0  503    0 -0.00000000000E+00 -0.00000000000E+00 -0.58002343166E+03  0.58002343166E+03  0.00000000000E+00 0.  1.
         21    1    1    2  503  502  0.59293984953E+02  0.11405315722E+03  0.13341800044E+03  0.18526808188E+03  0.00000000000E+00 0.  1.
         21    1    1    2  504  501 -0.13218928996E+03 -0.43257457745E+02  0.19828866802E+03  0.24220572227E+03  0.00000000000E+00 0.  1.
         21    1    1    2  505  504 -0.49799902659E+02 -0.30927874821E+02  0.15174661473E+03  0.16267636223E+03  0.00000000000E+00 0.  1.
          2    1    1    2  501    0  0.12269520767E+03 -0.39867824657E+02 -0.51877469209E+03  0.53457528804E+03  0.00000000000E+00 0.  1.
<scales pt_clust_3="128.54532" pt_clust_4="34.23809" pt_clust_5="34.23809" pt_clust_6="129.46953"></scales>
<clustering>
<clus scale="   34.238">  4  5 -1 -1</clus>
<clus scale="  128.545">  1  3  2 -1</clus>
<clus scale="  129.470">  2  6  1 -1</clus>
<clus scale="  128.545">  1  3  2 -1</clus>
</clustering>
</event>
<event>
 6    0  0.1993420E+002  0.1086337E+03  0.7546771E-02  0.1263121E+00
         21   -1    0    0  501  502  0.00000000000E+00  0.00000000000E+00  0.32010419617E+03  0.32010419617E+03  0.00000000000E+00 0.  1.
          1   -1    0    0  503    0 -0.00000000000E+00 -0.00000000000E+00 -0.24755527068E+03  0.24755527068E+03  0.00000000000E+00 0.  1.
         21    1    1    2  503  504  0.46974447435E+02  0.50843994070E+02  0.59879430244E+01  0.69480687291E+02  0.00000000000E+00 0.  1.
         21    1    1    2  504  505 -0.40168654300E+02 -0.70570883356E+02  0.16134689097E+03  0.18062831891E+03  0.00000000000E+00 0.  1.
         21    1    1    2  505  502  0.98757109918E+01 -0.39899203088E+02  0.10268206135E+03  0.11060326306E+03  0.00000000000E+00 0.  1.
          1    1    1    2  501    0 -0.16681504127E+02  0.59626092374E+02 -0.19746796986E+03  0.20694719760E+03  0.00000000000E+00 0.  1.
<scales pt_clust_3="99.08598" pt_clust_4="31.68419" pt_clust_5="31.68419" pt_clust_6="61.91562"></scales>
<clustering>
<clus scale="   31.684">  4  5 -1 -1</clus>
<clus scale="   61.916">  2  6  1 -1</clus>
<clus scale="   99.086">  2  3  1 -1</clus>
<clus scale="  108.634">  1  3  2 -1</clus>
</clustering>
</event>
<event>
 6    0  0.1993420E+002  0.1733374E+03  0.7546771E-02  0.1174412E+00
         -3   -1    0    0    0  501 -0.00000000000E+00  0.00000000000E+00  0.17364359637E+03  0.17364359637E+03  0.00000000000E+00 0. -1.
         21   -1    0    0  504  502  0.00000000000E+00 -0.00000000000E+00 -0.58571832232E+03  0.58571832232E+03  0.00000000000E+00 0. -1.
         21    1    1    2  503  502  0.13658348032E+03 -0.62877385961E+01 -0.32390388437E+03  0.35157973358E+03  0.00000000000E+00 0. -1.
         21    1    1    2  504  505 -0.58450572101E+02 -0.41476830233E+02 -0.59160039240E+02  0.92933885467E+02  0.00000000000E+00 0. -1.
         21    1    1    2  505  501 -0.14869316610E+03  0.32997963005E+02 -0.12343747467E+03  0.19604931360E+03  0.00000000000E+00 0. -1.
         -3    1    1    2    0  503  0.70560257881E+02  0.14766605824E+02  0.94426672327E+02  0.11879898605E+03  0.00000000000E+00 0. -1.
<scales pt_clust_3="151.18474" pt_clust_4="58.16246" pt_clust_5="58.16246" pt_clust_6="72.08885"></scales>
<clustering>
<clus scale="   58.162">  4  5 -1 -1</clus>
<clus scale="   72.089">  1  6  2 -1</clus>
<clus scale="  151.185">  2  3  1 -1</clus>
<clus scale="  151.185">  2  3  1 -1</clus>
</clustering>
</event>
<event>
 6    0  0.1993420E+002  0.9993113E+02  0.7546771E-02  0.1280441E+00
         21   -1    0    0  501  502  0.00000000000E+00  0.00000000000E+00  0.73776116468E+02  0.73776116468E+02  0.00000000000E+00 0. -1.
          2   -1    0    0  505    0 -0.00000000000E+00 -0.00000000000E+00 -0.17031957304E+04  0.17031957304E+04  0.00000000000E+00 0. -1.
         21    1    1    2  503  502 -0.48883043761E+02  0.25481497369E+01 -0.10689697016E+02  0.50103040394E+02  0.00000000000E+00 0. -1.
         21    1    1    2  504  503 -0.39088656252E+02 -0.29104094149E+02  0.22021108439E+02  0.53478038116E+02  0.00000000000E+00 0. -1.
         21    1    1    2  505  504  0.33636591984E+02  0.10836093318E+03 -0.20515734182E+03  0.23444199083E+03  0.00000000000E+00 0. -1.
          2    1    1    2  501    0  0.54335108029E+02 -0.81804988770E+02 -0.14355936835E+04  0.14389487775E+04  0.00000000000E+00 0. -1.
<scales pt_clust_3="46.33462" pt_clust_4="46.33462" pt_clust_5="88.48632" pt_clust_6="98.20570"></scales>
<clustering>
<clus scale="   46.335">  3  4 -1 -1</clus>
<clus scale="   98.206">  2  6  1 -1</clus>
<clus scale="   88.486">  2  5  1 -1</clus>
<clus scale="   99.931">  1  3  2 -1</clus>
</clustering>
</event>
<event>
 6    0  0.1993420E+002  0.1098097E+03  0.7546771E-02  0.1260923E+00
          1   -1    0    0  505    0 -0.00000000000E+00  0.00000000000E+00  0.19455135785E+04  0.19455135785E+04  0.00000000000E+00 0.  1.
         21   -1    0    0  504  502  0.00000000000E+00 -0.00000000000E+00 -0.19792684901E+02  0.19792684901E+02  0.00000000000E+00 0.  1.
         21    1    1    2  503  501  0.32765356743E+02 -0.30202182002E+02  0.15370909117E+03  0.16003819890E+03  0.00000000000E+00 0.  1.
         21    1    1    2  504  503  0.30995194019E+02 -0.36219890452E+02  0.59753281874E+02  0.76439761979E+02  0.00000000000E+00 0.  1.
         21    1    1    2  505  502 -0.12850155883E+03  0.44545255637E+02  0.63484074506E+03  0.64924548671E+03  0.00000000000E+00 0.  1.
          1    1    1    2  501    0  0.64741008070E+02  0.21876816818E+02  0.10774177755E+04  0.10795828158E+04  0.00000000000E+00 0.  1.
<scales pt_clust_3="41.90231" pt_clust_4="41.90231" pt_clust_5="100.89515" pt_clust_6="68.33735"></scales>
<clustering>
<clus scale="   41.902">  3  4 -1 -1</clus>
<clus scale="   68.337">  1  6  2 -1</clus>
<clus scale="  100.895">  1  5  2 -1</clus>
<clus scale="  109.810">  2  3  1 -1</clus>
</clustering>
</event>
<event>
 6    0  0.1993420E+002  0.1091102E+03  0.7546771E-02  0.1262227E+00
          1   -1    0    0  503    0 -0.00000000000E+00  0.00000000000E+00  0.12568405010E+04  0.12568405010E+04  0.00000000000E+00 0.  1.
         21   -1    0    0  504  502  0.00000000000E+00 -0.00000000000E+00 -0.72126331420E+02  0.72126331420E+02  0.00000000000E+00 0. -1.
         21    1    1    2  503  502  0.18091661575E+02  0.35496505229E+02  0.63971072508E+02  0.75363175489E+02  0.00000000000E+00 0. -1.
         21    1    1    2  504  505  0.98354914331E+01  0.53374342849E+02  0.45552909207E+01  0.54463823238E+02  0.00000000000E+00 0. -1.
         21    1    1    2  505  501 -0.11172924903E+03 -0.15201738022E+02  0.43806134450E+02  0.12096898505E+03  0.00000000000E+00 0. -1.
          1    1    1    2  501    0  0.83802096021E+02 -0.73669110055E+02  0.10723816717E+04  0.10781708487E+04  0.00000000000E+00 0.  1.
<scales pt_clust_3="39.84106" pt_clust_4="68.75047" pt_clust_5="14000.00000" pt_clust_6="109.11018"></scales>
<clustering>
<clus scale="   39.841">  2  3  1 -1</clus>
<clus scale="   68.750">  2  4  1 -1</clus>
<clus scale="  109.110">  1  6  2 -1</clus>
<clus scale="   39.841">  2  3  1 -1</clus>
</clustering>
</event>
<event>
 6    0  0.1993420E+002  0.2036672E+03  0.7546771E-02  0.1146681E+00
         21   -1    0    0  505  502  0.00000000000E+00  0.00000000000E+00  0.19772082786E+03  0.19772082786E+03  0.00000000000E+00 0. -1.
          2   -1    0    0  503    0 -0.00000000000E+00 -0.00000000000E+00 -0.65054208798E+03  0.65054208798E+03  0.00000000000E+00 0.  1.
         21    1    1    2  503  504  0.81707347254E+02 -0.65801433055E+02  0.26141189016E+02  0.10811697809E+03  0.00000000000E+00 0. -1.
         21    1    1    2  504  502  0.17907596975E+02 -0.56827358271E+02  0.23096649677E+02  0.63902158835E+02  0.00000000000E+00 0. -1.
         21    1    1    2  505  501  0.80247396830E+02  0.20746839488E+02  0.42947770410E+02  0.93351952469E+02  0.00000000000E+00 0. -1.
          2    1    1    2  501    0 -0.17986234106E+03  0.10188195184E+03 -0.54500686923E+03  0.58289182645E+03  0.00000000000E+00 0.  1.
<scales pt_clust_3="35.39007" pt_clust_4="35.39007" pt_clust_5="82.88592" pt_clust_6="198.17941"></scales>
<clustering>
<clus scale="   35.390">  3  4 -1 -1</clus>
<clus scale="   82.886">  1  5  2 -1</clus>
<clus scale="  198.179">  2  6  1 -1</clus>
<clus scale="   82.886">  1  3  2 -1</clus>
</clustering>
</event>
<event>
 6    0  0.1993420E+002  0.1185751E+03  0.7546771E-02  0.1245466E+00
         21   -1    0    0  501  502  0.00000000000E+00  0.00000000000E+00  0.15641542564E+04  0.15641542564E+04  0.00000000000E+00 0.  1.
         -2   -1    0    0    0  501 -0.00000000000E+00 -0.00000000000E+00 -0.37898755590E+02  0.37898755590E+02  0.00000000000E+00 0. -1.
         21    1    1    2  503  502 -0.37791012043E+02  0.10914831831E+03  0.12231308056E+04  0.12285725390E+04  0.00000000000E+00 0.  1.
         21    1    1    2  504  503  0.38392747961E+02 -0.30526014370E+02  0.97484833581E+02  0.10912897611E+03  0.00000000000E+00 0.  1.
         21    1    1    2  505  504  0.27066799650E+02 -0.51337026964E+02  0.21638628462E+03  0.22403376119E+03  0.00000000000E+00 0. -1.
         -2    1    1    2    0  505 -0.27668535568E+02 -0.27285276979E+02 -0.10746423025E+02  0.40317735652E+02  0.00000000000E+00 0. -1.
<scales pt_clust_3="112.09033" pt_clust_4="35.55578" pt_clust_5="35.55578" pt_clust_6="38.85916"></scales>
<clustering>
<clus scale="   35.556">  4  5 -1 -1</clus>
<clus scale="   38.859">  2  6  1 -1</clus>
<clus scale="  112.090">  1  3  2 -1</clus>
<clus scale="  112.090">  1  3  2 -1</clus>
</clustering>
</event>
<event>
 6    0  0.1993420E+002  0.1183166E+03  0.7546771E-02  0.1245900E+00
          2   -1    0    0  505    0 -0.00000000000E+00  0.00000000000E+00  0.35595880292E+04  0.35595880292E+04  0.00000000000E+00 0. -1.
         21   -1    0    0  504  502  0.00000000000E+00 -0.00000000000E+00 -0.10153872290E+03  0.10153872290E+03  0.00000000000E+00 0.  1.
         21    1    1    2  503  501 -0.12527808396E+03  0.22374724507E+02  0.18755019110E+03  0.22665017274E+03  0.00000000000E+00 0.  1.
         21    1    1    2  504  503  0.31404504312E+02  0.45898261172E+02  0.16177234895E+01  0.55637310314E+02  0.00000000000E+00 0.  1.
         21    1    1    2  505  502  0.95819743962E+02 -0.14656375496E+02 -0.11861955123E+02  0.97657250909E+02  0.00000000000E+00 0.  1.
          2    1    1    2  501    0 -0.19461643106E+01 -0.53616610182E+02  0.32807433468E+04  0.32811820181E+04  0.00000000000E+00 0. -1.
<scales pt_clust_3="118.31657" pt_clust_4="51.03946" pt_clust_5="14000.00000" pt_clust_6="53.65192"></scales>
<clustering>
<clus scale="   53.652">  1  6  2 -1</clus>
<clus scale="   51.039">  2  4  1 -1</clus>
<clus scale="  118.317">  1  3  2 -1</clus>
<clus scale="   51.039">  2  3  1 -1</clus>
</clustering>
</event>
<event>
 6    0  0.1993420E+002  0.1104003E+03  0.7546771E-02  0.1259830E+00
         21   -1    0    0  503  502  0.00000000000E+00  0.00000000000E+00  0.26115721820E+02  0.26115721820E+02  0.00000000000E+00 0.  1.
         -1   -1    0    0    0  501 -0.00000000000E+00 -0.00000000000E+00 -0.12016385383E+04  0.12016385383E+04  0.00000000000E+00 0. -1.
         21    1    1    2  503  504  0.20069636951E+02  0.40270518769E+02 -0.14093918983E+03  0.14794715353E+03  0.00000000000E+00 0.  1.
         21    1    1    2  504  501  0.40795012427E+02  0.58459560509E+02 -0.79441497134E+02  0.10673661378E+03  0.00000000000E+00 0.  1.
         21    1    1    2  505  502 -0.75638513796E+02 -0.38380956037E+02 -0.22778200195E+03  0.24306156209E+03  0.00000000000E+00 0.  1.
         -1    1    1    2    0  505  0.14773864418E+02 -0.60349123242E+02 -0.72736012761E+03  0.73000893075E+03  0.00000000000E+00 0. -1.
<scales pt_clust_3="42.36861" pt_clust_4="42.36861" pt_clust_5="96.66537" pt_clust_6="62.13118"></scales>
<clustering>
<clus scale="   42.369">  3  4 -1 -1</clus>
<clus scale="   62.131">  2  6  1 -1</clus>
<clus scale="   96.665">  2  5  1 -1</clus>
<clus scale="  110.400">  1  3  2 -1</clus>
</clustering>
</event>
<event>
 6    0  0.1993420E+002  0.1178262E+03  0.7546771E-02  0.1246727E+00
         21   -1    0    0  503  502  0.00000000000E+00  0.00000000000E+00  0.28938920797E+03  0.28938920797E+03  0.00000000000E+00 0.  1.
          2   -1    0    0  504    0 -0.00000000000E+00 -0.00000000000E+00 -0.45383625845E+03  0.45383625845E+03  0.00000000000E+00 0.  1.
         21    1    1    2  503  501 -0.55345590340E+02 -0.17888107913E+02  0.15194614304E+02  0.60116512529E+02  0.00000000000E+00 0.  1.
         21    1    1    2  504  505  0.10422234930E+03 -0.87263694325E+01  0.10847420867E+03  0.15068212092E+03  0.00000000000E+00 0.  1.
         21    1    1    2  505  502  0.58571666032E+02  0.14807677460E+02  0.10695307227E+03  0.12283674956E+03  0.00000000000E+00 0.  1.
          2    1    1    2  501    0 -0.10744842499E+03  0.11806799885E+02 -0.39506894573E+03  0.40959008342E+03  0.00000000000E+00 0.  1.
<scales pt_clust_3="58.16458" pt_clust_4="32.82056" pt_clust_5="32.82056" pt_clust_6="109.62771"></scales>
<clustering>
<clus scale="   32.821">  4  5 -1 -1</clus>
<clus scale="   58.165">  1  3  2 -1</clus>
<clus scale="  109.628">  2  6  1 -1</clus>
<clus scale="   58.165">  1  3  2 -1</clus>
</clustering>
</event>
<event>
 6    0  0.1993420E+002  0.2783695E+03  0.7546771E-02  0.1096583E+00
         21   -1    0    0  505  502  0.00000000000E+00  0.00000000000E+00  0.76749978677E+02  0.76749978677E+02  0.00000000000E+00 0.  1.
          2   -1    0    0  504    0 -0.00000000000E+00 -0.00000000000E+00 -0.48874394737E+04  0.48874394737E+04  0.00000000000E+00 0.  1.
         21    1    1    2  503  502  0.52981075514E+02  0.94245979229E+02 -0.20509267342E+03  0.23184543052E+03  0.00000000000E+00 0.  1.
         21    1    1    2  504  503  0.11015625690E+03  0.92686011955E+02 -0.70821079835E+03  0.72269470224E+03  0.00000000000E+00 0.  1.
         21    1    1    2  505  501 -0.23866614595E+03 -0.93315809060E+02 -0.24258505534E+03  0.35286949219E+03  0.00000000000E+00 0.  1.
          2    1    1    2  501    0  0.75528813540E+02 -0.93616182125E+02 -0.36548009679E+04  0.36567798274E+04  0.00000000000E+00 0.  1.
<scales pt_clust_3="107.77445" pt_clust_4="107.77445" pt_clust_5="249.04482" pt_clust_6="120.28546"></scales>
<clustering>
<clus scale="  107.774">  3  4 -1 -1</clus>
<clus scale="  120.285">  2  6  1 -1</clus>
<clus scale="  249.045">  1  5  2 -1</clus>
<clus scale="  249.045">  1  3  2 -1</clus>
</clustering>
</event>
<event>
 6    0  0.1993420E+002  0.1535587E+03  0.7546771E-02  0.1196167E+00
         21   -1    0    0  504  502  0.00000000000E+00  0.00000000000E+00  0.16427041036E+03  0.16427041036E+03  0.00000000000E+00 0.  1.
          2   -1    0    0  503    0 -0.00000000000E+00 -0.00000000000E+00 -0.10254264869E+04  0.10254264869E+04  0.00000000000E+00 0.  1.
         21    1    1    2  503  502 -0.67551086197E+02 -0.61721578163E+01 -0.17009647698E+03  0.18312306316E+03  0.00000000000E+00 0.  1.
         21    1    1    2  504  505  0.27529530607E+02 -0.64032352929E+02  0.47828051412E+02  0.84531294672E+02  0.00000000000E+00 0.  1.
         21    1    1    2  505  501 -0.22705802904E+02 -0.80469017028E+02  0.62382956842E+02  0.10431897954E+03  0.00000000000E+00 0.  1.
          2    1    1    2  501    0  0.62727358494E+02  0.15067352777E+03 -0.80127060777E+03  0.81772355986E+03  0.00000000000E+00 0.  1.
<scales pt_clust_3="67.83248" pt_clust_4="46.68092" pt_clust_5="46.68092" pt_clust_6="144.79720"></scales>
<clustering>
<clus scale="   46.681">  4  5 -1 -1</clus>
<clus scale="   67.832">  2  3  1 -1</clus>
<clus scale="  144.797">  2  6  1 -1</clus>
<clus scale="  153.559">  1  3  2 -1</clus>
</clustering>
</event>
<event>
 6    0  0.4393631E+002  0.9971005E+02  0.7546771E-02  0.1280907E+00
          2   -1    0    0  503    0 -0.00000000000E+00  0.00000000000E+00  0.39358203106E+04  0.39358203106E+04  0.00000000000E+00 0.  1.
         21   -1    0    0  504  502  0.00000000000E+00 -0.00000000000E+00 -0.13850586152E+03  0.13850586152E+03  0.00000000000E+00 0.  1.
         21    1    1    2  503  502  0.30792079921E+02 -0.10152158108E+02  0.25302373342E+02  0.41126981373E+02  0.00000000000E+00 0.  1.
         21    1    1    2  504  505 -0.33964433012E+02  0.45629699265E+02 -0.10769278761E+03  0.12179239988E+03  0.00000000000E+00 0.  1.
         21    1    1    2  505  501  0.66439632148E+01  0.65666044592E+02  0.56554282741E+02  0.86916963568E+02  0.00000000000E+00 0.  1.
          2    1    1    2  501    0 -0.34716101236E+01 -0.10114358575E+03  0.38231505806E+04  0.38244898273E+04  0.00000000000E+00 0.  1.
<scales pt_clust_3="32.42250" pt_clust_4="37.35442" pt_clust_5="14000.00000" pt_clust_6="99.71005"></scales>
<clustering>
<clus scale="   32.422">  2  3  1 -1</clus>
<clus scale="   37.354">  2  4  1 -1</clus>
<clus scale="   99.710">  1  6  2 -1</clus>
<clus scale="   32.422">  2  3  1 -1</clus>
</clustering>
</event>
<event>
 6    0  0.1993420E+002  0.8300541E+02  0.7546771E-02  0.1320733E+00
         -2   -1    0    0    0  501 -0.00000000000E+00  0.00000000000E+00  0.33435605459E+03  0.33435605459E+03  0.00000000000E+00 0.  1.
         21   -1    0    0  503  502  0.00000000000E+00 -0.00000000000E+00 -0.13881405505E+03  0.13881405505E+03  0.00000000000E+00 0.  1.
         21    1    1    2  503  505 -0.57011417639E+02  0.61640102055E+02 -0.24801479985E+02  0.87549513602E+02  0.00000000000E+00 0.  1.
         21    1    1    2  504  502  0.50007321875E+02 -0.64964349447E+02 -0.26108434747E+01  0.82023871183E+02  0.00000000000E+00 0. -1.
         21    1    1    2  505  501  0.49740411016E+02  0.33164824674E+02 -0.13647910431E+02  0.61321118245E+02  0.00000000000E+00 0.  1.
         -2    1    1    2    0  504 -0.42736315252E+02 -0.29840577282E+02  0.23660223343E+03  0.24227560660E+03  0.00000000000E+00 0.  1.
<scales pt_clust_3="83.00541" pt_clust_4="14000.00000" pt_clust_5="46.69713" pt_clust_6="52.12344"></scales>
<clustering>
<clus scale="   52.123">  1  6  2 -1</clus>
<clus scale="   46.697">  1  5  2 -1</clus>
<clus scale="   83.005">  2  3  1 -1</clus>
<clus scale="   83.005">  2  3  1 -1</clus>
</clustering>
</event>
<event>
 6    0  0.1993420E+002  0.2211955E+03  0.7546771E-02  0.1132995E+00
         21   -1    0    0  504  502  0.00000000000E+00  0.00000000000E+00  0.31278508005E+03  0.31278508005E+03  0.00000000000E+00 0.  1.
          2   -1    0    0  503    0 -0.00000000000E+00 -0.00000000000E+00 -0.76433641759E+03  0.76433641759E+03  0.00000000000E+00 0.  1.
         21    1    1    2  503  505 -0.78448450604E+02 -0.57356009534E+01  0.11467943894E+03  0.13906268456E+03  0.00000000000E+00 0.  1.
         21    1    1    2  504  501 -0.48080781214E+01 -0.29725714212E+02 -0.75778667165E-01  0.30112147765E+02  0.00000000000E+00 0. -1.
         21    1    1    2  505  502 -0.12295858448E+03  0.68835201512E+02  0.12348333360E+03  0.18736390299E+03  0.00000000000E+00 0.  1.
          2    1    1    2  501    0  0.20621511321E+03 -0.33373886347E+02 -0.68963833142E+03  0.72058276233E+03  0.00000000000E+00 0.  1.
<scales pt_clust_3="56.58620" pt_clust_4="30.11205" pt_clust_5="56.58620" pt_clust_6="208.90427"></scales>
<clustering>
<clus scale="   30.112">  1  4  2 -1</clus>
<clus scale="   56.586">  3  5 -1 -1</clus>
<clus scale="  208.904">  2  6  1 -1</clus>
<clus scale="   30.112">  1  3  2 -1</clus>
</clustering>
</event>
<event>
 6    0  0.1993420E+002  0.7969204E+02  0.7546771E-02  0.1329928E+00
          2   -1    0    0  504    0 -0.00000000000E+00  0.00000000000E+00  0.20760288704E+04  0.20760288704E+04  0.00000000000E+00 0. -1.
         21   -1    0    0  503  502  0.00000000000E+00 -0.00000000000E+00 -0.20122167050E+02  0.20122167050E+02  0.00000000000E+00 0.  1.
         21    1    1    2  503  501 -0.67856511970E+02  0.96777295876E+01  0.72743134019E+02  0.99948627873E+02  0.00000000000E+00 0.  1.
         21    1    1    2  504  505 -0.30704623937E+02  0.26761095909E+01  0.30453684930E+03  0.30609251555E+03  0.00000000000E+00 0. -1.
         21    1    1    2  505  502  0.22573813765E+02  0.56016888002E+02  0.22725821291E+03  0.23514626117E+03  0.00000000000E+00 0.  1.
          2    1    1    2  501    0  0.75987322142E+02 -0.68370727181E+02  0.14513685071E+04  0.14549636328E+04  0.00000000000E+00 0. -1.
<scales pt_clust_3="14000.00000" pt_clust_4="30.82102" pt_clust_5="59.34483" pt_clust_6="79.69204"></scales>
<clustering>
<clus scale="   30.821">  1  4  2 -1</clus>
<clus scale="   59.345">  2  5  1 -1</clus>
<clus scale="   79.692">  1  6  2 -1</clus>
<clus scale="   59.345">  2  3  1 -1</clus>
</clustering>
</event>
<event>
 6    0  0.1993420E+002  0.1142444E+03  0.7546771E-02  0.1252906E+00
         21   -1    0    0  504  502  0.00000000000E+00  0.00000000000E+00  0.44859222055E+03  0.44859222055E+03  0.00000000000E+00 0.  1.
          2   -1    0    0  505    0 -0.00000000000E+00 -0.00000000000E+00 -0.76650020435E+03  0.76650020435E+03  0.00000000000E+00 0. -1.
         21    1    1    2  503  501 -0.44120389838E+02 -0.39439763067E+02  0.12572560053E+03  0.13895693700E+03  0.00000000000E+00 0.  1.
         21    1    1    2  504  503  0.14672149957E+02 -0.54443204443E+02  0.28906042034E+03  0.29450850769E+03  0.00000000000E+00 0.  1.
         21    1    1    2  505  502 -0.35878970117E+02 -0.22142394837E+01  0.36856286609E+01  0.36135677824E+02  0.00000000000E+00 0. -1.
          2    1    1    2  501    0  0.65327209998E+02  0.96097206993E+02 -0.73637963333E+03  0.74549130239E+03  0.00000000000E+00 0. -1.
<scales pt_clust_3="114.24437" pt_clust_4="56.79335" pt_clust_5="35.94723" pt_clust_6="14000.00000"></scales>
<clustering>
<clus scale="   35.947">  1  5  2 -1</clus>
<clus scale="   56.793">  1  4  2 -1</clus>
<clus scale="  114.244">  1  3  2 -1</clus>
<clus scale="   35.947">  1  3  2 -1</clus>
</clustering>
</event>
<event>
 6    0  0.1993420E+002  0.1722131E+03  0.7546771E-02  0.1175559E+00
         21   -1    0    0  501  502  0.00000000000E+00  0.00000000000E+00  0.12651626380E+04  0.12651626380E+04  0.00000000000E+00 0.  1.
          2   -1    0    0  505    0 -0.00000000000E+00 -0.00000000000E+00 -0.72010668067E+02  0.72010668067E+02  0.00000000000E+00 0.  1.
         21    1    1    2  503  502 -0.48165286230E+02  0.59722416361E+02  0.42936261244E+03  0.43616386230E+03  0.00000000000E+00 0.  1.
         21    1    1    2  504  503  0.14067496451E+02  0.75040943669E+02  0.35392021663E+03  0.36206153817E+03  0.00000000000E+00 0.  1.
         21    1    1    2  505  504  0.32583173088E+02  0.42464275650E+02  0.34667806811E+03  0.35078563366E+03  0.00000000000E+00 0. -1.
          2    1    1    2  501    0  0.15146166900E+01 -0.17722763568E+03  0.63191072785E+02  0.18816227197E+03  0.00000000000E+00 0.  1.
<scales pt_clust_3="76.72458" pt_clust_4="30.52816" pt_clust_5="30.52816" pt_clust_6="168.30918"></scales>
<clustering>
<clus scale="   30.528">  4  5 -1 -1</clus>
<clus scale="   76.725">  1  3  2 -1</clus>
<clus scale="  168.309">  2  6  1 -1</clus>
<clus scale="   76.725">  1  3  2 -1</clus>
</clustering>
</event>
<event>
 6    0  0.1993420E+002  0.2675110E+03  0.7546771E-02  0.1102713E+00
          4   -1    0    0  504    0 -0.00000000000E+00  0.00000000000E+00  0.13313347355E+03  0.13313347355E+03  0.00000000000E+00 0.  1.
         21   -1    0    0  501  502  0.00000000000E+00 -0.00000000000E+00 -0.11840902879E+04  0.11840902879E+04  0.00000000000E+00 0.  1.
         21    1    1    2  503  502 -0.25161752618E+02  0.22509678190E+02 -0.23681405507E+03  0.23920847829E+03  0.00000000000E+00 0.  1.
         21    1    1    2  504  505  0.59600922684E+02  0.31912696403E+02 -0.74977504419E+02  0.10095700246E+03  0.00000000000E+00 0. -1.
         21    1    1    2  505  503 -0.15753857364E+03  0.18928808780E+03 -0.64139001752E+03  0.68704405749E+03  0.00000000000E+00 0.  1.
          4    1    1    2  501    0  0.12309940357E+03 -0.24371046240E+03 -0.97775237398E+02  0.29001422325E+03  0.00000000000E+00 0.  1.
<scales pt_clust_3="33.76092" pt_clust_4="66.59766" pt_clust_5="14000.00000" pt_clust_6="267.51102"></scales>
<clustering>
<clus scale="   33.761">  2  3  1 -1</clus>
<clus scale="   66.598">  1  4  2 -1</clus>
<clus scale="  267.511">  1  6  2 -1</clus>
<clus scale="   33.761">  2  3  1 -1</clus>
</clustering>
</event>
<event>
 6    0  0.1993420E+002  0.1666555E+03  0.7546771E-02  0.1181381E+00
         21   -1    0    0  504  502  0.00000000000E+00  0.00000000000E+00  0.44920032618E+03  0.44920032618E+03  0.00000000000E+00 0.  1.
          2   -1    0    0  503    0 -0.00000000000E+00 -0.00000000000E+00 -0.31720016304E+03  0.31720016304E+03  0.00000000000E+00 0. -1.
         21    1    1    2  503  505  0.24342675940E+01 -0.95681123098E+02  0.22905573454E+03  0.24824852970E+03  0.00000000000E+00 0.  1.
         21    1    1    2  504  501 -0.43540543390E+02  0.99696104896E+01  0.42674337693E+02  0.61775975505E+02  0.00000000000E+00 0.  1.
         21    1    1    2  505  502 -0.32243775994E+02 -0.57753630257E+02  0.12789616450E+03  0.14398809600E+03  0.00000000000E+00 0.  1.
          2    1    1    2  501    0  0.73350051790E+02  0.14346514287E+03 -0.26762607358E+03  0.31238788801E+03  0.00000000000E+00 0. -1.
<scales pt_clust_3="37.21538" pt_clust_4="44.66735" pt_clust_5="37.21538" pt_clust_6="160.53031"></scales>
<clustering>
<clus scale="   37.215">  3  5 -1 -1</clus>
<clus scale="   44.667">  1  4  2 -1</clus>
<clus scale="  160.530">  2  6  1 -1</clus>
<clus scale="   44.667">  1  3  2 -1</clus>
</clustering>
</event>
<event>
 6    0  0.1993420E+002  0.1408565E+03  0.7546771E-02  0.1212181E+00
         21   -1    0    0  504  502  0.00000000000E+00  0.00000000000E+00  0.32544554617E+03  0.32544554617E+03  0.00000000000E+00 0.  1.
          1   -1    0    0  503    0 -0.00000000000E+00 -0.00000000000E+00 -0.10550415166E+04  0.10550415166E+04  0.00000000000E+00 0.  1.
         21    1    1    2  503  502  0.21252772307E+03 -0.13116470847E+03  0.17287261860E+03  0.30373863120E+03  0.00000000000E+00 0.  1.
         21    1    1    2  504  505 -0.31681634624E+02  0.51771578491E+02  0.37636717788E+02  0.71418098811E+02  0.00000000000E+00 0.  1.
         21    1    1    2  505  501 -0.41619129659E+02  0.81982048830E+02 -0.50509790470E+02  0.10490208395E+03  0.00000000000E+00 0.  1.
          1    1    1    2  501    0 -0.13922695879E+03 -0.25889188519E+01 -0.88959551639E+03  0.90042824885E+03  0.00000000000E+00 0.  1.
<scales pt_clust_3="140.85648" pt_clust_4="60.69615" pt_clust_5="98.01631" pt_clust_6="14000.00000"></scales>
<clustering>
<clus scale="   60.696">  1  4  2 -1</clus>
<clus scale="   98.016">  1  5  2 -1</clus>
<clus scale="  140.856">  1  3  2 -1</clus>
<clus scale="   60.696">  1  3  2 -1</clus>
</clustering>
</event>
<event>
 6    0  0.1993420E+002  0.1142370E+03  0.7546771E-02  0.1252919E+00
          2   -1    0    0  504    0 -0.00000000000E+00  0.00000000000E+00  0.35539502788E+04  0.35539502788E+04  0.00000000000E+00 0. -1.
         21   -1    0    0  503  502  0.00000000000E+00 -0.00000000000E+00 -0.39941507917E+02  0.39941507917E+02  0.00000000000E+00 0.  1.
         21    1    1    2  503  505  0.36928631983E+02 -0.65765542720E+02  0.28386574430E+03  0.29371515326E+03  0.00000000000E+00 0. -1.
         21    1    1    2  504  502  0.30647678932E+02 -0.38918609223E+02  0.68222440356E+03  0.68402052248E+03  0.00000000000E+00 0. -1.
         21    1    1    2  505  501 -0.72984454478E+02  0.17836490630E+03  0.24342173813E+03  0.31047530174E+03  0.00000000000E+00 0.  1.
          2    1    1    2  501    0  0.54081435630E+01 -0.73680754357E+02  0.23044968849E+04  0.23056808092E+04  0.00000000000E+00 0. -1.
<scales pt_clust_3="80.35117" pt_clust_4="49.53724" pt_clust_5="114.23696" pt_clust_6="14000.00000"></scales>
<clustering>
<clus scale="   49.537">  1  4  2 -1</clus>
<clus scale="   80.351">  2  3  1 -1</clus>
<clus scale="  114.237">  2  5  1 -1</clus>
<clus scale="   80.351">  2  3  1 -1</clus>
</clustering>
</event>
<event>
 6    0  0.1993420E+002  0.1082890E+03  0.7546771E-02  0.1263772E+00
          2   -1    0    0  504    0 -0.00000000000E+00  0.00000000000E+00  0.11119289915E+04  0.11119289915E+04  0.00000000000E+00 0.  1.
         21   -1    0    0  503  502  0.00000000000E+00 -0.00000000000E+00 -0.75596941672E+02  0.75596941672E+02  0.00000000000E+00 0.  1.
         21    1    1    2  503  501  0.70973035314E+01 -0.45343861504E+02  0.77386441694E+02  0.89972767278E+02  0.00000000000E+00 0.  1.
         21    1    1    2  504  505 -0.34066689855E+02  0.43096808748E+02 -0.14409072938E+02  0.56793447376E+02  0.00000000000E+00 0.  1.
         21    1    1    2  505  502 -0.47572993873E+02  0.68757324573E+02  0.25156398132E+02  0.87313250973E+02  0.00000000000E+00 0.  1.
          2    1    1    2  501    0  0.74542380196E+02 -0.66510271817E+02  0.94819828295E+03  0.95344646756E+03  0.00000000000E+00 0.  1.
<scales pt_clust_3="45.89594" pt_clust_4="31.12922" pt_clust_5="31.12922" pt_clust_6="101.25042"></scales>
<clustering>
<clus scale="   31.129">  4  5 -1 -1</clus>
<clus scale="   45.896">  2  3  1 -1</clus>
<clus scale="  101.250">  1  6  2 -1</clus>
<clus scale="   45.896">  2  3  1 -1</clus>
</clustering>
</event>
<event>
 6    0  0.1993420E+002  0.9462647E+02  0.7546771E-02  0.1292020E+00
         21   -1    0    0  503  502  0.00000000000E+00  0.00000000000E+00  0.24923070835E+03  0.24923070835E+03  0.00000000000E+00 0.  1.
          1   -1    0    0  505    0 -0.00000000000E+00 -0.00000000000E+00 -0.19117604276E+04  0.19117604276E+04  0.00000000000E+00 0.  1.
         21    1    1    2  503  501 -0.31747397373E+02  0.14025586688E+03  0.10824776319E+03  0.17999217669E+03  0.00000000000E+00 0.  1.
         21    1    1    2  504  502 -0.19654165992E+02 -0.25451963358E+02  0.62114613089E+02  0.69945077302E+02  0.00000000000E+00 0.  1.
         21    1    1    2  505  504  0.38780103863E+02 -0.21429420665E+02  0.24933200774E+02  0.50840741797E+02  0.00000000000E+00 0. -1.
          1    1    1    2  501    0  0.12621459502E+02 -0.93374482854E+02 -0.18578252963E+04  0.18602131402E+04  0.00000000000E+00 0.  1.
<scales pt_clust_3="14000.00000" pt_clust_4="32.15725" pt_clust_5="43.79138" pt_clust_6="94.62647"></scales>
<clustering>
<clus scale="   32.157">  1  4  2 -1</clus>
<clus scale="   43.791">  1  5  2 -1</clus>
<clus scale="   94.626">  2  6  1 -1</clus>
<clus scale="   32.157">  1  3  2 -1</clus>
</clustering>
</event>
<event>
 6    0  0.1993420E+002  0.9222491E+02  0.7546771E-02  0.1297551E+00
          3   -1    0    0  505    0 -0.00000000000E+00  0.00000000000E+00  0.96929044793E+02  0.96929044793E+02  0.00000000000E+00 0.  1.
         21   -1    0    0  504  502  0.00000000000E+00 -0.00000000000E+00 -0.47511277329E+04  0.47511277329E+04  0.00000000000E+00 0.  1.
         21    1    1    2  503  502 -0.23882986575E+02 -0.69003333743E+02 -0.10360336896E+04  0.10386037084E+04  0.00000000000E+00 0.  1.
         21    1    1    2  504  501  0.11000666846E+03  0.50044645742E+02 -0.34686268438E+04  0.34707316397E+04  0.00000000000E+00 0.  1.
         21    1    1    2  505  503 -0.50676786212E+02  0.11159116437E+01 -0.23716813328E+03  0.24252444281E+03  0.00000000000E+00 0.  1.
          3    1    1    2  501    0 -0.35446895671E+02  0.17842776357E+02  0.87629978652E+02  0.96196986643E+02  0.00000000000E+00 0.  1.
<scales pt_clust_3="92.22491" pt_clust_4="14000.00000" pt_clust_5="70.41338" pt_clust_6="39.68434"></scales>
<clustering>
<clus scale="   39.684">  1  6  2 -1</clus>
<clus scale="   70.413">  1  5  2 -1</clus>
<clus scale="   92.225">  1  3  2 -1</clus>
<clus scale="   92.225">  2  3  1 -1</clus>
</clustering>
</event>
<event>
 6    0  0.1993420E+002  0.9677447E+02  0.7546771E-02  0.1287229E+00
          3   -1    0    0  504    0 -0.00000000000E+00  0.00000000000E+00  0.42714985844E+03  0.42714985844E+03  0.00000000000E+00 0. -1.
         21   -1    0    0  503  502  0.00000000000E+00 -0.00000000000E+00 -0.14340697289E+03  0.14340697289E+03  0.00000000000E+00 0. -1.
         21    1    1    2  503  505 -0.13191771726E+02 -0.61248304072E+02 -0.48653568266E+01  0.62841461552E+02  0.00000000000E+00 0. -1.
         21    1    1    2  504  502  0.97464711550E+02  0.64831415172E+02 -0.15099643442E+02  0.11802746131E+03  0.00000000000E+00 0. -1.
         21    1    1    2  505  501 -0.10242391172E+03  0.47085550383E+02  0.38572807339E+02  0.11914515606E+03  0.00000000000E+00 0. -1.
          3    1    1    2  501    0  0.18150971896E+02 -0.50668661483E+02  0.26513507848E+03  0.27054275240E+03  0.00000000000E+00 0. -1.
<scales pt_clust_3="71.15842" pt_clust_4="14000.00000" pt_clust_5="96.77447" pt_clust_6="53.82166"></scales>
<clustering>
<clus scale="   53.822">  1  6  2 -1</clus>
<clus scale="   71.158">  2  3  1 -1</clus>
<clus scale="   96.774">  1  5  2 -1</clus>
<clus scale="   71.158">  2  3  1 -1</clus>
</clustering>
</event>
<event>
 6    0  0.1993420E+002  0.1593957E+03  0.7546771E-02  0.1189381E+00
         21   -1    0    0  505  502  0.00000000000E+00  0.00000000000E+00  0.11205126610E+03  0.11205126610E+03  0.00000000000E+00 0. -1.
          2   -1    0    0  503    0 -0.00000000000E+00 -0.00000000000E+00 -0.25403595381E+04  0.25403595381E+04  0.00000000000E+00 0.  1.
         21    1    1    2  503  504 -0.98009228561E+01 -0.36686009453E+02 -0.15287909943E+03  0.15752441214E+03  0.00000000000E+00 0.  1.
         21    1    1    2  504  502 -0.23723945373E+02 -0.43705387937E+02 -0.14314848990E+02  0.51748443652E+02  0.00000000000E+00 0.  1.
         21    1    1    2  505  501 -0.13584058770E+03  0.26638462059E+02  0.32874168298E+02  0.14227784040E+03  0.00000000000E+00 0. -1.
          2    1    1    2  501    0  0.16936545593E+03  0.53752935331E+02 -0.22939884918E+04  0.23008601080E+04  0.00000000000E+00 0.  1.
<scales pt_clust_3="37.97264" pt_clust_4="50.24055" pt_clust_5="14000.00000" pt_clust_6="159.39569"></scales>
<clustering>
<clus scale="   37.973">  2  3  1 -1</clus>
<clus scale="   50.241">  1  4  2 -1</clus>
<clus scale="  159.396">  2  6  1 -1</clus>
<clus scale="   50.241">  1  3  2 -1</clus>
</clustering>
</event>
<event>
 6    0  0.1993420E+002  0.1266483E+03  0.7546771E-02  0.1232516E+00
          2   -1    0    0  502    0 -0.00000000000E+00  0.00000000000E+00  0.12022473042E+03  0.12022473042E+03  0.00000000000E+00 0.  1.
         21   -1    0    0  504  502  0.00000000000E+00 -0.00000000000E+00 -0.10619544335E+04  0.10619544335E+04  0.00000000000E+00 0.  1.
         21    1    1    2  503  505  0.29331893962E+02  0.13592489155E+03 -0.25989433081E+03  0.29475583002E+03  0.00000000000E+00 0.  1.
         21    1    1    2  504  503 -0.99968287092E+02 -0.83384535451E+02 -0.57396960586E+03  0.58854714987E+03  0.00000000000E+00 0.  1.
         21    1    1    2  505  501  0.10622581218E+03 -0.89880699975E+01 -0.17891016503E+03  0.20826318860E+03  0.00000000000E+00 0.  1.
          2    1    1    2  501    0 -0.35589419050E+02 -0.43552286100E+02  0.71044398595E+02  0.90612995451E+02  0.00000000000E+00 0.  1.
<scales pt_clust_3="14000.00000" pt_clust_4="126.64829" pt_clust_5="96.32565" pt_clust_6="56.24419"></scales>
<clustering>
<clus scale="   56.244">  1  6  2 -1</clus>
<clus scale="   96.326">  1  5  2 -1</clus>
<clus scale="  126.648">  2  4  1 -1</clus>
<clus scale="  126.648">  2  3  1 -1</clus>
</clustering>
</event>
<event>
 6    0  0.1993420E+002  0.1141490E+03  0.7546771E-02  0.1253074E+00
         -2   -1    0    0    0  501 -0.00000000000E+00  0.00000000000E+00  0.49951675932E+03  0.49951675932E+03  0.00000000000E+00 0. -1.
         21   -1    0    0  504  502  0.00000000000E+00 -0.00000000000E+00 -0.27396932836E+03  0.27396932836E+03  0.00000000000E+00 0. -1.
         21    1    1    2  503  502  0.75547581627E+02 -0.51545614633E+02 -0.18042532773E+03  0.20228120616E+03  0.00000000000E+00 0. -1.
         21    1    1    2  504  501 -0.58908661274E+02  0.17431237025E+02  0.10742769785E+02  0.62365739793E+02  0.00000000000E+00 0. -1.
         21    1    1    2  505  503  0.22125396425E+02 -0.48907808123E+02 -0.38165255869E+02  0.65864205893E+02  0.00000000000E+00 0. -1.
         -2    1    1    2    0  505 -0.38764316778E+02  0.83022185731E+02  0.43339524477E+03  0.44297493583E+03  0.00000000000E+00 0. -1.
<scales pt_clust_3="51.33124" pt_clust_4="61.43353" pt_clust_5="51.33124" pt_clust_6="92.41634"></scales>
<clustering>
<clus scale="   51.331">  3  5 -1 -1</clus>
<clus scale="   61.434">  2  4  1 -1</clus>
<clus scale="   92.416">  1  6  2 -1</clus>
<clus scale="   61.434">  2  3  1 -1</clus>
</clustering>
</event>
<event>
 6    0  0.1993420E+002  0.2387031E+03  0.7546771E-02  0.1120660E+00
         21   -1    0    0  504  502  0.00000000000E+00  0.00000000000E+00  0.98284378876E+03  0.98284378876E+03  0.00000000000E+00 0. -1.
          2   -1    0    0  503    0 -0.00000000000E+00 -0.00000000000E+00 -0.11254745031E+04  0.11254745031E+04  0.00000000000E+00 0.  1.
         21    1    1    2  503  505  0.86210647149E+02 -0.29399829794E+02  0.23581530402E+03  0.25279533873E+03  0.00000000000E+00 0. -1.
         21    1    1    2  504  501 -0.81593581247E+01 -0.52400450853E+02  0.18821380135E+03  0.19554236726E+03  0.00000000000E+00 0.  1.
         21    1    1    2  505  502  0.13907862568E+03 -0.19701612057E+01  0.52534751417E+03  0.54344894545E+03  0.00000000000E+00 0. -1.
          2    1    1    2  501    0 -0.21712991471E+03  0.83770441853E+02 -0.10920073339E+04  0.11165316404E+04  0.00000000000E+00 0.  1.
<scales pt_clust_3="43.55440" pt_clust_4="53.03190" pt_clust_5="43.55440" pt_clust_6="232.55621"></scales>
<clustering>
<clus scale="   43.554">  3  5 -1 -1</clus>
<clus scale="   53.032">  1  4  2 -1</clus>
<clus scale="  232.556">  2  6  1 -1</clus>
<clus scale="   53.032">  1  3  2 -1</clus>
</clustering>
</event>
<event>
 6    0  0.1993420E+002  0.1120266E+03  0.7546771E-02  0.1256862E+00
          1   -1    0    0  504    0 -0.00000000000E+00  0.00000000000E+00  0.16544571079E+04  0.16544571079E+04  0.00000000000E+00 0. -1.
         21   -1    0    0  505  502  0.00000000000E+00 -0.00000000000E+00 -0.37230678658E+02  0.37230678658E+02  0.00000000000E+00 0.  1.
         21    1    1    2  503  502 -0.40698012335E+02 -0.37620175790E+02  0.27987167200E+02  0.62087739227E+02  0.00000000000E+00 0.  1.
         21    1    1    2  504  503 -0.96633400431E+02 -0.63943318821E+02  0.26333961449E+03  0.28770560415E+03  0.00000000000E+00 0.  1.
         21    1    1    2  505  501  0.78018776436E+02  0.50814129180E+01  0.31024871219E+03  0.31994845467E+03  0.00000000000E+00 0.  1.
          1    1    1    2  501    0  0.59312636330E+02  0.96482081693E+02  0.10156509354E+04  0.10219459885E+04  0.00000000000E+00 0. -1.
<scales pt_clust_3="55.42207" pt_clust_4="14000.00000" pt_clust_5="68.35278" pt_clust_6="112.02662"></scales>
<clustering>
<clus scale="   55.422">  2  3  1 -1</clus>
<clus scale="   68.353">  2  5  1 -1</clus>
<clus scale="  112.027">  1  6  2 -1</clus>
<clus scale="   55.422">  2  3  1 -1</clus>
</clustering>
</event>
<event>
 6    0  0.1993420E+002  0.9394157E+02  0.7546771E-02  0.1293578E+00
          1   -1    0    0  503    0 -0.00000000000E+00  0.00000000000E+00  0.74048208428E+03  0.74048208428E+03  0.00000000000E+00 0.  1.
         21   -1    0    0  504  502  0.00000000000E+00 -0.00000000000E+00 -0.59336183295E+02  0.59336183295E+02  0.00000000000E+00 0.  1.
         21    1    1    2  503  502  0.27018075582E+02 -0.41621837973E+02  0.29584131885E+02  0.57771746241E+02  0.00000000000E+00 0. -1.
         21    1    1    2  504  505  0.27003097455E+02  0.17086101266E+02  0.26813665891E+02  0.41714203902E+02  0.00000000000E+00 0.  1.
         21    1    1    2  505  501 -0.70127607001E+02 -0.69383566404E+02  0.37713137882E+02  0.10561364173E+03  0.00000000000E+00 0.  1.
          1    1    1    2  501    0  0.16106433965E+02  0.93919303110E+02  0.58703496533E+03  0.59471867570E+03  0.00000000000E+00 0.  1.
<scales pt_clust_3="50.47474" pt_clust_4="31.95469" pt_clust_5="93.94157" pt_clust_6="14000.00000"></scales>
<clustering>
<clus scale="   31.955">  2  4  1 -1</clus>
<clus scale="   50.475">  2  3  1 -1</clus>
<clus scale="   93.942">  2  5  1 -1</clus>
<clus scale="   31.955">  2  3  1 -1</clus>
</clustering>
</event>
<event>
 6    0  0.1993420E+002  0.2884389E+03  0.7546771E-02  0.1091167E+00
         21   -1    0    0  504  502  0.00000000000E+00  0.00000000000E+00  0.59804602304E+03  0.59804602304E+03  0.00000000000E+00 0. -1.
          2   -1    0    0  505    0 -0.00000000000E+00 -0.00000000000E+00 -0.18669274638E+04  0.18669274638E+04  0.00000000000E+00 0. -1.
         21    1    1    2  503  501  0.14283431725E+02 -0.16408020245E+03  0.22154756276E+03  0.27606095672E+03  0.00000000000E+00 0. -1.
         21    1    1    2  504  503  0.43149363518E+02 -0.11617000165E+03  0.28632683620E+03  0.31199422108E+03  0.00000000000E+00 0. -1.
         21    1    1    2  505  502  0.90429684517E+01  0.22836093890E+03 -0.21785852831E+03  0.31574171731E+03  0.00000000000E+00 0. -1.
          2    1    1    2  501    0 -0.66475763695E+02  0.51889265196E+02 -0.15588973114E+04  0.15611765917E+04  0.00000000000E+00 0. -1.
<scales pt_clust_3="67.37924" pt_clust_4="67.37924" pt_clust_5="277.78267" pt_clust_6="84.32985"></scales>
<clustering>
<clus scale="   67.379">  3  4 -1 -1</clus>
<clus scale="   84.330">  2  6  1 -1</clus>
<clus scale="  277.783">  2  5  1 -1</clus>
<clus scale="  288.439">  1  3  2 -1</clus>
</clustering>
</event>
<event>
 6    0  0.1993420E+002  0.1666503E+03  0.7546771E-02  0.1181387E+00
         21   -1    0    0  503  502  0.00000000000E+00  0.00000000000E+00  0.12107058267E+04  0.12107058267E+04  0.00000000000E+00 0.  1.
          2   -1    0    0  504    0 -0.00000000000E+00 -0.00000000000E+00 -0.40358977650E+03  0.40358977650E+03  0.00000000000E+00 0.  1.
         21    1    1    2  503  505 -0.77820959490E+01 -0.77533923958E+02  0.34962550305E+03  0.35820394018E+03  0.00000000000E+00 0.  1.
         21    1    1    2  504  502  0.70465267492E+02  0.92226121927E+00  0.31157937126E+03  0.31944938423E+03  0.00000000000E+00 0.  1.
         21    1    1    2  505  501  0.17448870613E+02 -0.61381701432E+02  0.52315748624E+03  0.52703503846E+03  0.00000000000E+00 0.  1.
          2    1    1    2  501    0 -0.80132042156E+02  0.13799336417E+03 -0.37724631030E+03  0.40960724038E+03  0.00000000000E+00 0.  1.
<scales pt_clust_3="45.30972" pt_clust_4="70.47130" pt_clust_5="45.30972" pt_clust_6="158.95098"></scales>
<clustering>
<clus scale="   45.310">  3  5 -1 -1</clus>
<clus scale="   70.471">  1  4  2 -1</clus>
<clus scale="  158.951">  2  6  1 -1</clus>
<clus scale="   70.471">  1  3  2 -1</clus>
</clustering>
</event>
<event>
 6    0  0.1993420E+002  0.8604143E+02  0.7546771E-02  0.1312731E+00
         -1   -1    0    0    0  501 -0.00000000000E+00  0.00000000000E+00  0.55580300738E+03  0.55580300738E+03  0.00000000000E+00 0. -1.
         21   -1    0    0  504  502  0.00000000000E+00 -0.00000000000E+00 -0.68765419031E+03  0.68765419031E+03  0.00000000000E+00 0.  1.
         21    1    1    2  503  502 -0.58921931617E+02  0.91549767250E+01 -0.13665941237E+03  0.14910198728E+03  0.00000000000E+00 0.  1.
         21    1    1    2  504  501 -0.33294644922E+02 -0.50971038714E+02 -0.54979980521E+02  0.82032788726E+02  0.00000000000E+00 0.  1.
         21    1    1    2  505  503  0.11731758213E+03  0.24910446794E+00 -0.46791079504E+03  0.48239401867E+03  0.00000000000E+00 0.  1.
         -1    1    1    2    0  505 -0.25101005595E+02  0.41566957521E+02  0.52769900500E+03  0.52992840301E+03  0.00000000000E+00 0. -1.
<scales pt_clust_3="14000.00000" pt_clust_4="54.88920" pt_clust_5="86.04143" pt_clust_6="48.55793"></scales>
<clustering>
<clus scale="   48.558">  1  6  2 -1</clus>
<clus scale="   54.889">  1  4  2 -1</clus>
<clus scale="   86.041">  1  5  2 -1</clus>
<clus scale="   86.041">  2  3  1 -1</clus>
</clustering>
</event>
<event>
 6    0  0.1993420E+002  0.1637943E+03  0.7546771E-02  0.1184478E+00
          2   -1    0    0  503    0 -0.00000000000E+00  0.00000000000E+00  0.20314189710E+04  0.20314189710E+04  0.00000000000E+00 0. -1.
         21   -1    0    0  505  502  0.00000000000E+00 -0.00000000000E+00 -0.10784703661E+03  0.10784703661E+03  0.00000000000E+00 0.  1.
         21    1    1    2  503  504 -0.80789547856E+02 -0.16872341558E+03  0.18572602804E+03  0.26360709303E+03  0.00000000000E+00 0.  1.
         21    1    1    2  504  502  0.14698233917E+03  0.72593996420E+02  0.15534833317E+03  0.22584685289E+03  0.00000000000E+00 0.  1.
         21    1    1    2  505  501  0.11826652783E+02 -0.31622847291E+02 -0.20725446974E+02  0.39615884935E+02  0.00000000000E+00 0. -1.
          2    1    1    2  501    0 -0.78019444097E+02  0.12775226645E+03  0.16032230201E+04  0.16101961767E+04  0.00000000000E+00 0. -1.
<scales pt_clust_3="163.79435" pt_clust_4="14000.00000" pt_clust_5="33.76202" pt_clust_6="148.20415"></scales>
<clustering>
<clus scale="   33.762">  2  5  1 -1</clus>
<clus scale="  148.204">  1  6  2 -1</clus>
<clus scale="  163.794">  1  3  2 -1</clus>
<clus scale="   33.762">  2  3  1 -1</clus>
</clustering>
</event>
<event>
 6    0  0.1993420E+002  0.1138402E+03  0.7546771E-02  0.1253619E+00
         21   -1    0    0  503  502  0.00000000000E+00  0.00000000000E+00  0.29626927143E+03  0.29626927143E+03  0.00000000000E+00 0.  1.
          2   -1    0    0  505    0 -0.00000000000E+00 -0.00000000000E+00 -0.21310050039E+04  0.21310050039E+04  0.00000000000E+00 0.  1.
         21    1    1    2  503  504 -0.37090470531E+02 -0.10978528346E+02 -0.33469176455E+02  0.51150922390E+02  0.00000000000E+00 0.  1.
         21    1    1    2  504  501 -0.24432558613E+02  0.37328246196E+02  0.25084041403E+02  0.51181608197E+02  0.00000000000E+00 0. -1.
         21    1    1    2  505  502 -0.46038740895E+02 -0.64569276674E+02  0.24137473274E+03  0.25406794123E+03  0.00000000000E+00 0.  1.
          2    1    1    2  501    0  0.10756177004E+03  0.38219558823E+02 -0.20677253302E+04  0.20708738035E+04  0.00000000000E+00 0.  1.
<scales pt_clust_3="38.68115" pt_clust_4="46.35082" pt_clust_5="14000.00000" pt_clust_6="113.84020"></scales>
<clustering>
<clus scale="   38.681">  1  3  2 -1</clus>
<clus scale="   46.351">  1  4  2 -1</clus>
<clus scale="  113.840">  2  6  1 -1</clus>
<clus scale="   38.681">  1  3  2 -1</clus>
</clustering>
</event>
<event>
 6    0  0.1993420E+002  0.7890841E+02  0.7546771E-02  0.1332178E+00
          2   -1    0    0  503    0 -0.00000000000E+00  0.00000000000E+00  0.49793999018E+03  0.49793999018E+03  0.00000000000E+00 0. -1.
         21   -1    0    0  505  502  0.00000000000E+00 -0.00000000000E+00 -0.10872297484E+04  0.10872297484E+04  0.00000000000E+00 0. -1.
         21    1    1    2  503  504  0.37748314307E+02  0.56592863776E+02 -0.79770226056E+02  0.10483785780E+03  0.00000000000E+00 0. -1.
         21    1    1    2  504  502  0.31600746342E+02 -0.38691990382E+02 -0.80917567718E+03  0.81071632142E+03  0.00000000000E+00 0. -1.
         21    1    1    2  505  501 -0.50621518503E+02 -0.71613831814E+02 -0.17278232622E+03  0.19376483504E+03  0.00000000000E+00 0. -1.
          2    1    1    2  501    0 -0.18727542146E+02  0.53712958420E+02  0.47243847123E+03  0.47585072432E+03  0.00000000000E+00 0. -1.
<scales pt_clust_3="14000.00000" pt_clust_4="49.95675" pt_clust_5="78.90841" pt_clust_6="56.59540"></scales>
<clustering>
<clus scale="   49.957">  2  4  1 -1</clus>
<clus scale="   56.595">  1  6  2 -1</clus>
<clus scale="   78.908">  1  5  2 -1</clus>
<clus scale="   49.957">  2  3  1 -1</clus>
</clustering>
</event>
<event>
 6    0  0.1993420E+002  0.1173356E+03  0.7546771E-02  0.1247558E+00
         21   -1    0    0  503  502  0.00000000000E+00  0.00000000000E+00  0.26689614459E+04  0.26689614459E+04  0.00000000000E+00 0. -1.
          2   -1    0    0  505    0 -0.00000000000E+00 -0.00000000000E+00 -0.50690555553E+03  0.50690555553E+03  0.00000000000E+00 0. -1.
         21    1    1    2  503  501  0.85574305485E+02  0.86338745993E+02  0.42008290700E+03  0.43731795020E+03  0.00000000000E+00 0.  1.
         21    1    1    2  504  502 -0.59015019340E+02  0.11143189934E+02  0.15589514712E+04  0.15601078914E+04  0.00000000000E+00 0. -1.
         21    1    1    2  505  504 -0.59490911029E+02 -0.87593815790E+02  0.67601132548E+03  0.68425372285E+03  0.00000000000E+00 0.  1.
          2    1    1    2  501    0  0.32931624884E+02 -0.98881201362E+01 -0.49298981332E+03  0.49418743698E+03  0.00000000000E+00 0. -1.
<scales pt_clust_3="14000.00000" pt_clust_4="58.57335" pt_clust_5="117.33555" pt_clust_6="34.38411"></scales>
<clustering>
<clus scale="   34.384">  2  6  1 -1</clus>
<clus scale="   58.573">  1  4  2 -1</clus>
<clus scale="  117.336">  1  5  2 -1</clus>
<clus scale="   58.573">  1  3  2 -1</clus>
</clustering>
</event>
<event>
 6    0  0.1993420E+002  0.9216804E+02  0.7546771E-02  0.1297685E+00
         -1   -1    0    0    0  501 -0.00000000000E+00  0.00000000000E+00  0.59707236692E+03  0.59707236692E+03  0.00000000000E+00 0. -1.
         21   -1    0    0  504  502  0.00000000000E+00 -0.00000000000E+00 -0.56770624928E+03  0.56770624928E+03  0.00000000000E+00 0. -1.
         21    1    1    2  503  502  0.10515722384E+03  0.49837871248E+01 -0.42243324687E+03  0.43535356656E+03  0.00000000000E+00 0. -1.
         21    1    1    2  504  501  0.21169652964E+01 -0.59903861836E+02 -0.48681012242E+02  0.77219137251E+02  0.00000000000E+00 0. -1.
         21    1    1    2  505  503 -0.50252324414E+02  0.57611917399E+02 -0.54760654242E+02  0.94038068826E+02  0.00000000000E+00 0. -1.
         -1    1    1    2    0  505 -0.57021864718E+02 -0.26918426878E+01  0.55524103100E+03  0.55816784355E+03  0.00000000000E+00 0. -1.
<scales pt_clust_3="92.16804" pt_clust_4="63.47263" pt_clust_5="14000.00000" pt_clust_6="57.08537"></scales>
<clustering>
<clus scale="   57.085">  1  6  2 -1</clus>
<clus scale="   63.473">  1  4  2 -1</clus>
<clus scale="   92.168">  2  3  1 -1</clus>
<clus scale="   92.168">  2  3  1 -1</clus>
</clustering>
</event>
<event>
 6    0  0.1993420E+002  0.6959022E+02  0.7546771E-02  0.1361492E+00
          1   -1    0    0  504    0 -0.00000000000E+00  0.00000000000E+00  0.22122981611E+04  0.22122981611E+04  0.00000000000E+00 0.  1.
         21   -1    0    0  505  502  0.00000000000E+00 -0.00000000000E+00 -0.15208379069E+02  0.15208379069E+02  0.00000000000E+00 0.  1.
         21    1    1    2  503  502  0.54013755123E+02  0.22559095643E+02  0.12348017034E+03  0.13665193378E+03  0.00000000000E+00 0.  1.
         21    1    1    2  504  503  0.43470467900E+02 -0.21032347885E+02  0.28367906678E+03  0.28776006354E+03  0.00000000000E+00 0.  1.
         21    1    1    2  505  501 -0.10475910416E+03 -0.38548570903E+02  0.48746289477E+03  0.50008052952E+03  0.00000000000E+00 0.  1.
          1    1    1    2  501    0  0.72748811416E+01  0.37021823146E+02  0.13024676501E+04  0.13030140133E+04  0.00000000000E+00 0.  1.
<scales pt_clust_3="69.59022" pt_clust_4="46.71185" pt_clust_5="14000.00000" pt_clust_6="37.72982"></scales>
<clustering>
<clus scale="   37.730">  1  6  2 -1</clus>
<clus scale="   46.712">  1  4  2 -1</clus>
<clus scale="   69.590">  2  3  1 -1</clus>
<clus scale="   69.590">  2  3  1 -1</clus>
</clustering>
</event>
<event>
 6    0  0.1993420E+002  0.1954300E+03  0.7546771E-02  0.1153653E+00
         21   -1    0    0  505  502  0.00000000000E+00  0.00000000000E+00  0.20647649311E+03  0.20647649311E+03  0.00000000000E+00 0. -1.
          1   -1    0    0  503    0 -0.00000000000E+00 -0.00000000000E+00 -0.42031793893E+04  0.42031793893E+04  0.00000000000E+00 0. -1.
         21    1    1    2  503  504 -0.54792045079E+02 -0.10001723521E+03 -0.57398199337E+02  0.12767211454E+03  0.00000000000E+00 0. -1.
         21    1    1    2  504  502 -0.27788114813E+02 -0.19953112667E+02  0.15792381816E+02  0.37678977605E+02  0.00000000000E+00 0. -1.
         21    1    1    2  505  501 -0.49350730140E+02 -0.32121358646E+02  0.13602933076E+03  0.14822703894E+03  0.00000000000E+00 0. -1.
          1    1    1    2  501    0  0.13193089003E+03  0.15209170653E+03 -0.40911264094E+04  0.40960777513E+04  0.00000000000E+00 0. -1.
<scales pt_clust_3="14000.00000" pt_clust_4="34.20974" pt_clust_5="85.91519" pt_clust_6="195.42995"></scales>
<clustering>
<clus scale="   34.210">  1  4  2 -1</clus>
<clus scale="   85.915">  1  5  2 -1</clus>
<clus scale="  195.430">  2  6  1 -1</clus>
<clus scale="   34.210">  1  3  2 -1</clus>
</clustering>
</event>
<event>
 6    0  0.1993420E+002  0.1488948E+03  0.7546771E-02  0.1201838E+00
         21   -1    0    0  504  502  0.00000000000E+00  0.00000000000E+00  0.84657769241E+02  0.84657769241E+02  0.00000000000E+00 0.  1.
         -1   -1    0    0    0  501 -0.00000000000E+00 -0.00000000000E+00 -0.35341668886E+03  0.35341668886E+03  0.00000000000E+00 0.  1.
         21    1    1    2  503  502  0.30452588235E+01 -0.73915359671E+02 -0.20050327050E+02  0.76647045679E+02  0.00000000000E+00 0.  1.
         21    1    1    2  504  501 -0.42955204473E+02 -0.11893587335E+02 -0.42417157506E+02  0.61529035925E+02  0.00000000000E+00 0.  1.
         21    1    1    2  505  503  0.14805466352E+02 -0.64042152947E+02 -0.61326669190E+02  0.89897494636E+02  0.00000000000E+00 0.  1.
         -1    1    1    2    0  505  0.25104479297E+02  0.14985109995E+03 -0.14496476587E+03  0.21000088186E+03  0.00000000000E+00 0.  1.
<scales pt_clust_3="39.58922" pt_clust_4="44.57137" pt_clust_5="39.58922" pt_clust_6="142.84856"></scales>
<clustering>
<clus scale="   39.589">  3  5 -1 -1</clus>
<clus scale="   44.571">  2  4  1 -1</clus>
<clus scale="  142.849">  2  6  1 -1</clus>
<clus scale="  148.895">  1  3  2 -1</clus>
</clustering>
</event>
<event>
 6    0  0.1993420E+002  0.1374177E+03  0.7546771E-02  0.1216847E+00
         21   -1    0    0  504  502  0.00000000000E+00  0.00000000000E+00  0.77783655640E+03  0.77783655640E+03  0.00000000000E+00 0.  1.
          2   -1    0    0  502    0 -0.00000000000E+00 -0.00000000000E+00 -0.16366359927E+04  0.16366359927E+04  0.00000000000E+00 0.  1.
         21    1    1    2  503  505 -0.75843154421E+02  0.67692803363E+01  0.22400857870E+03  0.23659638746E+03  0.00000000000E+00 0. -1.
         21    1    1    2  504  503 -0.64078463432E+02 -0.33775582941E+02  0.53285450851E+03  0.53775530376E+03  0.00000000000E+00 0.  1.
         21    1    1    2  505  501  0.10517499133E+03  0.82908699666E+02 -0.38368516158E+03  0.40638643493E+03  0.00000000000E+00 0. -1.
          2    1    1    2  501    0  0.34746626521E+02 -0.55902397061E+02 -0.12319773619E+04  0.12337344229E+04  0.00000000000E+00 0.  1.
<scales pt_clust_3="14000.00000" pt_clust_4="72.40782" pt_clust_5="137.41767" pt_clust_6="65.82102"></scales>
<clustering>
<clus scale="   65.821">  2  6  1 -1</clus>
<clus scale="   72.408">  1  4  2 -1</clus>
<clus scale="  137.418">  2  5  1 -1</clus>
<clus scale="   72.408">  1  3  2 -1</clus>
</clustering>
</event>
<event>
 6    0  0.1993420E+002  0.1966430E+03  0.7546771E-02  0.1152603E+00
          1   -1    0    0  503    0 -0.00000000000E+00  0.00000000000E+00  0.93573690332E+03  0.93573690332E+03  0.00000000000E+00 0.  1.
         21   -1    0    0  505  502  0.00000000000E+00 -0.00000000000E+00 -0.33988148742E+03  0.33988148742E+03  0.00000000000E+00 0. -1.
         21    1    1    2  503  504 -0.79923814183E+02 -0.19590990941E+02 -0.50425808693E+01  0.82444227338E+02  0.00000000000E+00 0. -1.
         21    1    1    2  504  502 -0.14934562691E+03 -0.73464064961E+02 -0.63540375065E+02  0.17815292414E+03  0.00000000000E+00 0. -1.
         21    1    1    2  505  501  0.12624612501E+03  0.11526980776E+03 -0.12928230745E+03  0.21433414959E+03  0.00000000000E+00 0. -1.
          1    1    1    2  501    0  0.10302331608E+03 -0.22214751855E+02  0.79372067928E+03  0.80068708967E+03  0.00000000000E+00 0.  1.
<scales pt_clust_3="31.31618" pt_clust_4="31.31618" pt_clust_5="191.53308" pt_clust_6="105.39117"></scales>
<clustering>
<clus scale="   31.316">  3  4 -1 -1</clus>
<clus scale="  105.391">  1  6  2 -1</clus>
<clus scale="  191.533">  2  5  1 -1</clus>
<clus scale="  191.533">  2  3  1 -1</clus>
</clustering>
</event>
<event>
 6    0  0.1993420E+002  0.1568181E+03  0.7546771E-02  0.1192337E+00
          1   -1    0    0  505    0 -0.00000000000E+00  0.00000000000E+00  0.21457383495E+04  0.21457383495E+04  0.00000000000E+00 0.  1.
         21   -1    0    0  504  502  0.00000000000E+00 -0.00000000000E+00 -0.37864207458E+03  0.37864207458E+03  0.00000000000E+00 0.  1.
         21    1    1    2  503  502  0.10537165138E+03  0.75579633539E+02 -0.16020011481E+02  0.13066027203E+03  0.00000000000E+00 0. -1.
         21    1    1    2  504  501 -0.25438351562E+02 -0.45078844944E+02  0.43025066197E+02  0.67308010763E+02  0.00000000000E+00 0. -1.
         21    1    1    2  505  503 -0.11969577747E+03  0.12128991551E+03 -0.26507057859E+03  0.31512019037E+03  0.00000000000E+00 0.  1.
          1    1    1    2  501    0  0.39762477652E+02 -0.15179070411E+03  0.20051617988E+04  0.20112919509E+04  0.00000000000E+00 0.  1.
<scales pt_clust_3="120.35951" pt_clust_4="51.76111" pt_clust_5="156.81812" pt_clust_6="14000.00000"></scales>
<clustering>
<clus scale="   51.761">  2  4  1 -1</clus>
<clus scale="  120.360">  2  3  1 -1</clus>
<clus scale="  156.818">  2  5  1 -1</clus>
<clus scale="   51.761">  2  3  1 -1</clus>
</clustering>
</event>
<event>
 6    0  0.1993420E+002  0.2275352E+03  0.7546771E-02  0.1128387E+00
         21   -1    0    0  505  502  0.00000000000E+00  0.00000000000E+00  0.85937742956E+02  0.85937742956E+02  0.00000000000E+00 0.  1.
          2   -1    0    0  504    0 -0.00000000000E+00 -0.00000000000E+00 -0.29343349190E+04  0.29343349190E+04  0.00000000000E+00 0.  1.
         21    1    1    2  503  502 -0.19783754013E+03 -0.10126558116E+03 -0.22027171087E+03  0.31291218708E+03  0.00000000000E+00 0.  1.
         21    1    1    2  504  503 -0.60015469482E+02  0.11672327616E+02 -0.54742753249E+02  0.82066246670E+02  0.00000000000E+00 0. -1.
         21    1    1    2  505  501  0.11609252443E+03 -0.68169945960E+02 -0.19206511085E+03  0.23454982961E+03  0.00000000000E+00 0.  1.
          2    1    1    2  501    0  0.14176048518E+03  0.15776319950E+03 -0.23813176011E+04  0.23907443986E+04  0.00000000000E+00 0.  1.
<scales pt_clust_3="40.15020" pt_clust_4="40.15020" pt_clust_5="134.62769" pt_clust_6="214.27179"></scales>
<clustering>
<clus scale="   40.150">  3  4 -1 -1</clus>
<clus scale="  134.628">  1  5  2 -1</clus>
<clus scale="  214.272">  2  6  1 -1</clus>
<clus scale="  134.628">  1  3  2 -1</clus>
</clustering>
</event>
<event>
 6    0  0.1993420E+002  0.9989697E+02  0.7546771E-02  0.1280513E+00
          2   -1    0    0  503    0 -0.00000000000E+00  0.00000000000E+00  0.45006238507E+03  0.45006238507E+03  0.00000000000E+00 0.  1.
         21   -1    0    0  504  502  0.00000000000E+00 -0.00000000000E+00 -0.99993571736E+02  0.99993571736E+02  0.00000000000E+00 0.  1.
         21    1    1    2  503  505 -0.10890512847E+03 -0.10126168642E+03  0.12474567448E+03  0.19410239423E+03  0.00000000000E+00 0.  1.
         21    1    1    2  504  501  0.35736186273E+02  0.37844849777E+02  0.30622195579E+02  0.60390616208E+02  0.00000000000E+00 0.  1.
         21    1    1    2  505  502  0.74105171856E+01  0.65214827465E+02 -0.21900941367E+02  0.69192056763E+02  0.00000000000E+00 0.  1.
          2    1    1    2  501    0  0.65758425013E+02 -0.17979908243E+01  0.21660188464E+03  0.22637088961E+03  0.00000000000E+00 0.  1.
<scales pt_clust_3="99.89697" pt_clust_4="52.05101" pt_clust_5="14000.00000" pt_clust_6="67.81039"></scales>
<clustering>
<clus scale="   52.051">  2  4  1 -1</clus>
<clus scale="   67.810">  1  6  2 -1</clus>
<clus scale="   99.897">  1  3  2 -1</clus>
<clus scale="   52.051">  2  3  1 -1</clus>
</clustering>
</event>
<event>
 6    0  0.1993420E+002  0.1467263E+03  0.7546771E-02  0.1204554E+00
          3   -1    0    0  503    0 -0.00000000000E+00  0.00000000000E+00  0.47877697236E+02  0.47877697236E+02  0.00000000000E+00 0. -1.
         21   -1    0    0  501  502  0.00000000000E+00 -0.00000000000E+00 -0.20311765188E+04  0.20311765188E+04  0.00000000000E+00 0. -1.
         21    1    1    2  503  504  0.41556854416E+02  0.37200490944E+02 -0.22498733426E+03  0.23179764721E+03  0.00000000000E+00 0. -1.
         21    1    1    2  504  505  0.23716617308E+02  0.46104331146E+02 -0.10353979783E+03  0.11579541020E+03  0.00000000000E+00 0. -1.
         21    1    1    2  505  502  0.43291840646E+02  0.31631679245E+02 -0.15276480631E+04  0.15285886796E+04  0.00000000000E+00 0. -1.
          3    1    1    2  501    0 -0.10856531237E+03 -0.11493650133E+03 -0.12712362643E+03  0.20287247912E+03  0.00000000000E+00 0. -1.
<scales pt_clust_3="39.64181" pt_clust_4="39.64181" pt_clust_5="53.61666" pt_clust_6="140.84772"></scales>
<clustering>
<clus scale="   39.642">  3  4 -1 -1</clus>
<clus scale="   53.617">  2  5  1 -1</clus>
<clus scale="  140.848">  1  6  2 -1</clus>
<clus scale="   53.617">  2  3  1 -1</clus>
</clustering>
</event>
<event>
 6    0  0.1993420E+002  0.1392800E+03  0.7546771E-02  0.1214301E+00
          2   -1    0    0  504    0 -0.00000000000E+00  0.00000000000E+00  0.16510156051E+04  0.16510156051E+04  0.00000000000E+00 0. -1.
         21   -1    0    0  505  502  0.00000000000E+00 -0.00000000000E+00 -0.14894133425E+03  0.14894133425E+03  0.00000000000E+00 0.  1.
         21    1    1    2  503  501 -0.34118510577E+02 -0.34832062725E+02 -0.20404840957E+02  0.52855490653E+02  0.00000000000E+00 0.  1.
         21    1    1    2  504  502  0.24359871971E+02 -0.70081704292E+02 -0.28024770496E+02  0.79311010587E+02  0.00000000000E+00 0.  1.
         21    1    1    2  505  503 -0.74244191763E+02  0.41808636267E+01 -0.31211304578E+02  0.80646296658E+02  0.00000000000E+00 0.  1.
          2    1    1    2  501    0  0.84002830369E+02  0.10073290339E+03  0.15817151869E+04  0.15871441415E+04  0.00000000000E+00 0. -1.
<scales pt_clust_3="40.29673" pt_clust_4="74.19467" pt_clust_5="40.29673" pt_clust_6="130.08610"></scales>
<clustering>
<clus scale="   40.297">  3  5 -1 -1</clus>
<clus scale="   74.195">  2  4  1 -1</clus>
<clus scale="  130.086">  1  6  2 -1</clus>
<clus scale="   74.195">  2  3  1 -1</clus>
</clustering>
</event>
<event>
 6    0  0.1993420E+002  0.1043122E+03  0.7546771E-02  0.1271481E+00
         21   -1    0    0  505  502  0.00000000000E+00  0.00000000000E+00  0.69155299175E+03  0.69155299175E+03  0.00000000000E+00 0. -1.
          1   -1    0    0  503    0 -0.00000000000E+00 -0.00000000000E+00 -0.38092366974E+03  0.38092366974E+03  0.00000000000E+00 0. -1.
         21    1    1    2  503  502 -0.79243703119E+02  0.33039221416E+02  0.16720406751E+03  0.18795838590E+03  0.00000000000E+00 0. -1.
         21    1    1    2  504  501  0.30781287210E+02  0.57025113324E+02  0.66908905934E+02  0.93145868857E+02  0.00000000000E+00 0.  1.
         21    1    1    2  505  504 -0.31333350812E+02 -0.21357048686E+02  0.42532708415E+03  0.42701408749E+03  0.00000000000E+00 0. -1.
          1    1    1    2  501    0  0.79795766721E+02 -0.68707286054E+02 -0.34881073559E+03  0.36435831925E+03  0.00000000000E+00 0. -1.
<scales pt_clust_3="14000.00000" pt_clust_4="54.89899" pt_clust_5="37.91968" pt_clust_6="104.31221"></scales>
<clustering>
<clus scale="   37.920">  1  5  2 -1</clus>
<clus scale="   54.899">  1  4  2 -1</clus>
<clus scale="  104.312">  2  6  1 -1</clus>
<clus scale="   37.920">  1  3  2 -1</clus>
</clustering>
</event>
<event>
 6    0  0.1993420E+002  0.1396072E+03  0.7546771E-02  0.1213858E+00
         21   -1    0    0  505  502  0.00000000000E+00  0.00000000000E+00  0.27257786394E+02  0.27257786394E+02  0.00000000000E+00 0.  1.
          2   -1    0    0  503    0 -0.00000000000E+00 -0.00000000000E+00 -0.17428300975E+04  0.17428300975E+04  0.00000000000E+00 0.  1.
         21    1    1    2  503  502  0.11481805053E+03 -0.95327039521E+02 -0.30635875752E+03  0.34077282389E+03  0.00000000000E+00 0.  1.
         21    1    1    2  504  501 -0.32981254976E+02  0.36402008122E+02 -0.24019579934E+03  0.24516706833E+03  0.00000000000E+00 0.  1.
         21    1    1    2  505  504 -0.49109230506E+02  0.36167521982E+02 -0.12223008690E+03  0.13660161167E+03  0.00000000000E+00 0.  1.
          2    1    1    2  501    0 -0.32727565048E+02  0.22757509417E+02 -0.10467876673E+04  0.10475463800E+04  0.00000000000E+00 0.  1.
<scales pt_clust_3="130.76910" pt_clust_4="46.81936" pt_clust_5="46.81936" pt_clust_6="39.86223"></scales>
<clustering>
<clus scale="   39.862">  2  6  1 -1</clus>
<clus scale="   46.819">  4  5 -1 -1</clus>
<clus scale="  130.769">  1  3  2 -1</clus>
<clus scale="  130.769">  1  3  2 -1</clus>
</clustering>
</event>
<event>
 6    0  0.1993420E+002  0.9614262E+02  0.7546771E-02  0.1288623E+00
          4   -1    0    0  503    0 -0.00000000000E+00  0.00000000000E+00  0.95086294001E+02  0.95086294001E+02  0.00000000000E+00 0.  1.
         21   -1    0    0  504  502  0.00000000000E+00 -0.00000000000E+00 -0.84456993778E+03  0.84456993778E+03  0.00000000000E+00 0.  1.
         21    1    1    2  503  505 -0.51017374749E+02 -0.36861105504E+02 -0.14273320826E+03  0.15599449467E+03  0.00000000000E+00 0.  1.
         21    1    1    2  504  501 -0.57476526353E+02  0.96171037687E+02 -0.59078134169E+03  0.60131107861E+03  0.00000000000E+00 0.  1.
         21    1    1    2  505  502  0.13735277655E+02 -0.38376435643E+02 -0.62587947511E+02  0.74690426686E+02  0.00000000000E+00 0. -1.
          4    1    1    2  501    0  0.94758623447E+02 -0.20933496540E+02  0.46618853688E+02  0.10766023181E+03  0.00000000000E+00 0.  1.
<scales pt_clust_3="65.55843" pt_clust_4="96.14262" pt_clust_5="40.76038" pt_clust_6="14000.00000"></scales>
<clustering>
<clus scale="   40.760">  2  5  1 -1</clus>
<clus scale="   65.558">  2  3  1 -1</clus>
<clus scale="   96.143">  2  4  1 -1</clus>
<clus scale="   40.760">  2  3  1 -1</clus>
</clustering>
</event>
<event>
 6    0  0.1993420E+002  0.1263550E+03  0.7546771E-02  0.1232967E+00
         21   -1    0    0  501  502  0.00000000000E+00  0.00000000000E+00  0.52817847753E+02  0.52817847753E+02  0.00000000000E+00 0. -1.
          2   -1    0    0  505    0 -0.00000000000E+00 -0.00000000000E+00 -0.12579248775E+04  0.12579248775E+04  0.00000000000E+00 0.  1.
         21    1    1    2  503  502 -0.95812892693E+01 -0.30383408882E+02 -0.15607076835E+02  0.35475815518E+02  0.00000000000E+00 0.  1.
         21    1    1    2  504  503 -0.69720438895E+02 -0.44068100572E+01 -0.18744626189E+02  0.72330633798E+02  0.00000000000E+00 0. -1.
         21    1    1    2  505  504 -0.36306802011E+02  0.34513376314E+02 -0.34522555857E+02  0.60837191584E+02  0.00000000000E+00 0. -1.
          2    1    1    2  501    0  0.11560853018E+03  0.27684262435E+00 -0.11362327709E+04  0.11420990844E+04  0.00000000000E+00 0.  1.
<scales pt_clust_3="31.85832" pt_clust_4="40.21699" pt_clust_5="40.21699" pt_clust_6="114.96730"></scales>
<clustering>
<clus scale="   31.858">  1  3  2 -1</clus>
<clus scale="   40.217">  4  5 -1 -1</clus>
<clus scale="  114.967">  2  6  1 -1</clus>
<clus scale="   31.858">  1  3  2 -1</clus>
</clustering>
</event>
<event>
 6    0  0.1993420E+002  0.1263684E+03  0.7546771E-02  0.1232946E+00
         21   -1    0    0  504  502  0.00000000000E+00  0.00000000000E+00  0.20601812663E+03  0.20601812663E+03  0.00000000000E+00 0.  1.
          2   -1    0    0  503    0 -0.00000000000E+00 -0.00000000000E+00 -0.19384718647E+04  0.19384718647E+04  0.00000000000E+00 0. -1.
         21    1    1    2  503  505 -0.53788979735E+01 -0.65905099546E+02  0.72942692571E+01  0.66525341439E+02  0.00000000000E+00 0.  1.
         21    1    1    2  504  501  0.31019820805E+02 -0.34149774578E+02  0.13054961202E+03  0.13846168273E+03  0.00000000000E+00 0.  1.
         21    1    1    2  505  502  0.40075439113E+02 -0.93997743441E+01  0.19394457111E+02  0.45503203672E+02  0.00000000000E+00 0.  1.
          2    1    1    2  501    0 -0.65716361944E+02  0.10945464847E+03 -0.18896920764E+04  0.18939997635E+04  0.00000000000E+00 0. -1.
<scales pt_clust_3="67.97669" pt_clust_4="126.36844" pt_clust_5="41.16305" pt_clust_6="14000.00000"></scales>
<clustering>
<clus scale="   41.163">  1  5  2 -1</clus>
<clus scale="   67.977">  1  3  2 -1</clus>
<clus scale="  126.368">  1  4  2 -1</clus>
<clus scale="   41.163">  1  3  2 -1</clus>
</clustering>
</event>
<event>
 6    0  0.1993420E+002  0.1160707E+03  0.7546771E-02  0.1249724E+00
          1   -1    0    0  503    0 -0.00000000000E+00  0.00000000000E+00  0.12420322707E+04  0.12420322707E+04  0.00000000000E+00 0.  1.
         21   -1    0    0  505  502  0.00000000000E+00 -0.00000000000E+00 -0.73556617926E+03  0.73556617926E+03  0.00000000000E+00 0.  1.
         21    1    1    2  503  502 -0.83702877188E+02  0.43085019493E+02 -0.41840564396E+03  0.42886568229E+03  0.00000000000E+00 0.  1.
         21    1    1    2  504  501 -0.47141729350E+02 -0.71001306768E+02 -0.10787628207E+03  0.13748025474E+03  0.00000000000E+00 0. -1.
         21    1    1    2  505  504  0.14562378259E+02  0.27577979266E+02 -0.18517911150E+03  0.18778687690E+03  0.00000000000E+00 0.  1.
          1    1    1    2  501    0  0.11628222828E+03  0.33830800907E+00  0.12179271290E+04  0.12234656361E+04  0.00000000000E+00 0.  1.
<scales pt_clust_3="116.07066" pt_clust_4="78.29661" pt_clust_5="31.18666" pt_clust_6="14000.00000"></scales>
<clustering>
<clus scale="   31.187">  2  5  1 -1</clus>
<clus scale="   78.297">  2  4  1 -1</clus>
<clus scale="  116.071">  2  3  1 -1</clus>
<clus scale="   31.187">  2  3  1 -1</clus>
</clustering>
</event>
<event>
 6    0  0.1993420E+002  0.1341061E+03  0.7546771E-02  0.1221487E+00
          2   -1    0    0  505    0 -0.00000000000E+00  0.00000000000E+00  0.30635363088E+04  0.30635363088E+04  0.00000000000E+00 0.  1.
         21   -1    0    0  503  502  0.00000000000E+00 -0.00000000000E+00 -0.12095447873E+03  0.12095447873E+03  0.00000000000E+00 0. -1.
         21    1    1    2  503  504  0.43398138505E+02 -0.13261973372E+03 -0.52346003485E+02  0.14903521825E+03  0.00000000000E+00 0. -1.
         21    1    1    2  504  501 -0.48439703931E+02  0.57611966180E+02  0.12571750015E+04  0.12594262694E+04  0.00000000000E+00 0.  1.
         21    1    1    2  505  502  0.23167808435E+02  0.27557753439E+02 -0.15011672381E+01  0.36033742871E+02  0.00000000000E+00 0. -1.
          2    1    1    2  501    0 -0.18126243009E+02  0.47450014099E+02  0.17392539993E+04  0.17399955571E+04  0.00000000000E+00 0.  1.
<scales pt_clust_3="124.53494" pt_clust_4="40.87898" pt_clust_5="36.00246" pt_clust_6="40.87898"></scales>
<clustering>
<clus scale="   36.002">  2  5  1 -1</clus>
<clus scale="   40.879">  4  6 -1 -1</clus>
<clus scale="  124.535">  2  3  1 -1</clus>
<clus scale="   36.002">  2  3  1 -1</clus>
</clustering>
</event>
<event>
 6    0  0.1993420E+002  0.1330078E+03  0.7546771E-02  0.1223060E+00
         21   -1    0    0  503  502  0.00000000000E+00  0.00000000000E+00  0.72743702432E+02  0.72743702432E+02  0.00000000000E+00 0. -1.
          1   -1    0    0  504    0 -0.00000000000E+00 -0.00000000000E+00 -0.19817260257E+04  0.19817260257E+04  0.00000000000E+00 0. -1.
         21    1    1    2  503  505 -0.58304806321E+02 -0.70301135892E+02  0.26057990919E+02  0.94977465952E+02  0.00000000000E+00 0. -1.
         21    1    1    2  504  502  0.33209491072E+02  0.10225731131E+03 -0.12104905995E+04  0.12152559070E+04  0.00000000000E+00 0. -1.
         21    1    1    2  505  501 -0.73869712195E+01 -0.32607728878E+02 -0.20044094461E+02  0.38982009301E+02  0.00000000000E+00 0.  1.
          1    1    1    2  501    0  0.32482286469E+02  0.65155346050E+00 -0.70450562021E+03  0.70525434587E+03  0.00000000000E+00 0. -1.
<scales pt_clust_3="33.17564" pt_clust_4="121.19306" pt_clust_5="33.17564" pt_clust_6="32.48882"></scales>
<clustering>
<clus scale="   32.489">  2  6  1 -1</clus>
<clus scale="   33.176">  3  5 -1 -1</clus>
<clus scale="  121.193">  2  4  1 -1</clus>
<clus scale="  133.008">  1  3  2 -1</clus>
</clustering>
</event>
<event>
 6    0  0.2229113E+002  0.1418147E+03  0.7546771E-02  0.1210908E+00
          2   -1    0    0  503    0 -0.00000000000E+00  0.00000000000E+00  0.78249372231E+03  0.78249372231E+03  0.00000000000E+00 0.  1.
         21   -1    0    0  505  502  0.00000000000E+00 -0.00000000000E+00 -0.10461732177E+04  0.10461732177E+04  0.00000000000E+00 0. -1.
         21    1    1    2  503  504 -0.32614624055E+02  0.15279900688E+02  0.21066983876E+02  0.41725374497E+02  0.00000000000E+00 0.  1.
         21    1    1    2  504  502 -0.63465928380E+02  0.68042031078E+02 -0.23124300316E+02  0.95876875854E+02  0.00000000000E+00 0.  1.
         21    1    1    2  505  501  0.67578640207E+02 -0.11390988165E+03 -0.97123346656E+03  0.98022282177E+03  0.00000000000E+00 0. -1.
          2    1    1    2  501    0  0.28501912228E+02  0.30587949878E+02  0.70961128760E+03  0.71084186790E+03  0.00000000000E+00 0.  1.
<scales pt_clust_3="32.66260" pt_clust_4="32.66260" pt_clust_5="131.73943" pt_clust_6="41.80887"></scales>
<clustering>
<clus scale="   32.663">  3  4 -1 -1</clus>
<clus scale="   41.809">  1  6  2 -1</clus>
<clus scale="  131.739">  2  5  1 -1</clus>
<clus scale="  131.739">  2  3  1 -1</clus>
</clustering>
</event>
<event>
 6    0  0.1993420E+002  0.9143617E+02  0.7546771E-02  0.1299411E+00
         -4   -1    0    0    0  501 -0.00000000000E+00  0.00000000000E+00  0.60839300352E+03  0.60839300352E+03  0.00000000000E+00 0. -1.
         21   -1    0    0  505  502  0.00000000000E+00 -0.00000000000E+00 -0.17642520730E+03  0.17642520730E+03  0.00000000000E+00 0.  1.
         21    1    1    2  503  504  0.59154761710E+02  0.16754216771E+02 -0.24321685398E+02  0.66117577037E+02  0.00000000000E+00 0.  1.
         21    1    1    2  504  502 -0.22848150427E+02 -0.49101734026E+02  0.10390828412E+02  0.55145150081E+02  0.00000000000E+00 0.  1.
         21    1    1    2  505  501  0.21144313605E+02 -0.47181556386E+02 -0.98041003256E+02  0.11083870976E+03  0.00000000000E+00 0.  1.
         -4    1    1    2    0  503 -0.57450924887E+02  0.79529073641E+02  0.54393965646E+03  0.55271677394E+03  0.00000000000E+00 0. -1.
<scales pt_clust_3="91.43617" pt_clust_4="65.81262" pt_clust_5="51.70282" pt_clust_6="14000.00000"></scales>
<clustering>
<clus scale="   51.703">  2  5  1 -1</clus>
<clus scale="   65.813">  2  4  1 -1</clus>
<clus scale="   91.436">  2  3  1 -1</clus>
<clus scale="   51.703">  2  3  1 -1</clus>
</clustering>
</event>
<event>
 6    0  0.1993420E+002  0.1625675E+03  0.7546771E-02  0.1185828E+00
         21   -1    0    0  501  502  0.00000000000E+00  0.00000000000E+00  0.20209162634E+03  0.20209162634E+03  0.00000000000E+00 0.  1.
          2   -1    0    0  505    0 -0.00000000000E+00 -0.00000000000E+00 -0.20610121997E+04  0.20610121997E+04  0.00000000000E+00 0. -1.
         21    1    1    2  503  502 -0.84915223186E+01  0.14826803360E+03  0.65834767812E+02  0.16244916864E+03  0.00000000000E+00 0.  1.
         21    1    1    2  504  503 -0.20831957343E+02 -0.87956382651E+02  0.18790403380E+02  0.92322126032E+02  0.00000000000E+00 0.  1.
         21    1    1    2  505  504  0.46658835358E+01 -0.81960811478E+02 -0.19983894445E+02  0.84490834559E+02  0.00000000000E+00 0.  1.
          2    1    1    2  501    0  0.24657596126E+02  0.21649160525E+02 -0.19235618501E+04  0.19238416968E+04  0.00000000000E+00 0. -1.
<scales pt_clust_3="155.88454" pt_clust_4="43.76696" pt_clust_5="43.76696" pt_clust_6="32.81285"></scales>
<clustering>
<clus scale="   32.813">  2  6  1 -1</clus>
<clus scale="   43.767">  4  5 -1 -1</clus>
<clus scale="  155.885">  1  3  2 -1</clus>
<clus scale="  155.885">  1  3  2 -1</clus>
</clustering>
</event>
<event>
 6    0  0.1993420E+002  0.1322812E+03  0.7546771E-02  0.1224110E+00
         21   -1    0    0  505  502  0.00000000000E+00  0.00000000000E+00  0.10073975816E+03  0.10073975816E+03  0.00000000000E+00 0.  1.
         -3   -1    0    0    0  501 -0.00000000000E+00 -0.00000000000E+00 -0.12721830083E+04  0.12721830083E+04  0.00000000000E+00 0.  1.
         21    1    1    2  503  501 -0.65219935796E+02 -0.44871022042E+02 -0.44310444818E+02  0.90721905647E+02  0.00000000000E+00 0.  1.
         21    1    1    2  504  502  0.52641571738E+02  0.11402801038E+03 -0.30012613833E+02  0.12912892478E+03  0.00000000000E+00 0.  1.
         21    1    1    2  505  503 -0.27797363339E+02 -0.41417067500E+02  0.47565623388E+01  0.50106803672E+02  0.00000000000E+00 0.  1.
         -3    1    1    2    0  504  0.40375727396E+02 -0.27739920835E+02 -0.11018767538E+04  0.11029651324E+04  0.00000000000E+00 0.  1.
<scales pt_clust_3="36.97992" pt_clust_4="123.80616" pt_clust_5="36.97992" pt_clust_6="48.98676"></scales>
<clustering>
<clus scale="   36.980">  3  5 -1 -1</clus>
<clus scale="   48.987">  2  6  1 -1</clus>
<clus scale="  123.806">  1  4  2 -1</clus>
<clus scale="  123.806">  1  3  2 -1</clus>
</clustering>
</event>
<event>
 6    0  0.1993420E+002  0.1234148E+03  0.7546771E-02  0.1237568E+00
          2   -1    0    0  505    0 -0.00000000000E+00  0.00000000000E+00  0.16494775645E+04  0.16494775645E+04  0.00000000000E+00 0. -1.
         21   -1    0    0  503  502  0.00000000000E+00 -0.00000000000E+00 -0.67183155806E+03  0.67183155806E+03  0.00000000000E+00 0.  1.
         21    1    1    2  503  501  0.65532390956E+01  0.42445809800E+02 -0.24768576835E+02  0.49578968430E+02  0.00000000000E+00 0.  1.
         21    1    1    2  504  502 -0.13822645782E+03 -0.60993534244E+02 -0.59802472833E+03  0.61681467278E+03  0.00000000000E+00 0.  1.
         21    1    1    2  505  504  0.85999154618E+02  0.41609514254E+01  0.42101480254E+02  0.95842071927E+02  0.00000000000E+00 0.  1.
          2    1    1    2  501    0  0.45674064105E+02  0.14386773019E+02  0.15583378313E+04  0.15590734094E+04  0.00000000000E+00 0. -1.
<scales pt_clust_3="42.94871" pt_clust_4="14000.00000" pt_clust_5="123.41476" pt_clust_6="47.89733"></scales>
<clustering>
<clus scale="   42.949">  2  3  1 -1</clus>
<clus scale="   47.897">  1  6  2 -1</clus>
<clus scale="  123.415">  1  5  2 -1</clus>
<clus scale="   42.949">  2  3  1 -1</clus>
</clustering>
</event>
<event>
 6    0  0.1993420E+002  0.1035254E+03  0.7546771E-02  0.1273052E+00
         21   -1    0    0  504  502  0.00000000000E+00  0.00000000000E+00  0.50193440125E+03  0.50193440125E+03  0.00000000000E+00 0.  1.
          1   -1    0    0  503    0 -0.00000000000E+00 -0.00000000000E+00 -0.10890123901E+04  0.10890123901E+04  0.00000000000E+00 0.  1.
         21    1    1    2  503  502 -0.27319324229E+02  0.82513870072E+02  0.21649577747E+03  0.23329231854E+03  0.00000000000E+00 0.  1.
         21    1    1    2  504  505  0.57521541221E+02 -0.10548937471E+02  0.14222796044E+03  0.15378166509E+03  0.00000000000E+00 0.  1.
         21    1    1    2  505  501  0.47501723337E+02 -0.51200316940E+02  0.11795418991E+03  0.13708054965E+03  0.00000000000E+00 0.  1.
          1    1    1    2  501    0 -0.77703940329E+02 -0.20764615661E+02 -0.10637559167E+04  0.10667922581E+04  0.00000000000E+00 0.  1.
<scales pt_clust_3="93.02847" pt_clust_4="41.56441" pt_clust_5="41.56441" pt_clust_6="80.43054"></scales>
<clustering>
<clus scale="   41.564">  4  5 -1 -1</clus>
<clus scale="   80.431">  2  6  1 -1</clus>
<clus scale="   93.028">  1  3  2 -1</clus>
<clus scale="   93.028">  1  3  2 -1</clus>
</clustering>
</event>
<event>
 6    0  0.1993420E+002  0.8638126E+02  0.7546771E-02  0.1311859E+00
          1   -1    0    0  502    0 -0.00000000000E+00  0.00000000000E+00  0.75464509116E+03  0.75464509116E+03  0.00000000000E+00 0.  1.
         21   -1    0    0  505  502  0.00000000000E+00 -0.00000000000E+00 -0.13669684239E+03  0.13669684239E+03  0.00000000000E+00 0.  1.
         21    1    1    2  503  504 -0.94395461148E+02 -0.13814440292E+02 -0.43325910448E+02  0.10477822466E+03  0.00000000000E+00 0.  1.
         21    1    1    2  504  501  0.12354276307E+02 -0.70079494501E+02  0.72101015138E+02  0.10130310990E+03  0.00000000000E+00 0.  1.
         21    1    1    2  505  503  0.40938161959E+02  0.76849836673E+00 -0.35226025712E+02  0.54012929765E+02  0.00000000000E+00 0.  1.
          1    1    1    2  501    0  0.41103022883E+02  0.83125436426E+02  0.62439916979E+03  0.63124766923E+03  0.00000000000E+00 0.  1.
<scales pt_clust_3="62.87197" pt_clust_4="14000.00000" pt_clust_5="40.94537" pt_clust_6="86.38126"></scales>
<clustering>
<clus scale="   40.945">  2  5  1 -1</clus>
<clus scale="   62.872">  2  3  1 -1</clus>
<clus scale="   86.381">  1  6  2 -1</clus>
<clus scale="   40.945">  2  3  1 -1</clus>
</clustering>
</event>
<event>
 6    0  0.1993420E+002  0.9899700E+02  0.7546771E-02  0.1282419E+00
         21   -1    0    0  503  502  0.00000000000E+00  0.00000000000E+00  0.13857028138E+03  0.13857028138E+03  0.00000000000E+00 0. -1.
          2   -1    0    0  504    0 -0.00000000000E+00 -0.00000000000E+00 -0.22476182028E+04  0.22476182028E+04  0.00000000000E+00 0. -1.
         21    1    1    2  503  501  0.93635389295E+02 -0.45214092995E+02  0.56263527319E+02  0.11822641346E+03  0.00000000000E+00 0. -1.
         21    1    1    2  504  505 -0.36369827849E+01 -0.38193888905E+02  0.18061022526E+01  0.38409149936E+02  0.00000000000E+00 0.  1.
         21    1    1    2  505  502 -0.35579074044E+02  0.56200209090E+00  0.19576754227E+02  0.40613244911E+02  0.00000000000E+00 0. -1.
          2    1    1    2  501    0 -0.54419332466E+02  0.82845979809E+02 -0.21866943053E+04  0.21889396759E+04  0.00000000000E+00 0. -1.
<scales pt_clust_3="98.99700" pt_clust_4="39.44012" pt_clust_5="35.58351" pt_clust_6="14000.00000"></scales>
<clustering>
<clus scale="   35.584">  1  5  2 -1</clus>
<clus scale="   39.440">  1  4  2 -1</clus>
<clus scale="   98.997">  1  3  2 -1</clus>
<clus scale="   35.584">  1  3  2 -1</clus>
</clustering>
</event>
<event>
 6    0  0.1993420E+002  0.1181829E+03  0.7546771E-02  0.1246125E+00
         21   -1    0    0  504  502  0.00000000000E+00  0.00000000000E+00  0.19840029030E+04  0.19840029030E+04  0.00000000000E+00 0. -1.
          4   -1    0    0  505    0 -0.00000000000E+00 -0.00000000000E+00 -0.14887390768E+03  0.14887390768E+03  0.00000000000E+00 0. -1.
         21    1    1    2  503  502  0.97923879549E+02 -0.64983494443E+02  0.15046328643E+04  0.15092156894E+04  0.00000000000E+00 0. -1.
         21    1    1    2  504  501  0.33431620418E+02  0.17609707617E+02  0.16277960357E+03  0.16710767303E+03  0.00000000000E+00 0. -1.
         21    1    1    2  505  503 -0.10473983377E+03  0.62062533124E+02  0.29845272126E+03  0.32232936203E+03  0.00000000000E+00 0. -1.
          4    1    1    2  501    0 -0.26615666200E+02 -0.14688746298E+02 -0.13073619381E+03  0.13422408624E+03  0.00000000000E+00 0. -1.
<scales pt_clust_3="14000.00000" pt_clust_4="33.77387" pt_clust_5="118.18288" pt_clust_6="30.39988"></scales>
<clustering>
<clus scale="   30.400">  2  6  1 -1</clus>
<clus scale="   33.774">  2  4  1 -1</clus>
<clus scale="  118.183">  2  5  1 -1</clus>
<clus scale="  118.183">  1  3  2 -1</clus>
</clustering>
</event>
<event>
 6    0  0.1993420E+002  0.1735783E+03  0.7546771E-02  0.1174167E+00
          1   -1    0    0  503    0 -0.00000000000E+00  0.00000000000E+00  0.16640253730E+04  0.16640253730E+04  0.00000000000E+00 0.  1.
         21   -1    0    0  504  502  0.00000000000E+00 -0.00000000000E+00 -0.41602025264E+02  0.41602025264E+02  0.00000000000E+00 0. -1.
         21    1    1    2  503  502 -0.53784664602E+02 -0.17420511463E+02  0.39429319628E+02  0.68927031071E+02  0.00000000000E+00 0. -1.
         21    1    1    2  504  505  0.40199847315E+02 -0.58147095515E+01  0.51301040368E+02  0.65434205995E+02  0.00000000000E+00 0. -1.
         21    1    1    2  505  501  0.12948309155E+03 -0.82695874893E+02  0.39580877242E+03  0.42458104414E+03  0.00000000000E+00 0. -1.
          1    1    1    2  501    0 -0.11589827426E+03  0.10593109591E+03  0.11358842153E+04  0.11466851170E+04  0.00000000000E+00 0.  1.
<scales pt_clust_3="56.53551" pt_clust_4="30.77049" pt_clust_5="30.77049" pt_clust_6="162.93587"></scales>
<clustering>
<clus scale="   30.770">  4  5 -1 -1</clus>
<clus scale="   56.536">  2  3  1 -1</clus>
<clus scale="  162.936">  1  6  2 -1</clus>
<clus scale="   56.536">  2  3  1 -1</clus>
</clustering>
</event>
<event>
 6    0  0.1993420E+002  0.1704868E+03  0.7546771E-02  0.1177341E+00
          2   -1    0    0  504    0 -0.00000000000E+00  0.00000000000E+00  0.33463419593E+04  0.33463419593E+04  0.00000000000E+00 0.  1.
         21   -1    0    0  503  502  0.00000000000E+00 -0.00000000000E+00 -0.42583910558E+02  0.42583910558E+02  0.00000000000E+00 0.  1.
         21    1    1    2  503  505  0.68641395961E+02  0.24409230322E+02  0.59690861972E+02  0.94183070493E+02  0.00000000000E+00 0.  1.
         21    1    1    2  504  502 -0.42807840825E+02 -0.16045174332E+02  0.11644012048E+03  0.12509300745E+03  0.00000000000E+00 0.  1.
         21    1    1    2  505  501  0.98140572346E+02  0.87203887712E+02  0.20890646340E+03  0.24673467617E+03  0.00000000000E+00 0.  1.
          2    1    1    2  501    0 -0.12397412748E+03 -0.95567943702E+02  0.29187206029E+04  0.29229151158E+04  0.00000000000E+00 0.  1.
<scales pt_clust_3="42.42623" pt_clust_4="45.71607" pt_clust_5="42.42623" pt_clust_6="158.93105"></scales>
<clustering>
<clus scale="   45.716">  2  4  1 -1</clus>
<clus scale="   42.426">  3  5 -1 -1</clus>
<clus scale="  158.931">  1  6  2 -1</clus>
<clus scale="   45.716">  2  3  1 -1</clus>
</clustering>
</event>
<event>
 6    0  0.1993420E+002  0.2627166E+03  0.7546771E-02  0.1105522E+00
         21   -1    0    0  501  502  0.00000000000E+00  0.00000000000E+00  0.14955031786E+03  0.14955031786E+03  0.00000000000E+00 0. -1.
          2   -1    0    0  503    0 -0.00000000000E+00 -0.00000000000E+00 -0.58717056045E+03  0.58717056045E+03  0.00000000000E+00 0. -1.
         21    1    1    2  503  504  0.63758871443E+02 -0.78548100013E+02 -0.47693785133E+02  0.11184674713E+03  0.00000000000E+00 0. -1.
         21    1    1    2  504  505  0.90011179773E+02  0.74957233013E+01  0.16957164280E+02  0.91900727812E+02  0.00000000000E+00 0. -1.
         21    1    1    2  505  502  0.53393567724E+02 -0.26602849703E+02  0.68838031100E+01  0.60049741314E+02  0.00000000000E+00 0. -1.
          2    1    1    2  501    0 -0.20716361894E+03  0.97655226414E+02 -0.41376742486E+03  0.47292366205E+03  0.00000000000E+00 0. -1.
<scales pt_clust_3="99.53993" pt_clust_4="99.53993" pt_clust_5="32.41114" pt_clust_6="229.02687"></scales>
<clustering>
<clus scale="   32.411">  4  5 -1 -1</clus>
<clus scale="   99.540">  3  4 -1 -1</clus>
<clus scale="  229.027">  2  6  1 -1</clus>
<clus scale="  262.717">  1  3  2 -1</clus>
</clustering>
</event>
<event>
 6    0  0.1993420E+002  0.1794564E+03  0.7546771E-02  0.1168330E+00
          2   -1    0    0  505    0 -0.00000000000E+00  0.00000000000E+00  0.22666703912E+04  0.22666703912E+04  0.00000000000E+00 0. -1.
         21   -1    0    0  504  502  0.00000000000E+00 -0.00000000000E+00 -0.68540926025E+02  0.68540926025E+02  0.00000000000E+00 0. -1.
         21    1    1    2  503  501  0.56403823283E+02 -0.67918266271E+02  0.12452562970E+03  0.15264637115E+03  0.00000000000E+00 0. -1.
         21    1    1    2  504  503  0.66882797132E+02 -0.13322783570E+03  0.15037073036E+03  0.21174116583E+03  0.00000000000E+00 0. -1.
         21    1    1    2  505  502 -0.11218196667E+03  0.81528483365E+02  0.19981382224E+03  0.24322263629E+03  0.00000000000E+00 0.  1.
          2    1    1    2  501    0 -0.11104653749E+02  0.11961761860E+03  0.17234192829E+04  0.17276011439E+04  0.00000000000E+00 0. -1.
<scales pt_clust_3="30.30670" pt_clust_4="30.30670" pt_clust_5="175.08187" pt_clust_6="120.13196"></scales>
<clustering>
<clus scale="   30.307">  3  4 -1 -1</clus>
<clus scale="  120.132">  1  6  2 -1</clus>
<clus scale="  175.082">  2  5  1 -1</clus>
<clus scale="  175.082">  2  3  1 -1</clus>
</clustering>
</event>
<event>
 6    0  0.1993420E+002  0.3247753E+03  0.7546771E-02  0.1073472E+00
          2   -1    0    0  505    0 -0.00000000000E+00  0.00000000000E+00  0.70775215330E+03  0.70775215330E+03  0.00000000000E+00 0. -1.
         21   -1    0    0  501  502  0.00000000000E+00 -0.00000000000E+00 -0.93478117285E+03  0.93478117285E+03  0.00000000000E+00 0. -1.
         21    1    1    2  503  504 -0.34629317478E+02  0.19132607538E+03 -0.48160529965E+03  0.51937320050E+03  0.00000000000E+00 0. -1.
         21    1    1    2  504  502 -0.11442744367E+03  0.57913099969E+02 -0.37076452271E+03  0.39231861836E+03  0.00000000000E+00 0.  1.
         21    1    1    2  505  503 -0.14743102980E+02  0.29686971347E+02  0.83199658073E+01  0.34174510739E+02  0.00000000000E+00 0.  1.
          2    1    1    2  501    0  0.16379986413E+03 -0.27892614669E+03  0.61702083699E+03  0.69666699655E+03  0.00000000000E+00 0. -1.
<scales pt_clust_3="115.66936" pt_clust_4="115.66936" pt_clust_5="33.14627" pt_clust_6="291.83797"></scales>
<clustering>
<clus scale="   33.146">  1  5  2 -1</clus>
<clus scale="  115.669">  3  4 -1 -1</clus>
<clus scale="  291.838">  1  6  2 -1</clus>
<clus scale="  324.775">  2  3  1 -1</clus>
</clustering>
</event>
<event>
 6    0  0.1993420E+002  0.9975988E+02  0.7546771E-02  0.1280802E+00
         21   -1    0    0  503  502  0.00000000000E+00  0.00000000000E+00  0.94056495122E+02  0.94056495122E+02  0.00000000000E+00 0.  1.
          1   -1    0    0  505    0 -0.00000000000E+00 -0.00000000000E+00 -0.16119357524E+04  0.16119357524E+04  0.00000000000E+00 0. -1.
         21    1    1    2  503  501  0.10046793395E+03  0.58432445141E+02 -0.22045321906E+02  0.11829688337E+03  0.00000000000E+00 0.  1.
         21    1    1    2  504  502 -0.94212386182E+02  0.12174550498E+02 -0.32694063632E+02  0.10046439761E+03  0.00000000000E+00 0.  1.
         21    1    1    2  505  504  0.65179166822E+02 -0.42586563458E+02 -0.12752784943E+03  0.14941650362E+03  0.00000000000E+00 0. -1.
          1    1    1    2  501    0 -0.71434714585E+02 -0.28020432181E+02 -0.13356120223E+04  0.13378144629E+04  0.00000000000E+00 0. -1.
<scales pt_clust_3="99.75988" pt_clust_4="14000.00000" pt_clust_5="63.78092" pt_clust_6="76.73372"></scales>
<clustering>
<clus scale="   76.734">  2  6  1 -1</clus>
<clus scale="   63.781">  2  5  1 -1</clus>
<clus scale="   99.760">  2  3  1 -1</clus>
<clus scale="   99.760">  1  3  2 -1</clus>
</clustering>
</event>
<event>
 6    0  0.1993420E+002  0.2143984E+03  0.7546771E-02  0.1138129E+00
         21   -1    0    0  503  502  0.00000000000E+00  0.00000000000E+00  0.32336382085E+03  0.32336382085E+03  0.00000000000E+00 0.  1.
         -3   -1    0    0    0  501 -0.00000000000E+00 -0.00000000000E+00 -0.62508871142E+03  0.62508871142E+03  0.00000000000E+00 0. -1.
         21    1    1    2  503  505  0.83979333981E+02  0.10733082825E+03  0.12235226557E+03  0.18314614962E+03  0.00000000000E+00 0.  1.
         21    1    1    2  504  502 -0.90368150483E+02 -0.19121309245E+03  0.56807606882E+02  0.21898847811E+03  0.00000000000E+00 0.  1.
         21    1    1    2  505  501  0.34415703321E+02  0.50131796167E+02  0.25837421264E+01  0.60863070456E+02  0.00000000000E+00 0.  1.
         -3    1    1    2    0  504 -0.28026886819E+02  0.33750468029E+02 -0.48346850514E+03  0.48545483409E+03  0.00000000000E+00 0. -1.
<scales pt_clust_3="48.57845" pt_clust_4="202.10656" pt_clust_5="48.57845" pt_clust_6="43.87027"></scales>
<clustering>
<clus scale="   43.870">  2  6  1 -1</clus>
<clus scale="   48.578">  3  5 -1 -1</clus>
<clus scale="  202.107">  2  4  1 -1</clus>
<clus scale="  214.398">  1  3  2 -1</clus>
</clustering>
</event>
<event>
 6    0  0.1993420E+002  0.3929792E+03  0.7546771E-02  0.1046238E+00
         21   -1    0    0  504  502  0.00000000000E+00  0.00000000000E+00  0.42167042653E+03  0.42167042653E+03  0.00000000000E+00 0. -1.
          2   -1    0    0  505    0 -0.00000000000E+00 -0.00000000000E+00 -0.31233546674E+04  0.31233546674E+04  0.00000000000E+00 0. -1.
         21    1    1    2  503  501  0.80934644580E+02  0.93502994689E+02 -0.84024099905E+02  0.14951012031E+03  0.00000000000E+00 0. -1.
         21    1    1    2  504  503  0.23286377117E+03  0.68836519551E+02  0.20387778065E+02  0.24367942843E+03  0.00000000000E+00 0. -1.
         21    1    1    2  505  502 -0.30052509297E+03 -0.20305075178E+03  0.12863062990E+03  0.38482564656E+03  0.00000000000E+00 0. -1.
          2    1    1    2  501    0 -0.13273322780E+02  0.40711237541E+02 -0.27666785489E+04  0.27670098986E+04  0.00000000000E+00 0. -1.
<scales pt_clust_3="118.00922" pt_clust_4="118.00922" pt_clust_5="358.75867" pt_clust_6="42.82039"></scales>
<clustering>
<clus scale="   42.820">  2  6  1 -1</clus>
<clus scale="  118.009">  3  4 -1 -1</clus>
<clus scale="  358.759">  1  5  2 -1</clus>
<clus scale="  358.759">  1  3  2 -1</clus>
</clustering>
</event>
<event>
 6    0  0.1993420E+002  0.7620358E+02  0.7546771E-02  0.1340184E+00
          1   -1    0    0  503    0 -0.00000000000E+00  0.00000000000E+00  0.75492999542E+03  0.75492999542E+03  0.00000000000E+00 0.  1.
         21   -1    0    0  505  502  0.00000000000E+00 -0.00000000000E+00 -0.55754572141E+02  0.55754572141E+02  0.00000000000E+00 0.  1.
         21    1    1    2  503  504  0.73824252062E+02 -0.43447688769E+02  0.14759464771E+03  0.17065140458E+03  0.00000000000E+00 0.  1.
         21    1    1    2  504  502 -0.32219975316E+02  0.40901147578E+02  0.44631409051E+01  0.52258495093E+02  0.00000000000E+00 0.  1.
         21    1    1    2  505  501  0.34828295489E+02  0.21568379354E+02  0.65346878885E+01  0.41483819743E+02  0.00000000000E+00 0. -1.
          1    1    1    2  501    0 -0.76432572235E+02 -0.19021838163E+02  0.54058294678E+03  0.54629084815E+03  0.00000000000E+00 0.  1.
<scales pt_clust_3="76.20358" pt_clust_4="55.36634" pt_clust_5="40.96590" pt_clust_6="14000.00000"></scales>
<clustering>
<clus scale="   40.966">  2  5  1 -1</clus>
<clus scale="   55.366">  2  4  1 -1</clus>
<clus scale="   76.204">  2  3  1 -1</clus>
<clus scale="   40.966">  2  3  1 -1</clus>
</clustering>
</event>
<event>
 6    0  0.1993420E+002  0.7971850E+02  0.7546771E-02  0.1329852E+00
         21   -1    0    0  504  502  0.00000000000E+00  0.00000000000E+00  0.23639721937E+03  0.23639721937E+03  0.00000000000E+00 0. -1.
          1   -1    0    0  505    0 -0.00000000000E+00 -0.00000000000E+00 -0.21493640561E+04  0.21493640561E+04  0.00000000000E+00 0. -1.
         21    1    1    2  503  502  0.37824114095E+02  0.90583581271E+02  0.13819306567E+03  0.16950920978E+03  0.00000000000E+00 0. -1.
         21    1    1    2  504  501 -0.50265290859E+02 -0.37603197359E+02  0.31629006494E+02  0.70292204181E+02  0.00000000000E+00 0. -1.
         21    1    1    2  505  503  0.48749450906E+02 -0.34785893855E+02  0.28212118751E+01  0.59954371078E+02  0.00000000000E+00 0. -1.
          1    1    1    2  501    0 -0.36308274142E+02 -0.18194490057E+02 -0.20856101207E+04  0.20860054904E+04  0.00000000000E+00 0. -1.
<scales pt_clust_3="79.71850" pt_clust_4="14000.00000" pt_clust_5="53.82926" pt_clust_6="40.61195"></scales>
<clustering>
<clus scale="   40.612">  2  6  1 -1</clus>
<clus scale="   53.829">  2  5  1 -1</clus>
<clus scale="   79.719">  1  3  2 -1</clus>
<clus scale="   79.719">  1  3  2 -1</clus>
</clustering>
</event>
<event>
 6    0  0.1993420E+002  0.1024546E+03  0.7546771E-02  0.1275217E+00
         21   -1    0    0  504  502  0.00000000000E+00  0.00000000000E+00  0.36433652594E+03  0.36433652594E+03  0.00000000000E+00 0.  1.
         -3   -1    0    0    0  501 -0.00000000000E+00 -0.00000000000E+00 -0.18319334833E+03  0.18319334833E+03  0.00000000000E+00 0. -1.
         21    1    1    2  503  505  0.84440415868E+02 -0.55374430511E+02  0.58787908976E+02  0.11684403976E+03  0.00000000000E+00 0.  1.
         21    1    1    2  504  501 -0.85933732068E+02  0.90787294614E+02  0.10244108587E+03  0.16162028104E+03  0.00000000000E+00 0.  1.
         21    1    1    2  505  502  0.30873982275E+02 -0.44417617961E+02  0.13738030150E+03  0.14764645207E+03  0.00000000000E+00 0.  1.
         -3    1    1    2    0  503 -0.29380666075E+02  0.90047538586E+01 -0.11746611874E+03  0.12141910139E+03  0.00000000000E+00 0. -1.
<scales pt_clust_3="102.45459" pt_clust_4="14000.00000" pt_clust_5="52.17054" pt_clust_6="30.72961"></scales>
<clustering>
<clus scale="   30.730">  2  6  1 -1</clus>
<clus scale="   52.171">  1  5  2 -1</clus>
<clus scale="  102.455">  2  3  1 -1</clus>
<clus scale="   52.171">  1  3  2 -1</clus>
</clustering>
</event>
<event>
 6    0  0.1993420E+002  0.8610775E+02  0.7546771E-02  0.1312561E+00
         21   -1    0    0  505  502  0.00000000000E+00  0.00000000000E+00  0.23381317076E+03  0.23381317076E+03  0.00000000000E+00 0. -1.
          1   -1    0    0  503    0 -0.00000000000E+00 -0.00000000000E+00 -0.44750718978E+03  0.44750718978E+03  0.00000000000E+00 0. -1.
         21    1    1    2  503  504  0.63108929244E+02 -0.20616663325E+02 -0.43686907755E+02  0.79475339988E+02  0.00000000000E+00 0.  1.
         21    1    1    2  504  502  0.50378906448E+02 -0.18729918919E+02  0.91504695088E+02  0.10612235062E+03  0.00000000000E+00 0. -1.
         21    1    1    2  505  501  0.40787367804E+02  0.36603028877E+02  0.93641222769E+02  0.10849916911E+03  0.00000000000E+00 0. -1.
          1    1    1    2  501    0 -0.15427520350E+03  0.27435533669E+01 -0.35515302912E+03  0.38722350082E+03  0.00000000000E+00 0. -1.
<scales pt_clust_3="73.51024" pt_clust_4="53.74797" pt_clust_5="14000.00000" pt_clust_6="86.10775"></scales>
<clustering>
<clus scale="   53.748">  1  4  2 -1</clus>
<clus scale="   73.510">  2  3  1 -1</clus>
<clus scale="   86.108">  2  6  1 -1</clus>
<clus scale="   53.748">  1  3  2 -1</clus>
</clustering>
</event>
<event>
 6    0  0.1993420E+002  0.4725419E+03  0.7546771E-02  0.1021205E+00
         21   -1    0    0  503  502  0.00000000000E+00  0.00000000000E+00  0.24571194793E+04  0.24571194793E+04  0.00000000000E+00 0.  1.
         -1   -1    0    0    0  501 -0.00000000000E+00 -0.00000000000E+00 -0.31308351764E+03  0.31308351764E+03  0.00000000000E+00 0.  1.
         21    1    1    2  503  504 -0.28182456701E+02 -0.32189326561E+03  0.12598391385E+04  0.13006168460E+04  0.00000000000E+00 0.  1.
         21    1    1    2  504  501  0.35582766740E+02 -0.13992308472E+03  0.74586460216E+03  0.75970955482E+03  0.00000000000E+00 0.  1.
         21    1    1    2  505  502 -0.59940821094E+02  0.46805869045E+03  0.28684210747E+03  0.55222299332E+03  0.00000000000E+00 0.  1.
         -1    1    1    2    0  505  0.52540511055E+02 -0.62423401184E+01 -0.14850988642E+03  0.15765360280E+03  0.00000000000E+00 0.  1.
<scales pt_clust_3="62.74651" pt_clust_4="62.74651" pt_clust_5="463.17121" pt_clust_6="52.91004"></scales>
<clustering>
<clus scale="   52.910">  2  6  1 -1</clus>
<clus scale="   62.747">  3  4 -1 -1</clus>
<clus scale="  463.171">  2  5  1 -1</clus>
<clus scale="  472.542">  1  3  2 -1</clus>
</clustering>
</event>
<event>
 6    0  0.1993420E+002  0.1026941E+03  0.7546771E-02  0.1274731E+00
          2   -1    0    0  504    0 -0.00000000000E+00  0.00000000000E+00  0.30682954885E+04  0.30682954885E+04  0.00000000000E+00 0.  1.
         21   -1    0    0  503  502  0.00000000000E+00 -0.00000000000E+00 -0.60997645333E+02  0.60997645333E+02  0.00000000000E+00 0. -1.
         21    1    1    2  503  505 -0.31307198020E+02 -0.57855528602E+02 -0.26994784943E+02  0.71106407952E+02  0.00000000000E+00 0. -1.
         21    1    1    2  504  502 -0.33609582200E+02 -0.24575317310E+02  0.98643241079E+02  0.10707025379E+03  0.00000000000E+00 0.  1.
         21    1    1    2  505  501  0.32201666528E+02  0.12160144463E+03  0.52256141064E+03  0.53748887109E+03  0.00000000000E+00 0. -1.
          2    1    1    2  501    0  0.32715113692E+02 -0.39170598721E+02  0.24130879764E+04  0.24136276010E+04  0.00000000000E+00 0.  1.
<scales pt_clust_3="14000.00000" pt_clust_4="41.63592" pt_clust_5="102.69410" pt_clust_6="51.02306"></scales>
<clustering>
<clus scale="   41.636">  2  4  1 -1</clus>
<clus scale="   51.023">  1  6  2 -1</clus>
<clus scale="  102.694">  1  5  2 -1</clus>
<clus scale="   41.636">  2  3  1 -1</clus>
</clustering>
</event>
<event>
 6    0  0.1993420E+002  0.1006540E+03  0.7546771E-02  0.1278927E+00
          2   -1    0    0  504    0 -0.00000000000E+00  0.00000000000E+00  0.19626500623E+04  0.19626500623E+04  0.00000000000E+00 0. -1.
         21   -1    0    0  501  502  0.00000000000E+00 -0.00000000000E+00 -0.41994468200E+03  0.41994468200E+03  0.00000000000E+00 0. -1.
         21    1    1    2  503  505 -0.44665583325E+02  0.11470713126E+03  0.39540658525E+02  0.12929115968E+03  0.00000000000E+00 0.  1.
         21    1    1    2  504  503 -0.31024409924E+02 -0.41772380885E+02  0.69950857397E+02  0.87181238042E+02  0.00000000000E+00 0.  1.
         21    1    1    2  505  502  0.44200156268E+02 -0.88491377337E+02 -0.35960406701E+03  0.37296040365E+03  0.00000000000E+00 0. -1.
          2    1    1    2  501    0  0.31489836981E+02  0.15556626966E+02  0.17928179314E+04  0.17931619429E+04  0.00000000000E+00 0. -1.
<scales pt_clust_3="100.65402" pt_clust_4="38.27950" pt_clust_5="14000.00000" pt_clust_6="35.12291"></scales>
<clustering>
<clus scale="   35.123">  1  6  2 -1</clus>
<clus scale="   38.279">  1  4  2 -1</clus>
<clus scale="  100.654">  1  3  2 -1</clus>
<clus scale="  100.654">  2  3  1 -1</clus>
</clustering>
</event>
<event>
 6    0  0.1993420E+002  0.1460982E+03  0.7546771E-02  0.1205351E+00
          1   -1    0    0  505    0 -0.00000000000E+00  0.00000000000E+00  0.16904992803E+04  0.16904992803E+04  0.00000000000E+00 0. -1.
         21   -1    0    0  504  502  0.00000000000E+00 -0.00000000000E+00 -0.17315254172E+03  0.17315254172E+03  0.00000000000E+00 0.  1.
         21    1    1    2  503  501  0.22385506272E+02 -0.88460099420E+02 -0.65271721394E+02  0.11219045278E+03  0.00000000000E+00 0.  1.
         21    1    1    2  504  503 -0.15666243005E+02 -0.40567641214E+02 -0.54947766592E+02  0.70074401439E+02  0.00000000000E+00 0.  1.
         21    1    1    2  505  502  0.46019448072E+02  0.26374982125E+00  0.90059608560E+01  0.46893139111E+02  0.00000000000E+00 0.  1.
          1    1    1    2  501    0 -0.52738711339E+02  0.12876399081E+03  0.16285602657E+04  0.16344938287E+04  0.00000000000E+00 0. -1.
<scales pt_clust_3="31.44274" pt_clust_4="31.44274" pt_clust_5="46.02020" pt_clust_6="138.81730"></scales>
<clustering>
<clus scale="   31.443">  3  4 -1 -1</clus>
<clus scale="   46.020">  2  5  1 -1</clus>
<clus scale="  138.817">  1  6  2 -1</clus>
<clus scale="   46.020">  2  3  1 -1</clus>
</clustering>
</event>
<event>
 6    0  0.1993420E+002  0.1570421E+03  0.7546771E-02  0.1192077E+00
         21   -1    0    0  503  502  0.00000000000E+00  0.00000000000E+00  0.11810798887E+04  0.11810798887E+04  0.00000000000E+00 0.  1.
         -2   -1    0    0    0  501 -0.00000000000E+00 -0.00000000000E+00 -0.35000326759E+03  0.35000326759E+03  0.00000000000E+00 0. -1.
         21    1    1    2  503  504  0.11956596062E+03  0.19938089694E+02  0.10688580362E+04  0.10757095556E+04  0.00000000000E+00 0.  1.
         21    1    1    2  504  501 -0.20031188469E+02  0.33457805608E+02  0.79302682652E+01  0.39793999828E+02  0.00000000000E+00 0.  1.
         21    1    1    2  505  502  0.37163137811E+02  0.60548580432E+01  0.62640459557E+02  0.73086163474E+02  0.00000000000E+00 0.  1.
         -2    1    1    2    0  505 -0.13669790996E+03 -0.59450753345E+02 -0.30835214290E+03  0.34249343745E+03  0.00000000000E+00 0. -1.
<scales pt_clust_3="157.04214" pt_clust_4="38.70524" pt_clust_5="37.65316" pt_clust_6="14000.00000"></scales>
<clustering>
<clus scale="   37.653">  1  5  2 -1</clus>
<clus scale="   38.705">  2  4  1 -1</clus>
<clus scale="  157.042">  1  3  2 -1</clus>
<clus scale="   37.653">  1  3  2 -1</clus>
</clustering>
</event>
<event>
 6    0  0.1993420E+002  0.7330660E+02  0.7546771E-02  0.1349197E+00
         21   -1    0    0  505  502  0.00000000000E+00  0.00000000000E+00  0.31888011127E+03  0.31888011127E+03  0.00000000000E+00 0. -1.
          1   -1    0    0  504    0 -0.00000000000E+00 -0.00000000000E+00 -0.16959269738E+04  0.16959269738E+04  0.00000000000E+00 0.  1.
         21    1    1    2  503  502  0.40976682579E+02  0.21131452781E+02  0.13655932944E+03  0.14413215210E+03  0.00000000000E+00 0. -1.
         21    1    1    2  504  503  0.45621167832E+02  0.63397254270E+02  0.54789405140E+02  0.95406402924E+02  0.00000000000E+00 0.  1.
         21    1    1    2  505  501 -0.14045571832E+02 -0.72759258498E+02  0.89244895452E+02  0.11599930668E+03  0.00000000000E+00 0. -1.
          1    1    1    2  501    0 -0.72552278579E+02 -0.11769448553E+02 -0.16576404925E+04  0.16592692233E+04  0.00000000000E+00 0.  1.
<scales pt_clust_3="46.10452" pt_clust_4="14000.00000" pt_clust_5="61.35403" pt_clust_6="73.30660"></scales>
<clustering>
<clus scale="   46.105">  1  3  2 -1</clus>
<clus scale="   61.354">  1  5  2 -1</clus>
<clus scale="   73.307">  2  6  1 -1</clus>
<clus scale="   46.105">  1  3  2 -1</clus>
</clustering>
</event>
<event>
 6    0  0.1993420E+002  0.1163596E+03  0.7546771E-02  0.1249226E+00
          2   -1    0    0  503    0 -0.00000000000E+00  0.00000000000E+00  0.11607037753E+04  0.11607037753E+04  0.00000000000E+00 0.  1.
         21   -1    0    0  504  502  0.00000000000E+00 -0.00000000000E+00 -0.18810749459E+03  0.18810749459E+03  0.00000000000E+00 0. -1.
         21    1    1    2  503  502  0.44394778588E+02  0.22470922684E+02  0.12725153196E+02  0.51359208093E+02  0.00000000000E+00 0. -1.
         21    1    1    2  504  505 -0.94132489397E+02  0.32270741840E+02 -0.11436617294E+03  0.15159798103E+03  0.00000000000E+00 0. -1.
         21    1    1    2  505  501 -0.43511508408E+02 -0.44658637450E+01 -0.18861616695E+02  0.47633558415E+02  0.00000000000E+00 0.  1.
          2    1    1    2  501    0  0.93249219217E+02 -0.50275800780E+02  0.10930989171E+04  0.10982205223E+04  0.00000000000E+00 0.  1.
<scales pt_clust_3="49.75780" pt_clust_4="31.27013" pt_clust_5="31.27013" pt_clust_6="106.37188"></scales>
<clustering>
<clus scale="   31.270">  4  5 -1 -1</clus>
<clus scale="   49.758">  2  3  1 -1</clus>
<clus scale="  106.372">  1  6  2 -1</clus>
<clus scale="   49.758">  2  3  1 -1</clus>
</clustering>
</event>
<event>
 6    0  0.1993420E+002  0.1677243E+03  0.7546771E-02  0.1180242E+00
         21   -1    0    0  503  502  0.00000000000E+00  0.00000000000E+00  0.10143820703E+03  0.10143820703E+03  0.00000000000E+00 0. -1.
          2   -1    0    0  504    0 -0.00000000000E+00 -0.00000000000E+00 -0.25141143346E+04  0.25141143346E+04  0.00000000000E+00 0.  1.
         21    1    1    2  503  505  0.19658382929E+02 -0.93936658921E+02 -0.24422118869E+02  0.99030236789E+02  0.00000000000E+00 0. -1.
         21    1    1    2  504  502 -0.48694768872E+02  0.12226220914E+03 -0.16218877163E+03  0.20886461151E+03  0.00000000000E+00 0. -1.
         21    1    1    2  505  501  0.52526661928E+02 -0.72022704133E+02 -0.85098191298E+01  0.89547401668E+02  0.00000000000E+00 0. -1.
          2    1    1    2  501    0 -0.23490275985E+02  0.43697153912E+02 -0.22175554179E+04  0.22181102917E+04  0.00000000000E+00 0.  1.
<scales pt_clust_3="40.01441" pt_clust_4="162.50418" pt_clust_5="40.01441" pt_clust_6="49.61083"></scales>
<clustering>
<clus scale="   40.014">  3  5 -1 -1</clus>
<clus scale="   49.611">  2  6  1 -1</clus>
<clus scale="  162.504">  2  4  1 -1</clus>
<clus scale="  167.724">  1  3  2 -1</clus>
</clustering>
</event>
<event>
 6    0  0.1993420E+002  0.1290798E+03  0.7546771E-02  0.1228828E+00
          2   -1    0    0  503    0 -0.00000000000E+00  0.00000000000E+00  0.29829296874E+03  0.29829296874E+03  0.00000000000E+00 0.  1.
         21   -1    0    0  504  502  0.00000000000E+00 -0.00000000000E+00 -0.19917657693E+03  0.19917657693E+03  0.00000000000E+00 0.  1.
         21    1    1    2  503  502 -0.11893156511E+03 -0.27735886350E+02 -0.53261445236E+02  0.13323204614E+03  0.00000000000E+00 0.  1.
         21    1    1    2  504  505  0.41454598326E+02  0.63950302867E+01  0.21460327205E+01  0.41999828466E+02  0.00000000000E+00 0.  1.
         21    1    1    2  505  501  0.73998180861E+02 -0.11000917267E+02 -0.68299074434E+02  0.10129913386E+03  0.00000000000E+00 0.  1.
          2    1    1    2  501    0  0.34787859232E+01  0.32341773330E+02  0.21853087876E+03  0.22093853721E+03  0.00000000000E+00 0.  1.
<scales pt_clust_3="117.70211" pt_clust_4="41.16357" pt_clust_5="41.16357" pt_clust_6="32.52833"></scales>
<clustering>
<clus scale="   32.528">  1  6  2 -1</clus>
<clus scale="   41.164">  4  5 -1 -1</clus>
<clus scale="  117.702">  1  3  2 -1</clus>
<clus scale="  129.080">  2  3  1 -1</clus>
</clustering>
</event>
<event>
 6    0  0.1993420E+002  0.9064701E+02  0.7546771E-02  0.1301292E+00
         21   -1    0    0  503  502  0.00000000000E+00  0.00000000000E+00  0.81045863511E+02  0.81045863511E+02  0.00000000000E+00 0. -1.
          2   -1    0    0  504    0 -0.00000000000E+00 -0.00000000000E+00 -0.30655211106E+04  0.30655211106E+04  0.00000000000E+00 0.  1.
         21    1    1    2  503  501 -0.31239114280E+02  0.46063059104E+02 -0.52324542119E+01  0.55902292011E+02  0.00000000000E+00 0. -1.
         21    1    1    2  504  505  0.10344502988E+03 -0.49022744766E+02 -0.56282537942E+02  0.12756107474E+03  0.00000000000E+00 0. -1.
         21    1    1    2  505  502  0.11041321614E+01 -0.49617743755E+02 -0.12413334519E+02  0.51158874861E+02  0.00000000000E+00 0. -1.
          2    1    1    2  501    0 -0.73310047763E+02  0.52577429417E+02 -0.29105469204E+04  0.29119447325E+04  0.00000000000E+00 0.  1.
<scales pt_clust_3="40.09031" pt_clust_4="14000.00000" pt_clust_5="49.63003" pt_clust_6="90.64701"></scales>
<clustering>
<clus scale="   49.630">  1  5  2 -1</clus>
<clus scale="   40.090">  1  3  2 -1</clus>
<clus scale="   90.647">  2  6  1 -1</clus>
<clus scale="   49.630">  1  3  2 -1</clus>
</clustering>
</event>
<event>
 6    0  0.1993420E+002  0.2004198E+03  0.7546771E-02  0.1149385E+00
         21   -1    0    0  504  502  0.00000000000E+00  0.00000000000E+00  0.35820434300E+03  0.35820434300E+03  0.00000000000E+00 0.  1.
          2   -1    0    0  505    0 -0.00000000000E+00 -0.00000000000E+00 -0.77814163435E+03  0.77814163435E+03  0.00000000000E+00 0.  1.
         21    1    1    2  503  502  0.10857800491E+03  0.19219989412E+02  0.24599452354E+03  0.26957725563E+03  0.00000000000E+00 0.  1.
         21    1    1    2  504  501  0.90811818244E+02  0.33377049723E+02  0.40289090261E+02  0.10480469729E+03  0.00000000000E+00 0.  1.
         21    1    1    2  505  503  0.33677054792E+02  0.10291062894E+01 -0.31547817375E+02  0.46156991457E+02  0.00000000000E+00 0.  1.
          2    1    1    2  501    0 -0.23306687795E+03 -0.53626145424E+02 -0.67467308777E+03  0.71580703296E+03  0.00000000000E+00 0.  1.
<scales pt_clust_3="200.41977" pt_clust_4="98.14713" pt_clust_5="33.69277" pt_clust_6="14000.00000"></scales>
<clustering>
<clus scale="   33.693">  2  5  1 -1</clus>
<clus scale="   98.147">  1  4  2 -1</clus>
<clus scale="  200.420">  1  3  2 -1</clus>
<clus scale="   98.147">  1  3  2 -1</clus>
</clustering>
</event>
<event>
 6    0  0.1993420E+002  0.1301565E+03  0.7546771E-02  0.1227224E+00
         21   -1    0    0  504  502  0.00000000000E+00  0.00000000000E+00  0.36759351705E+02  0.36759351705E+02  0.00000000000E+00 0. -1.
          1   -1    0    0  505    0 -0.00000000000E+00 -0.00000000000E+00 -0.24790852248E+04  0.24790852248E+04  0.00000000000E+00 0. -1.
         21    1    1    2  503  501  0.12210298858E+02 -0.62693870233E+02 -0.12557077789E+03  0.14088162770E+03  0.00000000000E+00 0. -1.
         21    1    1    2  504  503  0.47576214714E+02 -0.29005765384E+02 -0.76676287109E+02  0.94784406085E+02  0.00000000000E+00 0. -1.
         21    1    1    2  505  502  0.65803663870E+02  0.88512931783E+02 -0.14926026528E+03  0.18558903002E+03  0.00000000000E+00 0. -1.
          1    1    1    2  501    0 -0.12559017744E+03  0.31867038348E+01 -0.20908185428E+04  0.20945895127E+04  0.00000000000E+00 0. -1.
<scales pt_clust_3="48.09374" pt_clust_4="48.09374" pt_clust_5="110.29352" pt_clust_6="119.53811"></scales>
<clustering>
<clus scale="   48.094">  3  4 -1 -1</clus>
<clus scale="  110.294">  1  5  2 -1</clus>
<clus scale="  119.538">  2  6  1 -1</clus>
<clus scale="  110.294">  1  3  2 -1</clus>
</clustering>
</event>
<event>
 6    0  0.1993420E+002  0.1668344E+03  0.7546771E-02  0.1181190E+00
          2   -1    0    0  503    0 -0.00000000000E+00  0.00000000000E+00  0.21984625744E+04  0.21984625744E+04  0.00000000000E+00 0.  1.
         21   -1    0    0  505  502  0.00000000000E+00 -0.00000000000E+00 -0.26322487804E+03  0.26322487804E+03  0.00000000000E+00 0.  1.
         21    1    1    2  503  504 -0.35478113688E+02 -0.68177389152E+02  0.30399184331E+03  0.31355684292E+03  0.00000000000E+00 0.  1.
         21    1    1    2  504  502 -0.32271967969E+02 -0.94925212712E+02  0.16933955343E+03  0.19679471609E+03  0.00000000000E+00 0.  1.
         21    1    1    2  505  501  0.70825233909E+02  0.13130891894E+03 -0.22181026556E+03  0.26731636662E+03  0.00000000000E+00 0.  1.
          2    1    1    2  501    0 -0.30751522514E+01  0.31793682922E+02  0.16837165652E+04  0.16840195268E+04  0.00000000000E+00 0.  1.
<scales pt_clust_3="59.82124" pt_clust_4="59.82124" pt_clust_5="150.36676" pt_clust_6="31.94205"></scales>
<clustering>
<clus scale="   31.942">  1  6  2 -1</clus>
<clus scale="   59.821">  3  4 -1 -1</clus>
<clus scale="  150.367">  2  5  1 -1</clus>
<clus scale="  150.367">  2  3  1 -1</clus>
</clustering>
</event>
<event>
 6    0  0.1993420E+002  0.1129729E+03  0.7546771E-02  0.1255161E+00
         21   -1    0    0  505  502  0.00000000000E+00  0.00000000000E+00  0.75656071702E+03  0.75656071702E+03  0.00000000000E+00 0. -1.
          2   -1    0    0  503    0 -0.00000000000E+00 -0.00000000000E+00 -0.13832578690E+04  0.13832578690E+04  0.00000000000E+00 0.  1.
         21    1    1    2  503  502  0.10372333077E+03  0.90580619597E+02  0.28342374189E+01  0.13773674490E+03  0.00000000000E+00 0. -1.
         21    1    1    2  504  501 -0.48899530492E+02 -0.58376031835E+02  0.60728939638E+03  0.61204520758E+03  0.00000000000E+00 0. -1.
         21    1    1    2  505  504 -0.24872537512E+02 -0.28422449596E+02  0.71768100572E+02  0.81099562410E+02  0.00000000000E+00 0. -1.
          2    1    1    2  501    0 -0.29951262767E+02 -0.37821381656E+01 -0.13085888863E+04  0.13089370711E+04  0.00000000000E+00 0.  1.
<scales pt_clust_3="112.97291" pt_clust_4="14000.00000" pt_clust_5="39.20250" pt_clust_6="30.18912"></scales>
<clustering>
<clus scale="   30.189">  2  6  1 -1</clus>
<clus scale="   39.202">  1  5  2 -1</clus>
<clus scale="  112.973">  2  3  1 -1</clus>
<clus scale="   39.202">  1  3  2 -1</clus>
</clustering>
</event>
<event>
 6    0  0.1993420E+002  0.9809918E+02  0.7546771E-02  0.1284345E+00
          2   -1    0    0  503    0 -0.00000000000E+00  0.00000000000E+00  0.18955768650E+04  0.18955768650E+04  0.00000000000E+00 0. -1.
         21   -1    0    0  505  502  0.00000000000E+00 -0.00000000000E+00 -0.74308308485E+02  0.74308308485E+02  0.00000000000E+00 0. -1.
         21    1    1    2  503  502 -0.25975928564E+02  0.68257609147E+02  0.17756942846E+02  0.75160888037E+02  0.00000000000E+00 0. -1.
         21    1    1    2  504  501  0.10428972884E+02 -0.52614479294E+02  0.42258566440E+02  0.68284942295E+02  0.00000000000E+00 0. -1.
         21    1    1    2  505  504  0.27342122581E+02 -0.72207978943E+02  0.14291895540E+02  0.78522876720E+02  0.00000000000E+00 0. -1.
          2    1    1    2  501    0 -0.11795166901E+02  0.56564849090E+02  0.17469611517E+04  0.17479164664E+04  0.00000000000E+00 0. -1.
<scales pt_clust_3="90.97345" pt_clust_4="30.59322" pt_clust_5="30.59322" pt_clust_6="57.78156"></scales>
<clustering>
<clus scale="   30.593">  4  5 -1 -1</clus>
<clus scale="   57.782">  1  6  2 -1</clus>
<clus scale="   90.973">  2  3  1 -1</clus>
<clus scale="   90.973">  2  3  1 -1</clus>
</clustering>
</event>
<event>
 6    0  0.1993420E+002  0.1924517E+03  0.7546771E-02  0.1156268E+00
         21   -1    0    0  501  502  0.00000000000E+00  0.00000000000E+00  0.48536433235E+03  0.48536433235E+03  0.00000000000E+00 0.  1.
          3   -1    0    0  503    0 -0.00000000000E+00 -0.00000000000E+00 -0.35528507540E+04  0.35528507540E+04  0.00000000000E+00 0.  1.
         21    1    1    2  503  505  0.11756300724E+02 -0.41289480236E+02  0.13961294234E+03  0.14606438804E+03  0.00000000000E+00 0.  1.
         21    1    1    2  504  502 -0.42649340311E+02 -0.94963400208E+01  0.11136467309E+02  0.45090659863E+02  0.00000000000E+00 0. -1.
         21    1    1    2  505  504 -0.51512883917E+02 -0.11445081916E+03  0.29936805400E+03  0.32461330683E+03  0.00000000000E+00 0.  1.
          3    1    1    2  501    0  0.82405923505E+02  0.16523663942E+03 -0.35176038853E+04  0.35224467316E+04  0.00000000000E+00 0.  1.
<scales pt_clust_3="32.02054" pt_clust_4="43.69378" pt_clust_5="32.02054" pt_clust_6="184.49958"></scales>
<clustering>
<clus scale="   32.021">  3  5 -1 -1</clus>
<clus scale="   43.694">  1  4  2 -1</clus>
<clus scale="  184.500">  2  6  1 -1</clus>
<clus scale="   43.694">  1  3  2 -1</clus>
</clustering>
</event>
<event>
 6    0  0.1993420E+002  0.8561982E+02  0.7546771E-02  0.1313820E+00
         21   -1    0    0  505  502  0.00000000000E+00  0.00000000000E+00  0.75845706207E+02  0.75845706207E+02  0.00000000000E+00 0. -1.
          2   -1    0    0  504    0 -0.00000000000E+00 -0.00000000000E+00 -0.18377529595E+04  0.18377529595E+04  0.00000000000E+00 0. -1.
         21    1    1    2  503  502  0.21820977700E+01 -0.38709570121E+02  0.78405859887E+01  0.39555873878E+02  0.00000000000E+00 0.  1.
         21    1    1    2  504  503 -0.10379358440E+03  0.43247811475E+02 -0.37535956362E+02  0.11854294319E+03  0.00000000000E+00 0. -1.
         21    1    1    2  505  501  0.60496954930E+02  0.41118014171E+02 -0.10985449482E+03  0.13197947825E+03  0.00000000000E+00 0.  1.
          2    1    1    2  501    0  0.41114531696E+02 -0.45656255525E+02 -0.16223573881E+04  0.16235203704E+04  0.00000000000E+00 0. -1.
<scales pt_clust_3="38.77102" pt_clust_4="14000.00000" pt_clust_5="85.61982" pt_clust_6="61.77783"></scales>
<clustering>
<clus scale="   38.771">  1  3  2 -1</clus>
<clus scale="   61.778">  2  6  1 -1</clus>
<clus scale="   85.620">  2  5  1 -1</clus>
<clus scale="   38.771">  1  3  2 -1</clus>
</clustering>
</event>
<event>
 6    0  0.1993420E+002  0.1393653E+03  0.7546771E-02  0.1214186E+00
         21   -1    0    0  503  502  0.00000000000E+00  0.00000000000E+00  0.15753642084E+03  0.15753642084E+03  0.00000000000E+00 0.  1.
          1   -1    0    0  502    0 -0.00000000000E+00 -0.00000000000E+00 -0.88830814115E+03  0.88830814115E+03  0.00000000000E+00 0. -1.
         21    1    1    2  503  505  0.32522222021E+02 -0.26573701621E+02  0.15787446458E+02  0.44867583049E+02  0.00000000000E+00 0.  1.
         21    1    1    2  504  501 -0.20352891994E+02  0.15065258857E+03 -0.12222287198E+03  0.19506120345E+03  0.00000000000E+00 0.  1.
         21    1    1    2  505  504  0.17648526768E+02 -0.90666402480E+02  0.66382002629E+02  0.11374725187E+03  0.00000000000E+00 0.  1.
          1    1    1    2  501    0 -0.29817856795E+02 -0.33412484470E+02 -0.69071829741E+03  0.69216852362E+03  0.00000000000E+00 0. -1.
<scales pt_clust_3="31.22612" pt_clust_4="131.44646" pt_clust_5="31.22612" pt_clust_6="44.78279"></scales>
<clustering>
<clus scale="   31.226">  3  5 -1 -1</clus>
<clus scale="   44.783">  2  6  1 -1</clus>
<clus scale="  131.446">  2  4  1 -1</clus>
<clus scale="  139.365">  1  3  2 -1</clus>
</clustering>
</event>
<event>
 6    0  0.1993420E+002  0.1041250E+03  0.7546771E-02  0.1271853E+00
         21   -1    0    0  505  502  0.00000000000E+00  0.00000000000E+00  0.17063906044E+04  0.17063906044E+04  0.00000000000E+00 0. -1.
         -1   -1    0    0    0  501 -0.00000000000E+00 -0.00000000000E+00 -0.11046636657E+03  0.11046636657E+03  0.00000000000E+00 0. -1.
         21    1    1    2  503  502  0.93450229871E+02  0.81938422805E+01  0.35232996117E+03  0.36460456120E+03  0.00000000000E+00 0. -1.
         21    1    1    2  504  501 -0.10079497918E+03  0.43506869683E+02  0.93313926567E+03  0.93957509794E+03  0.00000000000E+00 0. -1.
         21    1    1    2  505  504 -0.22688382845E+02 -0.43635192246E+02  0.40766168133E+03  0.41061763131E+03  0.00000000000E+00 0. -1.
         -1    1    1    2    0  503  0.30033132159E+02 -0.80655197175E+01 -0.97206670320E+02  0.10205968053E+03  0.00000000000E+00 0. -1.
<scales pt_clust_3="14000.00000" pt_clust_4="104.12503" pt_clust_5="48.44476" pt_clust_6="31.09729"></scales>
<clustering>
<clus scale="   31.097">  2  6  1 -1</clus>
<clus scale="   48.445">  1  5  2 -1</clus>
<clus scale="  104.125">  1  4  2 -1</clus>
<clus scale="   48.445">  1  3  2 -1</clus>
</clustering>
</event>
<event>
 6    0  0.1993420E+002  0.2234467E+03  0.7546771E-02  0.1131339E+00
          1   -1    0    0  502    0 -0.00000000000E+00  0.00000000000E+00  0.10918576624E+04  0.10918576624E+04  0.00000000000E+00 0. -1.
         21   -1    0    0  505  502  0.00000000000E+00 -0.00000000000E+00 -0.34380682154E+03  0.34380682154E+03  0.00000000000E+00 0.  1.
         21    1    1    2  503  501 -0.45104246224E+02 -0.92735926944E+01  0.88593319315E+02  0.99845724877E+02  0.00000000000E+00 0. -1.
         21    1    1    2  504  503 -0.11396765367E+03 -0.84499022496E+02  0.65521703171E+02  0.15627477235E+03  0.00000000000E+00 0. -1.
         21    1    1    2  505  504  0.16573657549E+03  0.12796477542E+03 -0.25496688602E+03  0.32992682396E+03  0.00000000000E+00 0.  1.
          1    1    1    2  501    0 -0.66646755958E+01 -0.34192160231E+02  0.84890270438E+03  0.84961716274E+03  0.00000000000E+00 0. -1.
<scales pt_clust_3="51.52196" pt_clust_4="51.52196" pt_clust_5="205.37603" pt_clust_6="34.83564"></scales>
<clustering>
<clus scale="   34.836">  1  6  2 -1</clus>
<clus scale="   51.522">  3  4 -1 -1</clus>
<clus scale="  205.376">  2  5  1 -1</clus>
<clus scale="  205.376">  2  3  1 -1</clus>
</clustering>
</event>
<event>
 6    0  0.1993420E+002  0.7967800E+02  0.7546771E-02  0.1329968E+00
          2   -1    0    0  504    0 -0.00000000000E+00  0.00000000000E+00  0.50701201693E+03  0.50701201693E+03  0.00000000000E+00 0.  1.
         21   -1    0    0  505  502  0.00000000000E+00 -0.00000000000E+00 -0.26535982854E+03  0.26535982854E+03  0.00000000000E+00 0.  1.
         21    1    1    2  503  502 -0.32576302165E+02  0.46482320819E+02 -0.10785727329E+03  0.12188114298E+03  0.00000000000E+00 0.  1.
         21    1    1    2  504  503 -0.34956979708E+02 -0.11682790475E+03 -0.97357074134E+02  0.15604214060E+03  0.00000000000E+00 0.  1.
         21    1    1    2  505  501  0.19563396787E+02  0.46175674484E+02  0.62120296783E+01  0.50532254260E+02  0.00000000000E+00 0. -1.
          2    1    1    2  501    0  0.47969885087E+02  0.24169909451E+02  0.44065450613E+03  0.44391630762E+03  0.00000000000E+00 0.  1.
<scales pt_clust_3="79.67800" pt_clust_4="14000.00000" pt_clust_5="50.14897" pt_clust_6="53.97187"></scales>
<clustering>
<clus scale="   50.149">  2  5  1 -1</clus>
<clus scale="   53.972">  1  6  2 -1</clus>
<clus scale="   79.678">  2  3  1 -1</clus>
<clus scale="   50.149">  2  3  1 -1</clus>
</clustering>
</event>
<event>
 6    0  0.1993420E+002  0.9816757E+02  0.7546771E-02  0.1284197E+00
         21   -1    0    0  505  502  0.00000000000E+00  0.00000000000E+00  0.34774421749E+03  0.34774421749E+03  0.00000000000E+00 0.  1.
          3   -1    0    0  504    0 -0.00000000000E+00 -0.00000000000E+00 -0.26836148135E+03  0.26836148135E+03  0.00000000000E+00 0.  1.
         21    1    1    2  503  501  0.10850069651E+03  0.13672501187E+02  0.41640502813E+02  0.11701824604E+03  0.00000000000E+00 0.  1.
         21    1    1    2  504  502 -0.77771891111E+02  0.35423481234E+01  0.22157950173E+03  0.23485844857E+03  0.00000000000E+00 0.  1.
         21    1    1    2  505  503 -0.24561383487E+02  0.22259745006E+02  0.31194120636E+02  0.45517369968E+02  0.00000000000E+00 0.  1.
          3    1    1    2  501    0 -0.61674219143E+01 -0.39474594316E+02 -0.21503138904E+03  0.21871163426E+03  0.00000000000E+00 0.  1.
<scales pt_clust_3="98.16757" pt_clust_4="14000.00000" pt_clust_5="33.14752" pt_clust_6="39.84557"></scales>
<clustering>
<clus scale="   33.148">  1  5  2 -1</clus>
<clus scale="   39.846">  2  6  1 -1</clus>
<clus scale="   98.168">  2  3  1 -1</clus>
<clus scale="   33.148">  1  3  2 -1</clus>
</clustering>
</event>
<event>
 6    0  0.1993420E+002  0.8373247E+02  0.7546771E-02  0.1318781E+00
         21   -1    0    0  505  502  0.00000000000E+00  0.00000000000E+00  0.38980349244E+02  0.38980349244E+02  0.00000000000E+00 0.  1.
          2   -1    0    0  503    0 -0.00000000000E+00 -0.00000000000E+00 -0.31836640510E+04  0.31836640510E+04  0.00000000000E+00 0.  1.
         21    1    1    2  503  502 -0.16551415088E+00  0.31157982925E+02 -0.12438268530E+03  0.12822597123E+03  0.00000000000E+00 0.  1.
         21    1    1    2  504  501  0.28323838022E+02  0.89248727378E+02 -0.90707665816E+02  0.13036662064E+03  0.00000000000E+00 0.  1.
         21    1    1    2  505  504 -0.35582190699E+02 -0.70922407558E+02 -0.75525456807E+02  0.10954530941E+03  0.00000000000E+00 0. -1.
          2    1    1    2  501    0  0.74238668278E+01 -0.49484302746E+02 -0.28540678938E+04  0.28545064990E+04  0.00000000000E+00 0.  1.
<scales pt_clust_3="31.15842" pt_clust_4="14000.00000" pt_clust_5="83.73247" pt_clust_6="49.85560"></scales>
<clustering>
<clus scale="   31.158">  1  3  2 -1</clus>
<clus scale="   49.856">  2  6  1 -1</clus>
<clus scale="   83.732">  1  5  2 -1</clus>
<clus scale="   31.158">  1  3  2 -1</clus>
</clustering>
</event>
<event>
 6    0  0.1993420E+002  0.2267782E+03  0.7546771E-02  0.1128928E+00
          2   -1    0    0  503    0 -0.00000000000E+00  0.00000000000E+00  0.13540581529E+04  0.13540581529E+04  0.00000000000E+00 0. -1.
         21   -1    0    0  501  502  0.00000000000E+00 -0.00000000000E+00 -0.54059857220E+02  0.54059857220E+02  0.00000000000E+00 0. -1.
         21    1    1    2  503  504 -0.41515883858E+02  0.47492079627E+01  0.16129716682E+02  0.44791643741E+02  0.00000000000E+00 0.  1.
         21    1    1    2  504  505 -0.12423447543E+03  0.80665664462E+01  0.17641904957E+03  0.21592349439E+03  0.00000000000E+00 0. -1.
         21    1    1    2  505  502 -0.30655277275E+02 -0.40571851629E+02  0.49313070786E+02  0.70835020434E+02  0.00000000000E+00 0. -1.
          2    1    1    2  501    0  0.19640563656E+03  0.27756077220E+02  0.10581364587E+04  0.10765678516E+04  0.00000000000E+00 0. -1.
<scales pt_clust_3="33.07844" pt_clust_4="48.87725" pt_clust_5="48.87725" pt_clust_6="198.35719"></scales>
<clustering>
<clus scale="   33.078">  3  4 -1 -1</clus>
<clus scale="   48.877">  3  5 -1 -1</clus>
<clus scale="  198.357">  1  6  2 -1</clus>
<clus scale="  226.778">  2  3  1 -1</clus>
</clustering>
</event>
<event>
 6    0  0.1993420E+002  0.1183762E+03  0.7546771E-02  0.1245800E+00
         21   -1    0    0  503  502  0.00000000000E+00  0.00000000000E+00  0.90862464351E+03  0.90862464351E+03  0.00000000000E+00 0.  1.
          3   -1    0    0  505    0 -0.00000000000E+00 -0.00000000000E+00 -0.87675404961E+02  0.87675404961E+02  0.00000000000E+00 0. -1.
         21    1    1    2  503  504  0.14658349561E+02 -0.98371487971E+02  0.37260751794E+03  0.38565292593E+03  0.00000000000E+00 0.  1.
         21    1    1    2  504  501  0.57729491214E+02  0.92143127888E+02  0.75102100420E+02  0.13214906606E+03  0.00000000000E+00 0. -1.
         21    1    1    2  505  502 -0.78378302378E+02 -0.41572917152E+02  0.40899284762E+03  0.41850521517E+03  0.00000000000E+00 0.  1.
          3    1    1    2  501    0  0.59904616039E+01  0.47801277236E+02 -0.35753227431E+02  0.59992841301E+02  0.00000000000E+00 0. -1.
<scales pt_clust_3="118.37623" pt_clust_4="14000.00000" pt_clust_5="85.54218" pt_clust_6="48.17518"></scales>
<clustering>
<clus scale="   48.175">  2  6  1 -1</clus>
<clus scale="   85.542">  1  5  2 -1</clus>
<clus scale="  118.376">  1  3  2 -1</clus>
<clus scale="   85.542">  1  3  2 -1</clus>
</clustering>
</event>
<event>
 6    0  0.1993420E+002  0.1581262E+03  0.7546771E-02  0.1190829E+00
         21   -1    0    0  504  502  0.00000000000E+00  0.00000000000E+00  0.11239582877E+03  0.11239582877E+03  0.00000000000E+00 0. -1.
          2   -1    0    0  505    0 -0.00000000000E+00 -0.00000000000E+00 -0.92173075607E+03  0.92173075607E+03  0.00000000000E+00 0. -1.
         21    1    1    2  503  502 -0.74042757776E+02 -0.43943845154E+01  0.27779688992E+02  0.79204493022E+02  0.00000000000E+00 0. -1.
         21    1    1    2  504  501  0.42964283282E+02  0.75266903029E+02 -0.10056982619E+03  0.13276040927E+03  0.00000000000E+00 0. -1.
         21    1    1    2  505  503 -0.80355141574E+02  0.28714850716E+02 -0.16679321994E+02  0.86946484754E+02  0.00000000000E+00 0. -1.
          2    1    1    2  501    0  0.11143361607E+03 -0.99587369230E+02 -0.71986546811E+03  0.73521519780E+03  0.00000000000E+00 0. -1.
<scales pt_clust_3="51.51247" pt_clust_4="86.66624" pt_clust_5="51.51247" pt_clust_6="148.15927"></scales>
<clustering>
<clus scale="   51.512">  3  5 -1 -1</clus>
<clus scale="   86.666">  1  4  2 -1</clus>
<clus scale="  148.159">  2  6  1 -1</clus>
<clus scale="   86.666">  1  3  2 -1</clus>
</clustering>
</event>
<event>
 6    0  0.1993420E+002  0.2564095E+03  0.7546771E-02  0.1109320E+00
          2   -1    0    0  503    0 -0.00000000000E+00  0.00000000000E+00  0.13500845123E+04  0.13500845123E+04  0.00000000000E+00 0. -1.
         21   -1    0    0  505  502  0.00000000000E+00 -0.00000000000E+00 -0.97185778979E+02  0.97185778979E+02  0.00000000000E+00 0. -1.
         21    1    1    2  503  502 -0.24112958292E+03 -0.10309913188E+03  0.23216438314E+03  0.35024735196E+03  0.00000000000E+00 0. -1.
         21    1    1    2  504  501  0.89686127963E+02  0.32170618870E+02  0.24612442344E+03  0.26392381871E+03  0.00000000000E+00 0. -1.
         21    1    1    2  505  504  0.99055507138E+02  0.19474070816E+02  0.65815244223E+02  0.12051090947E+03  0.00000000000E+00 0. -1.
          2    1    1    2  501    0  0.52387947822E+02  0.51454442192E+02  0.70879468254E+03  0.71258821117E+03  0.00000000000E+00 0. -1.
<scales pt_clust_3="231.41455" pt_clust_4="104.66111" pt_clust_5="104.66111" pt_clust_6="73.43063"></scales>
<clustering>
<clus scale="   73.431">  1  6  2 -1</clus>
<clus scale="  104.661">  4  5 -1 -1</clus>
<clus scale="  231.415">  2  3  1 -1</clus>
<clus scale="  231.415">  2  3  1 -1</clus>
</clustering>
</event>
<event>
 6    0  0.1993420E+002  0.7809446E+02  0.7546771E-02  0.1334548E+00
          2   -1    0    0  504    0 -0.00000000000E+00  0.00000000000E+00  0.37023045199E+03  0.37023045199E+03  0.00000000000E+00 0.  1.
         21   -1    0    0  503  502  0.00000000000E+00 -0.00000000000E+00 -0.21452805152E+03  0.21452805152E+03  0.00000000000E+00 0.  1.
         21    1    1    2  503  501 -0.10263546625E+03 -0.60319492257E+02 -0.15868240694E+03  0.19837486320E+03  0.00000000000E+00 0.  1.
         21    1    1    2  504  505  0.33515013928E+02 -0.62931944609E+01  0.28975644448E+02  0.44748725415E+02  0.00000000000E+00 0. -1.
         21    1    1    2  505  502  0.27367872569E+02  0.36479233616E+02 -0.57433457964E+01  0.45964344389E+02  0.00000000000E+00 0.  1.
          2    1    1    2  501    0  0.41752579750E+02  0.30133453103E+02  0.29115250875E+03  0.29567057051E+03  0.00000000000E+00 0.  1.
<scales pt_clust_3="14000.00000" pt_clust_4="34.10074" pt_clust_5="46.55033" pt_clust_6="78.09446"></scales>
<clustering>
<clus scale="   34.101">  1  4  2 -1</clus>
<clus scale="   46.550">  2  5  1 -1</clus>
<clus scale="   78.094">  1  6  2 -1</clus>
<clus scale="   46.550">  2  3  1 -1</clus>
</clustering>
</event>
<event>
 6    0  0.1993420E+002  0.9231788E+02  0.7546771E-02  0.1297334E+00
         21   -1    0    0  501  502  0.00000000000E+00  0.00000000000E+00  0.89222009668E+02  0.89222009668E+02  0.00000000000E+00 0.  1.
          2   -1    0    0  503    0 -0.00000000000E+00 -0.00000000000E+00 -0.34172742395E+03  0.34172742395E+03  0.00000000000E+00 0. -1.
         21    1    1    2  503  505  0.82460174984E+02 -0.14405026742E+02 -0.58313808359E+02  0.10201806457E+03  0.00000000000E+00 0. -1.
         21    1    1    2  504  502 -0.32551526320E+02 -0.23889325351E+02  0.27679550023E+02  0.48953643592E+02  0.00000000000E+00 0.  1.
         21    1    1    2  505  504 -0.37830324969E+02 -0.38618521503E+02 -0.10966203313E+02  0.55161411380E+02  0.00000000000E+00 0. -1.
          2    1    1    2  501    0 -0.12078323695E+02  0.76912873596E+02 -0.21090495263E+03  0.22481631407E+03  0.00000000000E+00 0. -1.
<scales pt_clust_3="82.60036" pt_clust_4="35.63058" pt_clust_5="35.63058" pt_clust_6="77.85548"></scales>
<clustering>
<clus scale="   35.631">  4  5 -1 -1</clus>
<clus scale="   77.855">  2  6  1 -1</clus>
<clus scale="   82.600">  2  3  1 -1</clus>
<clus scale="   92.318">  1  3  2 -1</clus>
</clustering>
</event>
<event>
 6    0  0.1993420E+002  0.8458902E+02  0.7546771E-02  0.1316511E+00
         21   -1    0    0  505  502  0.00000000000E+00  0.00000000000E+00  0.15793689636E+04  0.15793689636E+04  0.00000000000E+00 0. -1.
         -1   -1    0    0    0  501 -0.00000000000E+00 -0.00000000000E+00 -0.82753790570E+03  0.82753790570E+03  0.00000000000E+00 0. -1.
         21    1    1    2  503  502 -0.13995053029E+02  0.27341942483E+02  0.11767688474E+03  0.12161945786E+03  0.00000000000E+00 0. -1.
         21    1    1    2  504  503 -0.49220584131E+02 -0.65502500127E+02  0.95719124475E+03  0.96069158550E+03  0.00000000000E+00 0. -1.
         21    1    1    2  505  501  0.10114164322E+03  0.32636077465E+02  0.49468689921E+03  0.50597418294E+03  0.00000000000E+00 0. -1.
         -1    1    1    2    0  504 -0.37926006063E+02  0.55244801793E+01 -0.81772397085E+03  0.81862164296E+03  0.00000000000E+00 0. -1.
<scales pt_clust_3="30.71552" pt_clust_4="14000.00000" pt_clust_5="84.58902" pt_clust_6="38.33173"></scales>
<clustering>
<clus scale="   30.716">  1  3  2 -1</clus>
<clus scale="   38.332">  2  6  1 -1</clus>
<clus scale="   84.589">  2  5  1 -1</clus>
<clus scale="   30.716">  1  3  2 -1</clus>
</clustering>
</event>
<event>
 6    0  0.1993420E+002  0.1463083E+03  0.7546771E-02  0.1205084E+00
         21   -1    0    0  503  502  0.00000000000E+00  0.00000000000E+00  0.81576427197E+03  0.81576427197E+03  0.00000000000E+00 0. -1.
          3   -1    0    0  504    0 -0.00000000000E+00 -0.00000000000E+00 -0.35297929527E+02  0.35297929527E+02  0.00000000000E+00 0. -1.
         21    1    1    2  503  501 -0.23621132560E+02  0.28102661443E+02  0.19114900787E+03  0.19464239182E+03  0.00000000000E+00 0.  1.
         21    1    1    2  504  505 -0.80874126909E+02 -0.88854673503E+01  0.15978785099E+03  0.17930904400E+03  0.00000000000E+00 0. -1.
         21    1    1    2  505  502 -0.38491014300E+02 -0.14728869503E+02  0.21726467622E+03  0.22113895476E+03  0.00000000000E+00 0. -1.
          3    1    1    2  501    0  0.14298627377E+03 -0.44883245902E+01  0.21226480736E+03  0.25597181092E+03  0.00000000000E+00 0. -1.
<scales pt_clust_3="36.71127" pt_clust_4="42.70630" pt_clust_5="42.70630" pt_clust_6="134.24528"></scales>
<clustering>
<clus scale="   36.711">  1  3  2 -1</clus>
<clus scale="   42.706">  4  5 -1 -1</clus>
<clus scale="  134.245">  2  6  1 -1</clus>
<clus scale="   36.711">  1  3  2 -1</clus>
</clustering>
</event>
<event>
 6    0  0.1993420E+002  0.2342473E+03  0.7546771E-02  0.1123686E+00
          2   -1    0    0  505    0 -0.00000000000E+00  0.00000000000E+00  0.15457145312E+04  0.15457145312E+04  0.00000000000E+00 0.  1.
         21   -1    0    0  504  502  0.00000000000E+00 -0.00000000000E+00 -0.12896463246E+03  0.12896463246E+03  0.00000000000E+00 0. -1.
         21    1    1    2  503  502  0.39315047001E+02  0.46032118322E+02  0.87076428333E+01  0.61159233821E+02  0.00000000000E+00 0.  1.
         21    1    1    2  504  501 -0.75516722991E+02  0.12696177215E+03  0.38997280770E+02  0.15278368678E+03  0.00000000000E+00 0. -1.
         21    1    1    2  505  503 -0.15285250708E+03 -0.86622245233E+00  0.14643456033E+03  0.21167834023E+03  0.00000000000E+00 0. -1.
          2    1    1    2  501    0  0.18905418307E+03 -0.17212766802E+03  0.12226104148E+04  0.12490579028E+04  0.00000000000E+00 0.  1.
<scales pt_clust_3="60.53618" pt_clust_4="234.24725" pt_clust_5="141.04094" pt_clust_6="14000.00000"></scales>
<clustering>
<clus scale="   60.536">  2  3  1 -1</clus>
<clus scale="  141.041">  2  5  1 -1</clus>
<clus scale="  234.247">  2  4  1 -1</clus>
<clus scale="   60.536">  2  3  1 -1</clus>
</clustering>
</event>
<event>
 6    0  0.1993420E+002  0.8289182E+02  0.7546771E-02  0.1321040E+00
          1   -1    0    0  503    0 -0.00000000000E+00  0.00000000000E+00  0.21340739770E+03  0.21340739770E+03  0.00000000000E+00 0. -1.
         21   -1    0    0  505  502  0.00000000000E+00 -0.00000000000E+00 -0.50075838434E+03  0.50075838434E+03  0.00000000000E+00 0.  1.
         21    1    1    2  503  504 -0.25651660720E+01  0.54293425147E+02 -0.73112984614E+02  0.91103592741E+02  0.00000000000E+00 0.  1.
         21    1    1    2  504  502  0.31843092991E+02  0.41051129415E+02 -0.20746752678E+03  0.21387368343E+03  0.00000000000E+00 0.  1.
         21    1    1    2  505  501 -0.54438256097E+02 -0.12383426731E+03 -0.18375073946E+03  0.22817270595E+03  0.00000000000E+00 0.  1.
          1    1    1    2  501    0  0.25160329178E+02  0.28489712751E+02  0.17698026422E+03  0.18101579992E+03  0.00000000000E+00 0. -1.
<scales pt_clust_3="82.89182" pt_clust_4="55.48508" pt_clust_5="14000.00000" pt_clust_6="38.00929"></scales>
<clustering>
<clus scale="   38.009">  1  6  2 -1</clus>
<clus scale="   55.485">  2  4  1 -1</clus>
<clus scale="   82.892">  1  3  2 -1</clus>
<clus scale="   55.485">  2  3  1 -1</clus>
</clustering>
</event>
<event>
 6    0  0.1993420E+002  0.1787219E+03  0.7546771E-02  0.1169046E+00
         21   -1    0    0  503  502  0.00000000000E+00  0.00000000000E+00  0.17471480314E+02  0.17471480314E+02  0.00000000000E+00 0.  1.
          2   -1    0    0  504    0 -0.00000000000E+00 -0.00000000000E+00 -0.34549614228E+04  0.34549614228E+04  0.00000000000E+00 0.  1.
         21    1    1    2  503  501 -0.14192749414E+02  0.43975097616E+02 -0.21826689778E+03  0.22310464364E+03  0.00000000000E+00 0. -1.
         21    1    1    2  504  505  0.79040795607E+02  0.29488371782E+02 -0.36056593725E+03  0.37030366801E+03  0.00000000000E+00 0.  1.
         21    1    1    2  505  502  0.68781271258E+02  0.43759536214E+02 -0.22392198888E+03  0.23829984765E+03  0.00000000000E+00 0.  1.
          2    1    1    2  501    0 -0.13362931745E+03 -0.11722300561E+03 -0.26347351185E+04  0.26407247438E+04  0.00000000000E+00 0.  1.
<scales pt_clust_3="46.20869" pt_clust_4="38.76989" pt_clust_5="38.76989" pt_clust_6="174.31586"></scales>
<clustering>
<clus scale="   38.770">  4  5 -1 -1</clus>
<clus scale="   46.209">  1  3  2 -1</clus>
<clus scale="  174.316">  2  6  1 -1</clus>
<clus scale="   46.209">  1  3  2 -1</clus>
</clustering>
</event>
<event>
 6    0  0.1993420E+002  0.9217257E+02  0.7546771E-02  0.1297674E+00
          2   -1    0    0  504    0 -0.00000000000E+00  0.00000000000E+00  0.43659572183E+03  0.43659572183E+03  0.00000000000E+00 0. -1.
         21   -1    0    0  503  502  0.00000000000E+00 -0.00000000000E+00 -0.87517094318E+03  0.87517094318E+03  0.00000000000E+00 0. -1.
         21    1    1    2  503  501 -0.35341800647E+02 -0.55571430278E+02 -0.22684213936E+03  0.23620876979E+03  0.00000000000E+00 0. -1.
         21    1    1    2  504  505  0.94805879483E+02 -0.29474772509E+02 -0.17011408920E+03  0.19696629240E+03  0.00000000000E+00 0. -1.
         21    1    1    2  505  502  0.27340738527E+02  0.54635837292E+02 -0.45297580646E+03  0.45707731505E+03  0.00000000000E+00 0. -1.
          2    1    1    2  501    0 -0.86804817364E+02  0.30410365495E+02  0.41135681367E+03  0.42151428777E+03  0.00000000000E+00 0. -1.
<scales pt_clust_3="32.54983" pt_clust_4="92.17257" pt_clust_5="61.09493" pt_clust_6="14000.00000"></scales>
<clustering>
<clus scale="   61.095">  2  5  1 -1</clus>
<clus scale="   32.550">  2  3  1 -1</clus>
<clus scale="   92.173">  2  4  1 -1</clus>
<clus scale="   61.095">  2  3  1 -1</clus>
</clustering>
</event>
<event>
 6    0  0.1993420E+002  0.1670856E+03  0.7546771E-02  0.1180922E+00
          2   -1    0    0  503    0 -0.00000000000E+00  0.00000000000E+00  0.92809784887E+03  0.92809784887E+03  0.00000000000E+00 0. -1.
         21   -1    0    0  504  502  0.00000000000E+00 -0.00000000000E+00 -0.62699126178E+02  0.62699126178E+02  0.00000000000E+00 0. -1.
         21    1    1    2  503  502 -0.38059228574E+02 -0.15494378984E+02 -0.17003020363E+02  0.44471152011E+02  0.00000000000E+00 0. -1.
         21    1    1    2  504  505 -0.20950090364E+02  0.53580929079E+02  0.48394331025E+02  0.75178677314E+02  0.00000000000E+00 0.  1.
         21    1    1    2  505  501 -0.76090117242E+02  0.40745382829E+02  0.19454846187E+03  0.21283560835E+03  0.00000000000E+00 0. -1.
          2    1    1    2  501    0  0.13509943618E+03 -0.78831932924E+02  0.63945895016E+03  0.65831153738E+03  0.00000000000E+00 0. -1.
<scales pt_clust_3="41.09234" pt_clust_4="59.70716" pt_clust_5="59.70716" pt_clust_6="149.33460"></scales>
<clustering>
<clus scale="   41.092">  2  3  1 -1</clus>
<clus scale="   59.707">  4  5 -1 -1</clus>
<clus scale="  149.335">  1  6  2 -1</clus>
<clus scale="   41.092">  2  3  1 -1</clus>
</clustering>
</event>
<event>
 6    0  0.1993420E+002  0.1275547E+03  0.7546771E-02  0.1231130E+00
          2   -1    0    0  503    0 -0.00000000000E+00  0.00000000000E+00  0.10326234461E+04  0.10326234461E+04  0.00000000000E+00 0.  1.
         21   -1    0    0  504  502  0.00000000000E+00 -0.00000000000E+00 -0.81558149301E+03  0.81558149301E+03  0.00000000000E+00 0.  1.
         21    1    1    2  503  502 -0.16196196746E+02 -0.36641541024E+02 -0.53219736583E+03  0.53370305931E+03  0.00000000000E+00 0.  1.
         21    1    1    2  504  505 -0.14649002152E+02 -0.38982989831E+02 -0.15707803596E+03  0.16250469575E+03  0.00000000000E+00 0.  1.
         21    1    1    2  505  501  0.28043479455E+02 -0.43019406544E+02 -0.11387858565E+03  0.12492172889E+03  0.00000000000E+00 0.  1.
          2    1    1    2  501    0  0.28017194430E+01  0.11864393740E+03  0.10201959405E+04  0.10270754551E+04  0.00000000000E+00 0.  1.
<scales pt_clust_3="40.06144" pt_clust_4="47.11256" pt_clust_5="47.11256" pt_clust_6="118.22669"></scales>
<clustering>
<clus scale="   40.061">  2  3  1 -1</clus>
<clus scale="   47.113">  4  5 -1 -1</clus>
<clus scale="  118.227">  1  6  2 -1</clus>
<clus scale="   40.061">  2  3  1 -1</clus>
</clustering>
</event>
<event>
 6    0  0.1993420E+002  0.1079340E+03  0.7546771E-02  0.1264444E+00
          1   -1    0    0  505    0 -0.00000000000E+00  0.00000000000E+00  0.45028506281E+03  0.45028506281E+03  0.00000000000E+00 0.  1.
         21   -1    0    0  504  502  0.00000000000E+00 -0.00000000000E+00 -0.11325253564E+04  0.11325253564E+04  0.00000000000E+00 0.  1.
         21    1    1    2  503  502  0.62281814412E+02 -0.13136495899E+02 -0.65920296473E+03  0.66226893377E+03  0.00000000000E+00 0.  1.
         21    1    1    2  504  501 -0.52892694380E+02 -0.33323637692E+02 -0.96119381585E+02  0.11466053141E+03  0.00000000000E+00 0. -1.
         21    1    1    2  505  503  0.70305811232E+02 -0.70817900992E+01 -0.35765748600E+03  0.36457089316E+03  0.00000000000E+00 0.  1.
          1    1    1    2  501    0 -0.79694931264E+02  0.53541923691E+02  0.43073953869E+03  0.44131006090E+03  0.00000000000E+00 0.  1.
<scales pt_clust_3="46.56037" pt_clust_4="62.51481" pt_clust_5="46.56037" pt_clust_6="96.14126"></scales>
<clustering>
<clus scale="   46.560">  3  5 -1 -1</clus>
<clus scale="   62.515">  2  4  1 -1</clus>
<clus scale="   96.141">  1  6  2 -1</clus>
<clus scale="   62.515">  2  3  1 -1</clus>
</clustering>
</event>
<event>
 6    0  0.1993420E+002  0.7189597E+02  0.7546771E-02  0.1353762E+00
         -3   -1    0    0    0  501 -0.00000000000E+00  0.00000000000E+00  0.52041838672E+03  0.52041838672E+03  0.00000000000E+00 0. -1.
         21   -1    0    0  505  502  0.00000000000E+00 -0.00000000000E+00 -0.13003517286E+03  0.13003517286E+03  0.00000000000E+00 0.  1.
         21    1    1    2  503  501 -0.64626762654E+02 -0.48253319302E+02  0.31663404228E+02  0.86646248863E+02  0.00000000000E+00 0.  1.
         21    1    1    2  504  502  0.41398082905E+02 -0.51427653782E+02 -0.58523097257E+01  0.66278611715E+02  0.00000000000E+00 0. -1.
         21    1    1    2  505  503 -0.13329542350E+02  0.79946418115E+02 -0.40309999964E+02  0.90520730034E+02  0.00000000000E+00 0.  1.
         -3    1    1    2    0  504  0.36558222099E+02  0.19734554969E+02  0.40488211932E+03  0.40700796897E+03  0.00000000000E+00 0. -1.
<scales pt_clust_3="59.49712" pt_clust_4="14000.00000" pt_clust_5="71.89597" pt_clust_6="41.54463"></scales>
<clustering>
<clus scale="   41.545">  1  6  2 -1</clus>
<clus scale="   59.497">  1  3  2 -1</clus>
<clus scale="   71.896">  2  5  1 -1</clus>
<clus scale="   71.896">  2  3  1 -1</clus>
</clustering>
</event>
<event>
 6    0  0.1993420E+002  0.1075087E+03  0.7546771E-02  0.1265254E+00
         21   -1    0    0  504  502  0.00000000000E+00  0.00000000000E+00  0.12836973693E+03  0.12836973693E+03  0.00000000000E+00 0.  1.
          2   -1    0    0  505    0 -0.00000000000E+00 -0.00000000000E+00 -0.48249473775E+03  0.48249473775E+03  0.00000000000E+00 0. -1.
         21    1    1    2  503  502 -0.34857315727E+02 -0.56110955454E+02 -0.34003310928E+02  0.74294662902E+02  0.00000000000E+00 0.  1.
         21    1    1    2  504  501  0.23708711076E+02  0.49868758038E+02  0.55176230625E+02  0.78060312804E+02  0.00000000000E+00 0.  1.
         21    1    1    2  505  503 -0.89361788992E+01 -0.85759364623E+02 -0.16793669010E+02  0.87843902650E+02  0.00000000000E+00 0.  1.
          2    1    1    2  501    0  0.20084783551E+02  0.92001562039E+02 -0.35850425150E+03  0.37066559632E+03  0.00000000000E+00 0. -1.
<scales pt_clust_3="35.69926" pt_clust_4="55.21771" pt_clust_5="35.69926" pt_clust_6="99.47156"></scales>
<clustering>
<clus scale="   35.699">  3  5 -1 -1</clus>
<clus scale="   55.218">  1  4  2 -1</clus>
<clus scale="   99.472">  2  6  1 -1</clus>
<clus scale="   55.218">  1  3  2 -1</clus>
</clustering>
</event>
<event>
 6    0  0.1993420E+002  0.1382801E+03  0.7546771E-02  0.1215662E+00
         21   -1    0    0  503  502  0.00000000000E+00  0.00000000000E+00  0.22453263486E+03  0.22453263486E+03  0.00000000000E+00 0. -1.
          2   -1    0    0  504    0 -0.00000000000E+00 -0.00000000000E+00 -0.23327682593E+04  0.23327682593E+04  0.00000000000E+00 0.  1.
         21    1    1    2  503  505 -0.12150265751E+03 -0.40204311464E+02  0.11154033364E+03  0.16976609930E+03  0.00000000000E+00 0. -1.
         21    1    1    2  504  502  0.81776399555E+02  0.34978332957E+02  0.11552237247E+02  0.89690119222E+02  0.00000000000E+00 0. -1.
         21    1    1    2  505  501 -0.46096067853E+02  0.12755729245E+02  0.14799193750E+02  0.50065679219E+02  0.00000000000E+00 0.  1.
          2    1    1    2  501    0  0.85822325812E+02 -0.75297507378E+01 -0.22461273891E+04  0.22477789965E+04  0.00000000000E+00 0.  1.
<scales pt_clust_3="36.27754" pt_clust_4="124.89922" pt_clust_5="36.27754" pt_clust_6="86.15201"></scales>
<clustering>
<clus scale="   36.278">  3  5 -1 -1</clus>
<clus scale="   86.152">  2  6  1 -1</clus>
<clus scale="  124.899">  1  4  2 -1</clus>
<clus scale="  124.899">  1  3  2 -1</clus>
</clustering>
</event>
<event>
 6    0  0.1993420E+002  0.6841896E+02  0.7546771E-02  0.1365553E+00
         21   -1    0    0  504  502  0.00000000000E+00  0.00000000000E+00  0.64104625595E+02  0.64104625595E+02  0.00000000000E+00 0.  1.
          2   -1    0    0  505    0 -0.00000000000E+00 -0.00000000000E+00 -0.16060691407E+04  0.16060691407E+04  0.00000000000E+00 0.  1.
         21    1    1    2  503  502  0.63819468464E+02  0.10851236595E+02  0.73740326288E+01  0.65154050127E+02  0.00000000000E+00 0.  1.
         21    1    1    2  504  501  0.37786260478E+02  0.44776075288E+02 -0.54284432267E+02  0.79871759625E+02  0.00000000000E+00 0.  1.
         21    1    1    2  505  503 -0.82264605215E+02 -0.14855374874E+02 -0.10431934602E+03  0.13368123798E+03  0.00000000000E+00 0.  1.
          2    1    1    2  501    0 -0.19341123727E+02 -0.40771937010E+02 -0.13907347695E+04  0.13914667186E+04  0.00000000000E+00 0.  1.
<scales pt_clust_3="68.41896" pt_clust_4="45.11734" pt_clust_5="14000.00000" pt_clust_6="45.12682"></scales>
<clustering>
<clus scale="   45.127">  2  6  1 -1</clus>
<clus scale="   45.117">  2  4  1 -1</clus>
<clus scale="   68.419">  1  3  2 -1</clus>
<clus scale="   68.419">  1  3  2 -1</clus>
</clustering>
</event>
<event>
 6    0  0.1993420E+002  0.1158115E+03  0.7546771E-02  0.1250171E+00
         21   -1    0    0  501  502  0.00000000000E+00  0.00000000000E+00  0.36849213078E+02  0.36849213078E+02  0.00000000000E+00 0.  1.
          2   -1    0    0  505    0 -0.00000000000E+00 -0.00000000000E+00 -0.26176304543E+04  0.26176304543E+04  0.00000000000E+00 0.  1.
         21    1    1    2  503  502 -0.35975246428E+02 -0.23808602236E+02 -0.11348851190E+02  0.44607895258E+02  0.00000000000E+00 0. -1.
         21    1    1    2  504  503  0.14265975614E+03  0.56456908904E+02 -0.32474917341E+03  0.35916739025E+03  0.00000000000E+00 0.  1.
         21    1    1    2  505  504 -0.64467290132E+01 -0.32005926898E+02 -0.14501855526E+03  0.14864831328E+03  0.00000000000E+00 0. -1.
          2    1    1    2  501    0 -0.10023778070E+03 -0.64237977018E+00 -0.20996646613E+04  0.21020560686E+04  0.00000000000E+00 0.  1.
<scales pt_clust_3="43.40178" pt_clust_4="14000.00000" pt_clust_5="32.64873" pt_clust_6="115.81152"></scales>
<clustering>
<clus scale="   32.649">  2  5  1 -1</clus>
<clus scale="   43.402">  1  3  2 -1</clus>
<clus scale="  115.812">  2  6  1 -1</clus>
<clus scale="   43.402">  1  3  2 -1</clus>
</clustering>
</event>
<event>
 6    0  0.1993420E+002  0.2535228E+03  0.7546771E-02  0.1111099E+00
          1   -1    0    0  502    0 -0.00000000000E+00  0.00000000000E+00  0.90045774837E+03  0.90045774837E+03  0.00000000000E+00 0.  1.
         21   -1    0    0  503  502  0.00000000000E+00 -0.00000000000E+00 -0.20902752334E+03  0.20902752334E+03  0.00000000000E+00 0.  1.
         21    1    1    2  503  505 -0.40449277756E+02 -0.10635027596E+03  0.55307915407E+02  0.12651280874E+03  0.00000000000E+00 0.  1.
         21    1    1    2  504  501 -0.54547921470E+02 -0.65432034328E+02 -0.36580145941E+02  0.92708866512E+02  0.00000000000E+00 0.  1.
         21    1    1    2  505  504 -0.34525811411E+02 -0.59508930500E+02 -0.72120642602E+02  0.99673123520E+02  0.00000000000E+00 0.  1.
          1    1    1    2  501    0  0.12952301064E+03  0.23129124079E+03  0.74482309816E+03  0.79059047294E+03  0.00000000000E+00 0.  1.
<scales pt_clust_3="113.78280" pt_clust_4="36.51115" pt_clust_5="36.51115" pt_clust_6="250.24626"></scales>
<clustering>
<clus scale="   36.511">  4  5 -1 -1</clus>
<clus scale="  113.783">  2  3  1 -1</clus>
<clus scale="  250.246">  1  6  2 -1</clus>
<clus scale="  113.783">  2  3  1 -1</clus>
</clustering>
</event>
<event>
 6    0  0.1993420E+002  0.1021974E+03  0.7546771E-02  0.1275742E+00
         21   -1    0    0  505  502  0.00000000000E+00  0.00000000000E+00  0.90177804024E+02  0.90177804024E+02  0.00000000000E+00 0.  1.
         -3   -1    0    0    0  501 -0.00000000000E+00 -0.00000000000E+00 -0.40267275030E+03  0.40267275030E+03  0.00000000000E+00 0.  1.
         21    1    1    2  503  504  0.61694491806E+02  0.51981926966E+02 -0.34065705268E+02  0.87571703910E+02  0.00000000000E+00 0.  1.
         21    1    1    2  504  502  0.27821500624E+02  0.19876307643E+02  0.34345138325E+02  0.48463306007E+02  0.00000000000E+00 0.  1.
         21    1    1    2  505  501 -0.31135930279E+02  0.23436504716E+02 -0.20778313968E+02  0.44163947276E+02  0.00000000000E+00 0.  1.
         -3    1    1    2    0  503 -0.58380062152E+02 -0.95294739325E+02 -0.29199606536E+03  0.31265159713E+03  0.00000000000E+00 0.  1.
<scales pt_clust_3="102.19738" pt_clust_4="34.19216" pt_clust_5="37.33523" pt_clust_6="14000.00000"></scales>
<clustering>
<clus scale="   34.192">  1  4  2 -1</clus>
<clus scale="   37.335">  1  5  2 -1</clus>
<clus scale="  102.197">  1  3  2 -1</clus>
<clus scale="   34.192">  1  3  2 -1</clus>
</clustering>
</event>
<event>
 6    0  0.1993420E+002  0.1287078E+03  0.7546771E-02  0.1229386E+00
          1   -1    0    0  505    0 -0.00000000000E+00  0.00000000000E+00  0.47542315291E+03  0.47542315291E+03  0.00000000000E+00 0.  1.
         21   -1    0    0  503  502  0.00000000000E+00 -0.00000000000E+00 -0.32288513068E+03  0.32288513068E+03  0.00000000000E+00 0. -1.
         21    1    1    2  503  504  0.18419656741E+02  0.64390405219E+02 -0.61668503177E+02  0.91040717939E+02  0.00000000000E+00 0. -1.
         21    1    1    2  504  501  0.26496919150E+01 -0.82476324757E+02 -0.12383950019E+02  0.83442957946E+02  0.00000000000E+00 0.  1.
         21    1    1    2  505  502 -0.14130574709E+03 -0.25806046516E+02 -0.16093026310E+03  0.21571234498E+03  0.00000000000E+00 0.  1.
          1    1    1    2  501    0  0.12023639844E+03  0.43891966054E+02  0.38752073853E+03  0.40811226272E+03  0.00000000000E+00 0.  1.
<scales pt_clust_3="66.97319" pt_clust_4="70.23878" pt_clust_5="14000.00000" pt_clust_6="128.70784"></scales>
<clustering>
<clus scale="   66.973">  2  3  1 -1</clus>
<clus scale="   70.239">  2  4  1 -1</clus>
<clus scale="  128.708">  1  6  2 -1</clus>
<clus scale="   66.973">  2  3  1 -1</clus>
</clustering>
</event>
<event>
 6    0  0.1993420E+002  0.1817949E+03  0.7546771E-02  0.1166077E+00
          2   -1    0    0  503    0 -0.00000000000E+00  0.00000000000E+00  0.87870395398E+03  0.87870395398E+03  0.00000000000E+00 0.  1.
         21   -1    0    0  501  502  0.00000000000E+00 -0.00000000000E+00 -0.11506041003E+03  0.11506041003E+03  0.00000000000E+00 0. -1.
         21    1    1    2  503  504 -0.35043605893E+02 -0.28161863100E+02  0.40350361595E+02  0.60409407613E+02  0.00000000000E+00 0. -1.
         21    1    1    2  504  505 -0.49820531394E+02 -0.82467290812E+02  0.69537817922E+01  0.96598625681E+02  0.00000000000E+00 0. -1.
         21    1    1    2  505  502 -0.39534737365E+02 -0.19629140669E+02 -0.39816337225E+02  0.59444422211E+02  0.00000000000E+00 0. -1.
          2    1    1    2  501    0  0.12439887465E+03  0.13025829458E+03  0.75615573778E+03  0.77731190850E+03  0.00000000000E+00 0.  1.
<scales pt_clust_3="37.24632" pt_clust_4="37.24632" pt_clust_5="44.13954" pt_clust_6="173.42514"></scales>
<clustering>
<clus scale="   37.246">  3  4 -1 -1</clus>
<clus scale="   44.140">  2  5  1 -1</clus>
<clus scale="  173.425">  1  6  2 -1</clus>
<clus scale="   44.140">  2  3  1 -1</clus>
</clustering>
</event>
<event>
 6    0  0.1993420E+002  0.2843252E+03  0.7546771E-02  0.1093350E+00
          1   -1    0    0  503    0 -0.00000000000E+00  0.00000000000E+00  0.22212329844E+04  0.22212329844E+04  0.00000000000E+00 0. -1.
         21   -1    0    0  505  502  0.00000000000E+00 -0.00000000000E+00 -0.62504395494E+03  0.62504395494E+03  0.00000000000E+00 0. -1.
         21    1    1    2  503  504 -0.16914958135E+03 -0.90397663881E+02 -0.81064214703E+02  0.20821797572E+03  0.00000000000E+00 0. -1.
         21    1    1    2  504  502 -0.95919309941E+02 -0.65243956801E+02  0.11751709814E+02  0.11659927359E+03  0.00000000000E+00 0. -1.
         21    1    1    2  505  501  0.21759466340E+03  0.14687703012E+03 -0.38740943347E+03  0.46798116272E+03  0.00000000000E+00 0. -1.
          1    1    1    2  501    0  0.47474227888E+02  0.87645905602E+01  0.20529109678E+04  0.20534785273E+04  0.00000000000E+00 0. -1.
<scales pt_clust_3="59.51294" pt_clust_4="59.51294" pt_clust_5="273.17512" pt_clust_6="48.27650"></scales>
<clustering>
<clus scale="   48.276">  1  6  2 -1</clus>
<clus scale="   59.513">  3  4 -1 -1</clus>
<clus scale="  273.175">  2  5  1 -1</clus>
<clus scale="  273.175">  2  3  1 -1</clus>
</clustering>
</event>
<event>
 6    0  0.1993420E+002  0.1845444E+03  0.7546771E-02  0.1163476E+00
         21   -1    0    0  505  502  0.00000000000E+00  0.00000000000E+00  0.57807909201E+03  0.57807909201E+03  0.00000000000E+00 0. -1.
          2   -1    0    0  503    0 -0.00000000000E+00 -0.00000000000E+00 -0.32832640935E+04  0.32832640935E+04  0.00000000000E+00 0. -1.
         21    1    1    2  503  504  0.12869093752E+03 -0.94843188564E+02  0.24895510234E+03  0.29586353408E+03  0.00000000000E+00 0. -1.
         21    1    1    2  504  502  0.29627183616E+00 -0.70080124172E+02  0.26625829907E+03  0.27532670303E+03  0.00000000000E+00 0.  1.
         21    1    1    2  505  501 -0.37499736191E+02  0.42257162041E+01  0.21200250336E+02  0.43284379470E+02  0.00000000000E+00 0.  1.
          2    1    1    2  501    0 -0.91487473170E+02  0.16069759653E+03 -0.32415986532E+04  0.32468685689E+04  0.00000000000E+00 0. -1.
<scales pt_clust_3="184.54444" pt_clust_4="70.40563" pt_clust_5="37.73708" pt_clust_6="14000.00000"></scales>
<clustering>
<clus scale="   37.737">  1  5  2 -1</clus>
<clus scale="   70.406">  1  4  2 -1</clus>
<clus scale="  184.544">  1  3  2 -1</clus>
<clus scale="   37.737">  1  3  2 -1</clus>
</clustering>
</event>
<event>
 6    0  0.1993420E+002  0.9925766E+02  0.7546771E-02  0.1281865E+00
         21   -1    0    0  504  502  0.00000000000E+00  0.00000000000E+00  0.37574899033E+03  0.37574899033E+03  0.00000000000E+00 0.  1.
          2   -1    0    0  503    0 -0.00000000000E+00 -0.00000000000E+00 -0.38462706666E+03  0.38462706666E+03  0.00000000000E+00 0. -1.
         21    1    1    2  503  502  0.80977648953E+02 -0.49177913940E+02  0.25159042551E+03  0.26883747704E+03  0.00000000000E+00 0.  1.
         21    1    1    2  504  505  0.13283182662E+02 -0.27091690971E+02  0.23311957475E+02  0.38129385290E+02  0.00000000000E+00 0.  1.
         21    1    1    2  505  501 -0.58353820076E+02  0.65417358220E+02  0.60870398810E+02  0.10672302716E+03  0.00000000000E+00 0.  1.
          2    1    1    2  501    0 -0.35907011539E+02  0.10852246692E+02 -0.34465085813E+03  0.34668616751E+03  0.00000000000E+00 0. -1.
<scales pt_clust_3="99.25766" pt_clust_4="30.17288" pt_clust_5="14000.00000" pt_clust_6="37.45056"></scales>
<clustering>
<clus scale="   30.173">  1  4  2 -1</clus>
<clus scale="   37.451">  2  6  1 -1</clus>
<clus scale="   99.258">  1  3  2 -1</clus>
<clus scale="   30.173">  1  3  2 -1</clus>
</clustering>
</event>
<event>
 6    0  0.1993420E+002  0.1423647E+03  0.7546771E-02  0.1210182E+00
         -1   -1    0    0    0  501 -0.00000000000E+00  0.00000000000E+00  0.22635518851E+03  0.22635518851E+03  0.00000000000E+00 0.  1.
         21   -1    0    0  504  502  0.00000000000E+00 -0.00000000000E+00 -0.17469846309E+03  0.17469846309E+03  0.00000000000E+00 0.  1.
         21    1    1    2  503  502 -0.36061033925E+02  0.15185212624E+02 -0.25453298732E+02  0.46678252608E+02  0.00000000000E+00 0. -1.
         21    1    1    2  504  501  0.31113937956E+02  0.62600677157E+02  0.39772311041E+02  0.80428593430E+02  0.00000000000E+00 0.  1.
         21    1    1    2  505  503 -0.10198076558E+03 -0.50558351448E+02 -0.58336841943E+02  0.12790391150E+03  0.00000000000E+00 0.  1.
         -1    1    1    2    0  505  0.10692786155E+03 -0.27227538333E+02  0.95674555062E+02  0.14604289406E+03  0.00000000000E+00 0.  1.
<scales pt_clust_3="32.91331" pt_clust_4="69.90652" pt_clust_5="32.91331" pt_clust_6="130.82948"></scales>
<clustering>
<clus scale="   32.913">  3  5 -1 -1</clus>
<clus scale="   69.907">  1  4  2 -1</clus>
<clus scale="  130.829">  1  6  2 -1</clus>
<clus scale="  142.365">  2  3  1 -1</clus>
</clustering>
</event>
<event>
 6    0  0.1993420E+002  0.9160729E+02  0.7546771E-02  0.1299005E+00
         21   -1    0    0  505  502  0.00000000000E+00  0.00000000000E+00  0.22901398776E+03  0.22901398776E+03  0.00000000000E+00 0.  1.
          1   -1    0    0  504    0 -0.00000000000E+00 -0.00000000000E+00 -0.25369522077E+03  0.25369522077E+03  0.00000000000E+00 0. -1.
         21    1    1    2  503  501  0.65404105974E+02 -0.22483612667E+02  0.71386192501E+02  0.99394156753E+02  0.00000000000E+00 0.  1.
         21    1    1    2  504  502 -0.37810408820E+02 -0.24024902908E+02  0.51713708244E+01  0.45095077903E+02  0.00000000000E+00 0. -1.
         21    1    1    2  505  503  0.16321396729E+02 -0.39705908202E+02  0.10334699714E+03  0.11190866345E+03  0.00000000000E+00 0.  1.
          1    1    1    2  501    0 -0.43915093883E+02  0.86214423777E+02 -0.20458579347E+03  0.22631131043E+03  0.00000000000E+00 0. -1.
<scales pt_clust_3="91.60729" pt_clust_4="47.17315" pt_clust_5="42.92956" pt_clust_6="14000.00000"></scales>
<clustering>
<clus scale="   42.930">  1  5  2 -1</clus>
<clus scale="   47.173">  1  4  2 -1</clus>
<clus scale="   91.607">  1  3  2 -1</clus>
<clus scale="   42.930">  1  3  2 -1</clus>
</clustering>
</event>
<event>
 6    0  0.1993420E+002  0.9325953E+02  0.7546771E-02  0.1295145E+00
          1   -1    0    0  503    0 -0.00000000000E+00  0.00000000000E+00  0.10907486640E+04  0.10907486640E+04  0.00000000000E+00 0. -1.
         21   -1    0    0  504  502  0.00000000000E+00 -0.00000000000E+00 -0.71374990812E+03  0.71374990812E+03  0.00000000000E+00 0. -1.
         21    1    1    2  503  502  0.12890774859E+02  0.13688330897E+03  0.18617615004E+02  0.13874374919E+03  0.00000000000E+00 0. -1.
         21    1    1    2  504  505  0.43706070303E+02 -0.31491028308E+02 -0.53579285626E+03  0.53849409493E+03  0.00000000000E+00 0. -1.
         21    1    1    2  505  501 -0.16363429826E+02 -0.63330963968E+02 -0.10645247986E+03  0.12494280012E+03  0.00000000000E+00 0. -1.
          1    1    1    2  501    0 -0.40233415336E+02 -0.42061316698E+02  0.10006264770E+04  0.10023179278E+04  0.00000000000E+00 0. -1.
<scales pt_clust_3="93.25953" pt_clust_4="53.86934" pt_clust_5="14000.00000" pt_clust_6="58.17038"></scales>
<clustering>
<clus scale="   53.869">  2  4  1 -1</clus>
<clus scale="   58.170">  1  6  2 -1</clus>
<clus scale="   93.260">  1  3  2 -1</clus>
<clus scale="   53.869">  2  3  1 -1</clus>
</clustering>
</event>
<event>
 6    0  0.1993420E+002  0.1272096E+03  0.7546771E-02  0.1231656E+00
         21   -1    0    0  501  502  0.00000000000E+00  0.00000000000E+00  0.96867807088E+03  0.96867807088E+03  0.00000000000E+00 0. -1.
          2   -1    0    0  503    0 -0.00000000000E+00 -0.00000000000E+00 -0.13235599920E+04  0.13235599920E+04  0.00000000000E+00 0.  1.
         21    1    1    2  503  505 -0.18069895264E+03  0.42884183796E+02  0.71349456798E+02  0.19895202862E+03  0.00000000000E+00 0. -1.
         21    1    1    2  504  502  0.41784006847E+00 -0.40899928784E+02  0.48462807869E+03  0.48635105985E+03  0.00000000000E+00 0. -1.
         21    1    1    2  505  504  0.56676738049E+02 -0.27615399728E+02  0.34198456939E+03  0.34774747827E+03  0.00000000000E+00 0. -1.
          2    1    1    2  501    0  0.12360437452E+03  0.25631144716E+02 -0.12528440260E+04  0.12591874962E+04  0.00000000000E+00 0.  1.
<scales pt_clust_3="127.20961" pt_clust_4="40.90206" pt_clust_5="80.45601" pt_clust_6="14000.00000"></scales>
<clustering>
<clus scale="   40.902">  1  4  2 -1</clus>
<clus scale="   80.456">  1  5  2 -1</clus>
<clus scale="  127.210">  1  3  2 -1</clus>
<clus scale="   40.902">  1  3  2 -1</clus>
</clustering>
</event>
<event>
 6    0  0.1993420E+002  0.8081081E+02  0.7546771E-02  0.1326766E+00
         21   -1    0    0  505  502  0.00000000000E+00  0.00000000000E+00  0.30330972790E+03  0.30330972790E+03  0.00000000000E+00 0.  1.
          1   -1    0    0  504    0 -0.00000000000E+00 -0.00000000000E+00 -0.36036766041E+03  0.36036766041E+03  0.00000000000E+00 0. -1.
         21    1    1    2  503  502 -0.10895214236E+02  0.45951396158E+02  0.13542591777E+03  0.14342390214E+03  0.00000000000E+00 0.  1.
         21    1    1    2  504  503  0.62275455612E+02 -0.17468394333E+02  0.47606384217E+02  0.80310304385E+02  0.00000000000E+00 0.  1.
         21    1    1    2  505  501  0.16213346242E+02 -0.75625729986E+02  0.78895855628E+02  0.11048384347E+03  0.00000000000E+00 0.  1.
          1    1    1    2  501    0 -0.67593587618E+02  0.47142728161E+02 -0.31898609013E+03  0.32945933832E+03  0.00000000000E+00 0. -1.
<scales pt_clust_3="47.22538" pt_clust_4="14000.00000" pt_clust_5="50.06802" pt_clust_6="80.81081"></scales>
<clustering>
<clus scale="   47.225">  1  3  2 -1</clus>
<clus scale="   50.068">  1  5  2 -1</clus>
<clus scale="   80.811">  2  6  1 -1</clus>
<clus scale="   47.225">  1  3  2 -1</clus>
</clustering>
</event>
<event>
 6    0  0.1993420E+002  0.1061299E+03  0.7546771E-02  0.1267909E+00
          2   -1    0    0  504    0 -0.00000000000E+00  0.00000000000E+00  0.80989092679E+03  0.80989092679E+03  0.00000000000E+00 0.  1.
         21   -1    0    0  503  502  0.00000000000E+00 -0.00000000000E+00 -0.27269232011E+03  0.27269232011E+03  0.00000000000E+00 0.  1.
         21    1    1    2  503  501 -0.82054078834E+02  0.62036414893E+02 -0.14203285422E+02  0.10384181211E+03  0.00000000000E+00 0.  1.
         21    1    1    2  504  505  0.90873793424E+02 -0.21233871581E+02 -0.16262057235E+03  0.18749499776E+03  0.00000000000E+00 0.  1.
         21    1    1    2  505  502  0.44201930711E+02  0.22239249113E+02 -0.19447153922E+02  0.53165653155E+02  0.00000000000E+00 0.  1.
          2    1    1    2  501    0 -0.53021645301E+02 -0.63041792425E+02  0.73346961836E+03  0.73808078387E+03  0.00000000000E+00 0.  1.
<scales pt_clust_3="14000.00000" pt_clust_4="106.12986" pt_clust_5="49.48126" pt_clust_6="81.93125"></scales>
<clustering>
<clus scale="   49.481">  2  5  1 -1</clus>
<clus scale="   81.931">  1  6  2 -1</clus>
<clus scale="  106.130">  2  4  1 -1</clus>
<clus scale="   49.481">  2  3  1 -1</clus>
</clustering>
</event>
<event>
 6    0  0.1993420E+002  0.1028151E+03  0.7546771E-02  0.1274485E+00
         21   -1    0    0  504  502  0.00000000000E+00  0.00000000000E+00  0.25376895224E+04  0.25376895224E+04  0.00000000000E+00 0. -1.
          2   -1    0    0  505    0 -0.00000000000E+00 -0.00000000000E+00 -0.56681671461E+03  0.56681671461E+03  0.00000000000E+00 0. -1.
         21    1    1    2  503  502  0.34826736445E+02 -0.60061119303E+02  0.22376221275E+04  0.22386989581E+04  0.00000000000E+00 0. -1.
         21    1    1    2  504  501 -0.29111739063E+02 -0.38038948946E+02  0.61225803957E+02  0.77737082904E+02  0.00000000000E+00 0. -1.
         21    1    1    2  505  503 -0.85058567357E+02  0.10893985229E+03  0.20602931610E+03  0.24809459968E+03  0.00000000000E+00 0. -1.
          2    1    1    2  501    0  0.79343569975E+02 -0.10839784041E+02 -0.53400443972E+03  0.53997559635E+03  0.00000000000E+00 0. -1.
<scales pt_clust_3="102.81512" pt_clust_4="47.90047" pt_clust_5="14000.00000" pt_clust_6="80.05196"></scales>
<clustering>
<clus scale="   47.900">  1  4  2 -1</clus>
<clus scale="   80.052">  2  6  1 -1</clus>
<clus scale="  102.815">  1  3  2 -1</clus>
<clus scale="   47.900">  1  3  2 -1</clus>
</clustering>
</event>
<event>
 6    0  0.1993420E+002  0.1476786E+03  0.7546771E-02  0.1203355E+00
         21   -1    0    0  505  502  0.00000000000E+00  0.00000000000E+00  0.28229731881E+02  0.28229731881E+02  0.00000000000E+00 0.  1.
          2   -1    0    0  504    0 -0.00000000000E+00 -0.00000000000E+00 -0.29433177200E+04  0.29433177200E+04  0.00000000000E+00 0.  1.
         21    1    1    2  503  502  0.10499110094E+02  0.53382563926E+02 -0.63412964819E+02  0.83553177984E+02  0.00000000000E+00 0.  1.
         21    1    1    2  504  503  0.55215147000E+02  0.97708097465E+02 -0.28012244432E+03  0.30176840222E+03  0.00000000000E+00 0.  1.
         21    1    1    2  505  501 -0.99332700554E+02 -0.19056660194E+02 -0.49607613098E+03  0.50628220334E+03  0.00000000000E+00 0.  1.
          2    1    1    2  501    0  0.33618443460E+02 -0.13203400120E+03 -0.20754764481E+04  0.20799436684E+04  0.00000000000E+00 0.  1.
<scales pt_clust_3="40.05344" pt_clust_4="40.05344" pt_clust_5="101.14416" pt_clust_6="136.01315"></scales>
<clustering>
<clus scale="   40.053">  3  4 -1 -1</clus>
<clus scale="  101.144">  1  5  2 -1</clus>
<clus scale="  136.013">  2  6  1 -1</clus>
<clus scale="  101.144">  1  3  2 -1</clus>
</clustering>
</event>
<event>
 6    0  0.1993420E+002  0.4133004E+03  0.7546771E-02  0.1039269E+00
          2   -1    0    0  504    0 -0.00000000000E+00  0.00000000000E+00  0.19327041612E+04  0.19327041612E+04  0.00000000000E+00 0. -1.
         21   -1    0    0  505  502  0.00000000000E+00 -0.00000000000E+00 -0.53128974369E+03  0.53128974369E+03  0.00000000000E+00 0. -1.
         21    1    1    2  503  502 -0.10009857850E+03  0.14432957190E+03 -0.16918813344E+03  0.24387573729E+03  0.00000000000E+00 0. -1.
         21    1    1    2  504  503 -0.50061996945E+02  0.29339841997E+03 -0.88330959799E+02  0.31046931385E+03  0.00000000000E+00 0. -1.
         21    1    1    2  505  501  0.14765718571E+03 -0.61347525594E+02 -0.43821231180E+02  0.16579042098E+03  0.00000000000E+00 0. -1.
          2    1    1    2  501    0  0.25033897334E+01 -0.37638046628E+03  0.17027547419E+04  0.17438584328E+04  0.00000000000E+00 0. -1.
<scales pt_clust_3="125.82552" pt_clust_4="125.82552" pt_clust_5="159.89423" pt_clust_6="379.45868"></scales>
<clustering>
<clus scale="  125.826">  3  4 -1 -1</clus>
<clus scale="  159.894">  2  5  1 -1</clus>
<clus scale="  379.459">  1  6  2 -1</clus>
<clus scale="  159.894">  2  3  1 -1</clus>
</clustering>
</event>
<event>
 6    0  0.1993420E+002  0.2533660E+03  0.7546771E-02  0.1111196E+00
         21   -1    0    0  501  502  0.00000000000E+00  0.00000000000E+00  0.96431331400E+02  0.96431331400E+02  0.00000000000E+00 0. -1.
          1   -1    0    0  505    0 -0.00000000000E+00 -0.00000000000E+00 -0.10043864069E+04  0.10043864069E+04  0.00000000000E+00 0. -1.
         21    1    1    2  503  502  0.12029624931E+02  0.54639047412E+02 -0.43494835579E+02  0.70865634126E+02  0.00000000000E+00 0. -1.
         21    1    1    2  504  503 -0.55387307842E+02  0.68688072761E+02 -0.50808627710E+02  0.10182004645E+03  0.00000000000E+00 0. -1.
         21    1    1    2  505  504 -0.96911725492E+02  0.33764618729E+02 -0.16888703510E+02  0.10400557832E+03  0.00000000000E+00 0. -1.
          1    1    1    2  501    0  0.14026940840E+03 -0.15709173890E+03 -0.79676290869E+03  0.82412647939E+03  0.00000000000E+00 0. -1.
<scales pt_clust_3="49.32901" pt_clust_4="97.97474" pt_clust_5="97.97474" pt_clust_6="210.60228"></scales>
<clustering>
<clus scale="   49.329">  3  4 -1 -1</clus>
<clus scale="   97.975">  3  5 -1 -1</clus>
<clus scale="  210.602">  2  6  1 -1</clus>
<clus scale="  253.366">  1  3  2 -1</clus>
</clustering>
</event>
<event>
 6    0  0.1993420E+002  0.1523710E+03  0.7546771E-02  0.1197589E+00
          1   -1    0    0  505    0 -0.00000000000E+00  0.00000000000E+00  0.55349083406E+03  0.55349083406E+03  0.00000000000E+00 0.  1.
         21   -1    0    0  503  502  0.00000000000E+00 -0.00000000000E+00 -0.26333458082E+03  0.26333458082E+03  0.00000000000E+00 0. -1.
         21    1    1    2  503  501  0.41228444781E+02 -0.88903346154E+01  0.49196913055E+01  0.42462054486E+02  0.00000000000E+00 0. -1.
         21    1    1    2  504  502  0.42706466385E+02  0.64794780293E+02 -0.18081086207E+03  0.19676070153E+03  0.00000000000E+00 0. -1.
         21    1    1    2  505  504  0.32346363635E+02  0.29265824310E+02 -0.35194511190E+02  0.56048455205E+02  0.00000000000E+00 0. -1.
          1    1    1    2  501    0 -0.11628127480E+03 -0.85170269988E+02  0.50124193519E+03  0.52155420366E+03  0.00000000000E+00 0.  1.
<scales pt_clust_3="42.17609" pt_clust_4="39.48639" pt_clust_5="39.48639" pt_clust_6="142.97934"></scales>
<clustering>
<clus scale="   39.486">  4  5 -1 -1</clus>
<clus scale="   42.176">  2  3  1 -1</clus>
<clus scale="  142.979">  1  6  2 -1</clus>
<clus scale="   42.176">  2  3  1 -1</clus>
</clustering>
</event>
<event>
 6    0  0.1993420E+002  0.1815891E+03  0.7546771E-02  0.1166274E+00
          1   -1    0    0  503    0 -0.00000000000E+00  0.00000000000E+00  0.85147133505E+03  0.85147133505E+03  0.00000000000E+00 0. -1.
         21   -1    0    0  505  502  0.00000000000E+00 -0.00000000000E+00 -0.60890079933E+02  0.60890079933E+02  0.00000000000E+00 0. -1.
         21    1    1    2  503  502 -0.90370576315E+00 -0.40793230159E+02  0.17482935757E+02  0.44390960269E+02  0.00000000000E+00 0.  1.
         21    1    1    2  504  501  0.38947746572E+02 -0.10816197046E+02  0.11275058175E+02  0.41964794989E+02  0.00000000000E+00 0. -1.
         21    1    1    2  505  504  0.11945107913E+03 -0.23665652387E+02  0.17094988480E+03  0.20988684218E+03  0.00000000000E+00 0. -1.
          1    1    1    2  501    0 -0.15749511994E+03  0.75275079592E+02  0.59087337638E+03  0.61611881754E+03  0.00000000000E+00 0. -1.
<scales pt_clust_3="40.80324" pt_clust_4="36.18328" pt_clust_5="36.18328" pt_clust_6="170.38326"></scales>
<clustering>
<clus scale="   36.183">  4  5 -1 -1</clus>
<clus scale="   40.803">  2  3  1 -1</clus>
<clus scale="  170.383">  1  6  2 -1</clus>
<clus scale="   40.803">  2  3  1 -1</clus>
</clustering>
</event>
<event>
 6    0  0.1993420E+002  0.1798937E+03  0.7546771E-02  0.1167906E+00
         21   -1    0    0  501  502  0.00000000000E+00  0.00000000000E+00  0.18516495010E+02  0.18516495010E+02  0.00000000000E+00 0.  1.
          2   -1    0    0  504    0 -0.00000000000E+00 -0.00000000000E+00 -0.20386881855E+04  0.20386881855E+04  0.00000000000E+00 0.  1.
         21    1    1    2  503  502  0.34494109308E+02  0.32629982646E+02 -0.77240233077E+02  0.90667595922E+02  0.00000000000E+00 0. -1.
         21    1    1    2  504  505  0.80160183363E+01  0.86554016263E+02 -0.31227249245E+03  0.32414497346E+03  0.00000000000E+00 0. -1.
         21    1    1    2  505  503  0.28899302096E+02  0.17727794045E+02 -0.15435674284E+03  0.15803622497E+03  0.00000000000E+00 0.  1.
          2    1    1    2  501    0 -0.71409429740E+02 -0.13691179295E+03 -0.14763022221E+04  0.14843558861E+04  0.00000000000E+00 0.  1.
<scales pt_clust_3="43.33355" pt_clust_4="43.33355" pt_clust_5="31.34122" pt_clust_6="154.41550"></scales>
<clustering>
<clus scale="   31.341">  4  5 -1 -1</clus>
<clus scale="   43.334">  3  4 -1 -1</clus>
<clus scale="  154.415">  2  6  1 -1</clus>
<clus scale="  179.894">  1  3  2 -1</clus>
</clustering>
</event>
<event>
 6    0  0.1993420E+002  0.7808215E+02  0.7546771E-02  0.1334584E+00
          2   -1    0    0  505    0 -0.00000000000E+00  0.00000000000E+00  0.16837895107E+04  0.16837895107E+04  0.00000000000E+00 0. -1.
         21   -1    0    0  504  502  0.00000000000E+00 -0.00000000000E+00 -0.62234473254E+03  0.62234473254E+03  0.00000000000E+00 0. -1.
         21    1    1    2  503  501  0.31148915346E+02  0.61229835171E+02 -0.29894549163E+03  0.30673727293E+03  0.00000000000E+00 0. -1.
         21    1    1    2  504  503  0.65097584694E+02 -0.45758091262E+01 -0.28123386509E+02  0.71060245081E+02  0.00000000000E+00 0. -1.
         21    1    1    2  505  502 -0.40541285638E+02 -0.18827395189E+01 -0.26745983774E+03  0.27052154323E+03  0.00000000000E+00 0. -1.
          2    1    1    2  501    0 -0.55705214402E+02 -0.54771286526E+02  0.16559734940E+04  0.16578151820E+04  0.00000000000E+00 0. -1.
<scales pt_clust_3="78.08215" pt_clust_4="59.60462" pt_clust_5="40.58498" pt_clust_6="14000.00000"></scales>
<clustering>
<clus scale="   40.585">  2  5  1 -1</clus>
<clus scale="   59.605">  2  4  1 -1</clus>
<clus scale="   78.082">  2  3  1 -1</clus>
<clus scale="   40.585">  2  3  1 -1</clus>
</clustering>
</event>
<event>
 6    0  0.1993420E+002  0.1650457E+03  0.7546771E-02  0.1183115E+00
         21   -1    0    0  503  502  0.00000000000E+00  0.00000000000E+00  0.90052500082E+02  0.90052500082E+02  0.00000000000E+00 0.  1.
          1   -1    0    0  502    0 -0.00000000000E+00 -0.00000000000E+00 -0.28391122059E+03  0.28391122059E+03  0.00000000000E+00 0.  1.
         21    1    1    2  503  504  0.46253829472E+02  0.29697481194E+02  0.62204701449E+01  0.55317731144E+02  0.00000000000E+00 0.  1.
         21    1    1    2  504  505  0.26477527922E+02  0.55557636332E+02 -0.21317764870E+02  0.65131847346E+02  0.00000000000E+00 0.  1.
         21    1    1    2  505  501  0.32228150626E+02  0.13890794696E+02 -0.40772536189E+02  0.53795981051E+02  0.00000000000E+00 0. -1.
          1    1    1    2  501    0 -0.10495950802E+03 -0.99145912221E+02 -0.13798888959E+03  0.19971816113E+03  0.00000000000E+00 0.  1.
<scales pt_clust_3="42.13667" pt_clust_4="42.13667" pt_clust_5="33.93217" pt_clust_6="144.38286"></scales>
<clustering>
<clus scale="   33.932">  4  5 -1 -1</clus>
<clus scale="   42.137">  3  4 -1 -1</clus>
<clus scale="  144.383">  2  6  1 -1</clus>
<clus scale="  165.046">  1  3  2 -1</clus>
</clustering>
</event>
<event>
 6    0  0.1993420E+002  0.7827767E+02  0.7546771E-02  0.1334011E+00
         21   -1    0    0  505  502  0.00000000000E+00  0.00000000000E+00  0.43117342309E+03  0.43117342309E+03  0.00000000000E+00 0. -1.
         -3   -1    0    0    0  501 -0.00000000000E+00 -0.00000000000E+00 -0.37762006444E+03  0.37762006444E+03  0.00000000000E+00 0. -1.
         21    1    1    2  503  501 -0.38618837910E+02 -0.32039820545E+02  0.40852215883E+02  0.64706014285E+02  0.00000000000E+00 0. -1.
         21    1    1    2  504  503 -0.79396031563E+02  0.19411307912E+02  0.16460064949E+03  0.18377677360E+03  0.00000000000E+00 0. -1.
         21    1    1    2  505  504  0.77237501512E+02  0.21791358086E+02  0.19501781984E+03  0.21088490933E+03  0.00000000000E+00 0. -1.
         -3    1    1    2    0  502  0.40777367961E+02 -0.91628454534E+01 -0.34691732656E+03  0.34942579032E+03  0.00000000000E+00 0. -1.
<scales pt_clust_3="42.03207" pt_clust_4="14000.00000" pt_clust_5="78.27767" pt_clust_6="41.79416"></scales>
<clustering>
<clus scale="   41.794">  2  6  1 -1</clus>
<clus scale="   42.032">  2  3  1 -1</clus>
<clus scale="   78.278">  1  5  2 -1</clus>
<clus scale="   78.278">  1  3  2 -1</clus>
</clustering>
</event>
<event>
 6    0  0.1993420E+002  0.4241186E+03  0.7546771E-02  0.1035734E+00
         21   -1    0    0  501  502  0.00000000000E+00  0.00000000000E+00  0.88476808810E+02  0.88476808810E+02  0.00000000000E+00 0.  1.
          2   -1    0    0  503    0 -0.00000000000E+00 -0.00000000000E+00 -0.38988948165E+04  0.38988948165E+04  0.00000000000E+00 0.  1.
         21    1    1    2  503  504  0.52341823775E+02 -0.52215881592E+02 -0.48212397039E+03  0.48775986677E+03  0.00000000000E+00 0. -1.
         21    1    1    2  504  505  0.36167945787E+03 -0.11591447579E+03 -0.71517571485E+03  0.80976817612E+03  0.00000000000E+00 0.  1.
         21    1    1    2  505  502  0.41298846519E+02 -0.47350351225E+01 -0.11639587795E+02  0.43168220781E+02  0.00000000000E+00 0.  1.
          2    1    1    2  501    0 -0.45532012817E+03  0.17286539250E+03 -0.26014787346E+04  0.26466753616E+04  0.00000000000E+00 0.  1.
<scales pt_clust_3="75.20288" pt_clust_4="14000.00000" pt_clust_5="41.56940" pt_clust_6="424.11864"></scales>
<clustering>
<clus scale="   41.569">  1  5  2 -1</clus>
<clus scale="   75.203">  2  3  1 -1</clus>
<clus scale="  424.119">  2  6  1 -1</clus>
<clus scale="   41.569">  1  3  2 -1</clus>
</clustering>
</event>
<event>
 6    0  0.1993420E+002  0.1013660E+03  0.7546771E-02  0.1277449E+00
          2   -1    0    0  504    0 -0.00000000000E+00  0.00000000000E+00  0.63799930855E+03  0.63799930855E+03  0.00000000000E+00 0. -1.
         21   -1    0    0  503  502  0.00000000000E+00 -0.00000000000E+00 -0.76372222317E+02  0.76372222317E+02  0.00000000000E+00 0. -1.
         21    1    1    2  503  505 -0.19007126924E+02 -0.93469083315E+02 -0.10433548723E+02  0.95951025782E+02  0.00000000000E+00 0. -1.
         21    1    1    2  504  502  0.24444642607E+02 -0.26154918550E+02  0.17685285895E+02  0.39929809087E+02  0.00000000000E+00 0. -1.
         21    1    1    2  505  501 -0.15400030541E+02  0.82201558453E+02  0.14579082755E+03  0.16807505035E+03  0.00000000000E+00 0.  1.
          2    1    1    2  501    0  0.99625148586E+01  0.37422443412E+02  0.40858452151E+03  0.41041564565E+03  0.00000000000E+00 0. -1.
<scales pt_clust_3="101.36595" pt_clust_4="35.79973" pt_clust_5="14000.00000" pt_clust_6="38.46180"></scales>
<clustering>
<clus scale="   35.800">  2  4  1 -1</clus>
<clus scale="   38.462">  1  6  2 -1</clus>
<clus scale="  101.366">  2  3  1 -1</clus>
<clus scale="   35.800">  2  3  1 -1</clus>
</clustering>
</event>
<event>
 6    0  0.1993420E+002  0.1067673E+03  0.7546771E-02  0.1266676E+00
         21   -1    0    0  504  502  0.00000000000E+00  0.00000000000E+00  0.12066856896E+03  0.12066856896E+03  0.00000000000E+00 0.  1.
          2   -1    0    0  505    0 -0.00000000000E+00 -0.00000000000E+00 -0.17138988173E+04  0.17138988173E+04  0.00000000000E+00 0. -1.
         21    1    1    2  503  502 -0.42223914950E+02  0.63033792242E+02 -0.78510931765E+01  0.76274226460E+02  0.00000000000E+00 0.  1.
         21    1    1    2  504  501  0.89429806900E+02  0.51684580612E+02  0.37431598026E+02  0.10986405584E+03  0.00000000000E+00 0.  1.
         21    1    1    2  505  503 -0.34823969828E+02 -0.85812888114E+02 -0.15698346642E+03  0.18226455873E+03  0.00000000000E+00 0.  1.
          2    1    1    2  501    0 -0.12381922122E+02 -0.28905484739E+02 -0.14658272868E+04  0.14661645453E+04  0.00000000000E+00 0. -1.
<scales pt_clust_3="73.10063" pt_clust_4="14000.00000" pt_clust_5="106.76730" pt_clust_6="31.44581"></scales>
<clustering>
<clus scale="   31.446">  2  6  1 -1</clus>
<clus scale="   73.101">  1  3  2 -1</clus>
<clus scale="  106.767">  2  5  1 -1</clus>
<clus scale="   73.101">  1  3  2 -1</clus>
</clustering>
</event>
<event>
 6    0  0.1993420E+002  0.1397077E+03  0.7546771E-02  0.1213723E+00
         21   -1    0    0  504  502  0.00000000000E+00  0.00000000000E+00  0.54731853302E+03  0.54731853302E+03  0.00000000000E+00 0. -1.
         -1   -1    0    0    0  501 -0.00000000000E+00 -0.00000000000E+00 -0.21698274728E+03  0.21698274728E+03  0.00000000000E+00 0. -1.
         21    1    1    2  503  502  0.11122619314E+03  0.13370684152E+02  0.68526426558E+02  0.13132369311E+03  0.00000000000E+00 0. -1.
         21    1    1    2  504  505 -0.15268185902E+03  0.78984460072E+01  0.39399139119E+03  0.42261489782E+03  0.00000000000E+00 0. -1.
         21    1    1    2  505  501 -0.38717122538E+02 -0.12177674907E+02  0.14379243530E+02  0.43058959442E+02  0.00000000000E+00 0. -1.
         -1    1    1    2    0  503  0.80172788416E+02 -0.90914552523E+01 -0.14656127554E+03  0.16730372993E+03  0.00000000000E+00 0. -1.
<scales pt_clust_3="139.70774" pt_clust_4="14000.00000" pt_clust_5="40.58708" pt_clust_6="53.49786"></scales>
<clustering>
<clus scale="   40.587">  2  5  1 -1</clus>
<clus scale="   53.498">  2  6  1 -1</clus>
<clus scale="  139.708">  2  3  1 -1</clus>
<clus scale="  139.708">  1  3  2 -1</clus>
</clustering>
</event>
<event>
 6    0  0.1993420E+002  0.1620168E+03  0.7546771E-02  0.1186438E+00
          2   -1    0    0  505    0 -0.00000000000E+00  0.00000000000E+00  0.17151193182E+04  0.17151193182E+04  0.00000000000E+00 0.  1.
         21   -1    0    0  501  502  0.00000000000E+00 -0.00000000000E+00 -0.57961785987E+02  0.57961785987E+02  0.00000000000E+00 0.  1.
         21    1    1    2  503  504 -0.46444958718E+02  0.59845588103E+02  0.92836705269E+01  0.76320476572E+02  0.00000000000E+00 0.  1.
         21    1    1    2  504  502 -0.59144143074E+02  0.49678724831E+02  0.67143462077E+02  0.10234378272E+03  0.00000000000E+00 0.  1.
         21    1    1    2  505  503  0.17595391331E+02  0.26385160191E+02  0.10117642892E+03  0.10603039302E+03  0.00000000000E+00 0. -1.
          2    1    1    2  501    0  0.87993710461E+02 -0.13590947312E+03  0.14795539707E+04  0.14883864519E+04  0.00000000000E+00 0.  1.
<scales pt_clust_3="53.67950" pt_clust_4="53.67950" pt_clust_5="31.71395" pt_clust_6="152.69015"></scales>
<clustering>
<clus scale="   31.714">  1  5  2 -1</clus>
<clus scale="   53.679">  3  4 -1 -1</clus>
<clus scale="  152.690">  1  6  2 -1</clus>
<clus scale="  162.017">  2  3  1 -1</clus>
</clustering>
</event>
<event>
 6    0  0.1993420E+002  0.1108141E+03  0.7546771E-02  0.1259070E+00
          1   -1    0    0  505    0 -0.00000000000E+00  0.00000000000E+00  0.71386994731E+03  0.71386994731E+03  0.00000000000E+00 0.  1.
         21   -1    0    0  503  502  0.00000000000E+00 -0.00000000000E+00 -0.17991571292E+03  0.17991571292E+03  0.00000000000E+00 0.  1.
         21    1    1    2  503  504 -0.57025499498E+02  0.74689893576E+02  0.59709249806E+01  0.94160181289E+02  0.00000000000E+00 0.  1.
         21    1    1    2  504  501  0.83504359426E+02 -0.12779014593E+03 -0.51924126575E+02  0.16124333897E+03  0.00000000000E+00 0.  1.
         21    1    1    2  505  502  0.68558990824E+02 -0.12866794389E+01  0.25333186969E+02  0.73101033705E+02  0.00000000000E+00 0.  1.
          1    1    1    2  501    0 -0.95037850753E+02  0.54386931794E+02  0.55457424902E+03  0.56528110627E+03  0.00000000000E+00 0.  1.
<scales pt_clust_3="83.31849" pt_clust_4="110.81412" pt_clust_5="68.57106" pt_clust_6="14000.00000"></scales>
<clustering>
<clus scale="   68.571">  2  5  1 -1</clus>
<clus scale="   83.318">  2  3  1 -1</clus>
<clus scale="  110.814">  2  4  1 -1</clus>
<clus scale="   68.571">  2  3  1 -1</clus>
</clustering>
</event>
<event>
 6    0  0.1993420E+002  0.2374915E+03  0.7546771E-02  0.1121475E+00
          2   -1    0    0  505    0 -0.00000000000E+00  0.00000000000E+00  0.80912957066E+03  0.80912957066E+03  0.00000000000E+00 0.  1.
         21   -1    0    0  503  502  0.00000000000E+00 -0.00000000000E+00 -0.20237990223E+03  0.20237990223E+03  0.00000000000E+00 0.  1.
         21    1    1    2  503  501  0.19636098711E+03  0.38657199402E+02  0.99831926825E+02  0.22364800455E+03  0.00000000000E+00 0.  1.
         21    1    1    2  504  502 -0.27394541473E+03 -0.91075719650E+01  0.28785935022E+02  0.27560418751E+03  0.00000000000E+00 0.  1.
         21    1    1    2  505  504 -0.15368982988E+02 -0.49253694874E+02  0.43880848007E+02  0.67732273833E+02  0.00000000000E+00 0.  1.
          2    1    1    2  501    0  0.92953410607E+02  0.19704067438E+02  0.43425095858E+03  0.44452500700E+03  0.00000000000E+00 0.  1.
<scales pt_clust_3="237.49154" pt_clust_4="14000.00000" pt_clust_5="51.59585" pt_clust_6="84.47258"></scales>
<clustering>
<clus scale="   51.596">  1  5  2 -1</clus>
<clus scale="   84.473">  1  6  2 -1</clus>
<clus scale="  237.492">  1  3  2 -1</clus>
<clus scale="  237.492">  2  3  1 -1</clus>
</clustering>
</event>
<event>
 6    0  0.1993420E+002  0.3035108E+03  0.7546771E-02  0.1083499E+00
         21   -1    0    0  505  502  0.00000000000E+00  0.00000000000E+00  0.32411427257E+03  0.32411427257E+03  0.00000000000E+00 0. -1.
          2   -1    0    0  502    0 -0.00000000000E+00 -0.00000000000E+00 -0.64889443689E+03  0.64889443689E+03  0.00000000000E+00 0. -1.
         21    1    1    2  503  504 -0.10247469118E+03  0.11130256144E+02  0.78705964797E+02  0.12969029967E+03  0.00000000000E+00 0.  1.
         21    1    1    2  504  501 -0.98475193351E+02  0.25104411518E+02  0.45161236705E+02  0.11120760983E+03  0.00000000000E+00 0.  1.
         21    1    1    2  505  503 -0.82807106767E+02  0.47710387011E+02  0.81084728943E+02  0.12533168485E+03  0.00000000000E+00 0. -1.
          2    1    1    2  501    0  0.28375699130E+03 -0.83945054673E+02 -0.52973209476E+03  0.60677911511E+03  0.00000000000E+00 0. -1.
<scales pt_clust_3="37.59861" pt_clust_4="31.31919" pt_clust_5="37.59861" pt_clust_6="295.91350"></scales>
<clustering>
<clus scale="   31.319">  3  4 -1 -1</clus>
<clus scale="   37.599">  3  5 -1 -1</clus>
<clus scale="  295.914">  2  6  1 -1</clus>
<clus scale="  303.511">  1  3  2 -1</clus>
</clustering>
</event>
<event>
 6    0  0.1993420E+002  0.8807167E+02  0.7546771E-02  0.1307590E+00
          2   -1    0    0  503    0 -0.00000000000E+00  0.00000000000E+00  0.14335764004E+04  0.14335764004E+04  0.00000000000E+00 0. -1.
         21   -1    0    0  504  502  0.00000000000E+00 -0.00000000000E+00 -0.66005514540E+02  0.66005514540E+02  0.00000000000E+00 0. -1.
         21    1    1    2  503  502  0.23999279585E+02 -0.46363949066E+02 -0.88629793674E+01  0.52954070635E+02  0.00000000000E+00 0. -1.
         21    1    1    2  504  505 -0.31652917082E+02  0.18916064019E+02  0.11436137053E+01  0.36892173832E+02  0.00000000000E+00 0. -1.
         21    1    1    2  505  501  0.81170918083E+02  0.72429502129E+02  0.17301058272E+03  0.20437077202E+03  0.00000000000E+00 0. -1.
          2    1    1    2  501    0 -0.73517280586E+02 -0.44981617081E+02  0.12022796688E+04  0.12053648985E+04  0.00000000000E+00 0. -1.
<scales pt_clust_3="34.41312" pt_clust_4="36.87444" pt_clust_5="88.07167" pt_clust_6="14000.00000"></scales>
<clustering>
<clus scale="   36.874">  2  4  1 -1</clus>
<clus scale="   34.413">  2  3  1 -1</clus>
<clus scale="   88.072">  2  5  1 -1</clus>
<clus scale="   36.874">  2  3  1 -1</clus>
</clustering>
</event>
<event>
 6    0  0.1993420E+002  0.1291664E+03  0.7546771E-02  0.1228698E+00
          2   -1    0    0  505    0 -0.00000000000E+00  0.00000000000E+00  0.27285861333E+04  0.27285861333E+04  0.00000000000E+00 0.  1.
         21   -1    0    0  504  502  0.00000000000E+00 -0.00000000000E+00 -0.58853751692E+02  0.58853751692E+02  0.00000000000E+00 0.  1.
         21    1    1    2  503  502  0.46016861128E+02 -0.44454706234E+02  0.50390758275E+02  0.81443237497E+02  0.00000000000E+00 0.  1.
         21    1    1    2  504  501 -0.17685064630E+03  0.27303689376E+02  0.18088075711E+03  0.25443956226E+03  0.00000000000E+00 0.  1.
         21    1    1    2  505  503  0.10131707130E+03 -0.75585781975E+01  0.39897011425E+03  0.41170308853E+03  0.00000000000E+00 0.  1.
          2    1    1    2  501    0  0.29516713868E+02  0.24709595055E+02  0.20394907519E+04  0.20398539967E+04  0.00000000000E+00 0.  1.
<scales pt_clust_3="64.47524" pt_clust_4="14000.00000" pt_clust_5="129.16635" pt_clust_6="38.49416"></scales>
<clustering>
<clus scale="   38.494">  1  6  2 -1</clus>
<clus scale="   64.475">  2  3  1 -1</clus>
<clus scale="  129.166">  1  5  2 -1</clus>
<clus scale="   64.475">  2  3  1 -1</clus>
</clustering>
</event>
<event>
 6    0  0.1993420E+002  0.1306558E+03  0.7546771E-02  0.1226486E+00
         21   -1    0    0  503  502  0.00000000000E+00  0.00000000000E+00  0.17273366337E+03  0.17273366337E+03  0.00000000000E+00 0. -1.
          1   -1    0    0  505    0 -0.00000000000E+00 -0.00000000000E+00 -0.59738303614E+03  0.59738303614E+03  0.00000000000E+00 0.  1.
         21    1    1    2  503  501  0.39323158683E+02  0.10974006972E+02 -0.16500879090E+02  0.44034289464E+02  0.00000000000E+00 0.  1.
         21    1    1    2  504  502 -0.91080772959E+02  0.41103674874E+02  0.10026685457E+03  0.14155797899E+03  0.00000000000E+00 0. -1.
         21    1    1    2  505  504 -0.38699365421E+02  0.28510736979E+02  0.12533045409E+02  0.49674744431E+02  0.00000000000E+00 0.  1.
          1    1    1    2  501    0  0.90456979697E+02 -0.80588418825E+02 -0.52094839366E+03  0.53484968663E+03  0.00000000000E+00 0.  1.
<scales pt_clust_3="40.82572" pt_clust_4="32.21225" pt_clust_5="32.21225" pt_clust_6="122.12233"></scales>
<clustering>
<clus scale="   32.212">  4  5 -1 -1</clus>
<clus scale="   40.826">  1  3  2 -1</clus>
<clus scale="  122.122">  2  6  1 -1</clus>
<clus scale="   40.826">  1  3  2 -1</clus>
</clustering>
</event>
<event>
 6    0  0.1993420E+002  0.1470827E+03  0.7546771E-02  0.1204104E+00
         -1   -1    0    0    0  501 -0.00000000000E+00  0.00000000000E+00  0.31098108712E+03  0.31098108712E+03  0.00000000000E+00 0. -1.
         21   -1    0    0  504  502  0.00000000000E+00 -0.00000000000E+00 -0.30054776785E+03  0.30054776785E+03  0.00000000000E+00 0. -1.
         21    1    1    2  503  502 -0.27573574028E+02 -0.15125772854E+03 -0.22826652749E+03  0.27521775015E+03  0.00000000000E+00 0. -1.
         21    1    1    2  504  505  0.71153819423E+02  0.88421034318E+02  0.14236302312E+03  0.18206695384E+03  0.00000000000E+00 0. -1.
         21    1    1    2  505  501  0.23184284147E+02  0.20655200865E+02  0.18585342415E+01  0.31106309709E+02  0.00000000000E+00 0. -1.
         -1    1    1    2    0  503 -0.66764529542E+02  0.42181493355E+02  0.94478289396E+02  0.12313784127E+03  0.00000000000E+00 0. -1.
<scales pt_clust_3="147.08267" pt_clust_4="14000.00000" pt_clust_5="31.05074" pt_clust_6="76.60557"></scales>
<clustering>
<clus scale="   31.051">  1  5  2 -1</clus>
<clus scale="   76.606">  1  6  2 -1</clus>
<clus scale="  147.083">  2  3  1 -1</clus>
<clus scale="  147.083">  2  3  1 -1</clus>
</clustering>
</event>
<event>
 6    0  0.1993420E+002  0.8750488E+02  0.7546771E-02  0.1309009E+00
          2   -1    0    0  503    0 -0.00000000000E+00  0.00000000000E+00  0.28853880791E+03  0.28853880791E+03  0.00000000000E+00 0.  1.
         21   -1    0    0  505  502  0.00000000000E+00 -0.00000000000E+00 -0.78293368447E+03  0.78293368447E+03  0.00000000000E+00 0. -1.
         21    1    1    2  503  502  0.28253855541E+02  0.67466657372E+02 -0.53806186027E+03  0.54301067732E+03  0.00000000000E+00 0. -1.
         21    1    1    2  504  501 -0.67313285190E+02 -0.11646272032E+03 -0.10545101483E+03  0.17092267291E+03  0.00000000000E+00 0. -1.
         21    1    1    2  505  504  0.31540696609E+02 -0.96660063629E+01 -0.98020430871E+02  0.10342268653E+03  0.00000000000E+00 0. -1.
          2    1    1    2  501    0  0.75187330402E+01  0.58662069308E+02  0.24713842941E+03  0.25411645562E+03  0.00000000000E+00 0.  1.
<scales pt_clust_3="87.50488" pt_clust_4="14000.00000" pt_clust_5="32.98859" pt_clust_6="59.11365"></scales>
<clustering>
<clus scale="   32.989">  2  5  1 -1</clus>
<clus scale="   59.114">  1  6  2 -1</clus>
<clus scale="   87.505">  2  3  1 -1</clus>
<clus scale="   32.989">  2  3  1 -1</clus>
</clustering>
</event>
<event>
 6    0  0.1993420E+002  0.1771338E+03  0.7546771E-02  0.1170606E+00
          2   -1    0    0  502    0 -0.00000000000E+00  0.00000000000E+00  0.19192223113E+03  0.19192223113E+03  0.00000000000E+00 0. -1.
         21   -1    0    0  505  502  0.00000000000E+00 -0.00000000000E+00 -0.10508361962E+04  0.10508361962E+04  0.00000000000E+00 0.  1.
         21    1    1    2  503  504  0.58349594782E+02  0.11914440576E+03 -0.72773028059E+03  0.73972388492E+03  0.00000000000E+00 0.  1.
         21    1    1    2  504  501  0.91060607803E+01 -0.14839285597E+03 -0.12689597275E+03  0.19546341843E+03  0.00000000000E+00 0. -1.
         21    1    1    2  505  503 -0.78340520359E+01  0.45259126278E+02 -0.14596861921E+03  0.15302483026E+03  0.00000000000E+00 0.  1.
          2    1    1    2  501    0 -0.59621603527E+02 -0.16010676069E+02  0.14168090748E+03  0.15454629371E+03  0.00000000000E+00 0. -1.
<scales pt_clust_3="37.53924" pt_clust_4="165.24600" pt_clust_5="37.53924" pt_clust_6="61.73392"></scales>
<clustering>
<clus scale="   37.539">  3  5 -1 -1</clus>
<clus scale="   61.734">  1  6  2 -1</clus>
<clus scale="  165.246">  1  4  2 -1</clus>
<clus scale="  177.134">  2  3  1 -1</clus>
</clustering>
</event>
<event>
 6    0  0.1993420E+002  0.1029054E+03  0.7546771E-02  0.1274302E+00
          1   -1    0    0  502    0 -0.00000000000E+00  0.00000000000E+00  0.34773456716E+03  0.34773456716E+03  0.00000000000E+00 0. -1.
         21   -1    0    0  504  502  0.00000000000E+00 -0.00000000000E+00 -0.10900525239E+04  0.10900525239E+04  0.00000000000E+00 0. -1.
         21    1    1    2  503  505  0.86850365637E+01 -0.81001547579E+02 -0.70177344386E+03  0.70648612660E+03  0.00000000000E+00 0. -1.
         21    1    1    2  504  503 -0.55298382637E+02  0.27101752321E+02 -0.15127407883E+03  0.16332869628E+03  0.00000000000E+00 0. -1.
         21    1    1    2  505  501  0.75080985738E+02 -0.46430889877E+02 -0.21155438274E+03  0.22923402629E+03  0.00000000000E+00 0.  1.
          1    1    1    2  501    0 -0.28467639664E+02  0.10033068514E+03  0.32228394873E+03  0.33873824186E+03  0.00000000000E+00 0. -1.
<scales pt_clust_3="68.98064" pt_clust_4="61.58260" pt_clust_5="102.90541" pt_clust_6="14000.00000"></scales>
<clustering>
<clus scale="   61.583">  2  4  1 -1</clus>
<clus scale="   68.981">  2  3  1 -1</clus>
<clus scale="  102.905">  2  5  1 -1</clus>
<clus scale="   61.583">  2  3  1 -1</clus>
</clustering>
</event>
<event>
 6    0  0.1993420E+002  0.1033544E+03  0.7546771E-02  0.1273396E+00
          1   -1    0    0  505    0 -0.00000000000E+00  0.00000000000E+00  0.13421448673E+04  0.13421448673E+04  0.00000000000E+00 0. -1.
         21   -1    0    0  504  502  0.00000000000E+00 -0.00000000000E+00 -0.20268635703E+03  0.20268635703E+03  0.00000000000E+00 0. -1.
         21    1    1    2  503  501  0.96634541687E+02  0.44732728604E+02 -0.84914734260E+02  0.13619751741E+03  0.00000000000E+00 0. -1.
         21    1    1    2  504  503  0.40167654566E+02 -0.39652698128E+02 -0.64034335762E+02  0.85359083282E+02  0.00000000000E+00 0. -1.
         21    1    1    2  505  502 -0.33906583215E+02 -0.17019841379E+02  0.81128469218E+01  0.38796258468E+02  0.00000000000E+00 0.  1.
          1    1    1    2  501    0 -0.10289561304E+03  0.11939810903E+02  0.12802947334E+04  0.12844783652E+04  0.00000000000E+00 0. -1.
<scales pt_clust_3="14000.00000" pt_clust_4="53.54164" pt_clust_5="37.93852" pt_clust_6="103.35439"></scales>
<clustering>
<clus scale="   37.939">  2  5  1 -1</clus>
<clus scale="   53.542">  2  4  1 -1</clus>
<clus scale="  103.354">  1  6  2 -1</clus>
<clus scale="   37.939">  2  3  1 -1</clus>
</clustering>
</event>
<event>
 6    0  0.1993420E+002  0.1377691E+03  0.7546771E-02  0.1216363E+00
         21   -1    0    0  504  502  0.00000000000E+00  0.00000000000E+00  0.35551240646E+02  0.35551240646E+02  0.00000000000E+00 0.  1.
          2   -1    0    0  505    0 -0.00000000000E+00 -0.00000000000E+00 -0.19366193869E+04  0.19366193869E+04  0.00000000000E+00 0. -1.
         21    1    1    2  503  501 -0.50126122341E+02  0.43683092257E+02 -0.91084011049E+02  0.11277028757E+03  0.00000000000E+00 0.  1.
         21    1    1    2  504  503 -0.71092673061E+02  0.23249469920E+02 -0.51608412640E+02  0.90874277272E+02  0.00000000000E+00 0.  1.
         21    1    1    2  505  502  0.76225240969E+02 -0.73466218791E+02 -0.60066715325E+03  0.60992507873E+03  0.00000000000E+00 0. -1.
          2    1    1    2  501    0  0.44993554432E+02  0.65336566137E+01 -0.11577085693E+04  0.11586009840E+04  0.00000000000E+00 0. -1.
<scales pt_clust_3="41.48456" pt_clust_4="41.48456" pt_clust_5="130.55387" pt_clust_6="45.46547"></scales>
<clustering>
<clus scale="   41.485">  3  4 -1 -1</clus>
<clus scale="   45.465">  2  6  1 -1</clus>
<clus scale="  130.554">  2  5  1 -1</clus>
<clus scale="  137.769">  1  3  2 -1</clus>
</clustering>
</event>
<event>
 6    0  0.1993420E+002  0.2369517E+03  0.7546771E-02  0.1121840E+00
         21   -1    0    0  501  502  0.00000000000E+00  0.00000000000E+00  0.22259161986E+03  0.22259161986E+03  0.00000000000E+00 0. -1.
          2   -1    0    0  504    0 -0.00000000000E+00 -0.00000000000E+00 -0.11262344427E+04  0.11262344427E+04  0.00000000000E+00 0. -1.
         21    1    1    2  503  502 -0.37705829574E+02  0.21777953546E+03  0.97540410790E+01  0.22123471013E+03  0.00000000000E+00 0. -1.
         21    1    1    2  504  505  0.31513764233E+02 -0.19447694229E+03 -0.25972944780E+02  0.19871837428E+03  0.00000000000E+00 0. -1.
         21    1    1    2  505  503  0.37781295297E+02 -0.23503957954E+02 -0.37705305882E+01  0.44655114094E+02  0.00000000000E+00 0.  1.
          2    1    1    2  501    0 -0.31589229956E+02  0.20136477884E+00 -0.88365338858E+03  0.88421786407E+03  0.00000000000E+00 0. -1.
<scales pt_clust_3="223.86957" pt_clust_4="35.95356" pt_clust_5="35.95356" pt_clust_6="31.58987"></scales>
<clustering>
<clus scale="   31.590">  2  6  1 -1</clus>
<clus scale="   35.954">  4  5 -1 -1</clus>
<clus scale="  223.870">  1  3  2 -1</clus>
<clus scale="  223.870">  1  3  2 -1</clus>
</clustering>
</event>
<event>
 6    0  0.1993420E+002  0.9912414E+02  0.7546771E-02  0.1282149E+00
          1   -1    0    0  504    0 -0.00000000000E+00  0.00000000000E+00  0.93278767438E+03  0.93278767438E+03  0.00000000000E+00 0. -1.
         21   -1    0    0  505  502  0.00000000000E+00 -0.00000000000E+00 -0.81140623644E+03  0.81140623644E+03  0.00000000000E+00 0.  1.
         21    1    1    2  503  501 -0.50023578510E+02  0.78075880915E+02 -0.28979428276E+03  0.30426785553E+03  0.00000000000E+00 0.  1.
         21    1    1    2  504  502  0.84214573121E+02 -0.57614748932E+02 -0.14643404721E+03  0.17847824462E+03  0.00000000000E+00 0.  1.
         21    1    1    2  505  503  0.12191303879E+02  0.35287300409E+02 -0.34947760789E+03  0.35146610061E+03  0.00000000000E+00 0.  1.
          1    1    1    2  501    0 -0.46382298490E+02 -0.55748432392E+02  0.90708737580E+03  0.90998171007E+03  0.00000000000E+00 0. -1.
<scales pt_clust_3="14000.00000" pt_clust_4="99.12414" pt_clust_5="37.33392" pt_clust_6="72.41074"></scales>
<clustering>
<clus scale="   37.334">  2  5  1 -1</clus>
<clus scale="   72.411">  1  6  2 -1</clus>
<clus scale="   99.124">  1  4  2 -1</clus>
<clus scale="   37.334">  2  3  1 -1</clus>
</clustering>
</event>
<event>
 6    0  0.1993420E+002  0.1185458E+03  0.7546771E-02  0.1245515E+00
         21   -1    0    0  501  502  0.00000000000E+00  0.00000000000E+00  0.17579398372E+03  0.17579398372E+03  0.00000000000E+00 0. -1.
          1   -1    0    0  503    0 -0.00000000000E+00 -0.00000000000E+00 -0.31440807706E+03  0.31440807706E+03  0.00000000000E+00 0. -1.
         21    1    1    2  503  505 -0.76529495347E+02  0.11327565620E+03 -0.71078501519E+02  0.15407884775E+03  0.00000000000E+00 0. -1.
         21    1    1    2  504  502  0.12453174555E+02 -0.43704432981E+02  0.70996827088E+02  0.84295364495E+02  0.00000000000E+00 0. -1.
         21    1    1    2  505  504  0.38090674880E+02 -0.49321085917E+02  0.37505853852E+02  0.72733473051E+02  0.00000000000E+00 0. -1.
          1    1    1    2  501    0  0.25985645912E+02 -0.20250137300E+02 -0.17603827276E+03  0.17909437549E+03  0.00000000000E+00 0. -1.
<scales pt_clust_3="111.24892" pt_clust_4="34.34940" pt_clust_5="34.34940" pt_clust_6="32.94422"></scales>
<clustering>
<clus scale="   32.944">  2  6  1 -1</clus>
<clus scale="   34.349">  4  5 -1 -1</clus>
<clus scale="  111.249">  2  3  1 -1</clus>
<clus scale="  118.546">  1  3  2 -1</clus>
</clustering>
</event>
<event>
 6    0  0.1993420E+002  0.1620451E+03  0.7546771E-02  0.1186407E+00
          1   -1    0    0  504    0 -0.00000000000E+00  0.00000000000E+00  0.39351361893E+03  0.39351361893E+03  0.00000000000E+00 0. -1.
         21   -1    0    0  503  502  0.00000000000E+00 -0.00000000000E+00 -0.15032119353E+03  0.15032119353E+03  0.00000000000E+00 0. -1.
         21    1    1    2  503  501  0.18520136523E+02  0.48893161650E+02  0.16422149428E+02  0.54801676113E+02  0.00000000000E+00 0. -1.
         21    1    1    2  504  505  0.63033742190E+02  0.27093898339E+02 -0.40120947218E+02  0.79479697957E+02  0.00000000000E+00 0. -1.
         21    1    1    2  505  502  0.24573322106E+02  0.49315978095E+02 -0.35435967429E+02  0.65510469716E+02  0.00000000000E+00 0. -1.
          1    1    1    2  501    0 -0.10612720082E+03 -0.12530303808E+03  0.30232719062E+03  0.34404296868E+03  0.00000000000E+00 0. -1.
<scales pt_clust_3="52.28324" pt_clust_4="38.01850" pt_clust_5="38.01850" pt_clust_6="156.39299"></scales>
<clustering>
<clus scale="   38.018">  4  5 -1 -1</clus>
<clus scale="   52.283">  2  3  1 -1</clus>
<clus scale="  156.393">  1  6  2 -1</clus>
<clus scale="   52.283">  2  3  1 -1</clus>
</clustering>
</event>
<event>
 6    0  0.1993420E+002  0.7583697E+02  0.7546771E-02  0.1341299E+00
         -1   -1    0    0    0  501 -0.00000000000E+00  0.00000000000E+00  0.61504231028E+03  0.61504231028E+03  0.00000000000E+00 0.  1.
         21   -1    0    0  503  502  0.00000000000E+00 -0.00000000000E+00 -0.11300677543E+03  0.11300677543E+03  0.00000000000E+00 0.  1.
         21    1    1    2  503  501  0.40378745244E+02 -0.29062648742E+02  0.18558109321E+02  0.53098813932E+02  0.00000000000E+00 0.  1.
         21    1    1    2  504  502 -0.32485202062E+01  0.55328116945E+02  0.39604529119E+02  0.68119542973E+02  0.00000000000E+00 0.  1.
         21    1    1    2  505  504 -0.96956581842E+02  0.19535212896E+02 -0.47496441784E+02  0.10971834526E+03  0.00000000000E+00 0.  1.
         -1    1    1    2    0  505  0.59826356804E+02 -0.45800681098E+02  0.49136933819E+03  0.49711238355E+03  0.00000000000E+00 0.  1.
<scales pt_clust_3="49.75018" pt_clust_4="51.07487" pt_clust_5="75.83697" pt_clust_6="14000.00000"></scales>
<clustering>
<clus scale="   49.750">  2  3  1 -1</clus>
<clus scale="   51.075">  2  4  1 -1</clus>
<clus scale="   75.837">  2  5  1 -1</clus>
<clus scale="   49.750">  2  3  1 -1</clus>
</clustering>
</event>
<event>
 6    0  0.1993420E+002  0.9478834E+02  0.7546771E-02  0.1291654E+00
         21   -1    0    0  504  502  0.00000000000E+00  0.00000000000E+00  0.41708509118E+03  0.41708509118E+03  0.00000000000E+00 0. -1.
          2   -1    0    0  505    0 -0.00000000000E+00 -0.00000000000E+00 -0.13431133866E+04  0.13431133866E+04  0.00000000000E+00 0. -1.
         21    1    1    2  503  501  0.56861522133E+02  0.43670434593E+02  0.13262600792E+03  0.15076470918E+03  0.00000000000E+00 0. -1.
         21    1    1    2  504  503  0.43706071042E+02  0.63492808750E+02  0.22987613587E+03  0.24245534692E+03  0.00000000000E+00 0. -1.
         21    1    1    2  505  502 -0.43575143109E+02 -0.43278145363E+02  0.12883392260E+02  0.62751675349E+02  0.00000000000E+00 0. -1.
          2    1    1    2  501    0 -0.56992450066E+02 -0.63885097980E+02 -0.13014138314E+04  0.13042267463E+04  0.00000000000E+00 0. -1.
<scales pt_clust_3="38.77468" pt_clust_4="38.77468" pt_clust_5="61.41491" pt_clust_6="85.83951"></scales>
<clustering>
<clus scale="   38.775">  3  4 -1 -1</clus>
<clus scale="   61.415">  1  5  2 -1</clus>
<clus scale="   85.840">  2  6  1 -1</clus>
<clus scale="   61.415">  1  3  2 -1</clus>
</clustering>
</event>
<event>
 6    0  0.1993420E+002  0.1469545E+03  0.7546771E-02  0.1204266E+00
          1   -1    0    0  504    0 -0.00000000000E+00  0.00000000000E+00  0.12968303619E+03  0.12968303619E+03  0.00000000000E+00 0. -1.
         21   -1    0    0  505  502  0.00000000000E+00 -0.00000000000E+00 -0.14686068689E+04  0.14686068689E+04  0.00000000000E+00 0. -1.
         21    1    1    2  503  501 -0.54104944607E+02  0.46626068868E+01 -0.11686973413E+03  0.12887055401E+03  0.00000000000E+00 0. -1.
         21    1    1    2  504  502  0.85312428277E+02  0.14012060975E+03 -0.11611962849E+04  0.11727270816E+04  0.00000000000E+00 0. -1.
         21    1    1    2  505  503 -0.38077413935E+02 -0.95470313011E+02 -0.15744642319E+03  0.18802618513E+03  0.00000000000E+00 0. -1.
          1    1    1    2  501    0  0.68699302642E+01 -0.49312903625E+02  0.96588609539E+02  0.10866608440E+03  0.00000000000E+00 0. -1.
<scales pt_clust_3="52.95432" pt_clust_4="146.95445" pt_clust_5="14000.00000" pt_clust_6="49.78914"></scales>
<clustering>
<clus scale="   49.789">  1  6  2 -1</clus>
<clus scale="   52.954">  1  3  2 -1</clus>
<clus scale="  146.954">  2  4  1 -1</clus>
<clus scale="  146.954">  2  3  1 -1</clus>
</clustering>
</event>
<event>
 6    0  0.1993420E+002  0.1352585E+03  0.7546771E-02  0.1219855E+00
         21   -1    0    0  505  502  0.00000000000E+00  0.00000000000E+00  0.56856908795E+03  0.56856908795E+03  0.00000000000E+00 0. -1.
          2   -1    0    0  503    0 -0.00000000000E+00 -0.00000000000E+00 -0.74580196584E+03  0.74580196584E+03  0.00000000000E+00 0.  1.
         21    1    1    2  503  502  0.69085661411E+02 -0.37137346610E+02  0.39678919979E+03  0.40446715589E+03  0.00000000000E+00 0. -1.
         21    1    1    2  504  501 -0.12946467196E+03  0.62503427164E+02 -0.60961657170E+02  0.15615410125E+03  0.00000000000E+00 0.  1.
         21    1    1    2  505  504  0.94252014519E+02  0.50239549659E+00  0.10103739723E+03  0.13817470927E+03  0.00000000000E+00 0. -1.
          2    1    1    2  501    0 -0.33873003975E+02 -0.25868476050E+02 -0.61409781774E+03  0.61557508739E+03  0.00000000000E+00 0.  1.
<scales pt_clust_3="77.92753" pt_clust_4="135.25851" pt_clust_5="14000.00000" pt_clust_6="42.62110"></scales>
<clustering>
<clus scale="   42.621">  2  6  1 -1</clus>
<clus scale="   77.928">  1  3  2 -1</clus>
<clus scale="  135.259">  2  4  1 -1</clus>
<clus scale="   77.928">  1  3  2 -1</clus>
</clustering>
</event>
<event>
 6    0  0.1993420E+002  0.1106276E+03  0.7546771E-02  0.1259412E+00
         21   -1    0    0  501  502  0.00000000000E+00  0.00000000000E+00  0.10685184550E+03  0.10685184550E+03  0.00000000000E+00 0. -1.
          2   -1    0    0  504    0 -0.00000000000E+00 -0.00000000000E+00 -0.14406462514E+04  0.14406462514E+04  0.00000000000E+00 0.  1.
         21    1    1    2  503  505  0.24149749549E+02 -0.45309900598E+02  0.85309045790E+01  0.52047803300E+02  0.00000000000E+00 0. -1.
         21    1    1    2  504  503 -0.45063391653E+02 -0.54459123604E+02 -0.19109697862E+03  0.20375122244E+03  0.00000000000E+00 0.  1.
         21    1    1    2  505  502  0.17746958340E+02 -0.47209427094E+02  0.56108654969E+02  0.75444454397E+02  0.00000000000E+00 0. -1.
          2    1    1    2  501    0  0.31666837641E+01  0.14697845130E+03 -0.12073369868E+04  0.12162546168E+04  0.00000000000E+00 0.  1.
<scales pt_clust_3="41.58930" pt_clust_4="70.68596" pt_clust_5="41.58930" pt_clust_6="102.36030"></scales>
<clustering>
<clus scale="   41.589">  3  5 -1 -1</clus>
<clus scale="   70.686">  2  4  1 -1</clus>
<clus scale="  102.360">  2  6  1 -1</clus>
<clus scale="  110.628">  1  3  2 -1</clus>
</clustering>
</event>
<event>
 6    0  0.1993420E+002  0.9305204E+02  0.7546771E-02  0.1295625E+00
         21   -1    0    0  505  502  0.00000000000E+00  0.00000000000E+00  0.34608514809E+03  0.34608514809E+03  0.00000000000E+00 0. -1.
         -4   -1    0    0    0  501 -0.00000000000E+00 -0.00000000000E+00 -0.45213225745E+03  0.45213225745E+03  0.00000000000E+00 0. -1.
         21    1    1    2  503  502 -0.63183381840E+00 -0.31537144152E+02  0.14934716939E+01  0.31578808289E+02  0.00000000000E+00 0. -1.
         21    1    1    2  504  503 -0.50988429460E+02  0.14755673120E+01  0.29909264998E+01  0.51097386225E+02  0.00000000000E+00 0. -1.
         21    1    1    2  505  501  0.83233113889E+02 -0.57653254702E+02  0.28850528664E+03  0.30575635635E+03  0.00000000000E+00 0. -1.
         -4    1    1    2    0  504 -0.31612850610E+02  0.87714831542E+02 -0.39903679420E+03  0.40978485467E+03  0.00000000000E+00 0. -1.
<scales pt_clust_3="31.54347" pt_clust_4="51.05240" pt_clust_5="93.05204" pt_clust_6="14000.00000"></scales>
<clustering>
<clus scale="   31.543">  1  3  2 -1</clus>
<clus scale="   51.052">  1  4  2 -1</clus>
<clus scale="   93.052">  1  5  2 -1</clus>
<clus scale="   31.543">  1  3  2 -1</clus>
</clustering>
</event>
<event>
 6    0  0.1993420E+002  0.2426833E+03  0.7546771E-02  0.1118018E+00
          1   -1    0    0  503    0 -0.00000000000E+00  0.00000000000E+00  0.17634873896E+04  0.17634873896E+04  0.00000000000E+00 0. -1.
         21   -1    0    0  504  502  0.00000000000E+00 -0.00000000000E+00 -0.98767991810E+02  0.98767991810E+02  0.00000000000E+00 0. -1.
         21    1    1    2  503  505 -0.66996030162E+02 -0.21691776138E+01  0.95200417839E+01  0.67703800370E+02  0.00000000000E+00 0. -1.
         21    1    1    2  504  501 -0.25329990442E+02 -0.42245111465E+02  0.16021463748E+01  0.49283107973E+02  0.00000000000E+00 0. -1.
         21    1    1    2  505  502 -0.14122835149E+03 -0.16191215201E+02  0.10185176994E+03  0.17487534348E+03  0.00000000000E+00 0. -1.
          1    1    1    2  501    0  0.23355437210E+03  0.60605504280E+02  0.15517454397E+04  0.15703931296E+04  0.00000000000E+00 0. -1.
<scales pt_clust_3="35.98707" pt_clust_4="49.25706" pt_clust_5="35.98707" pt_clust_6="236.95719"></scales>
<clustering>
<clus scale="   35.987">  3  5 -1 -1</clus>
<clus scale="   49.257">  2  4  1 -1</clus>
<clus scale="  236.957">  1  6  2 -1</clus>
<clus scale="   49.257">  2  3  1 -1</clus>
</clustering>
</event>
<event>
 6    0  0.1993420E+002  0.3260080E+03  0.7546771E-02  0.1072917E+00
         21   -1    0    0  503  502  0.00000000000E+00  0.00000000000E+00  0.15437861346E+03  0.15437861346E+03  0.00000000000E+00 0.  1.
          2   -1    0    0  502    0 -0.00000000000E+00 -0.00000000000E+00 -0.26192881718E+04  0.26192881718E+04  0.00000000000E+00 0.  1.
         21    1    1    2  503  505  0.23517553961E+03  0.27574486295E+03 -0.16416023409E+03  0.39785845012E+03  0.00000000000E+00 0.  1.
         21    1    1    2  504  501 -0.13323682907E+03 -0.13403980332E+02 -0.36820739301E+03  0.39180148491E+03  0.00000000000E+00 0.  1.
         21    1    1    2  505  504 -0.13795322331E+03 -0.33415949895E+02 -0.26667312446E+03  0.30209646281E+03  0.00000000000E+00 0.  1.
          2    1    1    2  501    0  0.36014512773E+02 -0.22892493272E+03 -0.16658688068E+04  0.16819103874E+04  0.00000000000E+00 0.  1.
<scales pt_clust_3="321.86373" pt_clust_4="50.32877" pt_clust_5="50.32877" pt_clust_6="231.74052"></scales>
<clustering>
<clus scale="   50.329">  4  5 -1 -1</clus>
<clus scale="  231.741">  2  6  1 -1</clus>
<clus scale="  321.864">  1  3  2 -1</clus>
<clus scale="  321.864">  1  3  2 -1</clus>
</clustering>
</event>
<event>
 6    0  0.1993420E+002  0.9085831E+02  0.7546771E-02  0.1300786E+00
          2   -1    0    0  503    0 -0.00000000000E+00  0.00000000000E+00  0.59510373516E+03  0.59510373516E+03  0.00000000000E+00 0. -1.
         21   -1    0    0  505  502  0.00000000000E+00 -0.00000000000E+00 -0.12770823569E+03  0.12770823569E+03  0.00000000000E+00 0.  1.
         21    1    1    2  503  504 -0.16660301486E+02 -0.33534113331E+02  0.42054494889E+02  0.56308817630E+02  0.00000000000E+00 0. -1.
         21    1    1    2  504  502 -0.87728375880E+02 -0.16958258072E+02 -0.78307079242E+02  0.11881013892E+03  0.00000000000E+00 0.  1.
         21    1    1    2  505  501  0.86750343325E+02  0.87294178136E+02  0.16113363379E+03  0.20275587178E+03  0.00000000000E+00 0. -1.
          2    1    1    2  501    0  0.17638334040E+02 -0.36801806732E+02  0.34251445003E+03  0.34493714251E+03  0.00000000000E+00 0. -1.
<scales pt_clust_3="37.44466" pt_clust_4="90.85831" pt_clust_5="14000.00000" pt_clust_6="58.35521"></scales>
<clustering>
<clus scale="   37.445">  1  3  2 -1</clus>
<clus scale="   58.355">  1  6  2 -1</clus>
<clus scale="   90.858">  2  4  1 -1</clus>
<clus scale="   90.858">  2  3  1 -1</clus>
</clustering>
</event>
<event>
 6    0  0.1993420E+002  0.3493907E+03  0.7546771E-02  0.1062865E+00
         21   -1    0    0  505  502  0.00000000000E+00  0.00000000000E+00  0.24167424215E+03  0.24167424215E+03  0.00000000000E+00 0.  1.
         -2   -1    0    0    0  501 -0.00000000000E+00 -0.00000000000E+00 -0.10320628010E+04  0.10320628010E+04  0.00000000000E+00 0.  1.
         21    1    1    2  503  502 -0.10993092964E+03  0.93386695421E+02 -0.70004567418E+02  0.16033254078E+03  0.00000000000E+00 0. -1.
         21    1    1    2  504  503 -0.11260916653E+03  0.10961861195E+03 -0.27609720381E+03  0.31768967630E+03  0.00000000000E+00 0. -1.
         21    1    1    2  505  501  0.24972184028E+03 -0.21689802256E+03  0.19106859430E+02  0.33131679972E+03  0.00000000000E+00 0.  1.
         -2    1    1    2    0  504 -0.27181744103E+02  0.13892715183E+02 -0.46339364707E+03  0.46439802636E+03  0.00000000000E+00 0.  1.
<scales pt_clust_3="125.17959" pt_clust_4="125.17959" pt_clust_5="322.63030" pt_clust_6="30.52630"></scales>
<clustering>
<clus scale="   30.526">  2  6  1 -1</clus>
<clus scale="  125.180">  3  4 -1 -1</clus>
<clus scale="  322.630">  1  5  2 -1</clus>
<clus scale="  322.630">  1  3  2 -1</clus>
</clustering>
</event>
<event>
 6    0  0.1993420E+002  0.1306691E+03  0.7546771E-02  0.1226466E+00
         21   -1    0    0  503  502  0.00000000000E+00  0.00000000000E+00  0.77887195580E+02  0.77887195580E+02  0.00000000000E+00 0. -1.
          2   -1    0    0  504    0 -0.00000000000E+00 -0.00000000000E+00 -0.22239827282E+04  0.22239827282E+04  0.00000000000E+00 0.  1.
         21    1    1    2  503  505 -0.40547494484E+02  0.29341664730E+02 -0.38316433763E+02  0.63033179313E+02  0.00000000000E+00 0. -1.
         21    1    1    2  504  502  0.10995459962E+03 -0.83591288076E+02 -0.26302757082E+02  0.14060352929E+03  0.00000000000E+00 0. -1.
         21    1    1    2  505  501 -0.36713346129E+02  0.43906060063E+02 -0.91262484584E+02  0.10772396663E+03  0.00000000000E+00 0. -1.
          2    1    1    2  501    0 -0.32693759006E+02  0.10343563283E+02 -0.19902138572E+04  0.19905092485E+04  0.00000000000E+00 0.  1.
<scales pt_clust_3="30.05362" pt_clust_4="126.65537" pt_clust_5="30.05362" pt_clust_6="34.29098"></scales>
<clustering>
<clus scale="   30.054">  3  5 -1 -1</clus>
<clus scale="   34.291">  2  6  1 -1</clus>
<clus scale="  126.655">  1  4  2 -1</clus>
<clus scale="  126.655">  1  3  2 -1</clus>
</clustering>
</event>
<event>
 6    0  0.1993420E+002  0.1167617E+03  0.7546771E-02  0.1248537E+00
         21   -1    0    0  505  502  0.00000000000E+00  0.00000000000E+00  0.57749699895E+03  0.57749699895E+03  0.00000000000E+00 0. -1.
          1   -1    0    0  504    0 -0.00000000000E+00 -0.00000000000E+00 -0.99576383919E+02  0.99576383919E+02  0.00000000000E+00 0. -1.
         21    1    1    2  503  502  0.20869069837E+02 -0.42077947389E+02  0.27030553403E+03  0.27435588833E+03  0.00000000000E+00 0. -1.
         21    1    1    2  504  503  0.49175412296E+02 -0.74668893434E+02  0.17269590796E+03  0.19446732746E+03  0.00000000000E+00 0. -1.
         21    1    1    2  505  501 -0.38575657995E+02 -0.41657483977E+01  0.68632781443E+02  0.78840938211E+02  0.00000000000E+00 0. -1.
          1    1    1    2  501    0 -0.31468824139E+02  0.12091258922E+03 -0.33713608409E+02  0.12940922887E+03  0.00000000000E+00 0. -1.
<scales pt_clust_3="44.32994" pt_clust_4="14000.00000" pt_clust_5="38.79993" pt_clust_6="116.76174"></scales>
<clustering>
<clus scale="   38.800">  1  5  2 -1</clus>
<clus scale="   44.330">  1  3  2 -1</clus>
<clus scale="  116.762">  2  6  1 -1</clus>
<clus scale="   38.800">  1  3  2 -1</clus>
</clustering>
</event>
<event>
 6    0  0.1993420E+002  0.1609668E+03  0.7546771E-02  0.1187610E+00
         21   -1    0    0  503  502  0.00000000000E+00  0.00000000000E+00  0.21643008706E+03  0.21643008706E+03  0.00000000000E+00 0.  1.
          1   -1    0    0  505    0 -0.00000000000E+00 -0.00000000000E+00 -0.77321387479E+03  0.77321387479E+03  0.00000000000E+00 0. -1.
         21    1    1    2  503  501  0.92985979700E+02 -0.10715888676E+03 -0.11788332899E+02  0.14236707564E+03  0.00000000000E+00 0. -1.
         21    1    1    2  504  502 -0.97887620894E+02  0.66208973013E+02  0.10427334651E+03  0.15760249118E+03  0.00000000000E+00 0.  1.
         21    1    1    2  505  504 -0.37291898455E+02  0.12877716238E+02 -0.10388799502E+01  0.39466448250E+02  0.00000000000E+00 0.  1.
          1    1    1    2  501    0  0.42193539649E+02  0.28072197513E+02 -0.64822992140E+03  0.65020794678E+03  0.00000000000E+00 0. -1.
<scales pt_clust_3="149.19684" pt_clust_4="34.91051" pt_clust_5="34.91051" pt_clust_6="50.67882"></scales>
<clustering>
<clus scale="   34.911">  4  5 -1 -1</clus>
<clus scale="   50.679">  2  6  1 -1</clus>
<clus scale="  149.197">  2  3  1 -1</clus>
<clus scale="  160.967">  1  3  2 -1</clus>
</clustering>
</event>
<event>
 6    0  0.1993420E+002  0.1973584E+03  0.7546771E-02  0.1151987E+00
          2   -1    0    0  505    0 -0.00000000000E+00  0.00000000000E+00  0.18011005200E+04  0.18011005200E+04  0.00000000000E+00 0.  1.
         21   -1    0    0  504  502  0.00000000000E+00 -0.00000000000E+00 -0.93671755741E+02  0.93671755741E+02  0.00000000000E+00 0.  1.
         21    1    1    2  503  501  0.35624528342E+02  0.59403663220E+02  0.62705288851E+02  0.93433695600E+02  0.00000000000E+00 0. -1.
         21    1    1    2  504  503  0.12371885662E+03  0.80866579829E+02  0.89883025629E+02  0.17298762243E+03  0.00000000000E+00 0. -1.
         21    1    1    2  505  502 -0.17429602830E+03 -0.40706837420E+02  0.19462491485E+03  0.26441446552E+03  0.00000000000E+00 0.  1.
          2    1    1    2  501    0  0.14952643339E+02 -0.99563405629E+02  0.13602155349E+04  0.13639364922E+04  0.00000000000E+00 0.  1.
<scales pt_clust_3="35.11456" pt_clust_4="35.11456" pt_clust_5="190.57615" pt_clust_6="100.67995"></scales>
<clustering>
<clus scale="   35.115">  3  4 -1 -1</clus>
<clus scale="  100.680">  1  6  2 -1</clus>
<clus scale="  190.576">  1  5  2 -1</clus>
<clus scale="  197.358">  2  3  1 -1</clus>
</clustering>
</event>
<event>
 6    0  0.1993420E+002  0.9851659E+02  0.7546771E-02  0.1283447E+00
          1   -1    0    0  505    0 -0.00000000000E+00  0.00000000000E+00  0.83220786046E+03  0.83220786046E+03  0.00000000000E+00 0. -1.
         21   -1    0    0  503  502  0.00000000000E+00 -0.00000000000E+00 -0.82928386554E+02  0.82928386554E+02  0.00000000000E+00 0. -1.
         21    1    1    2  503  501  0.33716926208E+02 -0.25462114619E+02  0.79490716678E+02  0.90021799759E+02  0.00000000000E+00 0. -1.
         21    1    1    2  504  502  0.20686186705E+02 -0.72227481191E+02  0.26656064257E+02  0.79719966892E+02  0.00000000000E+00 0. -1.
         21    1    1    2  505  504 -0.76490803913E+02  0.12904985601E+03  0.60910076212E+02  0.16190968409E+03  0.00000000000E+00 0. -1.
          1    1    1    2  501    0  0.22087691000E+02 -0.31360260197E+02  0.58222261676E+03  0.58348479627E+03  0.00000000000E+00 0. -1.
<scales pt_clust_3="54.81090" pt_clust_4="98.51659" pt_clust_5="14000.00000" pt_clust_6="38.35795"></scales>
<clustering>
<clus scale="   38.358">  1  6  2 -1</clus>
<clus scale="   54.811">  1  3  2 -1</clus>
<clus scale="   98.517">  2  4  1 -1</clus>
<clus scale="   98.517">  2  3  1 -1</clus>
</clustering>
</event>
<event>
 6    0  0.1993420E+002  0.1650524E+03  0.7546771E-02  0.1183108E+00
         21   -1    0    0  504  502  0.00000000000E+00  0.00000000000E+00  0.59197119832E+03  0.59197119832E+03  0.00000000000E+00 0.  1.
          2   -1    0    0  505    0 -0.00000000000E+00 -0.00000000000E+00 -0.75375049720E+03  0.75375049720E+03  0.00000000000E+00 0. -1.
         21    1    1    2  503  502 -0.10887361591E+03 -0.19107058608E+02  0.30517568400E+03  0.32457779042E+03  0.00000000000E+00 0.  1.
         21    1    1    2  504  501  0.17264083936E+03 -0.34774267920E+02  0.46044753683E+02  0.18202809801E+03  0.00000000000E+00 0. -1.
         21    1    1    2  505  503 -0.40162809360E+02  0.30247247592E+02  0.15875733167E+03  0.16652878910E+03  0.00000000000E+00 0.  1.
          2    1    1    2  501    0 -0.23604414093E+02  0.23634078936E+02 -0.67175706823E+03  0.67258701799E+03  0.00000000000E+00 0. -1.
<scales pt_clust_3="40.75898" pt_clust_4="153.70887" pt_clust_5="40.75898" pt_clust_6="33.40267"></scales>
<clustering>
<clus scale="   33.403">  2  6  1 -1</clus>
<clus scale="   40.759">  3  5 -1 -1</clus>
<clus scale="  153.709">  2  4  1 -1</clus>
<clus scale="  165.052">  1  3  2 -1</clus>
</clustering>
</event>
<event>
 6    0  0.1993420E+002  0.1495902E+03  0.7546771E-02  0.1200977E+00
         -1   -1    0    0    0  501 -0.00000000000E+00  0.00000000000E+00  0.50386912194E+03  0.50386912194E+03  0.00000000000E+00 0.  1.
         21   -1    0    0  505  502  0.00000000000E+00 -0.00000000000E+00 -0.89979337206E+02  0.89979337206E+02  0.00000000000E+00 0. -1.
         21    1    1    2  503  502  0.16230782005E+02  0.10454444992E+03 -0.50948494876E+01  0.10591948728E+03  0.00000000000E+00 0. -1.
         21    1    1    2  504  503 -0.22401126494E+02  0.33942882648E+02  0.12082584261E+02  0.42425447471E+02  0.00000000000E+00 0.  1.
         21    1    1    2  505  501  0.29393339826E+02  0.93984602400E+01  0.54625071970E+02  0.62739126299E+02  0.00000000000E+00 0. -1.
         -1    1    1    2    0  504 -0.23222995337E+02 -0.14788579281E+03  0.35227697799E+03  0.38276439809E+03  0.00000000000E+00 0.  1.
<scales pt_clust_3="32.02695" pt_clust_4="32.02695" pt_clust_5="30.85935" pt_clust_6="140.13084"></scales>
<clustering>
<clus scale="   30.859">  1  5  2 -1</clus>
<clus scale="   32.027">  3  4 -1 -1</clus>
<clus scale="  140.131">  1  6  2 -1</clus>
<clus scale="  149.590">  2  3  1 -1</clus>
</clustering>
</event>
<event>
 6    0  0.1993420E+002  0.2740532E+03  0.7546771E-02  0.1098982E+00
         21   -1    0    0  504  502  0.00000000000E+00  0.00000000000E+00  0.34891961042E+03  0.34891961042E+03  0.00000000000E+00 0.  1.
          2   -1    0    0  503    0 -0.00000000000E+00 -0.00000000000E+00 -0.14699884144E+04  0.14699884144E+04  0.00000000000E+00 0. -1.
         21    1    1    2  503  505 -0.10584828331E+03 -0.10379431311E+03 -0.14728818007E+03  0.20897589933E+03  0.00000000000E+00 0.  1.
         21    1    1    2  504  501  0.11382039875E+03 -0.27884181253E+03  0.12994140965E+03  0.32801312401E+03  0.00000000000E+00 0.  1.
         21    1    1    2  505  502 -0.11967746532E+03  0.20448569671E+02 -0.70719911048E+01  0.12161764989E+03  0.00000000000E+00 0.  1.
          2    1    1    2  501    0  0.11170534988E+03  0.36218755596E+03 -0.10966500424E+04  0.11603013516E+04  0.00000000000E+00 0. -1.
<scales pt_clust_3="156.11682" pt_clust_4="274.05320" pt_clust_5="121.41186" pt_clust_6="14000.00000"></scales>
<clustering>
<clus scale="  121.412">  1  5  2 -1</clus>
<clus scale="  156.117">  2  3  1 -1</clus>
<clus scale="  274.053">  1  4  2 -1</clus>
<clus scale="  121.412">  1  3  2 -1</clus>
</clustering>
</event>
<event>
 6    0  0.1993420E+002  0.1171238E+03  0.7546771E-02  0.1247919E+00
          2   -1    0    0  503    0 -0.00000000000E+00  0.00000000000E+00  0.31377037567E+04  0.31377037567E+04  0.00000000000E+00 0. -1.
         21   -1    0    0  504  502  0.00000000000E+00 -0.00000000000E+00 -0.69149672308E+02  0.69149672308E+02  0.00000000000E+00 0.  1.
         21    1    1    2  503  502 -0.17790675614E+02 -0.96346352633E+02  0.23277726278E+03  0.25255570053E+03  0.00000000000E+00 0.  1.
         21    1    1    2  504  505 -0.64874236526E+02  0.79057388125E+02  0.73762667053E+01  0.10253363591E+03  0.00000000000E+00 0.  1.
         21    1    1    2  505  501 -0.20859211193E+02  0.40337435284E+02  0.37623286333E+02  0.58972256625E+02  0.00000000000E+00 0.  1.
          2    1    1    2  501    0  0.10352412333E+03 -0.23048470776E+02  0.27907772686E+04  0.27927918359E+04  0.00000000000E+00 0. -1.
<scales pt_clust_3="97.97514" pt_clust_4="33.00938" pt_clust_5="33.00938" pt_clust_6="106.13260"></scales>
<clustering>
<clus scale="   33.009">  4  5 -1 -1</clus>
<clus scale="   97.975">  2  3  1 -1</clus>
<clus scale="  106.133">  1  6  2 -1</clus>
<clus scale="   97.975">  2  3  1 -1</clus>
</clustering>
</event>
<event>
 6    0  0.1993420E+002  0.1094435E+03  0.7546771E-02  0.1261604E+00
         21   -1    0    0  504  502  0.00000000000E+00  0.00000000000E+00  0.32931005830E+02  0.32931005830E+02  0.00000000000E+00 0. -1.
          1   -1    0    0  503    0 -0.00000000000E+00 -0.00000000000E+00 -0.20527861281E+04  0.20527861281E+04  0.00000000000E+00 0. -1.
         21    1    1    2  503  505 -0.14530439759E+02  0.41060414729E+02 -0.19144691831E+03  0.19633902788E+03  0.00000000000E+00 0. -1.
         21    1    1    2  504  501 -0.10000478197E+03 -0.22925228052E+02 -0.10642565948E+03  0.14782741117E+03  0.00000000000E+00 0. -1.
         21    1    1    2  505  502 -0.72117478822E+02  0.29608836300E+01 -0.44045453232E+03  0.44632935443E+03  0.00000000000E+00 0. -1.
          1    1    1    2  501    0  0.18665270055E+03 -0.21096070307E+02 -0.12815280122E+04  0.12952213405E+04  0.00000000000E+00 0. -1.
<scales pt_clust_3="43.55561" pt_clust_4="109.44353" pt_clust_5="76.65199" pt_clust_6="14000.00000"></scales>
<clustering>
<clus scale="   43.556">  2  3  1 -1</clus>
<clus scale="   76.652">  2  5  1 -1</clus>
<clus scale="  109.444">  1  4  2 -1</clus>
<clus scale="  109.444">  1  3  2 -1</clus>
</clustering>
</event>
<event>
 6    0  0.1993420E+002  0.7049838E+02  0.7546771E-02  0.1358406E+00
         21   -1    0    0  504  502  0.00000000000E+00  0.00000000000E+00  0.12922642213E+03  0.12922642213E+03  0.00000000000E+00 0. -1.
          1   -1    0    0  503    0 -0.00000000000E+00 -0.00000000000E+00 -0.30034080783E+03  0.30034080783E+03  0.00000000000E+00 0. -1.
         21    1    1    2  503  505 -0.68190277804E+02  0.38840530418E+02 -0.25359463127E+02  0.82471832526E+02  0.00000000000E+00 0. -1.
         21    1    1    2  504  501  0.82121762073E+02  0.33065799353E+02  0.18158009160E+02  0.90371700158E+02  0.00000000000E+00 0. -1.
         21    1    1    2  505  502  0.44427066381E+02 -0.35904525690E+02  0.19938327412E+02  0.60501537933E+02  0.00000000000E+00 0. -1.
          1    1    1    2  501    0 -0.58358550650E+02 -0.36001804081E+02 -0.18385125914E+03  0.19622215934E+03  0.00000000000E+00 0. -1.
<scales pt_clust_3="60.46162" pt_clust_4="14000.00000" pt_clust_5="57.12179" pt_clust_6="70.49838"></scales>
<clustering>
<clus scale="   57.122">  1  5  2 -1</clus>
<clus scale="   60.462">  1  3  2 -1</clus>
<clus scale="   70.498">  2  6  1 -1</clus>
<clus scale="   57.122">  1  3  2 -1</clus>
</clustering>
</event>
<event>
 6    0  0.1993420E+002  0.1481249E+03  0.7546771E-02  0.1202796E+00
         21   -1    0    0  505  502  0.00000000000E+00  0.00000000000E+00  0.25746484398E+02  0.25746484398E+02  0.00000000000E+00 0. -1.
          2   -1    0    0  504    0 -0.00000000000E+00 -0.00000000000E+00 -0.25786403066E+04  0.25786403066E+04  0.00000000000E+00 0. -1.
         21    1    1    2  503  502 -0.77645859252E+02  0.33057545223E+02 -0.11225731093E+03  0.14043996801E+03  0.00000000000E+00 0. -1.
         21    1    1    2  504  503 -0.40702184201E+02  0.35008717316E+02 -0.13232797542E+03  0.14280396061E+03  0.00000000000E+00 0. -1.
         21    1    1    2  505  501 -0.22470899933E+02 -0.40407646597E+02 -0.12761799006E+03  0.13573529619E+03  0.00000000000E+00 0. -1.
          2    1    1    2  501    0  0.14081894339E+03 -0.27658615943E+02 -0.21806905458E+04  0.21854075662E+04  0.00000000000E+00 0. -1.
<scales pt_clust_3="33.51734" pt_clust_4="33.51734" pt_clust_5="46.23548" pt_clust_6="142.03909"></scales>
<clustering>
<clus scale="   33.517">  3  4 -1 -1</clus>
<clus scale="   46.235">  1  5  2 -1</clus>
<clus scale="  142.039">  2  6  1 -1</clus>
<clus scale="   46.235">  1  3  2 -1</clus>
</clustering>
</event>
<event>
 6    0  0.1993420E+002  0.1519280E+03  0.7546771E-02  0.1198124E+00
         21   -1    0    0  505  502  0.00000000000E+00  0.00000000000E+00  0.32643073319E+03  0.32643073319E+03  0.00000000000E+00 0. -1.
          2   -1    0    0  504    0 -0.00000000000E+00 -0.00000000000E+00 -0.19831922699E+04  0.19831922699E+04  0.00000000000E+00 0. -1.
         21    1    1    2  503  502 -0.63067145813E+02 -0.27859453464E+02  0.77603404898E+02  0.10380704446E+03  0.00000000000E+00 0. -1.
         21    1    1    2  504  503  0.12805082254E+03 -0.10793283913E+03  0.17355327992E+03  0.24117887944E+03  0.00000000000E+00 0. -1.
         21    1    1    2  505  501  0.31180718180E+02  0.18410016586E+02  0.12444216779E+02  0.38288698440E+02  0.00000000000E+00 0. -1.
          2    1    1    2  501    0 -0.96164394905E+02  0.11738227601E+03 -0.19203624383E+04  0.19263483807E+04  0.00000000000E+00 0. -1.
<scales pt_clust_3="58.12615" pt_clust_4="14000.00000" pt_clust_5="36.21002" pt_clust_6="151.92796"></scales>
<clustering>
<clus scale="   36.210">  1  5  2 -1</clus>
<clus scale="   58.126">  1  3  2 -1</clus>
<clus scale="  151.928">  2  6  1 -1</clus>
<clus scale="   36.210">  1  3  2 -1</clus>
</clustering>
</event>
<event>
 6    0  0.1993420E+002  0.8959127E+02  0.7546771E-02  0.1303845E+00
         21   -1    0    0  505  502  0.00000000000E+00  0.00000000000E+00  0.54585877491E+02  0.54585877491E+02  0.00000000000E+00 0. -1.
          2   -1    0    0  502    0 -0.00000000000E+00 -0.00000000000E+00 -0.14442026297E+04  0.14442026297E+04  0.00000000000E+00 0. -1.
         21    1    1    2  503  501  0.79249214470E+02  0.37466364082E+02 -0.11472690105E+03  0.14438292232E+03  0.00000000000E+00 0. -1.
         21    1    1    2  504  503 -0.80125559372E+02 -0.18013260082E+02 -0.23714775537E+02  0.85480836345E+02  0.00000000000E+00 0. -1.
         21    1    1    2  505  504 -0.38886589757E+02  0.30079536978E+02 -0.67285087674E+02  0.83332037243E+02  0.00000000000E+00 0. -1.
          2    1    1    2  501    0  0.39762934660E+02 -0.49532640978E+02 -0.11838899879E+04  0.11855927113E+04  0.00000000000E+00 0. -1.
<scales pt_clust_3="14000.00000" pt_clust_4="89.59127" pt_clust_5="49.16244" pt_clust_6="62.64466"></scales>
<clustering>
<clus scale="   49.162">  1  5  2 -1</clus>
<clus scale="   62.645">  2  6  1 -1</clus>
<clus scale="   89.591">  1  4  2 -1</clus>
<clus scale="   49.162">  1  3  2 -1</clus>
</clustering>
</event>
<event>
 6    0  0.1993420E+002  0.6953700E+02  0.7546771E-02  0.1361675E+00
          2   -1    0    0  504    0 -0.00000000000E+00  0.00000000000E+00  0.14694642995E+04  0.14694642995E+04  0.00000000000E+00 0.  1.
         21   -1    0    0  505  502  0.00000000000E+00 -0.00000000000E+00 -0.37127286611E+02  0.37127286611E+02  0.00000000000E+00 0. -1.
         21    1    1    2  503  501  0.24216557629E+02  0.44608688253E+02  0.15251616847E+03  0.16074065564E+03  0.00000000000E+00 0. -1.
         21    1    1    2  504  502 -0.90101842761E+02 -0.88196392151E+02  0.20628011086E+03  0.24176110066E+03  0.00000000000E+00 0. -1.
         21    1    1    2  505  503  0.24857548220E+02  0.51229150375E+02  0.39717985108E+02  0.69425081150E+02  0.00000000000E+00 0. -1.
          2    1    1    2  501    0  0.41027736912E+02 -0.76414464770E+01  0.10338227484E+04  0.10346647486E+04  0.00000000000E+00 0.  1.
<scales pt_clust_3="57.19898" pt_clust_4="69.53700" pt_clust_5="14000.00000" pt_clust_6="41.73328"></scales>
<clustering>
<clus scale="   41.733">  1  6  2 -1</clus>
<clus scale="   57.199">  1  3  2 -1</clus>
<clus scale="   69.537">  1  4  2 -1</clus>
<clus scale="   69.537">  2  3  1 -1</clus>
</clustering>
</event>
<event>
 6    0  0.1993420E+002  0.1333496E+03  0.7546771E-02  0.1222569E+00
         21   -1    0    0  503  502  0.00000000000E+00  0.00000000000E+00  0.93965804489E+02  0.93965804489E+02  0.00000000000E+00 0. -1.
          2   -1    0    0  504    0 -0.00000000000E+00 -0.00000000000E+00 -0.11049274447E+04  0.11049274447E+04  0.00000000000E+00 0. -1.
         21    1    1    2  503  505  0.41792581935E+02  0.45022250167E+01  0.13018003107E+02  0.44004071854E+02  0.00000000000E+00 0.  1.
         21    1    1    2  504  502 -0.26208515304E+02 -0.15509242047E+03 -0.16331923508E+03  0.22674593207E+03  0.00000000000E+00 0. -1.
         21    1    1    2  505  501  0.99799610761E+02  0.64822808458E+02 -0.10430437848E+03  0.15824462763E+03  0.00000000000E+00 0. -1.
          2    1    1    2  501    0 -0.11538367739E+03  0.85767386999E+02 -0.75635602971E+03  0.76989861758E+03  0.00000000000E+00 0. -1.
<scales pt_clust_3="42.03439" pt_clust_4="133.34957" pt_clust_5="134.68335" pt_clust_6="14000.00000"></scales>
<clustering>
<clus scale="   42.034">  1  3  2 -1</clus>
<clus scale="  134.683">  1  5  2 -1</clus>
<clus scale="  133.350">  1  4  2 -1</clus>
<clus scale="   42.034">  1  3  2 -1</clus>
</clustering>
</event>
<event>
 6    0  0.1993420E+002  0.1787568E+03  0.7546771E-02  0.1169012E+00
         21   -1    0    0  501  502  0.00000000000E+00  0.00000000000E+00  0.15373176498E+03  0.15373176498E+03  0.00000000000E+00 0.  1.
          2   -1    0    0  503    0 -0.00000000000E+00 -0.00000000000E+00 -0.37499849526E+03  0.37499849526E+03  0.00000000000E+00 0. -1.
         21    1    1    2  503  505 -0.71241426367E+02  0.15135949516E+03 -0.25208133082E+02  0.16917590721E+03  0.00000000000E+00 0.  1.
         21    1    1    2  504  502 -0.57692568286E+02 -0.77289349092E+00 -0.11377690266E+02  0.58808856779E+02  0.00000000000E+00 0.  1.
         21    1    1    2  505  504 -0.21962272347E+02 -0.31316987958E+02 -0.69803199940E+01  0.38882129682E+02  0.00000000000E+00 0.  1.
          2    1    1    2  501    0  0.15089626700E+03 -0.11926961371E+03 -0.17770058694E+03  0.26186336657E+03  0.00000000000E+00 0. -1.
<scales pt_clust_3="178.75683" pt_clust_4="95.95057" pt_clust_5="34.84854" pt_clust_6="14000.00000"></scales>
<clustering>
<clus scale="   34.849">  4  5 -1 -1</clus>
<clus scale="   95.951">  1  4  2 -1</clus>
<clus scale="  178.757">  1  3  2 -1</clus>
<clus scale="   95.951">  1  3  2 -1</clus>
</clustering>
</event>
<event>
 6    0  0.1993420E+002  0.2835849E+03  0.7546771E-02  0.1093747E+00
          2   -1    0    0  505    0 -0.00000000000E+00  0.00000000000E+00  0.22101892303E+04  0.22101892303E+04  0.00000000000E+00 0.  1.
         21   -1    0    0  503  502  0.00000000000E+00 -0.00000000000E+00 -0.26180577920E+04  0.26180577920E+04  0.00000000000E+00 0. -1.
         21    1    1    2  503  501 -0.13337470866E+03 -0.15276620427E+03 -0.29937899974E+03  0.36159937993E+03  0.00000000000E+00 0.  1.
         21    1    1    2  504  502  0.28673258201E+03  0.13587000453E+03 -0.22593119263E+04  0.22814834236E+04  0.00000000000E+00 0. -1.
         21    1    1    2  505  504 -0.13861721222E+03  0.48158159896E+02  0.29948675545E+03  0.33350600681E+03  0.00000000000E+00 0.  1.
          2    1    1    2  501    0 -0.14740661118E+02 -0.31261960160E+02  0.18513356089E+04  0.18516582120E+04  0.00000000000E+00 0.  1.
<scales pt_clust_3="283.58493" pt_clust_4="14000.00000" pt_clust_5="153.01327" pt_clust_6="34.56295"></scales>
<clustering>
<clus scale="   34.563">  1  6  2 -1</clus>
<clus scale="  153.013">  1  5  2 -1</clus>
<clus scale="  283.585">  1  3  2 -1</clus>
<clus scale="  283.585">  2  3  1 -1</clus>
</clustering>
</event>
<event>
 6    0  0.1993420E+002  0.1089931E+03  0.7546771E-02  0.1262446E+00
         21   -1    0    0  503  502  0.00000000000E+00  0.00000000000E+00  0.86089776357E+02  0.86089776357E+02  0.00000000000E+00 0. -1.
          1   -1    0    0  505    0 -0.00000000000E+00 -0.00000000000E+00 -0.26326505460E+04  0.26326505460E+04  0.00000000000E+00 0.  1.
         21    1    1    2  503  501  0.50815640661E+02 -0.26043395509E+02  0.51059058379E+02  0.76599707754E+02  0.00000000000E+00 0. -1.
         21    1    1    2  504  502 -0.23693164929E+02 -0.28543276715E+02 -0.34278647354E+02  0.50508517840E+02  0.00000000000E+00 0. -1.
         21    1    1    2  505  504  0.24795771271E+02 -0.42568388393E+02 -0.33916640695E+02  0.59810003172E+02  0.00000000000E+00 0. -1.
          1    1    1    2  501    0 -0.51918247003E+02  0.97155060617E+02 -0.25294245400E+04  0.25318220936E+04  0.00000000000E+00 0.  1.
<scales pt_clust_3="108.99309" pt_clust_4="37.09562" pt_clust_5="51.70326" pt_clust_6="14000.00000"></scales>
<clustering>
<clus scale="   37.096">  1  4  2 -1</clus>
<clus scale="   51.703">  1  5  2 -1</clus>
<clus scale="  108.993">  1  3  2 -1</clus>
<clus scale="   37.096">  1  3  2 -1</clus>
</clustering>
</event>
<event>
 6    0  0.1993420E+002  0.1687292E+03  0.7546771E-02  0.1179180E+00
         21   -1    0    0  505  502  0.00000000000E+00  0.00000000000E+00  0.18765631789E+03  0.18765631789E+03  0.00000000000E+00 0. -1.
          3   -1    0    0  503    0 -0.00000000000E+00 -0.00000000000E+00 -0.17479948895E+04  0.17479948895E+04  0.00000000000E+00 0.  1.
         21    1    1    2  503  502 -0.14247157642E+03 -0.25708540740E+02 -0.13771801277E+03  0.19981323829E+03  0.00000000000E+00 0. -1.
         21    1    1    2  504  501  0.19027397513E+03 -0.21012150316E+02  0.48538008378E+02  0.19748831441E+03  0.00000000000E+00 0. -1.
         21    1    1    2  505  504 -0.15154809767E+02  0.67867909779E+02 -0.29249288966E+01  0.69600837968E+02  0.00000000000E+00 0. -1.
          3    1    1    2  501    0 -0.32647588936E+02 -0.21147218723E+02 -0.14682336383E+04  0.14687488167E+04  0.00000000000E+00 0.  1.
<scales pt_clust_3="168.72925" pt_clust_4="14000.00000" pt_clust_5="67.94970" pt_clust_6="38.89820"></scales>
<clustering>
<clus scale="   38.898">  2  6  1 -1</clus>
<clus scale="   67.950">  1  5  2 -1</clus>
<clus scale="  168.729">  2  3  1 -1</clus>
<clus scale="   67.950">  1  3  2 -1</clus>
</clustering>
</event>
<event>
 6    0  0.1993420E+002  0.3280227E+03  0.7546771E-02  0.1072015E+00
         21   -1    0    0  504  502  0.00000000000E+00  0.00000000000E+00  0.19238169447E+03  0.19238169447E+03  0.00000000000E+00 0. -1.
          2   -1    0    0  503    0 -0.00000000000E+00 -0.00000000000E+00 -0.89690416516E+03  0.89690416516E+03  0.00000000000E+00 0.  1.
         21    1    1    2  503  505  0.11188564318E+03  0.65732131239E+02 -0.53512873041E+02  0.14036644117E+03  0.00000000000E+00 0. -1.
         21    1    1    2  504  501 -0.44234573454E+02 -0.19265374004E+02 -0.45535140003E+02  0.66342302487E+02  0.00000000000E+00 0. -1.
         21    1    1    2  505  502  0.13038227906E+03  0.13069720655E+03  0.36142390948E+02  0.18811584441E+03  0.00000000000E+00 0. -1.
          2    1    1    2  501    0 -0.19803334879E+03 -0.17716396379E+03 -0.64161684859E+03  0.69446127156E+03  0.00000000000E+00 0.  1.
<scales pt_clust_3="85.17345" pt_clust_4="41.23899" pt_clust_5="85.17345" pt_clust_6="326.56427"></scales>
<clustering>
<clus scale="   41.239">  4  6 -1 -1</clus>
<clus scale="   85.173">  3  5 -1 -1</clus>
<clus scale="  326.564">  2  4  1 -1</clus>
<clus scale="  328.023">  1  3  2 -1</clus>
</clustering>
</event>
<event>
 6    0  0.1993420E+002  0.1863199E+03  0.7546771E-02  0.1161823E+00
         21   -1    0    0  504  502  0.00000000000E+00  0.00000000000E+00  0.66795437063E+02  0.66795437063E+02  0.00000000000E+00 0.  1.
          2   -1    0    0  505    0 -0.00000000000E+00 -0.00000000000E+00 -0.19754099297E+04  0.19754099297E+04  0.00000000000E+00 0. -1.
         21    1    1    2  503  502  0.10788195548E+03 -0.18838118023E+03 -0.92721829749E+03  0.95229184423E+03  0.00000000000E+00 0. -1.
         21    1    1    2  504  501 -0.11667906253E+03  0.13903896430E+03 -0.11106009803E+03  0.21279140631E+03  0.00000000000E+00 0.  1.
         21    1    1    2  505  503 -0.36777877791E+02  0.83326241118E+01 -0.17125275457E+03  0.17535549854E+03  0.00000000000E+00 0. -1.
          2    1    1    2  501    0  0.45574984844E+02  0.41009591824E+02 -0.69908334258E+03  0.70176661771E+03  0.00000000000E+00 0. -1.
<scales pt_clust_3="14000.00000" pt_clust_4="186.31986" pt_clust_5="37.71001" pt_clust_6="54.18835"></scales>
<clustering>
<clus scale="   37.710">  2  5  1 -1</clus>
<clus scale="   54.188">  2  6  1 -1</clus>
<clus scale="  186.320">  1  4  2 -1</clus>
<clus scale="  186.320">  1  3  2 -1</clus>
</clustering>
</event>
<event>
 6    0  0.1993420E+002  0.1855704E+03  0.7546771E-02  0.1162518E+00
          2   -1    0    0  504    0 -0.00000000000E+00  0.00000000000E+00  0.26023221009E+04  0.26023221009E+04  0.00000000000E+00 0. -1.
         21   -1    0    0  505  502  0.00000000000E+00 -0.00000000000E+00 -0.19660065363E+02  0.19660065363E+02  0.00000000000E+00 0. -1.
         21    1    1    2  503  502  0.73322288661E+02 -0.21572523989E+02  0.45971960173E+03  0.46602966003E+03  0.00000000000E+00 0. -1.
         21    1    1    2  504  503  0.76916992793E+02 -0.56837356591E+02  0.72252593736E+03  0.72882812723E+03  0.00000000000E+00 0. -1.
         21    1    1    2  505  501  0.53663528008E+02  0.40778255507E+02  0.33094161986E+03  0.33773509755E+03  0.00000000000E+00 0. -1.
          2    1    1    2  501    0 -0.20390280946E+03  0.37631625072E+02  0.10694748765E+04  0.10893892814E+04  0.00000000000E+00 0. -1.
<scales pt_clust_3="31.74063" pt_clust_4="31.74063" pt_clust_5="67.39911" pt_clust_6="182.14204"></scales>
<clustering>
<clus scale="   31.741">  3  4 -1 -1</clus>
<clus scale="   67.399">  2  5  1 -1</clus>
<clus scale="  182.142">  2  6  1 -1</clus>
<clus scale="   67.399">  2  3  1 -1</clus>
</clustering>
</event>
<event>
 6    0  0.1993420E+002  0.9185730E+02  0.7546771E-02  0.1298415E+00
          2   -1    0    0  505    0 -0.00000000000E+00  0.00000000000E+00  0.80678308069E+02  0.80678308069E+02  0.00000000000E+00 0.  1.
         21   -1    0    0  503  502  0.00000000000E+00 -0.00000000000E+00 -0.11248770120E+04  0.11248770120E+04  0.00000000000E+00 0.  1.
         21    1    1    2  503  501  0.65785348043E+02  0.64037957844E+02 -0.14209655471E+03  0.16917447480E+03  0.00000000000E+00 0.  1.
         21    1    1    2  504  502  0.42068700522E+02 -0.26635555990E+02 -0.34617620722E+03  0.34973875229E+03  0.00000000000E+00 0.  1.
         21    1    1    2  505  504 -0.12226812919E+03 -0.50630399566E+01 -0.60991968971E+03  0.62207488109E+03  0.00000000000E+00 0.  1.
          2    1    1    2  501    0  0.14414080626E+02 -0.32339361897E+02  0.53993747760E+02  0.64567211844E+02  0.00000000000E+00 0.  1.
<scales pt_clust_3="91.85730" pt_clust_4="52.27126" pt_clust_5="14000.00000" pt_clust_6="35.40621"></scales>
<clustering>
<clus scale="   35.406">  1  6  2 -1</clus>
<clus scale="   52.271">  2  4  1 -1</clus>
<clus scale="   91.857">  1  3  2 -1</clus>
<clus scale="   52.271">  2  3  1 -1</clus>
</clustering>
</event>
<event>
 6    0  0.1993420E+002  0.1192814E+03  0.7546771E-02  0.1244287E+00
          2   -1    0    0  504    0 -0.00000000000E+00  0.00000000000E+00  0.10482419333E+04  0.10482419333E+04  0.00000000000E+00 0. -1.
         21   -1    0    0  503  502  0.00000000000E+00 -0.00000000000E+00 -0.19049605021E+02  0.19049605021E+02  0.00000000000E+00 0. -1.
         21    1    1    2  503  505 -0.20560186635E+02 -0.24479622346E+02  0.45723705695E+02  0.55790953094E+02  0.00000000000E+00 0.  1.
         21    1    1    2  504  502  0.12088398203E+03  0.31115772044E+02  0.46958788716E+03  0.48589495999E+03  0.00000000000E+00 0. -1.
         21    1    1    2  505  501 -0.29264383671E+02  0.17194571212E+02  0.12261638147E+03  0.12722749088E+03  0.00000000000E+00 0. -1.
          2    1    1    2  501    0 -0.71059411726E+02 -0.23830720910E+02  0.39126435392E+03  0.39837813432E+03  0.00000000000E+00 0. -1.
<scales pt_clust_3="31.96832" pt_clust_4="110.22294" pt_clust_5="30.68378" pt_clust_6="30.68378"></scales>
<clustering>
<clus scale="   30.684">  5  6 -1 -1</clus>
<clus scale="   31.968">  2  3  1 -1</clus>
<clus scale="  110.223">  2  4  1 -1</clus>
<clus scale="   31.968">  2  3  1 -1</clus>
</clustering>
</event>
<event>
 6    0  0.1993420E+002  0.1251118E+03  0.7546771E-02  0.1234895E+00
         21   -1    0    0  505  502  0.00000000000E+00  0.00000000000E+00  0.17143982847E+03  0.17143982847E+03  0.00000000000E+00 0.  1.
          2   -1    0    0  502    0 -0.00000000000E+00 -0.00000000000E+00 -0.11440816141E+04  0.11440816141E+04  0.00000000000E+00 0.  1.
         21    1    1    2  503  501  0.73628507244E+02  0.36341037288E+02 -0.20388757923E+02  0.84602183895E+02  0.00000000000E+00 0. -1.
         21    1    1    2  504  503 -0.27219779648E+02 -0.27515707971E+02  0.42856842497E+01  0.38940951179E+02  0.00000000000E+00 0. -1.
         21    1    1    2  505  504 -0.92663730779E+02 -0.25844023052E+02  0.97393658559E+02  0.13689413887E+03  0.00000000000E+00 0.  1.
          2    1    1    2  501    0  0.46255003183E+02  0.17018693735E+02 -0.10539323706E+04  0.10550841687E+04  0.00000000000E+00 0.  1.
<scales pt_clust_3="110.87371" pt_clust_4="36.76716" pt_clust_5="36.76716" pt_clust_6="49.28652"></scales>
<clustering>
<clus scale="   36.767">  4  5 -1 -1</clus>
<clus scale="   49.287">  2  6  1 -1</clus>
<clus scale="  110.874">  2  3  1 -1</clus>
<clus scale="  125.112">  1  3  2 -1</clus>
</clustering>
</event>
<event>
 6    0  0.1993420E+002  0.5309435E+02  0.7546771E-02  0.1429332E+00
         21   -1    0    0  503  502  0.00000000000E+00  0.00000000000E+00  0.11468881397E+04  0.11468881397E+04  0.00000000000E+00 0. -1.
         -4   -1    0    0    0  501 -0.00000000000E+00 -0.00000000000E+00 -0.27449399325E+03  0.27449399325E+03  0.00000000000E+00 0. -1.
         21    1    1    2  503  501 -0.21337538391E+02  0.10146495596E+03  0.87629755799E+03  0.88241024358E+03  0.00000000000E+00 0. -1.
         21    1    1    2  504  502  0.33617038142E+02 -0.30565431079E+02  0.17693336555E+03  0.18267393540E+03  0.00000000000E+00 0. -1.
         21    1    1    2  505  504 -0.43277709897E+02 -0.27950865268E+02  0.77238178617E+02  0.92843671185E+02  0.00000000000E+00 0. -1.
         -4    1    1    2    0  505  0.30998210146E+02 -0.42948659618E+02 -0.25807495567E+03  0.26345428282E+03  0.00000000000E+00 0. -1.
<scales pt_clust_3="14000.00000" pt_clust_4="45.43513" pt_clust_5="50.64145" pt_clust_6="53.09435"></scales>
<clustering>
<clus scale="   45.435">  1  4  2 -1</clus>
<clus scale="   50.641">  1  5  2 -1</clus>
<clus scale="   53.094">  2  6  1 -1</clus>
<clus scale="   45.435">  1  3  2 -1</clus>
</clustering>
</event>
<event>
 6    0  0.1993420E+002  0.1009801E+03  0.7546771E-02  0.1278248E+00
         21   -1    0    0  504  502  0.00000000000E+00  0.00000000000E+00  0.15486124111E+02  0.15486124111E+02  0.00000000000E+00 0.  1.
         -4   -1    0    0    0  501 -0.00000000000E+00 -0.00000000000E+00 -0.33849185681E+04  0.33849185681E+04  0.00000000000E+00 0.  1.
         21    1    1    2  503  502 -0.14323453818E+02 -0.35673534359E+02 -0.15458005921E+03  0.15928828296E+03  0.00000000000E+00 0.  1.
         21    1    1    2  504  505  0.15046225671E+02  0.27269459239E+02 -0.10527963363E+03  0.10978986097E+03  0.00000000000E+00 0.  1.
         21    1    1    2  505  501  0.10028055141E+03  0.50228999268E+01 -0.24238549211E+03  0.26235881022E+03  0.00000000000E+00 0.  1.
         -4    1    1    2    0  503 -0.10100332326E+03  0.33811751940E+01 -0.28671872591E+04  0.28689677381E+04  0.00000000000E+00 0.  1.
<scales pt_clust_3="32.94863" pt_clust_4="31.14502" pt_clust_5="14000.00000" pt_clust_6="100.98009"></scales>
<clustering>
<clus scale="   31.145">  1  4  2 -1</clus>
<clus scale="   32.949">  1  3  2 -1</clus>
<clus scale="  100.980">  2  6  1 -1</clus>
<clus scale="   31.145">  1  3  2 -1</clus>
</clustering>
</event>
<event>
 6    0  0.1993420E+002  0.1210915E+03  0.7546771E-02  0.1241307E+00
          2   -1    0    0  502    0 -0.00000000000E+00  0.00000000000E+00  0.16271601376E+04  0.16271601376E+04  0.00000000000E+00 0.  1.
         21   -1    0    0  504  502  0.00000000000E+00 -0.00000000000E+00 -0.22181671200E+02  0.22181671200E+02  0.00000000000E+00 0.  1.
         21    1    1    2  503  501  0.41243989141E+02  0.10354492408E+03  0.56023664192E+03  0.57121599496E+03  0.00000000000E+00 0.  1.
         21    1    1    2  504  505  0.27863911380E+02 -0.54895005625E+02  0.84321880388E+02  0.10440325049E+03  0.00000000000E+00 0.  1.
         21    1    1    2  505  503 -0.13901220997E+02 -0.56835529758E+02  0.14450814912E+03  0.15590422236E+03  0.00000000000E+00 0.  1.
          2    1    1    2  501    0 -0.55206679524E+02  0.81856113044E+01  0.81591179500E+03  0.81781834103E+03  0.00000000000E+00 0.  1.
<scales pt_clust_3="109.29326" pt_clust_4="50.82735" pt_clust_5="50.82735" pt_clust_6="55.81023"></scales>
<clustering>
<clus scale="   50.827">  4  5 -1 -1</clus>
<clus scale="   55.810">  1  6  2 -1</clus>
<clus scale="  109.293">  1  3  2 -1</clus>
<clus scale="  121.091">  2  3  1 -1</clus>
</clustering>
</event>
<event>
 6    0  0.1993420E+002  0.1958832E+03  0.7546771E-02  0.1153260E+00
          1   -1    0    0  504    0 -0.00000000000E+00  0.00000000000E+00  0.72404678896E+03  0.72404678896E+03  0.00000000000E+00 0. -1.
         21   -1    0    0  503  502  0.00000000000E+00 -0.00000000000E+00 -0.21335368143E+03  0.21335368143E+03  0.00000000000E+00 0.  1.
         21    1    1    2  503  505 -0.92415736272E+02  0.47421823142E+02 -0.35736821926E+02  0.10984815912E+03  0.00000000000E+00 0.  1.
         21    1    1    2  504  502 -0.59936642022E+02 -0.84772026309E+02 -0.87306285530E+02  0.13565059895E+03  0.00000000000E+00 0.  1.
         21    1    1    2  505  501 -0.38587150499E+02 -0.93685946055E+01  0.14596411910E+02  0.42305956900E+02  0.00000000000E+00 0.  1.
          1    1    1    2  501    0  0.19093952879E+03  0.46718797772E+02  0.61913980307E+03  0.64959575542E+03  0.00000000000E+00 0. -1.
<scales pt_clust_3="39.56140" pt_clust_4="103.82051" pt_clust_5="39.56140" pt_clust_6="185.13802"></scales>
<clustering>
<clus scale="   39.561">  3  5 -1 -1</clus>
<clus scale="  103.821">  2  4  1 -1</clus>
<clus scale="  185.138">  1  6  2 -1</clus>
<clus scale="  103.821">  2  3  1 -1</clus>
</clustering>
</event>
<event>
 6    0  0.1993420E+002  0.7451394E+02  0.7546771E-02  0.1345383E+00
         21   -1    0    0  504  502  0.00000000000E+00  0.00000000000E+00  0.11706895878E+03  0.11706895878E+03  0.00000000000E+00 0.  1.
          2   -1    0    0  503    0 -0.00000000000E+00 -0.00000000000E+00 -0.20362499212E+04  0.20362499212E+04  0.00000000000E+00 0. -1.
         21    1    1    2  503  505  0.43370216570E+02  0.14197843076E+01 -0.27028996153E+02  0.51122970432E+02  0.00000000000E+00 0.  1.
         21    1    1    2  504  501 -0.62834926865E+02  0.87734757113E+02 -0.21873612835E+02  0.11010935736E+03  0.00000000000E+00 0.  1.
         21    1    1    2  505  502 -0.41061370859E+01 -0.69392842008E+02  0.40904569320E+02  0.80656126085E+02  0.00000000000E+00 0.  1.
          2    1    1    2  501    0  0.23570847381E+02 -0.19761699413E+02 -0.19111829227E+04  0.19114304261E+04  0.00000000000E+00 0. -1.
<scales pt_clust_3="50.96483" pt_clust_4="14000.00000" pt_clust_5="74.51394" pt_clust_6="30.75889"></scales>
<clustering>
<clus scale="   30.759">  2  6  1 -1</clus>
<clus scale="   50.965">  2  3  1 -1</clus>
<clus scale="   74.514">  1  5  2 -1</clus>
<clus scale="   74.514">  1  3  2 -1</clus>
</clustering>
</event>
<event>
 6    0  0.1993420E+002  0.2519033E+03  0.7546771E-02  0.1112108E+00
         21   -1    0    0  503  502  0.00000000000E+00  0.00000000000E+00  0.17120797321E+03  0.17120797321E+03  0.00000000000E+00 0.  1.
         -2   -1    0    0    0  501 -0.00000000000E+00 -0.00000000000E+00 -0.10114529942E+04  0.10114529942E+04  0.00000000000E+00 0.  1.
         21    1    1    2  503  501 -0.11018610719E+03 -0.75326094150E+01 -0.19465669428E+03  0.22380560103E+03  0.00000000000E+00 0.  1.
         21    1    1    2  504  502 -0.11875540382E+03  0.44417611720E+02 -0.12712967377E+02  0.12742601660E+03  0.00000000000E+00 0.  1.
         21    1    1    2  505  504 -0.57169079834E+02  0.96369247209E+02  0.12762335015E+02  0.11277505350E+03  0.00000000000E+00 0.  1.
         -2    1    1    2    0  505  0.28611059084E+03 -0.13325424951E+03 -0.64563769434E+03  0.71865429627E+03  0.00000000000E+00 0.  1.
<scales pt_clust_3="110.44328" pt_clust_4="78.23683" pt_clust_5="78.23683" pt_clust_6="237.75841"></scales>
<clustering>
<clus scale="   78.237">  4  5 -1 -1</clus>
<clus scale="  110.443">  2  3  1 -1</clus>
<clus scale="  237.758">  2  6  1 -1</clus>
<clus scale="  251.903">  1  3  2 -1</clus>
</clustering>
</event>
<event>
 6    0  0.1993420E+002  0.8534789E+02  0.7546771E-02  0.1314525E+00
          1   -1    0    0  503    0 -0.00000000000E+00  0.00000000000E+00  0.10305793476E+03  0.10305793476E+03  0.00000000000E+00 0.  1.
         21   -1    0    0  505  502  0.00000000000E+00 -0.00000000000E+00 -0.37178057238E+03  0.37178057238E+03  0.00000000000E+00 0.  1.
         21    1    1    2  503  504 -0.45844413034E+02 -0.35042488177E+02 -0.25682874595E+01  0.57760559940E+02  0.00000000000E+00 0.  1.
         21    1    1    2  504  502 -0.45149426433E+02 -0.45455529530E+02 -0.70937039989E+02  0.95586293549E+02  0.00000000000E+00 0.  1.
         21    1    1    2  505  501  0.93388183869E+02  0.50342793815E+02 -0.24287967362E+03  0.26504015853E+03  0.00000000000E+00 0.  1.
          1    1    1    2  501    0 -0.23943444020E+01  0.30155223892E+02  0.47662363447E+02  0.56451495130E+02  0.00000000000E+00 0.  1.
<scales pt_clust_3="50.72309" pt_clust_4="14000.00000" pt_clust_5="85.34789" pt_clust_6="30.25013"></scales>
<clustering>
<clus scale="   30.250">  1  6  2 -1</clus>
<clus scale="   50.723">  1  3  2 -1</clus>
<clus scale="   85.348">  2  5  1 -1</clus>
<clus scale="   85.348">  2  3  1 -1</clus>
</clustering>
</event>
<event>
 6    0  0.1993420E+002  0.8794710E+02  0.7546771E-02  0.1307901E+00
         21   -1    0    0  505  502  0.00000000000E+00  0.00000000000E+00  0.87621207347E+03  0.87621207347E+03  0.00000000000E+00 0.  1.
          2   -1    0    0  504    0 -0.00000000000E+00 -0.00000000000E+00 -0.24798514663E+03  0.24798514663E+03  0.00000000000E+00 0.  1.
         21    1    1    2  503  502  0.43512245768E+02  0.14665307288E+02  0.20882854915E+03  0.21381709405E+03  0.00000000000E+00 0.  1.
         21    1    1    2  504  503 -0.79841053445E+02  0.83874239356E+02  0.40487881284E+03  0.42111320916E+03  0.00000000000E+00 0.  1.
         21    1    1    2  505  501  0.25844328539E+02 -0.64497684723E+02  0.24571161698E+03  0.25534697839E+03  0.00000000000E+00 0.  1.
          2    1    1    2  501    0  0.10484479137E+02 -0.34041861921E+02 -0.23119205212E+03  0.23391993851E+03  0.00000000000E+00 0.  1.
<scales pt_clust_3="46.12626" pt_clust_4="87.94710" pt_clust_5="14000.00000" pt_clust_6="35.61984"></scales>
<clustering>
<clus scale="   35.620">  2  6  1 -1</clus>
<clus scale="   46.126">  1  3  2 -1</clus>
<clus scale="   87.947">  2  4  1 -1</clus>
<clus scale="   46.126">  1  3  2 -1</clus>
</clustering>
</event>
<event>
 6    0  0.1993420E+002  0.3712256E+03  0.7546771E-02  0.1054225E+00
         21   -1    0    0  504  502  0.00000000000E+00  0.00000000000E+00  0.68250557464E+03  0.68250557464E+03  0.00000000000E+00 0. -1.
          2   -1    0    0  503    0 -0.00000000000E+00 -0.00000000000E+00 -0.29088632326E+04  0.29088632326E+04  0.00000000000E+00 0.  1.
         21    1    1    2  503  505 -0.73141541855E+02  0.40819371840E+02  0.64484844367E+01  0.84008863900E+02  0.00000000000E+00 0.  1.
         21    1    1    2  504  501  0.30288387114E+03  0.31486698968E+03  0.49826999060E+03  0.66268608263E+03  0.00000000000E+00 0. -1.
         21    1    1    2  505  502 -0.92372484451E+02 -0.11608888723E+02 -0.46759230708E+01  0.93216449394E+02  0.00000000000E+00 0.  1.
          2    1    1    2  501    0 -0.13736984483E+03 -0.34407747279E+03 -0.27264002099E+04  0.27514574113E+04  0.00000000000E+00 0.  1.
<scales pt_clust_3="53.29931" pt_clust_4="14000.00000" pt_clust_5="177.21645" pt_clust_6="371.22558"></scales>
<clustering>
<clus scale="   53.299">  3  5 -1 -1</clus>
<clus scale="  177.216">  1  3  2 -1</clus>
<clus scale="  371.226">  2  6  1 -1</clus>
<clus scale="  177.216">  1  3  2 -1</clus>
</clustering>
</event>
<event>
 6    0  0.1993420E+002  0.2220007E+03  0.7546771E-02  0.1132400E+00
         21   -1    0    0  501  502  0.00000000000E+00  0.00000000000E+00  0.62746238208E+02  0.62746238208E+02  0.00000000000E+00 0.  1.
          1   -1    0    0  503    0 -0.00000000000E+00 -0.00000000000E+00 -0.11181208487E+04  0.11181208487E+04  0.00000000000E+00 0.  1.
         21    1    1    2  503  504 -0.17985141961E+02 -0.29453124767E+02 -0.18197561765E+03  0.18521899824E+03  0.00000000000E+00 0. -1.
         21    1    1    2  504  505 -0.44674856222E+02 -0.51935124007E+02 -0.12528520935E+03  0.14279174894E+03  0.00000000000E+00 0.  1.
         21    1    1    2  505  502 -0.13179805311E+03 -0.34016771701E+02 -0.10732306974E+03  0.17333813446E+03  0.00000000000E+00 0.  1.
          1    1    1    2  501    0  0.19445805129E+03  0.11540502047E+03 -0.64079071375E+03  0.67951820527E+03  0.00000000000E+00 0.  1.
<scales pt_clust_3="34.51017" pt_clust_4="61.89334" pt_clust_5="61.89334" pt_clust_6="204.89808"></scales>
<clustering>
<clus scale="   34.510">  2  3  1 -1</clus>
<clus scale="   61.893">  4  5 -1 -1</clus>
<clus scale="  204.898">  2  6  1 -1</clus>
<clus scale="  222.001">  1  3  2 -1</clus>
</clustering>
</event>
<event>
 6    0  0.1993420E+002  0.1578823E+03  0.7546771E-02  0.1191109E+00
         21   -1    0    0  504  502  0.00000000000E+00  0.00000000000E+00  0.14304458809E+03  0.14304458809E+03  0.00000000000E+00 0.  1.
         -2   -1    0    0    0  501 -0.00000000000E+00 -0.00000000000E+00 -0.71448781040E+03  0.71448781040E+03  0.00000000000E+00 0.  1.
         21    1    1    2  503  502  0.29050497871E+02 -0.14850807815E+03  0.37539596472E+02  0.15590959562E+03  0.00000000000E+00 0.  1.
         21    1    1    2  504  505  0.10324141202E+02  0.93529686071E+02 -0.70065401933E+02  0.11731815979E+03  0.00000000000E+00 0.  1.
         21    1    1    2  505  501  0.47766714109E+02  0.64747349791E+02 -0.68158911315E+02  0.10544911319E+03  0.00000000000E+00 0.  1.
         -2    1    1    2    0  503 -0.87141353183E+02 -0.97689577084E+01 -0.47075850554E+03  0.47885552989E+03  0.00000000000E+00 0.  1.
<scales pt_clust_3="151.10821" pt_clust_4="42.30576" pt_clust_5="42.30576" pt_clust_6="87.68722"></scales>
<clustering>
<clus scale="   42.306">  4  5 -1 -1</clus>
<clus scale="   87.687">  2  6  1 -1</clus>
<clus scale="  151.108">  1  3  2 -1</clus>
<clus scale="  151.108">  1  3  2 -1</clus>
</clustering>
</event>
<event>
 6    0  0.1993420E+002  0.9469164E+02  0.7546771E-02  0.1291872E+00
         21   -1    0    0  501  502  0.00000000000E+00  0.00000000000E+00  0.77388876726E+02  0.77388876726E+02  0.00000000000E+00 0.  1.
          1   -1    0    0  505    0 -0.00000000000E+00 -0.00000000000E+00 -0.11039525818E+04  0.11039525818E+04  0.00000000000E+00 0.  1.
         21    1    1    2  503  504  0.63669612548E+02 -0.29759665078E+02 -0.41140040780E+02  0.81436847820E+02  0.00000000000E+00 0.  1.
         21    1    1    2  504  502 -0.58009320738E+02  0.50453343314E+02  0.41849965097E+00  0.76881703194E+02  0.00000000000E+00 0.  1.
         21    1    1    2  505  503  0.41983939423E+02  0.15227762153E+02 -0.10526871221E+02  0.45884103210E+02  0.00000000000E+00 0.  1.
          1    1    1    2  501    0 -0.47644231233E+02 -0.35921440390E+02 -0.97531529271E+03  0.97713880428E+03  0.00000000000E+00 0.  1.
<scales pt_clust_3="37.11084" pt_clust_4="82.45727" pt_clust_5="37.11084" pt_clust_6="59.66844"></scales>
<clustering>
<clus scale="   37.111">  3  5 -1 -1</clus>
<clus scale="   59.668">  2  6  1 -1</clus>
<clus scale="   82.457">  1  4  2 -1</clus>
<clus scale="   82.457">  1  3  2 -1</clus>
</clustering>
</event>
<event>
 6    0  0.1993420E+002  0.2588530E+03  0.7546771E-02  0.1107834E+00
          2   -1    0    0  502    0 -0.00000000000E+00  0.00000000000E+00  0.59345614733E+03  0.59345614733E+03  0.00000000000E+00 0. -1.
         21   -1    0    0  504  502  0.00000000000E+00 -0.00000000000E+00 -0.95975384243E+03  0.95975384243E+03  0.00000000000E+00 0. -1.
         21    1    1    2  503  501 -0.73797444981E+02  0.86230547684E+02  0.15410495030E+03  0.19138993168E+03  0.00000000000E+00 0. -1.
         21    1    1    2  504  505  0.92598911182E+02 -0.23602773199E+03 -0.89623410828E+03  0.93140712122E+03  0.00000000000E+00 0. -1.
         21    1    1    2  505  503 -0.14849914743E+02  0.64981856548E+02  0.27881756052E+02  0.72253401089E+02  0.00000000000E+00 0. -1.
          2    1    1    2  501    0 -0.39515514587E+01  0.84815327755E+02  0.34794970682E+03  0.35815953576E+03  0.00000000000E+00 0. -1.
<scales pt_clust_3="57.68102" pt_clust_4="247.66865" pt_clust_5="57.68102" pt_clust_6="84.90733"></scales>
<clustering>
<clus scale="   57.681">  3  5 -1 -1</clus>
<clus scale="   84.907">  1  6  2 -1</clus>
<clus scale="  247.669">  2  4  1 -1</clus>
<clus scale="  247.669">  2  3  1 -1</clus>
</clustering>
</event>
<event>
 6    0  0.1993420E+002  0.1119089E+03  0.7546771E-02  0.1257075E+00
         21   -1    0    0  503  502  0.00000000000E+00  0.00000000000E+00  0.32067510512E+02  0.32067510512E+02  0.00000000000E+00 0. -1.
          1   -1    0    0  502    0 -0.00000000000E+00 -0.00000000000E+00 -0.82201845022E+03  0.82201845022E+03  0.00000000000E+00 0. -1.
         21    1    1    2  503  505 -0.16032195955E+02 -0.40509004936E+02 -0.14656440760E+02  0.45965444018E+02  0.00000000000E+00 0. -1.
         21    1    1    2  504  501 -0.24327330557E+02 -0.30838845741E+02 -0.89238203880E+02  0.97500310001E+02  0.00000000000E+00 0. -1.
         21    1    1    2  505  504  0.70841304685E+01 -0.46433275082E+02 -0.83916563647E+02  0.96167684768E+02  0.00000000000E+00 0. -1.
          1    1    1    2  501    0  0.33275396043E+02  0.11778112576E+03 -0.60213973142E+03  0.61445252195E+03  0.00000000000E+00 0. -1.
<scales pt_clust_3="43.56617" pt_clust_4="32.41410" pt_clust_5="32.41410" pt_clust_6="106.14706"></scales>
<clustering>
<clus scale="   32.414">  4  5 -1 -1</clus>
<clus scale="   43.566">  1  3  2 -1</clus>
<clus scale="  106.147">  2  6  1 -1</clus>
<clus scale="   43.566">  1  3  2 -1</clus>
</clustering>
</event>
<event>
 6    0  0.1993420E+002  0.2121696E+03  0.7546771E-02  0.1139859E+00
          2   -1    0    0  504    0 -0.00000000000E+00  0.00000000000E+00  0.53906982473E+03  0.53906982473E+03  0.00000000000E+00 0.  1.
         21   -1    0    0  501  502  0.00000000000E+00 -0.00000000000E+00 -0.44313994044E+03  0.44313994044E+03  0.00000000000E+00 0.  1.
         21    1    1    2  503  505  0.40733573598E+02 -0.54101253423E+01 -0.28626846838E+02  0.50079834606E+02  0.00000000000E+00 0.  1.
         21    1    1    2  504  503  0.24900094183E+02 -0.57303628354E+02  0.26261457178E+02  0.67774513248E+02  0.00000000000E+00 0.  1.
         21    1    1    2  505  502  0.15735537307E+03  0.51884410297E+01 -0.33696303106E+03  0.37192972139E+03  0.00000000000E+00 0.  1.
          2    1    1    2  501    0 -0.22298904085E+03  0.57525312666E+02  0.43525830501E+03  0.49242569593E+03  0.00000000000E+00 0.  1.
<scales pt_clust_3="36.82860" pt_clust_4="62.47976" pt_clust_5="36.82860" pt_clust_6="199.54731"></scales>
<clustering>
<clus scale="   36.829">  3  5 -1 -1</clus>
<clus scale="   62.480">  1  4  2 -1</clus>
<clus scale="  199.547">  1  6  2 -1</clus>
<clus scale="  212.170">  2  3  1 -1</clus>
</clustering>
</event>
<event>
 6    0  0.1993420E+002  0.8928831E+02  0.7546771E-02  0.1304584E+00
         21   -1    0    0  503  502  0.00000000000E+00  0.00000000000E+00  0.41669643323E+02  0.41669643323E+02  0.00000000000E+00 0. -1.
          2   -1    0    0  505    0 -0.00000000000E+00 -0.00000000000E+00 -0.26484776435E+04  0.26484776435E+04  0.00000000000E+00 0.  1.
         21    1    1    2  503  504 -0.83947954123E+02  0.26232140325E+02 -0.30515312405E+02  0.93094406269E+02  0.00000000000E+00 0. -1.
         21    1    1    2  504  501 -0.40549519609E+02  0.27277977190E+02 -0.10690774604E+03  0.11754836343E+03  0.00000000000E+00 0. -1.
         21    1    1    2  505  502  0.97911371684E+02 -0.23875946325E+02 -0.51795653576E+03  0.52767003937E+03  0.00000000000E+00 0.  1.
          2    1    1    2  501    0  0.26586102048E+02 -0.29634171190E+02 -0.19514284060E+04  0.19518344778E+04  0.00000000000E+00 0.  1.
<scales pt_clust_3="89.28831" pt_clust_4="42.68306" pt_clust_5="14000.00000" pt_clust_6="39.81212"></scales>
<clustering>
<clus scale="   39.812">  2  6  1 -1</clus>
<clus scale="   42.683">  2  4  1 -1</clus>
<clus scale="   89.288">  1  3  2 -1</clus>
<clus scale="   89.288">  1  3  2 -1</clus>
</clustering>
</event>
<event>
 6    0  0.1993420E+002  0.1659609E+03  0.7546771E-02  0.1182127E+00
          2   -1    0    0  505    0 -0.00000000000E+00  0.00000000000E+00  0.21407794306E+04  0.21407794306E+04  0.00000000000E+00 0. -1.
         21   -1    0    0  504  502  0.00000000000E+00 -0.00000000000E+00 -0.23486756625E+03  0.23486756625E+03  0.00000000000E+00 0.  1.
         21    1    1    2  503  501 -0.10156822830E+03 -0.87726319882E+02  0.27142785364E+03  0.30279546220E+03  0.00000000000E+00 0. -1.
         21    1    1    2  504  503  0.10989210432E+03  0.14065397966E+03 -0.16174368062E+03  0.24087514361E+03  0.00000000000E+00 0.  1.
         21    1    1    2  505  502 -0.35274975838E+02  0.16523164533E+02  0.50831537442E+01  0.39283295923E+02  0.00000000000E+00 0. -1.
          2    1    1    2  501    0  0.26951099816E+02 -0.69450824308E+02  0.17911445376E+04  0.17926930952E+04  0.00000000000E+00 0. -1.
<scales pt_clust_3="165.96094" pt_clust_4="14000.00000" pt_clust_5="38.95303" pt_clust_6="74.39676"></scales>
<clustering>
<clus scale="   38.953">  2  5  1 -1</clus>
<clus scale="   74.397">  1  6  2 -1</clus>
<clus scale="  165.961">  1  3  2 -1</clus>
<clus scale="   38.953">  2  3  1 -1</clus>
</clustering>
</event>
<event>
 6    0  0.1993420E+002  0.2417778E+03  0.7546771E-02  0.1118614E+00
         -1   -1    0    0    0  501 -0.00000000000E+00  0.00000000000E+00  0.61066535548E+03  0.61066535548E+03  0.00000000000E+00 0. -1.
         21   -1    0    0  501  502  0.00000000000E+00 -0.00000000000E+00 -0.51393643354E+03  0.51393643354E+03  0.00000000000E+00 0. -1.
         21    1    1    2  503  505 -0.91759662849E+02  0.16822460824E+03 -0.30029975081E+03  0.35622927291E+03  0.00000000000E+00 0. -1.
         21    1    1    2  504  503  0.55583727400E+02 -0.22977967756E+03  0.92307244708E+02  0.25378904309E+03  0.00000000000E+00 0. -1.
         21    1    1    2  505  502  0.36229647164E+02  0.94056268988E+02 -0.79882065441E+02  0.12860914994E+03  0.00000000000E+00 0. -1.
         -1    1    1    2    0  504 -0.53711714827E-01 -0.32501199672E+02  0.38460349349E+03  0.38597432307E+03  0.00000000000E+00 0. -1.
<scales pt_clust_3="14000.00000" pt_clust_4="241.77777" pt_clust_5="97.52011" pt_clust_6="32.50124"></scales>
<clustering>
<clus scale="   32.501">  1  6  2 -1</clus>
<clus scale="   97.520">  2  5  1 -1</clus>
<clus scale="  241.778">  1  4  2 -1</clus>
<clus scale="   97.520">  2  3  1 -1</clus>
</clustering>
</event>
<event>
 6    0  0.1993420E+002  0.8106694E+02  0.7546771E-02  0.1326051E+00
         21   -1    0    0  505  502  0.00000000000E+00  0.00000000000E+00  0.16427278548E+03  0.16427278548E+03  0.00000000000E+00 0.  1.
          1   -1    0    0  504    0 -0.00000000000E+00 -0.00000000000E+00 -0.54087987166E+03  0.54087987166E+03  0.00000000000E+00 0. -1.
         21    1    1    2  503  502 -0.15141266553E+02  0.56908717512E+02  0.90510852612E+02  0.10798182496E+03  0.00000000000E+00 0.  1.
         21    1    1    2  504  503  0.44349567830E+02 -0.56422258531E+02 -0.19828617074E+02  0.74454882173E+02  0.00000000000E+00 0.  1.
         21    1    1    2  505  501  0.43412235580E+02  0.41015105008E+02  0.75962230724E+01  0.60204349028E+02  0.00000000000E+00 0.  1.
          1    1    1    2  501    0 -0.72620536857E+02 -0.41501563989E+02 -0.45488554478E+03  0.46251160098E+03  0.00000000000E+00 0. -1.
<scales pt_clust_3="58.88854" pt_clust_4="50.00696" pt_clust_5="14000.00000" pt_clust_6="81.06694"></scales>
<clustering>
<clus scale="   58.889">  1  3  2 -1</clus>
<clus scale="   50.007">  1  4  2 -1</clus>
<clus scale="   81.067">  2  6  1 -1</clus>
<clus scale="   58.889">  1  3  2 -1</clus>
</clustering>
</event>
<event>
 6    0  0.1993420E+002  0.8893915E+02  0.7546771E-02  0.1305441E+00
         21   -1    0    0  505  502  0.00000000000E+00  0.00000000000E+00  0.18333063337E+03  0.18333063337E+03  0.00000000000E+00 0. -1.
          2   -1    0    0  504    0 -0.00000000000E+00 -0.00000000000E+00 -0.16124791737E+04  0.16124791737E+04  0.00000000000E+00 0. -1.
         21    1    1    2  503  502  0.75351703351E+02  0.55779562510E+02  0.80368885299E+02  0.12348439786E+03  0.00000000000E+00 0. -1.
         21    1    1    2  504  503 -0.37441087264E+02  0.60282200192E+02 -0.23905930841E+02  0.74881721434E+02  0.00000000000E+00 0. -1.
         21    1    1    2  505  501 -0.50547446409E+02 -0.67094661025E+02  0.23701255036E+02  0.87283946788E+02  0.00000000000E+00 0. -1.
          2    1    1    2  501    0  0.12636830322E+02 -0.48967101677E+02 -0.15093127499E+04  0.15101597410E+04  0.00000000000E+00 0. -1.
<scales pt_clust_3="88.93915" pt_clust_4="48.30875" pt_clust_5="14000.00000" pt_clust_6="50.57140"></scales>
<clustering>
<clus scale="   50.571">  2  6  1 -1</clus>
<clus scale="   48.309">  2  4  1 -1</clus>
<clus scale="   88.939">  1  3  2 -1</clus>
<clus scale="   88.939">  1  3  2 -1</clus>
</clustering>
</event>
<event>
 6    0  0.1993420E+002  0.1194140E+03  0.7546771E-02  0.1244067E+00
          2   -1    0    0  503    0 -0.00000000000E+00  0.00000000000E+00  0.23618402704E+04  0.23618402704E+04  0.00000000000E+00 0.  1.
         21   -1    0    0  505  502  0.00000000000E+00 -0.00000000000E+00 -0.20612231829E+02  0.20612231829E+02  0.00000000000E+00 0. -1.
         21    1    1    2  503  504  0.17155193281E+02  0.68280283419E+02  0.19518748602E+03  0.20749615047E+03  0.00000000000E+00 0. -1.
         21    1    1    2  504  502  0.49214318854E+02  0.57978661947E+02  0.14625279252E+03  0.16484372521E+03  0.00000000000E+00 0. -1.
         21    1    1    2  505  501 -0.41292971021E+02 -0.69953583146E+02  0.35519926128E+03  0.36436949442E+03  0.00000000000E+00 0.  1.
          2    1    1    2  501    0 -0.25076541114E+02 -0.56305362219E+02  0.16445884988E+04  0.16457431321E+04  0.00000000000E+00 0.  1.
<scales pt_clust_3="39.77883" pt_clust_4="39.77883" pt_clust_5="112.02864" pt_clust_6="61.63706"></scales>
<clustering>
<clus scale="   39.779">  3  4 -1 -1</clus>
<clus scale="   61.637">  1  6  2 -1</clus>
<clus scale="  112.029">  1  5  2 -1</clus>
<clus scale="  119.414">  2  3  1 -1</clus>
</clustering>
</event>
<event>
 6    0  0.1993420E+002  0.1183739E+03  0.7546771E-02  0.1245804E+00
          1   -1    0    0  504    0 -0.00000000000E+00  0.00000000000E+00  0.93260120129E+03  0.93260120129E+03  0.00000000000E+00 0. -1.
         21   -1    0    0  503  502  0.00000000000E+00 -0.00000000000E+00 -0.32554554769E+03  0.32554554769E+03  0.00000000000E+00 0.  1.
         21    1    1    2  503  505  0.55496627222E+02  0.21118793385E+02 -0.39941027128E+02  0.71562313512E+02  0.00000000000E+00 0.  1.
         21    1    1    2  504  502 -0.64053997714E+02 -0.13243726717E+03 -0.11624099476E+03  0.18749536854E+03  0.00000000000E+00 0. -1.
         21    1    1    2  505  501 -0.24885539229E+02  0.10468694560E+03 -0.92969112940E+02  0.14220373625E+03  0.00000000000E+00 0.  1.
          1    1    1    2  501    0  0.33442909721E+02  0.66315281820E+01  0.85620678843E+03  0.85688533068E+03  0.00000000000E+00 0. -1.
<scales pt_clust_3="66.37766" pt_clust_4="14000.00000" pt_clust_5="118.37389" pt_clust_6="34.09407"></scales>
<clustering>
<clus scale="   34.094">  1  6  2 -1</clus>
<clus scale="   66.378">  2  3  1 -1</clus>
<clus scale="  118.374">  1  5  2 -1</clus>
<clus scale="   66.378">  2  3  1 -1</clus>
</clustering>
</event>
<event>
 6    0  0.1993420E+002  0.9371596E+02  0.7546771E-02  0.1294095E+00
          4   -1    0    0  504    0 -0.00000000000E+00  0.00000000000E+00  0.87747686212E+03  0.87747686212E+03  0.00000000000E+00 0. -1.
         21   -1    0    0  505  502  0.00000000000E+00 -0.00000000000E+00 -0.94863013202E+02  0.94863013202E+02  0.00000000000E+00 0.  1.
         21    1    1    2  503  502  0.20482283435E+02 -0.31119302617E+02 -0.37433632185E+02  0.52812988446E+02  0.00000000000E+00 0.  1.
         21    1    1    2  504  503 -0.30968615563E+02  0.12409474442E+03  0.66422133475E+02  0.14411960504E+03  0.00000000000E+00 0.  1.
         21    1    1    2  505  501  0.29072674917E+02 -0.66992349513E+02  0.11660278996E+03  0.13758417767E+03  0.00000000000E+00 0. -1.
          4    1    1    2  501    0 -0.18586342788E+02 -0.25983092287E+02  0.63702255767E+03  0.63782310416E+03  0.00000000000E+00 0. -1.
<scales pt_clust_3="37.63503" pt_clust_4="14000.00000" pt_clust_5="93.71596" pt_clust_6="31.94641"></scales>
<clustering>
<clus scale="   31.946">  1  6  2 -1</clus>
<clus scale="   37.635">  2  3  1 -1</clus>
<clus scale="   93.716">  1  5  2 -1</clus>
<clus scale="   37.635">  2  3  1 -1</clus>
</clustering>
</event>
<event>
 6    0  0.1993420E+002  0.1575868E+03  0.7546771E-02  0.1191448E+00
         21   -1    0    0  504  502  0.00000000000E+00  0.00000000000E+00  0.96710345388E+03  0.96710345388E+03  0.00000000000E+00 0.  1.
          1   -1    0    0  505    0 -0.00000000000E+00 -0.00000000000E+00 -0.15651622398E+04  0.15651622398E+04  0.00000000000E+00 0.  1.
         21    1    1    2  503  501 -0.69129513022E+02 -0.13256482274E+02  0.11495804551E+03  0.13479605380E+03  0.00000000000E+00 0.  1.
         21    1    1    2  504  503 -0.10564666421E+03 -0.38431699327E+02  0.28800317037E+03  0.30916668533E+03  0.00000000000E+00 0.  1.
         21    1    1    2  505  502  0.91211521773E+02 -0.76299061772E+02  0.53329530820E+03  0.54639269238E+03  0.00000000000E+00 0.  1.
          1    1    1    2  501    0  0.83564655458E+02  0.12798724337E+03 -0.15343153100E+04  0.15419102621E+04  0.00000000000E+00 0.  1.
<scales pt_clust_3="30.71552" pt_clust_4="30.71552" pt_clust_5="118.91631" pt_clust_6="152.73115"></scales>
<clustering>
<clus scale="   30.716">  3  4 -1 -1</clus>
<clus scale="  118.916">  1  5  2 -1</clus>
<clus scale="  152.731">  2  6  1 -1</clus>
<clus scale="  118.916">  1  3  2 -1</clus>
</clustering>
</event>
<event>
 6    0  0.1993420E+002  0.1597606E+03  0.7546771E-02  0.1188967E+00
         21   -1    0    0  505  502  0.00000000000E+00  0.00000000000E+00  0.15404240308E+03  0.15404240308E+03  0.00000000000E+00 0.  1.
          2   -1    0    0  504    0 -0.00000000000E+00 -0.00000000000E+00 -0.89686208635E+03  0.89686208635E+03  0.00000000000E+00 0.  1.
         21    1    1    2  503  502 -0.17083898832E+02  0.83080752643E+02 -0.46008485039E+02  0.96493791275E+02  0.00000000000E+00 0.  1.
         21    1    1    2  504  503  0.26717444027E+02  0.20672067183E+02 -0.55788614608E+02  0.65219059307E+02  0.00000000000E+00 0. -1.
         21    1    1    2  505  501  0.10359037441E+03  0.54532491639E+02  0.80375981209E+02  0.14200372062E+03  0.00000000000E+00 0.  1.
          2    1    1    2  501    0 -0.11322391960E+03 -0.15828531147E+03 -0.72139856483E+03  0.74718791822E+03  0.00000000000E+00 0.  1.
<scales pt_clust_3="86.12439" pt_clust_4="33.78100" pt_clust_5="14000.00000" pt_clust_6="159.76062"></scales>
<clustering>
<clus scale="   33.781">  2  4  1 -1</clus>
<clus scale="   86.124">  1  3  2 -1</clus>
<clus scale="  159.761">  2  6  1 -1</clus>
<clus scale="   86.124">  1  3  2 -1</clus>
</clustering>
</event>
<event>
 6    0  0.1993420E+002  0.1218804E+03  0.7546771E-02  0.1240027E+00
         -4   -1    0    0    0  501 -0.00000000000E+00  0.00000000000E+00  0.98553871080E+03  0.98553871080E+03  0.00000000000E+00 0. -1.
         21   -1    0    0  503  502  0.00000000000E+00 -0.00000000000E+00 -0.20458258410E+03  0.20458258410E+03  0.00000000000E+00 0. -1.
         21    1    1    2  503  505 -0.54807520328E+02  0.65239413930E+01 -0.21335335542E+02  0.59174510040E+02  0.00000000000E+00 0. -1.
         21    1    1    2  504  501 -0.10360085971E+02 -0.32546485556E+02 -0.92018427970E+02  0.98152922470E+02  0.00000000000E+00 0. -1.
         21    1    1    2  505  504 -0.37429652079E+02 -0.30062606446E+02 -0.56887169894E+02  0.74437149728E+02  0.00000000000E+00 0. -1.
         -4    1    1    2    0  502  0.10259725838E+03  0.56085150609E+02  0.95119706010E+03  0.95835671266E+03  0.00000000000E+00 0. -1.
<scales pt_clust_3="55.19444" pt_clust_4="31.68054" pt_clust_5="31.68054" pt_clust_6="115.94884"></scales>
<clustering>
<clus scale="   31.681">  4  5 -1 -1</clus>
<clus scale="   55.194">  2  3  1 -1</clus>
<clus scale="  115.949">  1  6  2 -1</clus>
<clus scale="   55.194">  2  3  1 -1</clus>
</clustering>
</event>
<event>
 6    0  0.1993420E+002  0.1086922E+03  0.7546771E-02  0.1263011E+00
          2   -1    0    0  505    0 -0.00000000000E+00  0.00000000000E+00  0.55036753840E+03  0.55036753840E+03  0.00000000000E+00 0. -1.
         21   -1    0    0  503  502  0.00000000000E+00 -0.00000000000E+00 -0.45424201832E+03  0.45424201832E+03  0.00000000000E+00 0.  1.
         21    1    1    2  503  504  0.51299482292E+02 -0.78152124610E+02 -0.31936692426E+03  0.33276812314E+03  0.00000000000E+00 0.  1.
         21    1    1    2  504  501 -0.87966778950E+02  0.16151431725E+02 -0.10412509662E+02  0.90041342188E+02  0.00000000000E+00 0.  1.
         21    1    1    2  505  502  0.63044557449E+02  0.17317156335E+01 -0.62613882746E+02  0.88871330448E+02  0.00000000000E+00 0.  1.
          2    1    1    2  501    0 -0.26377260791E+02  0.60268977252E+02  0.48851883675E+03  0.49292876095E+03  0.00000000000E+00 0. -1.
<scales pt_clust_3="108.69217" pt_clust_4="14000.00000" pt_clust_5="63.06834" pt_clust_6="65.65124"></scales>
<clustering>
<clus scale="   63.068">  2  5  1 -1</clus>
<clus scale="   65.651">  1  6  2 -1</clus>
<clus scale="  108.692">  2  3  1 -1</clus>
<clus scale="   63.068">  2  3  1 -1</clus>
</clustering>
</event>
<event>
 6    0  0.1993420E+002  0.1194702E+03  0.7546771E-02  0.1243974E+00
         21   -1    0    0  505  502  0.00000000000E+00  0.00000000000E+00  0.14302889253E+03  0.14302889253E+03  0.00000000000E+00 0.  1.
          2   -1    0    0  502    0 -0.00000000000E+00 -0.00000000000E+00 -0.21762321008E+04  0.21762321008E+04  0.00000000000E+00 0. -1.
         21    1    1    2  503  504  0.10338370139E+03 -0.26814604906E+02 -0.67284371058E+01  0.10701628201E+03  0.00000000000E+00 0. -1.
         21    1    1    2  504  501 -0.93675803757E+02 -0.41544250995E+02 -0.26565881205E+03  0.28473792410E+03  0.00000000000E+00 0. -1.
         21    1    1    2  505  503  0.30008517213E+02  0.65897334019E+02  0.67361316105E+02  0.98896494597E+02  0.00000000000E+00 0.  1.
          2    1    1    2  501    0 -0.39716414843E+02  0.24615218820E+01 -0.18281772752E+04  0.18286102926E+04  0.00000000000E+00 0. -1.
<scales pt_clust_3="119.47017" pt_clust_4="14000.00000" pt_clust_5="71.78355" pt_clust_6="39.79262"></scales>
<clustering>
<clus scale="   39.793">  2  6  1 -1</clus>
<clus scale="   71.784">  1  5  2 -1</clus>
<clus scale="  119.470">  1  3  2 -1</clus>
<clus scale="   71.784">  1  3  2 -1</clus>
</clustering>
</event>
<event>
 6    0  0.1993420E+002  0.1825865E+03  0.7546771E-02  0.1165323E+00
          2   -1    0    0  502    0 -0.00000000000E+00  0.00000000000E+00  0.14016910262E+04  0.14016910262E+04  0.00000000000E+00 0.  1.
         21   -1    0    0  503  502  0.00000000000E+00 -0.00000000000E+00 -0.62029371302E+02  0.62029371302E+02  0.00000000000E+00 0.  1.
         21    1    1    2  503  504  0.34390143996E+02  0.71649820668E+01 -0.97290970581E+01  0.36450984920E+02  0.00000000000E+00 0.  1.
         21    1    1    2  504  505  0.57799624781E+02  0.92999555949E+02  0.15321109046E+03  0.18831715873E+03  0.00000000000E+00 0.  1.
         21    1    1    2  505  501 -0.32635682466E+01  0.50028880958E+02  0.27248796246E+02  0.57061692092E+02  0.00000000000E+00 0.  1.
          2    1    1    2  501    0 -0.88926200530E+02 -0.15019341897E+03  0.11689308652E+04  0.11818905617E+04  0.00000000000E+00 0.  1.
<scales pt_clust_3="35.12861" pt_clust_4="43.24673" pt_clust_5="43.24673" pt_clust_6="170.65793"></scales>
<clustering>
<clus scale="   35.129">  2  3  1 -1</clus>
<clus scale="   43.247">  4  5 -1 -1</clus>
<clus scale="  170.658">  1  6  2 -1</clus>
<clus scale="   35.129">  2  3  1 -1</clus>
</clustering>
</event>
<event>
 6    0  0.1993420E+002  0.1310759E+03  0.7546771E-02  0.1225868E+00
          2   -1    0    0  502    0 -0.00000000000E+00  0.00000000000E+00  0.53368475968E+03  0.53368475968E+03  0.00000000000E+00 0.  1.
         21   -1    0    0  505  502  0.00000000000E+00 -0.00000000000E+00 -0.14228648606E+04  0.14228648606E+04  0.00000000000E+00 0. -1.
         21    1    1    2  503  501 -0.35182706197E+02  0.88951367488E+02 -0.23209626212E+03  0.25103554227E+03  0.00000000000E+00 0.  1.
         21    1    1    2  504  503  0.16757873270E+02 -0.82030440568E+02 -0.80868264301E+03  0.81300518855E+03  0.00000000000E+00 0. -1.
         21    1    1    2  505  504  0.40551163017E+02 -0.38530312184E+02 -0.36762355505E+03  0.37185489106E+03  0.00000000000E+00 0. -1.
          2    1    1    2  501    0 -0.22126330090E+02  0.31609385263E+02  0.51922235925E+03  0.52065399841E+03  0.00000000000E+00 0.  1.
<scales pt_clust_3="121.66743" pt_clust_4="39.04454" pt_clust_5="39.04454" pt_clust_6="38.58403"></scales>
<clustering>
<clus scale="   38.584">  1  6  2 -1</clus>
<clus scale="   39.045">  4  5 -1 -1</clus>
<clus scale="  121.667">  1  3  2 -1</clus>
<clus scale="  131.076">  2  3  1 -1</clus>
</clustering>
</event>
<event>
 6    0  0.3287297E+002  0.9099190E+02  0.7546771E-02  0.1300467E+00
         21   -1    0    0  503  502  0.00000000000E+00  0.00000000000E+00  0.13248517945E+04  0.13248517945E+04  0.00000000000E+00 0.  1.
          1   -1    0    0  502    0 -0.00000000000E+00 -0.00000000000E+00 -0.89050125347E+03  0.89050125347E+03  0.00000000000E+00 0. -1.
         21    1    1    2  503  504 -0.28552787319E+02  0.37072791164E+02  0.93460874166E+03  0.93577943635E+03  0.00000000000E+00 0.  1.
         21    1    1    2  504  505  0.32060511342E+02 -0.75383982982E+02  0.96281430498E+02  0.12641493241E+03  0.00000000000E+00 0.  1.
         21    1    1    2  505  501 -0.43746292588E+01  0.86825334960E+02  0.27082587161E+03  0.28443703856E+03  0.00000000000E+00 0.  1.
          1    1    1    2  501    0  0.86690523591E+00 -0.48514143143E+02 -0.86736550273E+03  0.86872164065E+03  0.00000000000E+00 0. -1.
<scales pt_clust_3="46.79373" pt_clust_4="14000.00000" pt_clust_5="90.99190" pt_clust_6="48.45652"></scales>
<clustering>
<clus scale="   46.794">  1  3  2 -1</clus>
<clus scale="   48.457">  2  6  1 -1</clus>
<clus scale="   90.992">  2  5  1 -1</clus>
<clus scale="   46.794">  1  3  2 -1</clus>
</clustering>
</event>
<event>
 6    0  0.1993420E+002  0.1137643E+03  0.7546771E-02  0.1253754E+00
         21   -1    0    0  503  502  0.00000000000E+00  0.00000000000E+00  0.19699967647E+03  0.19699967647E+03  0.00000000000E+00 0. -1.
          2   -1    0    0  504    0 -0.00000000000E+00 -0.00000000000E+00 -0.95912784264E+03  0.95912784264E+03  0.00000000000E+00 0.  1.
         21    1    1    2  503  505  0.19777008488E+02  0.11739177485E+03  0.14316206916E+03  0.18619166714E+03  0.00000000000E+00 0. -1.
         21    1    1    2  504  502  0.28230439447E+02  0.22844216104E+02 -0.77409378304E+02  0.85504548242E+02  0.00000000000E+00 0. -1.
         21    1    1    2  505  501 -0.83888725835E+02 -0.69409486062E+02 -0.87166897714E+02  0.13947423825E+03  0.00000000000E+00 0. -1.
          2    1    1    2  501    0  0.35881277900E+02 -0.70826504888E+02 -0.74071395931E+03  0.74495706549E+03  0.00000000000E+00 0.  1.
<scales pt_clust_3="14000.00000" pt_clust_4="36.31551" pt_clust_5="113.76426" pt_clust_6="78.89501"></scales>
<clustering>
<clus scale="   36.316">  2  4  1 -1</clus>
<clus scale="   78.895">  2  6  1 -1</clus>
<clus scale="  113.764">  2  5  1 -1</clus>
<clus scale="  113.764">  1  3  2 -1</clus>
</clustering>
</event>
<event>
 6    0  0.1993420E+002  0.5634625E+03  0.7546771E-02  0.9984250E-01
          1   -1    0    0  503    0 -0.00000000000E+00  0.00000000000E+00  0.48601198530E+03  0.48601198530E+03  0.00000000000E+00 0.  1.
         21   -1    0    0  504  502  0.00000000000E+00 -0.00000000000E+00 -0.13970031746E+04  0.13970031746E+04  0.00000000000E+00 0.  1.
         21    1    1    2  503  502  0.55280968859E+03  0.18127399875E+03 -0.22227954986E+03  0.62278970183E+03  0.00000000000E+00 0.  1.
         21    1    1    2  504  505 -0.28484933817E+03  0.87728530685E+02 -0.56377427671E+03  0.63771222007E+03  0.00000000000E+00 0.  1.
         21    1    1    2  505  501 -0.23895638498E+03 -0.49929545544E+02 -0.26545417035E+03  0.36063697814E+03  0.00000000000E+00 0.  1.
          1    1    1    2  501    0 -0.29003965442E+02 -0.21907298389E+03  0.14051680759E+03  0.26187625990E+03  0.00000000000E+00 0.  1.
<scales pt_clust_3="533.11339" pt_clust_4="165.09914" pt_clust_5="165.09914" pt_clust_6="220.98462"></scales>
<clustering>
<clus scale="  165.099">  4  5 -1 -1</clus>
<clus scale="  220.985">  1  6  2 -1</clus>
<clus scale="  533.113">  1  3  2 -1</clus>
<clus scale="  563.463">  2  3  1 -1</clus>
</clustering>
</event>
<event>
 6    0  0.1993420E+002  0.2840263E+03  0.7546771E-02  0.1093510E+00
          1   -1    0    0  503    0 -0.00000000000E+00  0.00000000000E+00  0.82325220507E+03  0.82325220507E+03  0.00000000000E+00 0.  1.
         21   -1    0    0  504  502  0.00000000000E+00 -0.00000000000E+00 -0.21859227935E+04  0.21859227935E+04  0.00000000000E+00 0.  1.
         21    1    1    2  503  502  0.20111749788E+03  0.21792978576E+03 -0.97464758841E+03  0.10187637415E+04  0.00000000000E+00 0.  1.
         21    1    1    2  504  505  0.61695411212E+02 -0.48850277894E+02 -0.25523931626E+03  0.26709508041E+03  0.00000000000E+00 0.  1.
         21    1    1    2  505  501 -0.27478981508E+03 -0.93553053646E+02 -0.90341257829E+03  0.94890247283E+03  0.00000000000E+00 0.  1.
          1    1    1    2  501    0  0.11976905982E+02 -0.75526454218E+02  0.77062889452E+03  0.77441370380E+03  0.00000000000E+00 0.  1.
<scales pt_clust_3="14000.00000" pt_clust_4="85.48352" pt_clust_5="284.02626" pt_clust_6="76.47020"></scales>
<clustering>
<clus scale="   76.470">  1  6  2 -1</clus>
<clus scale="   85.484">  2  4  1 -1</clus>
<clus scale="  284.026">  2  5  1 -1</clus>
<clus scale="   85.484">  2  3  1 -1</clus>
</clustering>
</event>
<event>
 6    0  0.1993420E+002  0.8932322E+02  0.7546771E-02  0.1304499E+00
          2   -1    0    0  503    0 -0.00000000000E+00  0.00000000000E+00  0.53531927479E+04  0.53531927479E+04  0.00000000000E+00 0. -1.
         21   -1    0    0  501  502  0.00000000000E+00 -0.00000000000E+00 -0.42846891827E+01  0.42846891827E+01  0.00000000000E+00 0. -1.
         21    1    1    2  503  505 -0.27192777876E+02  0.88917907794E+02  0.26782003398E+04  0.26798139677E+04  0.00000000000E+00 0. -1.
         21    1    1    2  504  502 -0.27088212043E+02 -0.24008729383E+02  0.63332390649E+03  0.63435743934E+03  0.00000000000E+00 0. -1.
         21    1    1    2  505  504 -0.45603574649E+01 -0.77403610962E+02  0.64829774345E+03  0.65291812658E+03  0.00000000000E+00 0. -1.
          2    1    1    2  501    0  0.58841347384E+02  0.12494432551E+02  0.13890860690E+04  0.13903879035E+04  0.00000000000E+00 0. -1.
<scales pt_clust_3="14000.00000" pt_clust_4="36.19655" pt_clust_5="89.32322" pt_clust_6="54.80119"></scales>
<clustering>
<clus scale="   36.197">  2  4  1 -1</clus>
<clus scale="   54.801">  1  6  2 -1</clus>
<clus scale="   89.323">  2  5  1 -1</clus>
<clus scale="   36.197">  2  3  1 -1</clus>
</clustering>
</event>
<event>
 6    0  0.1993420E+002  0.1607003E+03  0.7546771E-02  0.1187908E+00
          1   -1    0    0  503    0 -0.00000000000E+00  0.00000000000E+00  0.90360138549E+03  0.90360138549E+03  0.00000000000E+00 0.  1.
         21   -1    0    0  504  502  0.00000000000E+00 -0.00000000000E+00 -0.83362951843E+02  0.83362951843E+02  0.00000000000E+00 0.  1.
         21    1    1    2  503  505  0.56962821533E+02 -0.42300563775E+02  0.23668204084E+02  0.74794950480E+02  0.00000000000E+00 0.  1.
         21    1    1    2  504  501 -0.13046941808E+03  0.16553219452E+02  0.17560423357E+03  0.21939262744E+03  0.00000000000E+00 0.  1.
         21    1    1    2  505  502  0.10097185421E+03  0.38574126537E+01  0.36772769483E+02  0.10752874755E+03  0.00000000000E+00 0.  1.
          1    1    1    2  501    0 -0.27465257660E+02  0.21889931670E+02  0.58419322651E+03  0.58524801186E+03  0.00000000000E+00 0.  1.
<scales pt_clust_3="46.70366" pt_clust_4="150.52244" pt_clust_5="46.70366" pt_clust_6="35.12135"></scales>
<clustering>
<clus scale="   35.121">  1  6  2 -1</clus>
<clus scale="   46.704">  3  5 -1 -1</clus>
<clus scale="  150.522">  1  4  2 -1</clus>
<clus scale="  160.700">  2  3  1 -1</clus>
</clustering>
</event>
<event>
 6    0  0.1993420E+002  0.1491088E+03  0.7546771E-02  0.1201572E+00
         21   -1    0    0  505  502  0.00000000000E+00  0.00000000000E+00  0.46532359760E+03  0.46532359760E+03  0.00000000000E+00 0. -1.
          2   -1    0    0  503    0 -0.00000000000E+00 -0.00000000000E+00 -0.23414960231E+03  0.23414960231E+03  0.00000000000E+00 0. -1.
         21    1    1    2  503  502 -0.56854112237E+02  0.26377557324E+02  0.86916091581E+02  0.10715676640E+03  0.00000000000E+00 0. -1.
         21    1    1    2  504  501  0.16879800900E+03  0.20556944765E+02  0.25730804215E+03  0.30841981838E+03  0.00000000000E+00 0. -1.
         21    1    1    2  505  504  0.12298350739E+01  0.50978101037E+02  0.43717771066E+02  0.67167870195E+02  0.00000000000E+00 0. -1.
          2    1    1    2  501    0 -0.11317373183E+03 -0.97912603126E+02 -0.15676790950E+03  0.21672874493E+03  0.00000000000E+00 0. -1.
<scales pt_clust_3="68.39213" pt_clust_4="14000.00000" pt_clust_5="50.99293" pt_clust_6="149.10877"></scales>
<clustering>
<clus scale="   50.993">  1  5  2 -1</clus>
<clus scale="   68.392">  1  3  2 -1</clus>
<clus scale="  149.109">  2  6  1 -1</clus>
<clus scale="   50.993">  1  3  2 -1</clus>
</clustering>
</event>
<event>
 6    0  0.1993420E+002  0.7283403E+02  0.7546771E-02  0.1350713E+00
          2   -1    0    0  504    0 -0.00000000000E+00  0.00000000000E+00  0.13476855199E+04  0.13476855199E+04  0.00000000000E+00 0.  1.
         21   -1    0    0  503  502  0.00000000000E+00 -0.00000000000E+00 -0.40429604236E+02  0.40429604236E+02  0.00000000000E+00 0.  1.
         21    1    1    2  503  505  0.64139732990E+02  0.17018361307E+02  0.12522452914E+03  0.14172054427E+03  0.00000000000E+00 0.  1.
         21    1    1    2  504  502 -0.14825654531E+02 -0.74653904971E+02  0.57294483341E+02  0.95266276200E+02  0.00000000000E+00 0.  1.
         21    1    1    2  505  501 -0.79603800976E+02  0.46203181254E+02  0.15091067002E+03  0.17676405011E+03  0.00000000000E+00 0.  1.
          2    1    1    2  501    0  0.30289722518E+02  0.11432362410E+02  0.97382623316E+03  0.97436425355E+03  0.00000000000E+00 0.  1.
<scales pt_clust_3="14000.00000" pt_clust_4="72.83403" pt_clust_5="72.32581" pt_clust_6="32.37539"></scales>
<clustering>
<clus scale="   32.375">  1  6  2 -1</clus>
<clus scale="   72.834">  2  4  1 -1</clus>
<clus scale="   72.326">  1  5  2 -1</clus>
<clus scale="   72.834">  2  3  1 -1</clus>
</clustering>
</event>
<event>
 6    0  0.1993420E+002  0.1510256E+03  0.7546771E-02  0.1199218E+00
         21   -1    0    0  503  502  0.00000000000E+00  0.00000000000E+00  0.18453454944E+04  0.18453454944E+04  0.00000000000E+00 0. -1.
         -2   -1    0    0    0  501 -0.00000000000E+00 -0.00000000000E+00 -0.75638319856E+02  0.75638319856E+02  0.00000000000E+00 0.  1.
         21    1    1    2  503  504  0.16921361752E+01 -0.53635130712E+02  0.34081915755E+03  0.34501780928E+03  0.00000000000E+00 0. -1.
         21    1    1    2  504  505 -0.37067343828E+02 -0.20923000186E+02  0.64462690477E+03  0.64603065428E+03  0.00000000000E+00 0. -1.
         21    1    1    2  505  501 -0.23443279489E+02 -0.61827013842E+02  0.77849246749E+03  0.78129551959E+03  0.00000000000E+00 0. -1.
         -2    1    1    2    0  502  0.58818487142E+02  0.13638514474E+03  0.57686447622E+01  0.14863983113E+03  0.00000000000E+00 0.  1.
<scales pt_clust_3="53.66182" pt_clust_4="30.88861" pt_clust_5="30.88861" pt_clust_6="146.03619"></scales>
<clustering>
<clus scale="   30.889">  4  5 -1 -1</clus>
<clus scale="   53.662">  1  3  2 -1</clus>
<clus scale="  146.036">  2  6  1 -1</clus>
<clus scale="   53.662">  1  3  2 -1</clus>
</clustering>
</event>
<event>
 6    0  0.1993420E+002  0.1646673E+03  0.7546771E-02  0.1183526E+00
          2   -1    0    0  503    0 -0.00000000000E+00  0.00000000000E+00  0.51239151780E+03  0.51239151780E+03  0.00000000000E+00 0.  1.
         21   -1    0    0  501  502  0.00000000000E+00 -0.00000000000E+00 -0.14465288813E+03  0.14465288813E+03  0.00000000000E+00 0.  1.
         21    1    1    2  503  505 -0.23809460475E+02  0.43583543281E+02  0.37364100527E+01  0.49803377527E+02  0.00000000000E+00 0.  1.
         21    1    1    2  504  502  0.10108691218E+00  0.39687580286E+02 -0.41704236556E+02  0.57570457652E+02  0.00000000000E+00 0.  1.
         21    1    1    2  505  504 -0.44266124966E+02  0.44228043876E+02 -0.44540595131E+02  0.76808035382E+02  0.00000000000E+00 0.  1.
          2    1    1    2  501    0  0.67974498529E+02 -0.12749916744E+03  0.45024705131E+03  0.47286253537E+03  0.00000000000E+00 0.  1.
<scales pt_clust_3="46.80544" pt_clust_4="32.12369" pt_clust_5="46.80544" pt_clust_6="144.48727"></scales>
<clustering>
<clus scale="   32.124">  4  5 -1 -1</clus>
<clus scale="   46.805">  3  4 -1 -1</clus>
<clus scale="  144.487">  1  6  2 -1</clus>
<clus scale="  164.667">  2  3  1 -1</clus>
</clustering>
</event>
<event>
 6    0  0.1993420E+002  0.1568812E+03  0.7546771E-02  0.1192264E+00
          1   -1    0    0  505    0 -0.00000000000E+00  0.00000000000E+00  0.13114468589E+04  0.13114468589E+04  0.00000000000E+00 0. -1.
         21   -1    0    0  504  502  0.00000000000E+00 -0.00000000000E+00 -0.99237143994E+02  0.99237143994E+02  0.00000000000E+00 0.  1.
         21    1    1    2  503  501  0.58967056265E+02  0.21624318380E+02  0.65950145566E+01  0.63152348230E+02  0.00000000000E+00 0.  1.
         21    1    1    2  504  503  0.31549895569E+02  0.45433001466E+02 -0.32017103911E+02  0.63911254686E+02  0.00000000000E+00 0.  1.
         21    1    1    2  505  502 -0.74113018304E+01  0.58034618771E+02  0.28285578195E+02  0.64984754401E+02  0.00000000000E+00 0.  1.
          1    1    1    2  501    0 -0.83105650003E+02 -0.12509193862E+03  0.12093462261E+04  0.12186356456E+04  0.00000000000E+00 0. -1.
<scales pt_clust_3="49.73664" pt_clust_4="49.73664" pt_clust_5="58.50593" pt_clust_6="147.65784"></scales>
<clustering>
<clus scale="   49.737">  3  4 -1 -1</clus>
<clus scale="   58.506">  2  5  1 -1</clus>
<clus scale="  147.658">  1  6  2 -1</clus>
<clus scale="   58.506">  2  3  1 -1</clus>
</clustering>
</event>
<event>
 6    0  0.1993420E+002  0.1451338E+03  0.7546771E-02  0.1206583E+00
         21   -1    0    0  504  502  0.00000000000E+00  0.00000000000E+00  0.26916050220E+03  0.26916050220E+03  0.00000000000E+00 0. -1.
          2   -1    0    0  503    0 -0.00000000000E+00 -0.00000000000E+00 -0.30302104748E+04  0.30302104748E+04  0.00000000000E+00 0.  1.
         21    1    1    2  503  505  0.81566055495E+02  0.56696512365E+02  0.24636610299E+02  0.10234489968E+03  0.00000000000E+00 0.  1.
         21    1    1    2  504  501  0.30886493972E+02 -0.24607197899E+02 -0.42585565419E+02  0.58077707258E+02  0.00000000000E+00 0.  1.
         21    1    1    2  505  502  0.34478390467E+02 -0.37382539942E+02  0.19278677071E+03  0.19938142506E+03  0.00000000000E+00 0. -1.
          2    1    1    2  501    0 -0.14693093993E+03  0.52932254754E+01 -0.29358877882E+04  0.29395669450E+04  0.00000000000E+00 0.  1.
<scales pt_clust_3="14000.00000" pt_clust_4="39.49037" pt_clust_5="80.25698" pt_clust_6="145.13376"></scales>
<clustering>
<clus scale="   39.490">  1  4  2 -1</clus>
<clus scale="   80.257">  1  5  2 -1</clus>
<clus scale="  145.134">  2  6  1 -1</clus>
<clus scale="   39.490">  1  3  2 -1</clus>
</clustering>
</event>
<event>
 6    0  0.1993420E+002  0.2722095E+03  0.7546771E-02  0.1100022E+00
         21   -1    0    0  501  502  0.00000000000E+00  0.00000000000E+00  0.53408239554E+03  0.53408239554E+03  0.00000000000E+00 0. -1.
          2   -1    0    0  504    0 -0.00000000000E+00 -0.00000000000E+00 -0.18388536941E+04  0.18388536941E+04  0.00000000000E+00 0.  1.
         21    1    1    2  503  502  0.72149763434E+02  0.30798728258E+02  0.34509799219E+02  0.85703420399E+02  0.00000000000E+00 0. -1.
         21    1    1    2  504  505 -0.64486488053E+02  0.13257950733E+03  0.23791706093E+03  0.27989348114E+03  0.00000000000E+00 0. -1.
         21    1    1    2  505  503  0.16739385820E+02  0.97408627561E+02  0.19354936027E+03  0.21732464799E+03  0.00000000000E+00 0. -1.
          2    1    1    2  501    0 -0.24402661202E+02 -0.26078686315E+03 -0.17707475190E+04  0.17900145401E+04  0.00000000000E+00 0.  1.
<scales pt_clust_3="78.44839" pt_clust_4="62.82873" pt_clust_5="62.82873" pt_clust_6="261.16997"></scales>
<clustering>
<clus scale="   62.829">  4  5 -1 -1</clus>
<clus scale="   78.448">  1  3  2 -1</clus>
<clus scale="  261.170">  2  6  1 -1</clus>
<clus scale="   78.448">  1  3  2 -1</clus>
</clustering>
</event>
<event>
 6    0  0.1993420E+002  0.8589417E+02  0.7546771E-02  0.1313111E+00
         21   -1    0    0  505  502  0.00000000000E+00  0.00000000000E+00  0.36042857071E+02  0.36042857071E+02  0.00000000000E+00 0.  1.
          1   -1    0    0  503    0 -0.00000000000E+00 -0.00000000000E+00 -0.19121834323E+04  0.19121834323E+04  0.00000000000E+00 0.  1.
         21    1    1    2  503  504  0.31533791730E+02 -0.32289651312E+02 -0.28404245648E+03  0.28760583910E+03  0.00000000000E+00 0.  1.
         21    1    1    2  504  502 -0.27241356025E+02 -0.13976543452E+02 -0.87744142210E+02  0.92932608578E+02  0.00000000000E+00 0.  1.
         21    1    1    2  505  501  0.74792603440E+02  0.83420566321E+02 -0.73119454895E+02  0.13378856117E+03  0.00000000000E+00 0.  1.
          1    1    1    2  501    0 -0.79085039146E+02 -0.37154371556E+02 -0.14312345216E+04  0.14338992805E+04  0.00000000000E+00 0.  1.
<scales pt_clust_3="44.67914" pt_clust_4="30.61756" pt_clust_5="85.89417" pt_clust_6="14000.00000"></scales>
<clustering>
<clus scale="   30.618">  1  4  2 -1</clus>
<clus scale="   44.679">  2  3  1 -1</clus>
<clus scale="   85.894">  1  5  2 -1</clus>
<clus scale="   30.618">  1  3  2 -1</clus>
</clustering>
</event>
<event>
 6    0  0.1993420E+002  0.1075619E+03  0.7546771E-02  0.1265153E+00
         21   -1    0    0  504  502  0.00000000000E+00  0.00000000000E+00  0.50032505467E+02  0.50032505467E+02  0.00000000000E+00 0. -1.
          2   -1    0    0  505    0 -0.00000000000E+00 -0.00000000000E+00 -0.24152603959E+04  0.24152603959E+04  0.00000000000E+00 0.  1.
         21    1    1    2  503  502 -0.12087774355E+03 -0.15554369208E+01 -0.56468313831E+02  0.13342607968E+03  0.00000000000E+00 0. -1.
         21    1    1    2  504  501  0.26561530628E+02 -0.39080743643E+02 -0.14361365608E+03  0.15118763722E+03  0.00000000000E+00 0.  1.
         21    1    1    2  505  503 -0.52002182396E+02  0.54308047729E+02 -0.28344156407E+03  0.29324513852E+03  0.00000000000E+00 0.  1.
          2    1    1    2  501    0  0.14631839532E+03 -0.13671867165E+02 -0.18817043564E+04  0.18874340459E+04  0.00000000000E+00 0.  1.
<scales pt_clust_3="107.56191" pt_clust_4="47.25272" pt_clust_5="70.25623" pt_clust_6="14000.00000"></scales>
<clustering>
<clus scale="   47.253">  1  4  2 -1</clus>
<clus scale="   70.256">  2  5  1 -1</clus>
<clus scale="  107.562">  1  3  2 -1</clus>
<clus scale="   47.253">  1  3  2 -1</clus>
</clustering>
</event>
<event>
 6    0  0.1993420E+002  0.1367812E+03  0.7546771E-02  0.1217727E+00
         21   -1    0    0  505  502  0.00000000000E+00  0.00000000000E+00  0.70721238761E+03  0.70721238761E+03  0.00000000000E+00 0. -1.
          2   -1    0    0  502    0 -0.00000000000E+00 -0.00000000000E+00 -0.74006509706E+03  0.74006509706E+03  0.00000000000E+00 0.  1.
         21    1    1    2  503  504  0.65991379513E+02  0.22075380169E+02  0.18917802652E+03  0.20157011261E+03  0.00000000000E+00 0. -1.
         21    1    1    2  504  501 -0.11830662847E+03 -0.29374264824E+02  0.19533893675E+03  0.23025335174E+03  0.00000000000E+00 0. -1.
         21    1    1    2  505  503  0.53079838810E+02  0.47633467965E+02  0.29421045824E+03  0.30273125095E+03  0.00000000000E+00 0. -1.
          2    1    1    2  501    0 -0.76458984894E+00 -0.40334583310E+02 -0.71158013097E+03  0.71272276938E+03  0.00000000000E+00 0.  1.
<scales pt_clust_3="39.73452" pt_clust_4="130.73232" pt_clust_5="39.73452" pt_clust_6="40.34183"></scales>
<clustering>
<clus scale="   39.735">  3  5 -1 -1</clus>
<clus scale="   40.342">  2  6  1 -1</clus>
<clus scale="  130.732">  2  4  1 -1</clus>
<clus scale="  136.781">  1  3  2 -1</clus>
</clustering>
</event>
<event>
 6    0  0.1993420E+002  0.1137305E+03  0.7546771E-02  0.1253813E+00
         -2   -1    0    0    0  501 -0.00000000000E+00  0.00000000000E+00  0.34866026552E+03  0.34866026552E+03  0.00000000000E+00 0. -1.
         21   -1    0    0  505  502  0.00000000000E+00 -0.00000000000E+00 -0.12046981674E+04  0.12046981674E+04  0.00000000000E+00 0.  1.
         21    1    1    2  503  502 -0.81647278161E+02 -0.16436511459E+02 -0.74802209532E+03  0.75264433302E+03  0.00000000000E+00 0.  1.
         21    1    1    2  504  503 -0.28820719102E+02  0.23708717453E+02 -0.28599223676E+03  0.28841687992E+03  0.00000000000E+00 0.  1.
         21    1    1    2  505  501  0.78954505234E+02  0.31355540476E+02 -0.15438656542E+03  0.17621633125E+03  0.00000000000E+00 0. -1.
         -2    1    1    2    0  504  0.31513492029E+02 -0.38627746471E+02  0.33236299558E+03  0.33608088879E+03  0.00000000000E+00 0. -1.
<scales pt_clust_3="32.56560" pt_clust_4="32.56560" pt_clust_5="102.80021" pt_clust_6="49.85181"></scales>
<clustering>
<clus scale="   32.566">  3  4 -1 -1</clus>
<clus scale="   49.852">  1  6  2 -1</clus>
<clus scale="  102.800">  1  5  2 -1</clus>
<clus scale="  113.731">  2  3  1 -1</clus>
</clustering>
</event>
<event>
 6    0  0.1993420E+002  0.1736184E+03  0.7546771E-02  0.1174126E+00
          2   -1    0    0  505    0 -0.00000000000E+00  0.00000000000E+00  0.14166309207E+04  0.14166309207E+04  0.00000000000E+00 0. -1.
         21   -1    0    0  503  502  0.00000000000E+00 -0.00000000000E+00 -0.10497503877E+03  0.10497503877E+03  0.00000000000E+00 0. -1.
         21    1    1    2  503  501 -0.14568149768E+01  0.32147473711E+02  0.45891647939E+02  0.56050207193E+02  0.00000000000E+00 0.  1.
         21    1    1    2  504  502 -0.19305177838E+02  0.16078144690E+03  0.15242884623E+02  0.16265211063E+03  0.00000000000E+00 0. -1.
         21    1    1    2  505  504  0.14742961156E+01 -0.16295815912E+03  0.23066651664E+03  0.28242623298E+03  0.00000000000E+00 0. -1.
          2    1    1    2  501    0  0.19287696699E+02 -0.29970761494E+02  0.10198548327E+04  0.10204774086E+04  0.00000000000E+00 0. -1.
<scales pt_clust_3="32.18047" pt_clust_4="14000.00000" pt_clust_5="173.61843" pt_clust_6="35.55407"></scales>
<clustering>
<clus scale="   32.180">  2  3  1 -1</clus>
<clus scale="   35.554">  1  6  2 -1</clus>
<clus scale="  173.618">  1  5  2 -1</clus>
<clus scale="   32.180">  2  3  1 -1</clus>
</clustering>
</event>
<event>
 6    0  0.1993420E+002  0.1121127E+03  0.7546771E-02  0.1256707E+00
          2   -1    0    0  505    0 -0.00000000000E+00  0.00000000000E+00  0.13842358480E+04  0.13842358480E+04  0.00000000000E+00 0.  1.
         21   -1    0    0  503  502  0.00000000000E+00 -0.00000000000E+00 -0.83336374563E+02  0.83336374563E+02  0.00000000000E+00 0. -1.
         21    1    1    2  503  501  0.52814895869E+02  0.47479369131E+02 -0.37062311761E+02  0.80108168571E+02  0.00000000000E+00 0. -1.
         21    1    1    2  504  502  0.22356507571E+02 -0.21381810018E+02  0.40683729843E+01  0.31201712920E+02  0.00000000000E+00 0. -1.
         21    1    1    2  505  504  0.12452985302E+02  0.46663350779E+02  0.58798544937E+02  0.76090827539E+02  0.00000000000E+00 0. -1.
          2    1    1    2  501    0 -0.87624388742E+02 -0.72760909892E+02  0.12750948673E+04  0.12801715136E+04  0.00000000000E+00 0.  1.
<scales pt_clust_3="112.11272" pt_clust_4="30.93534" pt_clust_5="46.57204" pt_clust_6="14000.00000"></scales>
<clustering>
<clus scale="   30.935">  2  4  1 -1</clus>
<clus scale="   46.572">  2  5  1 -1</clus>
<clus scale="  112.113">  2  3  1 -1</clus>
<clus scale="   30.935">  2  3  1 -1</clus>
</clustering>
</event>
<event>
 6    0  0.1993420E+002  0.2082204E+03  0.7546771E-02  0.1142983E+00
          2   -1    0    0  503    0 -0.00000000000E+00  0.00000000000E+00  0.18152437278E+04  0.18152437278E+04  0.00000000000E+00 0. -1.
         21   -1    0    0  505  502  0.00000000000E+00 -0.00000000000E+00 -0.10954033110E+03  0.10954033110E+03  0.00000000000E+00 0. -1.
         21    1    1    2  503  504 -0.33856246751E+02  0.91747104614E+01  0.12861549200E+03  0.13331303589E+03  0.00000000000E+00 0. -1.
         21    1    1    2  504  502 -0.78644814154E+02  0.94769780207E+02  0.19487820209E+03  0.23052945947E+03  0.00000000000E+00 0. -1.
         21    1    1    2  505  501  0.17864434227E+03 -0.11997020315E+03  0.42304066828E+02  0.21930865177E+03  0.00000000000E+00 0. -1.
          2    1    1    2  501    0 -0.66143281369E+02  0.16025712483E+02  0.13399056357E+04  0.13416329117E+04  0.00000000000E+00 0. -1.
<scales pt_clust_3="34.88361" pt_clust_4="34.88361" pt_clust_5="197.69548" pt_clust_6="68.05701"></scales>
<clustering>
<clus scale="   34.884">  3  4 -1 -1</clus>
<clus scale="   68.057">  1  6  2 -1</clus>
<clus scale="  197.695">  2  5  1 -1</clus>
<clus scale="  197.695">  2  3  1 -1</clus>
</clustering>
</event>
<event>
 6    0  0.1993420E+002  0.6626123E+02  0.7546771E-02  0.1373289E+00
          1   -1    0    0  502    0 -0.00000000000E+00  0.00000000000E+00  0.34033906491E+03  0.34033906491E+03  0.00000000000E+00 0.  1.
         21   -1    0    0  504  502  0.00000000000E+00 -0.00000000000E+00 -0.14407989995E+03  0.14407989995E+03  0.00000000000E+00 0.  1.
         21    1    1    2  503  505  0.74932448266E+02 -0.60185316134E+01 -0.31543084080E+02  0.81523375048E+02  0.00000000000E+00 0.  1.
         21    1    1    2  504  503 -0.39176592793E+02  0.19424393077E+02 -0.38824330749E+02  0.58475987614E+02  0.00000000000E+00 0.  1.
         21    1    1    2  505  501 -0.90907081777E+02 -0.42202835944E+02  0.37524778107E+02  0.10702002547E+03  0.00000000000E+00 0.  1.
          1    1    1    2  501    0  0.55151226304E+02  0.28796974481E+02  0.22910180168E+03  0.23739957674E+03  0.00000000000E+00 0.  1.
<scales pt_clust_3="52.01436" pt_clust_4="43.72771" pt_clust_5="66.26123" pt_clust_6="14000.00000"></scales>
<clustering>
<clus scale="   43.728">  2  4  1 -1</clus>
<clus scale="   52.014">  2  3  1 -1</clus>
<clus scale="   66.261">  2  5  1 -1</clus>
<clus scale="   43.728">  2  3  1 -1</clus>
</clustering>
</event>
<event>
 6    0  0.1993420E+002  0.1226051E+03  0.7546771E-02  0.1238860E+00
          1   -1    0    0  505    0 -0.00000000000E+00  0.00000000000E+00  0.17784685679E+04  0.17784685679E+04  0.00000000000E+00 0.  1.
         21   -1    0    0  503  502  0.00000000000E+00 -0.00000000000E+00 -0.90701593746E+02  0.90701593746E+02  0.00000000000E+00 0. -1.
         21    1    1    2  503  501  0.86708837694E+02 -0.25850132767E+01 -0.40995407930E+02  0.95946486643E+02  0.00000000000E+00 0. -1.
         21    1    1    2  504  502 -0.51040894830E+00 -0.32866980266E+02  0.20119836421E+02  0.38539677304E+02  0.00000000000E+00 0.  1.
         21    1    1    2  505  504  0.37520853231E+02  0.40666065974E+02  0.60849763125E+02  0.82244981739E+02  0.00000000000E+00 0.  1.
          1    1    1    2  501    0 -0.12371928198E+03 -0.52140724319E+01  0.16477927825E+04  0.16524390160E+04  0.00000000000E+00 0.  1.
<scales pt_clust_3="14000.00000" pt_clust_4="32.87094" pt_clust_5="52.19411" pt_clust_6="122.60507"></scales>
<clustering>
<clus scale="   32.871">  2  4  1 -1</clus>
<clus scale="   52.194">  2  5  1 -1</clus>
<clus scale="  122.605">  1  6  2 -1</clus>
<clus scale="   32.871">  2  3  1 -1</clus>
</clustering>
</event>
<event>
 6    0  0.1993420E+002  0.7631676E+02  0.7546771E-02  0.1339841E+00
          1   -1    0    0  504    0 -0.00000000000E+00  0.00000000000E+00  0.70684331314E+03  0.70684331314E+03  0.00000000000E+00 0.  1.
         21   -1    0    0  505  502  0.00000000000E+00 -0.00000000000E+00 -0.50780700444E+03  0.50780700444E+03  0.00000000000E+00 0. -1.
         21    1    1    2  503  502  0.26041778166E+02  0.54169527405E+02 -0.25859742511E+03  0.26549037682E+03  0.00000000000E+00 0. -1.
         21    1    1    2  504  503 -0.30383856599E+02  0.61291962729E+02 -0.76137094594E+02  0.10235595054E+03  0.00000000000E+00 0. -1.
         21    1    1    2  505  501 -0.26145507461E+02 -0.10781314660E+03 -0.13644379721E+03  0.17585269955E+03  0.00000000000E+00 0. -1.
          1    1    1    2  501    0  0.30487585894E+02 -0.76483435351E+01  0.67021462563E+03  0.67095129067E+03  0.00000000000E+00 0.  1.
<scales pt_clust_3="60.77505" pt_clust_4="76.31676" pt_clust_5="14000.00000" pt_clust_6="31.43231"></scales>
<clustering>
<clus scale="   31.432">  1  6  2 -1</clus>
<clus scale="   60.775">  2  3  1 -1</clus>
<clus scale="   76.317">  1  4  2 -1</clus>
<clus scale="   60.775">  2  3  1 -1</clus>
</clustering>
</event>
<event>
 6    0  0.1993420E+002  0.1855617E+03  0.7546771E-02  0.1162526E+00
          2   -1    0    0  505    0 -0.00000000000E+00  0.00000000000E+00  0.10398579417E+04  0.10398579417E+04  0.00000000000E+00 0. -1.
         21   -1    0    0  503  502  0.00000000000E+00 -0.00000000000E+00 -0.57554305755E+02  0.57554305755E+02  0.00000000000E+00 0. -1.
         21    1    1    2  503  504  0.82726476691E+02  0.71955986093E+02  0.14455209263E+03  0.18142943908E+03  0.00000000000E+00 0. -1.
         21    1    1    2  504  501  0.19492152702E+02  0.90899731908E+02  0.19730334400E+03  0.21810849326E+03  0.00000000000E+00 0. -1.
         21    1    1    2  505  502 -0.88547374012E+02 -0.12818065131E+03  0.18918868875E+03  0.24507810340E+03  0.00000000000E+00 0. -1.
          2    1    1    2  501    0 -0.13671255381E+02 -0.34675066692E+02  0.45125951061E+03  0.45279621176E+03  0.00000000000E+00 0. -1.
<scales pt_clust_3="67.88973" pt_clust_4="67.88973" pt_clust_5="169.22866" pt_clust_6="37.27282"></scales>
<clustering>
<clus scale="   37.273">  1  6  2 -1</clus>
<clus scale="   67.890">  3  4 -1 -1</clus>
<clus scale="  169.229">  2  5  1 -1</clus>
<clus scale="  169.229">  2  3  1 -1</clus>
</clustering>
</event>
<event>
 6    0  0.1993420E+002  0.7936550E+02  0.7546771E-02  0.1330862E+00
          2   -1    0    0  505    0 -0.00000000000E+00  0.00000000000E+00  0.24931338595E+04  0.24931338595E+04  0.00000000000E+00 0. -1.
         21   -1    0    0  504  502  0.00000000000E+00 -0.00000000000E+00 -0.10081237587E+03  0.10081237587E+03  0.00000000000E+00 0.  1.
         21    1    1    2  503  501 -0.57327134781E+02 -0.57951943384E+01  0.20851291027E+02  0.61276104618E+02  0.00000000000E+00 0.  1.
         21    1    1    2  504  503  0.35422844683E+02 -0.38641267687E+02 -0.19889893863E+02  0.56067221902E+02  0.00000000000E+00 0.  1.
         21    1    1    2  505  502 -0.39044242364E+02  0.94986450679E+02  0.20878049578E+02  0.10479871959E+03  0.00000000000E+00 0.  1.
          2    1    1    2  501    0  0.60948532463E+02 -0.50549988654E+02  0.23704820369E+04  0.23718041892E+04  0.00000000000E+00 0. -1.
<scales pt_clust_3="49.41598" pt_clust_4="52.42066" pt_clust_5="79.36550" pt_clust_6="14000.00000"></scales>
<clustering>
<clus scale="   52.421">  2  4  1 -1</clus>
<clus scale="   49.416">  2  3  1 -1</clus>
<clus scale="   79.365">  2  5  1 -1</clus>
<clus scale="   52.421">  2  3  1 -1</clus>
</clustering>
</event>
<event>
 6    0  0.1993420E+002  0.4068494E+03  0.7546771E-02  0.1041433E+00
         21   -1    0    0  504  502  0.00000000000E+00  0.00000000000E+00  0.74120435201E+03  0.74120435201E+03  0.00000000000E+00 0.  1.
          2   -1    0    0  502    0 -0.00000000000E+00 -0.00000000000E+00 -0.94787382231E+03  0.94787382231E+03  0.00000000000E+00 0.  1.
         21    1    1    2  503  505  0.15823845876E+03 -0.29761974333E+03  0.45284244817E+03  0.56452033118E+03  0.00000000000E+00 0.  1.
         21    1    1    2  504  503  0.64272105302E+02 -0.59217299430E+02  0.95276507576E+02  0.12928729623E+03  0.00000000000E+00 0.  1.
         21    1    1    2  505  501 -0.15089518199E+02  0.35871293279E+03 -0.21856602101E+03  0.42032578704E+03  0.00000000000E+00 0.  1.
          2    1    1    2  501    0 -0.20742104586E+03 -0.18758900324E+01 -0.53622240504E+03  0.57494475986E+03  0.00000000000E+00 0.  1.
<scales pt_clust_3="32.56818" pt_clust_4="32.56818" pt_clust_5="401.79024" pt_clust_6="207.42953"></scales>
<clustering>
<clus scale="   32.568">  3  4 -1 -1</clus>
<clus scale="  207.430">  2  6  1 -1</clus>
<clus scale="  401.790">  2  5  1 -1</clus>
<clus scale="  406.849">  1  3  2 -1</clus>
</clustering>
</event>
<event>
 6    0  0.1993420E+002  0.1389971E+03  0.7546771E-02  0.1214685E+00
         21   -1    0    0  503  502  0.00000000000E+00  0.00000000000E+00  0.15074504732E+02  0.15074504732E+02  0.00000000000E+00 0. -1.
          2   -1    0    0  504    0 -0.00000000000E+00 -0.00000000000E+00 -0.36410907477E+04  0.36410907477E+04  0.00000000000E+00 0. -1.
         21    1    1    2  503  505  0.44511327383E+02  0.40668738627E+02 -0.13769440552E+03  0.15031617970E+03  0.00000000000E+00 0. -1.
         21    1    1    2  504  502 -0.27676276766E+02  0.64777824849E+02 -0.24371364786E+03  0.25368974169E+03  0.00000000000E+00 0. -1.
         21    1    1    2  505  501  0.33280817016E+02  0.26900235497E+02 -0.21334054211E+03  0.21759003276E+03  0.00000000000E+00 0. -1.
          2    1    1    2  501    0 -0.50115867632E+02 -0.13234679897E+03 -0.30312676475E+04  0.30345692983E+04  0.00000000000E+00 0. -1.
<scales pt_clust_3="32.76178" pt_clust_4="70.44248" pt_clust_5="32.76178" pt_clust_6="133.44635"></scales>
<clustering>
<clus scale="   32.762">  3  5 -1 -1</clus>
<clus scale="   70.442">  1  4  2 -1</clus>
<clus scale="  133.446">  2  6  1 -1</clus>
<clus scale="   70.442">  1  3  2 -1</clus>
</clustering>
</event>
<event>
 6    0  0.1993420E+002  0.1833543E+03  0.7546771E-02  0.1164596E+00
         21   -1    0    0  505  502  0.00000000000E+00  0.00000000000E+00  0.42440150357E+02  0.42440150357E+02  0.00000000000E+00 0.  1.
          2   -1    0    0  503    0 -0.00000000000E+00 -0.00000000000E+00 -0.43532394229E+04  0.43532394229E+04  0.00000000000E+00 0. -1.
         21    1    1    2  503  502  0.32661226154E+01  0.56427258823E+02 -0.45841082009E+02  0.72774362897E+02  0.00000000000E+00 0.  1.
         21    1    1    2  504  501 -0.12434249564E+03 -0.43890035784E+02 -0.59287011406E+03  0.60735686676E+03  0.00000000000E+00 0. -1.
         21    1    1    2  505  504 -0.87145605046E+02  0.19116626847E+02 -0.88126596268E+02  0.12540374345E+03  0.00000000000E+00 0.  1.
          2    1    1    2  501    0  0.20822197807E+03 -0.31653849886E+02 -0.35839614802E+04  0.35901446002E+04  0.00000000000E+00 0. -1.
<scales pt_clust_3="56.52170" pt_clust_4="14000.00000" pt_clust_5="101.50624" pt_clust_6="183.35431"></scales>
<clustering>
<clus scale="   56.522">  1  3  2 -1</clus>
<clus scale="  101.506">  1  5  2 -1</clus>
<clus scale="  183.354">  2  6  1 -1</clus>
<clus scale="   56.522">  1  3  2 -1</clus>
</clustering>
</event>
<event>
 6    0  0.1993420E+002  0.3389996E+03  0.7546771E-02  0.1067223E+00
          2   -1    0    0  502    0 -0.00000000000E+00  0.00000000000E+00  0.14988930854E+04  0.14988930854E+04  0.00000000000E+00 0. -1.
         21   -1    0    0  504  502  0.00000000000E+00 -0.00000000000E+00 -0.38952681085E+03  0.38952681085E+03  0.00000000000E+00 0.  1.
         21    1    1    2  503  505 -0.14211444297E+02 -0.11914170828E+03 -0.71928321285E+02  0.13989422863E+03  0.00000000000E+00 0. -1.
         21    1    1    2  504  503 -0.33591460817E+02 -0.11864917669E+03 -0.11170941571E+03  0.16638812136E+03  0.00000000000E+00 0.  1.
         21    1    1    2  505  501  0.27969538234E+02 -0.85681273765E+02 -0.10998898973E+03  0.14220110268E+03  0.00000000000E+00 0.  1.
          2    1    1    2  501    0  0.19833366880E+02  0.32347215874E+03  0.14029930012E+04  0.14399364435E+04  0.00000000000E+00 0. -1.
<scales pt_clust_3="34.96490" pt_clust_4="54.55251" pt_clust_5="54.55251" pt_clust_6="324.07962"></scales>
<clustering>
<clus scale="   34.965">  3  4 -1 -1</clus>
<clus scale="   54.553">  3  5 -1 -1</clus>
<clus scale="  324.080">  1  6  2 -1</clus>
<clus scale="  339.000">  2  3  1 -1</clus>
</clustering>
</event>
<event>
 6    0  0.1993420E+002  0.8829547E+02  0.7546771E-02  0.1307033E+00
          1   -1    0    0  505    0 -0.00000000000E+00  0.00000000000E+00  0.14174245980E+04  0.14174245980E+04  0.00000000000E+00 0. -1.
         21   -1    0    0  504  502  0.00000000000E+00 -0.00000000000E+00 -0.47677160048E+03  0.47677160048E+03  0.00000000000E+00 0.  1.
         21    1    1    2  503  502 -0.32526217507E+02 -0.11154303848E+02 -0.30156511514E+03  0.30351917894E+03  0.00000000000E+00 0.  1.
         21    1    1    2  504  501 -0.36199999507E+02  0.69410627019E+02  0.16723790154E+03  0.18465316358E+03  0.00000000000E+00 0. -1.
         21    1    1    2  505  503  0.39146205681E+01 -0.76441452552E+02 -0.15570387939E+03  0.17350019591E+03  0.00000000000E+00 0. -1.
          1    1    1    2  501    0  0.64811596446E+02  0.18185129381E+02  0.12306840905E+04  0.12325236601E+04  0.00000000000E+00 0. -1.
<scales pt_clust_3="34.38566" pt_clust_4="88.29547" pt_clust_5="14000.00000" pt_clust_6="67.13327"></scales>
<clustering>
<clus scale="   34.386">  2  3  1 -1</clus>
<clus scale="   67.133">  1  6  2 -1</clus>
<clus scale="   88.295">  1  4  2 -1</clus>
<clus scale="   34.386">  2  3  1 -1</clus>
</clustering>
</event>
<event>
 6    0  0.1993420E+002  0.1222233E+03  0.7546771E-02  0.1239474E+00
          3   -1    0    0  504    0 -0.00000000000E+00  0.00000000000E+00  0.16337009256E+03  0.16337009256E+03  0.00000000000E+00 0. -1.
         21   -1    0    0  501  502  0.00000000000E+00 -0.00000000000E+00 -0.17057661701E+03  0.17057661701E+03  0.00000000000E+00 0. -1.
         21    1    1    2  503  502  0.17830075974E+02  0.42006240479E+02 -0.41113275940E+02  0.61422612343E+02  0.00000000000E+00 0. -1.
         21    1    1    2  504  505 -0.63728166465E+01  0.46161974034E+02  0.67000777711E+01  0.47078994051E+02  0.00000000000E+00 0. -1.
         21    1    1    2  505  503  0.66895432265E+02  0.20474149295E+02 -0.34457461574E+02  0.77984013140E+02  0.00000000000E+00 0. -1.
          3    1    1    2  501    0 -0.78352691593E+02 -0.10864236381E+03  0.61664135294E+02  0.14746109004E+03  0.00000000000E+00 0. -1.
<scales pt_clust_3="41.50609" pt_clust_4="46.59979" pt_clust_5="41.50609" pt_clust_6="110.89393"></scales>
<clustering>
<clus scale="   41.506">  3  5 -1 -1</clus>
<clus scale="   46.600">  1  4  2 -1</clus>
<clus scale="  110.894">  1  6  2 -1</clus>
<clus scale="  122.223">  2  3  1 -1</clus>
</clustering>
</event>
<event>
 6    0  0.1993420E+002  0.1399991E+03  0.7546771E-02  0.1213330E+00
          2   -1    0    0  505    0 -0.00000000000E+00  0.00000000000E+00  0.15106071204E+04  0.15106071204E+04  0.00000000000E+00 0. -1.
         21   -1    0    0  504  502  0.00000000000E+00 -0.00000000000E+00 -0.23393630755E+03  0.23393630755E+03  0.00000000000E+00 0.  1.
         21    1    1    2  503  502  0.70102738684E+01  0.60652325029E+02 -0.46005886776E+02  0.76448610774E+02  0.00000000000E+00 0. -1.
         21    1    1    2  504  501 -0.13892980477E+03 -0.59929594849E+02 -0.73076523048E+02  0.16802745375E+03  0.00000000000E+00 0.  1.
         21    1    1    2  505  503  0.48441609104E+02  0.58010125955E+02 -0.21946380916E+02  0.78698207357E+02  0.00000000000E+00 0. -1.
          2    1    1    2  501    0  0.83477921800E+02 -0.58732856136E+02  0.14176996036E+04  0.14213691561E+04  0.00000000000E+00 0. -1.
<scales pt_clust_3="43.08085" pt_clust_4="131.53860" pt_clust_5="43.08085" pt_clust_6="102.06915"></scales>
<clustering>
<clus scale="   43.081">  3  5 -1 -1</clus>
<clus scale="  102.069">  1  6  2 -1</clus>
<clus scale="  131.539">  1  4  2 -1</clus>
<clus scale="  139.999">  2  3  1 -1</clus>
</clustering>
</event>
<event>
 6    0  0.1993420E+002  0.1866435E+03  0.7546771E-02  0.1161524E+00
         21   -1    0    0  503  502  0.00000000000E+00  0.00000000000E+00  0.72712735783E+02  0.72712735783E+02  0.00000000000E+00 0. -1.
          2   -1    0    0  505    0 -0.00000000000E+00 -0.00000000000E+00 -0.20465339582E+04  0.20465339582E+04  0.00000000000E+00 0. -1.
         21    1    1    2  503  501 -0.41693338636E+02 -0.17170695501E+03 -0.12776504338E+03  0.21804935036E+03  0.00000000000E+00 0. -1.
         21    1    1    2  504  502 -0.69873181350E+02  0.42939963255E+02 -0.10034682818E+03  0.12959779258E+03  0.00000000000E+00 0.  1.
         21    1    1    2  505  504 -0.59340778091E+02  0.35115636907E+02 -0.16366429371E+03  0.17759627512E+03  0.00000000000E+00 0. -1.
          2    1    1    2  501    0  0.17090729808E+03  0.93651354845E+02 -0.15820450572E+04  0.15940032760E+04  0.00000000000E+00 0. -1.
<scales pt_clust_3="14000.00000" pt_clust_4="157.05516" pt_clust_5="39.72941" pt_clust_6="186.64351"></scales>
<clustering>
<clus scale="   39.729">  4  5 -1 -1</clus>
<clus scale="  157.055">  1  4  2 -1</clus>
<clus scale="  186.644">  2  6  1 -1</clus>
<clus scale="  157.055">  1  3  2 -1</clus>
</clustering>
</event>
<event>
 6    0  0.1993420E+002  0.7414119E+02  0.7546771E-02  0.1346551E+00
          1   -1    0    0  504    0 -0.00000000000E+00  0.00000000000E+00  0.42619811314E+02  0.42619811314E+02  0.00000000000E+00 0.  1.
         21   -1    0    0  503  502  0.00000000000E+00 -0.00000000000E+00 -0.20928301349E+04  0.20928301349E+04  0.00000000000E+00 0.  1.
         21    1    1    2  503  505  0.31699336997E+02 -0.13355137190E+02 -0.10206306981E+04  0.10212101789E+04  0.00000000000E+00 0.  1.
         21    1    1    2  504  502  0.41896153779E+02 -0.45409568741E+02 -0.39589022466E+03  0.40068240118E+03  0.00000000000E+00 0.  1.
         21    1    1    2  505  501 -0.18628628419E+02  0.10946625124E+03 -0.62889668387E+03  0.63862424394E+03  0.00000000000E+00 0.  1.
          1    1    1    2  501    0 -0.54966862357E+02 -0.50701545311E+02 -0.47927169045E+01  0.74933122113E+02  0.00000000000E+00 0.  1.
<scales pt_clust_3="34.39779" pt_clust_4="73.60903" pt_clust_5="74.14119" pt_clust_6="14000.00000"></scales>
<clustering>
<clus scale="   34.398">  2  3  1 -1</clus>
<clus scale="   73.609">  2  4  1 -1</clus>
<clus scale="   74.141">  2  5  1 -1</clus>
<clus scale="   34.398">  2  3  1 -1</clus>
</clustering>
</event>
<event>
 6    0  0.1993420E+002  0.1593965E+03  0.7546771E-02  0.1189380E+00
         -4   -1    0    0    0  501 -0.00000000000E+00  0.00000000000E+00  0.24696558509E+03  0.24696558509E+03  0.00000000000E+00 0. -1.
         21   -1    0    0  501  502  0.00000000000E+00 -0.00000000000E+00 -0.71040690483E+03  0.71040690483E+03  0.00000000000E+00 0.  1.
         21    1    1    2  503  504  0.13562534481E+02 -0.12364502162E+03  0.10043708363E+03  0.15987382988E+03  0.00000000000E+00 0. -1.
         21    1    1    2  504  505 -0.12838448199E+02  0.56382041760E+02 -0.18139055362E+03  0.19038459320E+03  0.00000000000E+00 0.  1.
         21    1    1    2  505  502  0.78056198808E+01  0.10017554754E+03 -0.48697565417E+03  0.49723370338E+03  0.00000000000E+00 0.  1.
         -4    1    1    2    0  503 -0.85297061628E+01 -0.32912567674E+02  0.10448780442E+03  0.10988036345E+03  0.00000000000E+00 0. -1.
<scales pt_clust_3="154.39339" pt_clust_4="30.05802" pt_clust_5="30.05802" pt_clust_6="33.99990"></scales>
<clustering>
<clus scale="   30.058">  4  5 -1 -1</clus>
<clus scale="   34.000">  1  6  2 -1</clus>
<clus scale="  154.393">  1  3  2 -1</clus>
<clus scale="  159.397">  2  3  1 -1</clus>
</clustering>
</event>
<event>
 6    0  0.1993420E+002  0.2090977E+03  0.7546771E-02  0.1142283E+00
          1   -1    0    0  504    0 -0.00000000000E+00  0.00000000000E+00  0.28208471019E+03  0.28208471019E+03  0.00000000000E+00 0. -1.
         21   -1    0    0  503  502  0.00000000000E+00 -0.00000000000E+00 -0.16657678555E+04  0.16657678555E+04  0.00000000000E+00 0. -1.
         21    1    1    2  503  501 -0.52124779343E+02 -0.16349702202E+03 -0.26195989539E+02  0.17359291086E+03  0.00000000000E+00 0. -1.
         21    1    1    2  504  505  0.31758141174E+02  0.15645719397E+02 -0.19167960971E+03  0.19492162745E+03  0.00000000000E+00 0. -1.
         21    1    1    2  505  502  0.43581154632E+02  0.16846665610E+03 -0.13658552923E+04  0.13768954248E+04  0.00000000000E+00 0. -1.
          1    1    1    2  501    0 -0.23214516464E+02 -0.20615353473E+02  0.20004774624E+03  0.20244260261E+03  0.00000000000E+00 0. -1.
<scales pt_clust_3="196.47222" pt_clust_4="32.16450" pt_clust_5="32.16450" pt_clust_6="31.04684"></scales>
<clustering>
<clus scale="   31.047">  1  6  2 -1</clus>
<clus scale="   32.165">  4  5 -1 -1</clus>
<clus scale="  196.472">  1  3  2 -1</clus>
<clus scale="  209.098">  2  3  1 -1</clus>
</clustering>
</event>
<event>
 6    0  0.1993420E+002  0.2009916E+03  0.7546771E-02  0.1148905E+00
          2   -1    0    0  504    0 -0.00000000000E+00  0.00000000000E+00  0.25205418393E+03  0.25205418393E+03  0.00000000000E+00 0.  1.
         21   -1    0    0  503  502  0.00000000000E+00 -0.00000000000E+00 -0.50246855272E+03  0.50246855272E+03  0.00000000000E+00 0.  1.
         21    1    1    2  503  501 -0.10797569984E+03 -0.19119290612E+03  0.34799240528E+02  0.22231614032E+03  0.00000000000E+00 0.  1.
         21    1    1    2  504  505  0.58142962038E+02  0.12755888418E+03 -0.28412548351E+03  0.31682670870E+03  0.00000000000E+00 0.  1.
         21    1    1    2  505  502  0.47594429685E+02  0.29495616723E+02 -0.97855563353E+02  0.11274277104E+03  0.00000000000E+00 0.  1.
          2    1    1    2  501    0  0.22383081134E+01  0.34138405213E+02  0.96767437546E+02  0.10263711659E+03  0.00000000000E+00 0.  1.
<scales pt_clust_3="193.96837" pt_clust_4="33.28602" pt_clust_5="33.28602" pt_clust_6="34.21170"></scales>
<clustering>
<clus scale="   33.286">  4  5 -1 -1</clus>
<clus scale="   34.212">  1  6  2 -1</clus>
<clus scale="  193.968">  1  3  2 -1</clus>
<clus scale="  200.992">  2  3  1 -1</clus>
</clustering>
</event>
<event>
 6    0  0.1993420E+002  0.9621268E+02  0.7546771E-02  0.1288468E+00
          1   -1    0    0  505    0 -0.00000000000E+00  0.00000000000E+00  0.86178349917E+03  0.86178349917E+03  0.00000000000E+00 0. -1.
         21   -1    0    0  503  502  0.00000000000E+00 -0.00000000000E+00 -0.73518328036E+02  0.73518328036E+02  0.00000000000E+00 0. -1.
         21    1    1    2  503  504  0.46462355161E+02 -0.33365932771E+02  0.98122688549E+01  0.58037199595E+02  0.00000000000E+00 0. -1.
         21    1    1    2  504  501 -0.29529594215E+01 -0.30917624590E+02  0.43651400748E+01  0.31363576447E+02  0.00000000000E+00 0. -1.
         21    1    1    2  505  502 -0.75654658195E+02 -0.19112155307E+02  0.12427541405E+02  0.79014844001E+02  0.00000000000E+00 0. -1.
          1    1    1    2  501    0  0.32145262456E+02  0.83395712669E+02  0.76166022080E+03  0.76688620716E+03  0.00000000000E+00 0. -1.
<scales pt_clust_3="30.96612" pt_clust_4="30.96612" pt_clust_5="78.03142" pt_clust_6="86.54955"></scales>
<clustering>
<clus scale="   30.966">  3  4 -1 -1</clus>
<clus scale="   78.031">  2  5  1 -1</clus>
<clus scale="   86.550">  1  6  2 -1</clus>
<clus scale="   78.031">  2  3  1 -1</clus>
</clustering>
</event>
<event>
 6    0  0.1993420E+002  0.1214107E+03  0.7546771E-02  0.1240788E+00
         21   -1    0    0  505  502  0.00000000000E+00  0.00000000000E+00  0.15032950975E+04  0.15032950975E+04  0.00000000000E+00 0. -1.
          2   -1    0    0  502    0 -0.00000000000E+00 -0.00000000000E+00 -0.12231979876E+03  0.12231979876E+03  0.00000000000E+00 0. -1.
         21    1    1    2  503  501 -0.63752682264E+02 -0.15954856198E+02  0.10562710768E+03  0.12440276447E+03  0.00000000000E+00 0.  1.
         21    1    1    2  504  503  0.93371492625E+02  0.18851672455E+02  0.77429321281E+03  0.78013050228E+03  0.00000000000E+00 0. -1.
         21    1    1    2  505  504  0.26613820889E+02  0.17235043196E+02  0.60251386643E+03  0.60334757928E+03  0.00000000000E+00 0.  1.
          2    1    1    2  501    0 -0.56232631250E+02 -0.20131859453E+02 -0.10145888820E+03  0.11773405021E+03  0.00000000000E+00 0. -1.
<scales pt_clust_3="109.66041" pt_clust_4="30.06281" pt_clust_5="30.06281" pt_clust_6="59.72772"></scales>
<clustering>
<clus scale="   30.063">  4  5 -1 -1</clus>
<clus scale="   59.728">  2  6  1 -1</clus>
<clus scale="  109.660">  2  3  1 -1</clus>
<clus scale="  121.411">  1  3  2 -1</clus>
</clustering>
</event>
<event>
 6    0  0.1993420E+002  0.1761044E+03  0.7546771E-02  0.1171627E+00
         -4   -1    0    0    0  501 -0.00000000000E+00  0.00000000000E+00  0.52738316090E+03  0.52738316090E+03  0.00000000000E+00 0. -1.
         21   -1    0    0  504  502  0.00000000000E+00 -0.00000000000E+00 -0.87662699488E+03  0.87662699488E+03  0.00000000000E+00 0.  1.
         21    1    1    2  503  505  0.27935610636E+02 -0.78181219575E+02 -0.95407442418E+02  0.12647245354E+03  0.00000000000E+00 0.  1.
         21    1    1    2  504  501  0.36238417083E+02  0.65348168684E+02 -0.51927754891E+03  0.52462632304E+03  0.00000000000E+00 0.  1.
         21    1    1    2  505  502  0.59279738859E+02 -0.10537010270E+03 -0.21296533020E+03  0.24489013424E+03  0.00000000000E+00 0.  1.
         -4    1    1    2    0  503 -0.12345376658E+03  0.11820315359E+03  0.47840648755E+03  0.50802124496E+03  0.00000000000E+00 0. -1.
<scales pt_clust_3="32.29486" pt_clust_4="74.72353" pt_clust_5="32.29486" pt_clust_6="171.73808"></scales>
<clustering>
<clus scale="   32.295">  3  5 -1 -1</clus>
<clus scale="   74.724">  2  4  1 -1</clus>
<clus scale="  171.738">  1  6  2 -1</clus>
<clus scale="   74.724">  2  3  1 -1</clus>
</clustering>
</event>
<event>
 6    0  0.1993420E+002  0.1596799E+03  0.7546771E-02  0.1189059E+00
          2   -1    0    0  505    0 -0.00000000000E+00  0.00000000000E+00  0.10529362935E+04  0.10529362935E+04  0.00000000000E+00 0. -1.
         21   -1    0    0  504  502  0.00000000000E+00 -0.00000000000E+00 -0.20559461597E+03  0.20559461597E+03  0.00000000000E+00 0. -1.
         21    1    1    2  503  501 -0.11757388483E+02  0.39929847430E+02  0.50001691882E+02  0.65059957661E+02  0.00000000000E+00 0.  1.
         21    1    1    2  504  503 -0.15919188830E+02  0.78337711221E+02  0.21287669748E+02  0.82724739079E+02  0.00000000000E+00 0. -1.
         21    1    1    2  505  502  0.36664904765E+02 -0.16102188264E+03 -0.12594685823E+03  0.20768960742E+03  0.00000000000E+00 0. -1.
          2    1    1    2  501    0 -0.89883274514E+01  0.42754323989E+02  0.90199917418E+03  0.90305660536E+03  0.00000000000E+00 0. -1.
<scales pt_clust_3="32.31079" pt_clust_4="32.31079" pt_clust_5="153.27338" pt_clust_6="43.68893"></scales>
<clustering>
<clus scale="   32.311">  3  4 -1 -1</clus>
<clus scale="   43.689">  1  6  2 -1</clus>
<clus scale="  153.273">  2  5  1 -1</clus>
<clus scale="  153.273">  2  3  1 -1</clus>
</clustering>
</event>
<event>
 6    0  0.1993420E+002  0.1676553E+03  0.7546771E-02  0.1180315E+00
         21   -1    0    0  503  502  0.00000000000E+00  0.00000000000E+00  0.62163655041E+03  0.62163655041E+03  0.00000000000E+00 0.  1.
         -2   -1    0    0    0  501 -0.00000000000E+00 -0.00000000000E+00 -0.12981107456E+04  0.12981107456E+04  0.00000000000E+00 0. -1.
         21    1    1    2  503  505 -0.33350934663E+02 -0.67723331915E+02  0.17223662803E+03  0.18805369064E+03  0.00000000000E+00 0.  1.
         21    1    1    2  504  501  0.13504185987E+03  0.11290970486E+03  0.35032381185E+02  0.17947750026E+03  0.00000000000E+00 0.  1.
         21    1    1    2  505  504 -0.15367827794E+03  0.30873794828E+02  0.31399177227E+03  0.35094306856E+03  0.00000000000E+00 0.  1.
         -2    1    1    2    0  502  0.51987352740E+02 -0.76060167774E+02 -0.11977349766E+04  0.12012730365E+04  0.00000000000E+00 0. -1.
<scales pt_clust_3="75.48996" pt_clust_4="167.65533" pt_clust_5="14000.00000" pt_clust_6="92.27844"></scales>
<clustering>
<clus scale="   75.490">  1  3  2 -1</clus>
<clus scale="   92.278">  2  6  1 -1</clus>
<clus scale="  167.655">  2  4  1 -1</clus>
<clus scale="   75.490">  1  3  2 -1</clus>
</clustering>
</event>
<event>
 6    0  0.1993420E+002  0.1021744E+03  0.7546771E-02  0.1275789E+00
         21   -1    0    0  503  502  0.00000000000E+00  0.00000000000E+00  0.33971035912E+03  0.33971035912E+03  0.00000000000E+00 0. -1.
         -1   -1    0    0    0  501 -0.00000000000E+00 -0.00000000000E+00 -0.18385910951E+03  0.18385910951E+03  0.00000000000E+00 0. -1.
         21    1    1    2  503  501  0.32378277409E+02  0.47214383215E+02  0.93081134173E+01  0.58001653474E+02  0.00000000000E+00 0. -1.
         21    1    1    2  504  505  0.36752165458E+02 -0.79830579837E+02  0.19405619326E+03  0.21302922167E+03  0.00000000000E+00 0. -1.
         21    1    1    2  505  502  0.42649638629E+02  0.55255320286E+01  0.73770408863E+02  0.85390844961E+02  0.00000000000E+00 0. -1.
         -1    1    1    2    0  504 -0.11178008150E+03  0.27090664594E+02 -0.12128346593E+03  0.16714774852E+03  0.00000000000E+00 0. -1.
<scales pt_clust_3="61.10101" pt_clust_4="102.17444" pt_clust_5="43.00608" pt_clust_6="14000.00000"></scales>
<clustering>
<clus scale="   43.006">  1  5  2 -1</clus>
<clus scale="   61.101">  2  3  1 -1</clus>
<clus scale="  102.174">  1  4  2 -1</clus>
<clus scale="   43.006">  1  3  2 -1</clus>
</clustering>
</event>
<event>
 6    0  0.1993420E+002  0.1415764E+03  0.7546771E-02  0.1211223E+00
         21   -1    0    0  503  502  0.00000000000E+00  0.00000000000E+00  0.33417465161E+03  0.33417465161E+03  0.00000000000E+00 0.  1.
          2   -1    0    0  504    0 -0.00000000000E+00 -0.00000000000E+00 -0.67037925259E+03  0.67037925259E+03  0.00000000000E+00 0. -1.
         21    1    1    2  503  505 -0.43564638389E+02 -0.37441982325E+02  0.11376150371E+03  0.12744198478E+03  0.00000000000E+00 0.  1.
         21    1    1    2  504  502  0.10745509995E+03 -0.88130292647E+01  0.31190756499E+02  0.11223694258E+03  0.00000000000E+00 0.  1.
         21    1    1    2  505  501 -0.94425064764E+02  0.39614786572E+01  0.12487270373E+03  0.15660452837E+03  0.00000000000E+00 0.  1.
          2    1    1    2  501    0  0.30534603206E+02  0.42293532932E+02 -0.60602956492E+03  0.60827044847E+03  0.00000000000E+00 0. -1.
<scales pt_clust_3="46.60860" pt_clust_4="128.33485" pt_clust_5="46.60860" pt_clust_6="52.16421"></scales>
<clustering>
<clus scale="   46.609">  3  5 -1 -1</clus>
<clus scale="   52.164">  2  6  1 -1</clus>
<clus scale="  128.335">  2  4  1 -1</clus>
<clus scale="  141.576">  1  3  2 -1</clus>
</clustering>
</event>
<event>
 6    0  0.1993420E+002  0.1905372E+03  0.7546771E-02  0.1157978E+00
          2   -1    0    0  505    0 -0.00000000000E+00  0.00000000000E+00  0.10660150170E+04  0.10660150170E+04  0.00000000000E+00 0. -1.
         21   -1    0    0  503  502  0.00000000000E+00 -0.00000000000E+00 -0.12226136163E+04  0.12226136163E+04  0.00000000000E+00 0.  1.
         21    1    1    2  503  501 -0.14742837333E+03 -0.14659160861E+03 -0.95396839167E+02  0.22874610794E+03  0.00000000000E+00 0.  1.
         21    1    1    2  504  502  0.14647581914E+03  0.11844393305E+03 -0.99989490566E+03  0.10174841292E+04  0.00000000000E+00 0.  1.
         21    1    1    2  505  504  0.16464137158E+02  0.59251592377E+02 -0.33198580052E+02  0.69885368490E+02  0.00000000000E+00 0.  1.
          2    1    1    2  501    0 -0.15511582968E+02 -0.31103916822E+02  0.97189172556E+03  0.97251302771E+03  0.00000000000E+00 0. -1.
<scales pt_clust_3="190.53724" pt_clust_4="14000.00000" pt_clust_5="54.83995" pt_clust_6="34.75720"></scales>
<clustering>
<clus scale="   34.757">  1  6  2 -1</clus>
<clus scale="   54.840">  1  5  2 -1</clus>
<clus scale="  190.537">  1  3  2 -1</clus>
<clus scale="  190.537">  2  3  1 -1</clus>
</clustering>
</event>
<event>
 6    0  0.1993420E+002  0.1434692E+03  0.7546771E-02  0.1208736E+00
          2   -1    0    0  503    0 -0.00000000000E+00  0.00000000000E+00  0.17331949016E+04  0.17331949016E+04  0.00000000000E+00 0.  1.
         21   -1    0    0  504  502  0.00000000000E+00 -0.00000000000E+00 -0.17528169338E+03  0.17528169338E+03  0.00000000000E+00 0. -1.
         21    1    1    2  503  505  0.19388317660E+03  0.28887898845E+02  0.28204082427E+03  0.34347084800E+03  0.00000000000E+00 0.  1.
         21    1    1    2  504  501 -0.10656383549E+03  0.50107767566E+02 -0.96137487144E+02  0.15201663014E+03  0.00000000000E+00 0. -1.
         21    1    1    2  505  502 -0.32870478476E+02 -0.37908312806E+02  0.12419893668E+02  0.51689092599E+02  0.00000000000E+00 0. -1.
          2    1    1    2  501    0 -0.54448862637E+02 -0.41087353605E+02  0.13595899774E+04  0.13613000243E+04  0.00000000000E+00 0.  1.
<scales pt_clust_3="143.46916" pt_clust_4="14000.00000" pt_clust_5="50.17478" pt_clust_6="68.48139"></scales>
<clustering>
<clus scale="   50.175">  2  5  1 -1</clus>
<clus scale="   68.481">  1  6  2 -1</clus>
<clus scale="  143.469">  1  3  2 -1</clus>
<clus scale="   50.175">  2  3  1 -1</clus>
</clustering>
</event>
<event>
 6    0  0.1993420E+002  0.1921689E+03  0.7546771E-02  0.1156520E+00
         21   -1    0    0  505  502  0.00000000000E+00  0.00000000000E+00  0.19720562364E+03  0.19720562364E+03  0.00000000000E+00 0.  1.
          2   -1    0    0  502    0 -0.00000000000E+00 -0.00000000000E+00 -0.55556951281E+03  0.55556951281E+03  0.00000000000E+00 0.  1.
         21    1    1    2  503  504  0.13812446391E+03  0.93430919561E+02 -0.60294853690E+02  0.17732223110E+03  0.00000000000E+00 0.  1.
         21    1    1    2  504  501 -0.17502834786E+03 -0.11679716627E+03 -0.19771232493E+03  0.28873285928E+03  0.00000000000E+00 0.  1.
         21    1    1    2  505  503  0.68177444188E+02 -0.60343828522E+01  0.77709414637E+02  0.10355351658E+03  0.00000000000E+00 0.  1.
          2    1    1    2  501    0 -0.31273560236E+02  0.29400629560E+02 -0.17806612519E+03  0.18316652950E+03  0.00000000000E+00 0.  1.
<scales pt_clust_3="192.16892" pt_clust_4="14000.00000" pt_clust_5="67.28727" pt_clust_6="42.92357"></scales>
<clustering>
<clus scale="   42.924">  2  6  1 -1</clus>
<clus scale="   67.287">  1  5  2 -1</clus>
<clus scale="  192.169">  1  3  2 -1</clus>
<clus scale="   67.287">  1  3  2 -1</clus>
</clustering>
</event>
<event>
 6    0  0.1993420E+002  0.8507705E+02  0.7546771E-02  0.1315231E+00
          3   -1    0    0  505    0 -0.00000000000E+00  0.00000000000E+00  0.13559025209E+04  0.13559025209E+04  0.00000000000E+00 0.  1.
         21   -1    0    0  501  502  0.00000000000E+00 -0.00000000000E+00 -0.15605327726E+03  0.15605327726E+03  0.00000000000E+00 0. -1.
         21    1    1    2  503  504 -0.66664438851E+02 -0.52230811869E+01 -0.26831431467E+02  0.72051049257E+02  0.00000000000E+00 0. -1.
         21    1    1    2  504  502 -0.13015613905E+02 -0.33819489648E+02 -0.25912669539E+02  0.44549192226E+02  0.00000000000E+00 0. -1.
         21    1    1    2  505  503  0.82969965911E+02  0.93496586210E+02 -0.15615351778E+02  0.12597406911E+03  0.00000000000E+00 0. -1.
          3    1    1    2  501    0 -0.32899131551E+01 -0.54454015375E+02  0.12682086964E+04  0.12693814876E+04  0.00000000000E+00 0.  1.
<scales pt_clust_3="14000.00000" pt_clust_4="36.23761" pt_clust_5="85.07705" pt_clust_6="54.72098"></scales>
<clustering>
<clus scale="   36.238">  2  4  1 -1</clus>
<clus scale="   54.721">  1  6  2 -1</clus>
<clus scale="   85.077">  1  5  2 -1</clus>
<clus scale="   36.238">  2  3  1 -1</clus>
</clustering>
</event>
<event>
 6    0  0.1993420E+002  0.1743290E+03  0.7546771E-02  0.1173407E+00
         21   -1    0    0  504  502  0.00000000000E+00  0.00000000000E+00  0.11555405930E+04  0.11555405930E+04  0.00000000000E+00 0. -1.
          2   -1    0    0  503    0 -0.00000000000E+00 -0.00000000000E+00 -0.18214983193E+04  0.18214983193E+04  0.00000000000E+00 0.  1.
         21    1    1    2  503  502  0.33871451404E+02  0.43327905573E+02  0.10849215963E+03  0.12163523882E+03  0.00000000000E+00 0. -1.
         21    1    1    2  504  505  0.10653154260E+03 -0.14236428109E+03  0.89351638352E+03  0.91103681908E+03  0.00000000000E+00 0. -1.
         21    1    1    2  505  501 -0.17415000962E+03  0.78626882451E+02  0.71823650569E+02  0.20412998132E+03  0.00000000000E+00 0.  1.
          2    1    1    2  501    0  0.33747015619E+02  0.20409493069E+02 -0.17397899200E+04  0.17402368730E+04  0.00000000000E+00 0.  1.
<scales pt_clust_3="57.98018" pt_clust_4="174.32902" pt_clust_5="14000.00000" pt_clust_6="39.43867"></scales>
<clustering>
<clus scale="   39.439">  2  6  1 -1</clus>
<clus scale="   57.980">  1  3  2 -1</clus>
<clus scale="  174.329">  1  4  2 -1</clus>
<clus scale="   57.980">  1  3  2 -1</clus>
</clustering>
</event>
<event>
 6    0  0.1993420E+002  0.9916901E+02  0.7546771E-02  0.1282053E+00
         -4   -1    0    0    0  501 -0.00000000000E+00  0.00000000000E+00  0.55494175059E+03  0.55494175059E+03  0.00000000000E+00 0.  1.
         21   -1    0    0  505  502  0.00000000000E+00 -0.00000000000E+00 -0.11915703407E+03  0.11915703407E+03  0.00000000000E+00 0.  1.
         21    1    1    2  503  502  0.27075028600E+02 -0.77478180534E+02 -0.79523209848E+01  0.82457049678E+02  0.00000000000E+00 0.  1.
         21    1    1    2  504  501 -0.42463390718E+02  0.88653048538E+01  0.33736036458E+02  0.54953192240E+02  0.00000000000E+00 0.  1.
         21    1    1    2  505  504 -0.15770173730E+02 -0.29779248681E+02 -0.52735422195E+02  0.62582160282E+02  0.00000000000E+00 0.  1.
         -4    1    1    2    0  503  0.31158535848E+02  0.98392124361E+02  0.46273642325E+03  0.47410638246E+03  0.00000000000E+00 0.  1.
<scales pt_clust_3="99.16901" pt_clust_4="45.33734" pt_clust_5="33.69721" pt_clust_6="14000.00000"></scales>
<clustering>
<clus scale="   33.697">  2  5  1 -1</clus>
<clus scale="   45.337">  2  4  1 -1</clus>
<clus scale="   99.169">  2  3  1 -1</clus>
<clus scale="   33.697">  2  3  1 -1</clus>
</clustering>
</event>
<event>
 6    0  0.1993420E+002  0.1440666E+03  0.7546771E-02  0.1207959E+00
          2   -1    0    0  505    0 -0.00000000000E+00  0.00000000000E+00  0.30076700558E+04  0.30076700558E+04  0.00000000000E+00 0. -1.
         21   -1    0    0  503  502  0.00000000000E+00 -0.00000000000E+00 -0.21703760228E+03  0.21703760228E+03  0.00000000000E+00 0.  1.
         21    1    1    2  503  504  0.26885509259E+02 -0.55106236374E+02 -0.51075731390E+02  0.79801367360E+02  0.00000000000E+00 0.  1.
         21    1    1    2  504  501  0.92819306794E+01 -0.76930894035E+02 -0.13681706025E+03  0.15723684259E+03  0.00000000000E+00 0.  1.
         21    1    1    2  505  502 -0.67246747380E+02  0.33345578089E+02  0.39472598975E+03  0.40179927775E+03  0.00000000000E+00 0.  1.
          2    1    1    2  501    0  0.31079307442E+02  0.98691552320E+02  0.25837992554E+04  0.25858701704E+04  0.00000000000E+00 0. -1.
<scales pt_clust_3="41.16473" pt_clust_4="41.16473" pt_clust_5="75.06033" pt_clust_6="136.43188"></scales>
<clustering>
<clus scale="   41.165">  3  4 -1 -1</clus>
<clus scale="   75.060">  1  5  2 -1</clus>
<clus scale="  136.432">  1  6  2 -1</clus>
<clus scale="  144.067">  2  3  1 -1</clus>
</clustering>
</event>
<event>
 6    0  0.1993420E+002  0.1951546E+03  0.7546771E-02  0.1153893E+00
          2   -1    0    0  505    0 -0.00000000000E+00  0.00000000000E+00  0.13813981512E+04  0.13813981512E+04  0.00000000000E+00 0. -1.
         21   -1    0    0  503  502  0.00000000000E+00 -0.00000000000E+00 -0.87708640914E+02  0.87708640914E+02  0.00000000000E+00 0. -1.
         21    1    1    2  503  501  0.21728253662E+02 -0.73305018258E+02  0.33438810384E+02  0.83449965541E+02  0.00000000000E+00 0.  1.
         21    1    1    2  504  502  0.12428789868E+03  0.81026655039E+02  0.27346131138E+03  0.31111716347E+03  0.00000000000E+00 0. -1.
         21    1    1    2  505  504  0.10123549926E+03 -0.11651504076E+03  0.32720433572E+03  0.36178316482E+03  0.00000000000E+00 0. -1.
          2    1    1    2  501    0 -0.24725165159E+03  0.10879340398E+03  0.65958505282E+03  0.71275649830E+03  0.00000000000E+00 0. -1.
<scales pt_clust_3="76.45746" pt_clust_4="143.50837" pt_clust_5="195.15458" pt_clust_6="14000.00000"></scales>
<clustering>
<clus scale="   76.457">  2  3  1 -1</clus>
<clus scale="  143.508">  2  4  1 -1</clus>
<clus scale="  195.155">  1  5  2 -1</clus>
<clus scale="   76.457">  2  3  1 -1</clus>
</clustering>
</event>
<event>
 6    0  0.1993420E+002  0.1196595E+03  0.7546771E-02  0.1243660E+00
         21   -1    0    0  503  502  0.00000000000E+00  0.00000000000E+00  0.16040063526E+02  0.16040063526E+02  0.00000000000E+00 0.  1.
          2   -1    0    0  505    0 -0.00000000000E+00 -0.00000000000E+00 -0.29183485873E+04  0.29183485873E+04  0.00000000000E+00 0.  1.
         21    1    1    2  503  504  0.39770996739E+02 -0.28828155732E+02 -0.11520977885E+03  0.12524411319E+03  0.00000000000E+00 0. -1.
         21    1    1    2  504  501  0.66180795068E+02  0.11258101264E+02 -0.12975408108E+03  0.14609162891E+03  0.00000000000E+00 0.  1.
         21    1    1    2  505  502  0.27163637704E+02  0.15401369925E+02 -0.95497077157E+03  0.95548115625E+03  0.00000000000E+00 0.  1.
          2    1    1    2  501    0 -0.13311542951E+03  0.21686845422E+01 -0.17023738923E+04  0.17075717525E+04  0.00000000000E+00 0.  1.
<scales pt_clust_3="38.75795" pt_clust_4="38.75795" pt_clust_5="31.22604" pt_clust_6="110.62144"></scales>
<clustering>
<clus scale="   31.226">  2  5  1 -1</clus>
<clus scale="   38.758">  3  4 -1 -1</clus>
<clus scale="  110.621">  2  6  1 -1</clus>
<clus scale="  119.660">  1  3  2 -1</clus>
</clustering>
</event>
<event>
 6    0  0.1993420E+002  0.3636970E+03  0.7546771E-02  0.1057130E+00
         21   -1    0    0  503  502  0.00000000000E+00  0.00000000000E+00  0.11397051515E+03  0.11397051515E+03  0.00000000000E+00 0.  1.
          2   -1    0    0  502    0 -0.00000000000E+00 -0.00000000000E+00 -0.33692761438E+04  0.33692761438E+04  0.00000000000E+00 0. -1.
         21    1    1    2  503  504 -0.31459522138E+03  0.14877849164E+03 -0.24181449170E+03  0.42376814567E+03  0.00000000000E+00 0.  1.
         21    1    1    2  504  505  0.20790262243E+03 -0.14266308412E+03 -0.74278153755E+03  0.78441103289E+03  0.00000000000E+00 0. -1.
         21    1    1    2  505  501  0.53466431216E+02 -0.23056522356E+02 -0.48471817574E+03  0.48820279842E+03  0.00000000000E+00 0. -1.
          2    1    1    2  501    0  0.53226167729E+02  0.16941114834E+02 -0.17859914236E+04  0.17868646819E+04  0.00000000000E+00 0. -1.
<scales pt_clust_3="339.50239" pt_clust_4="67.44834" pt_clust_5="67.44834" pt_clust_6="55.85720"></scales>
<clustering>
<clus scale="   55.857">  2  6  1 -1</clus>
<clus scale="   67.448">  4  5 -1 -1</clus>
<clus scale="  339.502">  1  3  2 -1</clus>
<clus scale="  339.502">  1  3  2 -1</clus>
</clustering>
</event>
<event>
 6    0  0.1993420E+002  0.2157929E+03  0.7546771E-02  0.1137059E+00
         21   -1    0    0  501  502  0.00000000000E+00  0.00000000000E+00  0.39284858171E+04  0.39284858171E+04  0.00000000000E+00 0. -1.
          4   -1    0    0  503    0 -0.00000000000E+00 -0.00000000000E+00 -0.14461276714E+03  0.14461276714E+03  0.00000000000E+00 0.  1.
         21    1    1    2  503  505 -0.10653956920E+02 -0.68426775477E+02  0.44081695386E+02  0.82090963378E+02  0.00000000000E+00 0. -1.
         21    1    1    2  504  502  0.29863552988E+01  0.20161987969E+03  0.34756625980E+04  0.34815068561E+04  0.00000000000E+00 0. -1.
         21    1    1    2  505  504 -0.12821481734E+03 -0.20506911669E+03  0.26088779831E+03  0.35574545016E+03  0.00000000000E+00 0.  1.
          4    1    1    2  501    0  0.13588241896E+03  0.71876012478E+02  0.32409582815E+01  0.15375531458E+03  0.00000000000E+00 0.  1.
<scales pt_clust_3="36.33119" pt_clust_4="204.83353" pt_clust_5="36.33119" pt_clust_6="153.72115"></scales>
<clustering>
<clus scale="   36.331">  3  5 -1 -1</clus>
<clus scale="  153.721">  2  6  1 -1</clus>
<clus scale="  204.834">  1  4  2 -1</clus>
<clus scale="  204.834">  1  3  2 -1</clus>
</clustering>
</event>
<event>
 6    0  0.1993420E+002  0.1332119E+03  0.7546771E-02  0.1222766E+00
         21   -1    0    0  503  502  0.00000000000E+00  0.00000000000E+00  0.91958741919E+02  0.91958741919E+02  0.00000000000E+00 0.  1.
         -2   -1    0    0    0  501 -0.00000000000E+00 -0.00000000000E+00 -0.30183224570E+04  0.30183224570E+04  0.00000000000E+00 0. -1.
         21    1    1    2  503  505 -0.38574366585E+02 -0.52955984949E+02 -0.33547853966E+02  0.73605547379E+02  0.00000000000E+00 0.  1.
         21    1    1    2  504  501  0.66522289031E+02 -0.21944014641E+02  0.19948958449E+02  0.72833478975E+02  0.00000000000E+00 0.  1.
         21    1    1    2  505  504  0.19027680841E+02 -0.41350872425E+02  0.27791284876E+01  0.45603408246E+02  0.00000000000E+00 0. -1.
         -2    1    1    2    0  502 -0.46975603287E+02  0.11625087202E+03 -0.29155439481E+04  0.29182387644E+04  0.00000000000E+00 0. -1.
<scales pt_clust_3="65.51579" pt_clust_4="37.68690" pt_clust_5="37.68690" pt_clust_6="124.73864"></scales>
<clustering>
<clus scale="   37.687">  4  5 -1 -1</clus>
<clus scale="   65.516">  1  3  2 -1</clus>
<clus scale="  124.739">  2  6  1 -1</clus>
<clus scale="   65.516">  1  3  2 -1</clus>
</clustering>
</event>
<event>
 6    0  0.1993420E+002  0.2104513E+03  0.7546771E-02  0.1141209E+00
         21   -1    0    0  505  502  0.00000000000E+00  0.00000000000E+00  0.51563085995E+03  0.51563085995E+03  0.00000000000E+00 0. -1.
          2   -1    0    0  503    0 -0.00000000000E+00 -0.00000000000E+00 -0.21758637981E+04  0.21758637981E+04  0.00000000000E+00 0. -1.
         21    1    1    2  503  502 -0.12370122942E+01  0.40107415310E+02 -0.24730043754E+02  0.47135019109E+02  0.00000000000E+00 0.  1.
         21    1    1    2  504  501 -0.30161167490E+02  0.70604805361E+02  0.16861040045E+03  0.18526791871E+03  0.00000000000E+00 0. -1.
         21    1    1    2  505  504 -0.47476242672E+02  0.81588472596E+02  0.31549652822E+03  0.32931555049E+03  0.00000000000E+00 0. -1.
          2    1    1    2  501    0  0.78874422456E+02 -0.19230069327E+03 -0.21196098230E+04  0.21297761697E+04  0.00000000000E+00 0. -1.
<scales pt_clust_3="40.12649" pt_clust_4="31.83787" pt_clust_5="31.83787" pt_clust_6="207.46924"></scales>
<clustering>
<clus scale="   31.838">  4  5 -1 -1</clus>
<clus scale="   40.126">  1  3  2 -1</clus>
<clus scale="  207.469">  2  6  1 -1</clus>
<clus scale="   40.126">  1  3  2 -1</clus>
</clustering>
</event>
<event>
 6    0  0.1993420E+002  0.9598208E+02  0.7546771E-02  0.1288979E+00
         21   -1    0    0  503  502  0.00000000000E+00  0.00000000000E+00  0.92236577308E+02  0.92236577308E+02  0.00000000000E+00 0.  1.
          3   -1    0    0  504    0 -0.00000000000E+00 -0.00000000000E+00 -0.20966881718E+04  0.20966881718E+04  0.00000000000E+00 0.  1.
         21    1    1    2  503  505  0.16111598902E+02 -0.67189931226E+02  0.23955438574E+02  0.73129566624E+02  0.00000000000E+00 0.  1.
         21    1    1    2  504  502 -0.43280189005E+02 -0.11072865471E+02 -0.27049299815E+02  0.52224972289E+02  0.00000000000E+00 0.  1.
         21    1    1    2  505  501  0.10737703061E+03  0.24142569510E+02 -0.71402008035E+02  0.13119046123E+03  0.00000000000E+00 0.  1.
          3    1    1    2  501    0 -0.80208440511E+02  0.54120227187E+02 -0.19299557252E+04  0.19323797490E+04  0.00000000000E+00 0.  1.
<scales pt_clust_3="74.64764" pt_clust_4="44.67419" pt_clust_5="95.98208" pt_clust_6="14000.00000"></scales>
<clustering>
<clus scale="   44.674">  1  4  2 -1</clus>
<clus scale="   74.648">  1  3  2 -1</clus>
<clus scale="   95.982">  1  5  2 -1</clus>
<clus scale="   44.674">  1  3  2 -1</clus>
</clustering>
</event>
<event>
 6    0  0.1993420E+002  0.1201281E+03  0.7546771E-02  0.1242886E+00
         21   -1    0    0  503  502  0.00000000000E+00  0.00000000000E+00  0.64622179256E+03  0.64622179256E+03  0.00000000000E+00 0. -1.
          1   -1    0    0  504    0 -0.00000000000E+00 -0.00000000000E+00 -0.21581107511E+03  0.21581107511E+03  0.00000000000E+00 0. -1.
         21    1    1    2  503  501 -0.92023659849E+02 -0.63872928249E+02  0.33126616303E+03  0.34969325945E+03  0.00000000000E+00 0. -1.
         21    1    1    2  504  505 -0.31922209055E+02  0.64357831966E+01  0.18626141831E+02  0.37515062253E+02  0.00000000000E+00 0.  1.
         21    1    1    2  505  502  0.52091125071E+02  0.15921553084E+03  0.22725858681E+03  0.28232877263E+03  0.00000000000E+00 0. -1.
          1    1    1    2  501    0  0.71854743833E+02 -0.10177838579E+03 -0.14674017422E+03  0.19249577335E+03  0.00000000000E+00 0. -1.
<scales pt_clust_3="14000.00000" pt_clust_4="32.56450" pt_clust_5="120.12807" pt_clust_6="106.72852"></scales>
<clustering>
<clus scale="   32.565">  2  4  1 -1</clus>
<clus scale="  106.729">  2  6  1 -1</clus>
<clus scale="  120.128">  2  5  1 -1</clus>
<clus scale="  120.128">  1  3  2 -1</clus>
</clustering>
</event>
<event>
 6    0  0.1993420E+002  0.2199945E+03  0.7546771E-02  0.1133887E+00
         21   -1    0    0  501  502  0.00000000000E+00  0.00000000000E+00  0.91172446551E+02  0.91172446551E+02  0.00000000000E+00 0. -1.
          1   -1    0    0  505    0 -0.00000000000E+00 -0.00000000000E+00 -0.22407153351E+04  0.22407153351E+04  0.00000000000E+00 0. -1.
         21    1    1    2  503  504  0.62532135705E+02  0.34194548307E+02 -0.12198544925E+03  0.14127981087E+03  0.00000000000E+00 0. -1.
         21    1    1    2  504  502  0.16051251128E+02  0.38681859510E+02 -0.49228691013E+02  0.64632754365E+02  0.00000000000E+00 0. -1.
         21    1    1    2  505  503 -0.10768970263E+03  0.15064596578E+03 -0.60304148945E+02  0.19475078803E+03  0.00000000000E+00 0. -1.
          1    1    1    2  501    0  0.29106315799E+02 -0.22352237360E+03 -0.19180245994E+04  0.19312244284E+04  0.00000000000E+00 0. -1.
<scales pt_clust_3="114.39276" pt_clust_4="30.65655" pt_clust_5="219.99453" pt_clust_6="14000.00000"></scales>
<clustering>
<clus scale="   30.657">  3  4 -1 -1</clus>
<clus scale="  114.393">  1  3  2 -1</clus>
<clus scale="  219.995">  1  5  2 -1</clus>
<clus scale="  114.393">  1  3  2 -1</clus>
</clustering>
</event>
<event>
 6    0  0.1993420E+002  0.1805701E+03  0.7546771E-02  0.1167252E+00
         21   -1    0    0  503  502  0.00000000000E+00  0.00000000000E+00  0.39216820184E+03  0.39216820184E+03  0.00000000000E+00 0. -1.
          2   -1    0    0  505    0 -0.00000000000E+00 -0.00000000000E+00 -0.65464901647E+03  0.65464901647E+03  0.00000000000E+00 0.  1.
         21    1    1    2  503  501  0.58890313013E+01  0.62126997956E+02  0.70776627394E+01  0.62805556080E+02  0.00000000000E+00 0. -1.
         21    1    1    2  504  502 -0.62042355697E+02 -0.19719007593E+02  0.15383832927E+03  0.16704587607E+03  0.00000000000E+00 0. -1.
         21    1    1    2  505  504 -0.11031665312E+03  0.10270399279E+02  0.16749125051E+03  0.20081973024E+03  0.00000000000E+00 0. -1.
          2    1    1    2  501    0  0.16646997751E+03 -0.52678389642E+02 -0.59088805714E+03  0.61614605592E+03  0.00000000000E+00 0.  1.
<scales pt_clust_3="62.40549" pt_clust_4="36.56568" pt_clust_5="36.56568" pt_clust_6="174.15524"></scales>
<clustering>
<clus scale="   36.566">  4  5 -1 -1</clus>
<clus scale="   62.405">  1  3  2 -1</clus>
<clus scale="  174.155">  2  6  1 -1</clus>
<clus scale="   62.405">  1  3  2 -1</clus>
</clustering>
</event>
<event>
 6    0  0.1993420E+002  0.1445705E+03  0.7546771E-02  0.1207308E+00
         21   -1    0    0  505  502  0.00000000000E+00  0.00000000000E+00  0.91312466802E+03  0.91312466802E+03  0.00000000000E+00 0.  1.
          2   -1    0    0  504    0 -0.00000000000E+00 -0.00000000000E+00 -0.42864636670E+03  0.42864636670E+03  0.00000000000E+00 0. -1.
         21    1    1    2  503  501  0.43013419160E+02 -0.36215009375E+02  0.36361609669E+03  0.36793796610E+03  0.00000000000E+00 0.  1.
         21    1    1    2  504  502  0.41900905206E+02  0.38171457165E+02  0.18875104228E+03  0.19707790835E+03  0.00000000000E+00 0.  1.
         21    1    1    2  505  503  0.55900910058E+02 -0.33082744450E+01  0.34034201495E+03  0.34491816938E+03  0.00000000000E+00 0.  1.
          2    1    1    2  501    0 -0.14081523442E+03  0.13518266550E+01 -0.40823085260E+03  0.43183699089E+03  0.00000000000E+00 0. -1.
<scales pt_clust_3="35.43379" pt_clust_4="56.68109" pt_clust_5="35.43379" pt_clust_6="140.14250"></scales>
<clustering>
<clus scale="   35.434">  3  5 -1 -1</clus>
<clus scale="   56.681">  1  4  2 -1</clus>
<clus scale="  140.142">  2  6  1 -1</clus>
<clus scale="   56.681">  1  3  2 -1</clus>
</clustering>
</event>
<event>
 6    0  0.1993420E+002  0.1947085E+03  0.7546771E-02  0.1154282E+00
          2   -1    0    0  502    0 -0.00000000000E+00  0.00000000000E+00  0.12901473228E+04  0.12901473228E+04  0.00000000000E+00 0.  1.
         21   -1    0    0  505  502  0.00000000000E+00 -0.00000000000E+00 -0.33731540180E+03  0.33731540180E+03  0.00000000000E+00 0.  1.
         21    1    1    2  503  501 -0.38525597288E+02  0.45884146979E+02  0.19898682508E+02  0.63131087080E+02  0.00000000000E+00 0.  1.
         21    1    1    2  504  503 -0.15067503488E+03  0.66496615857E+01 -0.29072087601E+02  0.15359808076E+03  0.00000000000E+00 0.  1.
         21    1    1    2  505  504  0.16646488836E+03  0.26527658959E+02 -0.19102956993E+03  0.25476768307E+03  0.00000000000E+00 0.  1.
          2    1    1    2  501    0  0.22735743808E+02 -0.79061467523E+02  0.11530348961E+04  0.11559658737E+04  0.00000000000E+00 0.  1.
<scales pt_clust_3="57.52673" pt_clust_4="57.52673" pt_clust_5="171.99042" pt_clust_6="82.26560"></scales>
<clustering>
<clus scale="   57.527">  3  4 -1 -1</clus>
<clus scale="   82.266">  1  6  2 -1</clus>
<clus scale="  171.990">  2  5  1 -1</clus>
<clus scale="  171.990">  2  3  1 -1</clus>
</clustering>
</event>
<event>
 6    0  0.1993420E+002  0.1007719E+03  0.7546771E-02  0.1278681E+00
          1   -1    0    0  505    0 -0.00000000000E+00  0.00000000000E+00  0.28166487861E+04  0.28166487861E+04  0.00000000000E+00 0. -1.
         21   -1    0    0  504  502  0.00000000000E+00 -0.00000000000E+00 -0.50311870703E+02  0.50311870703E+02  0.00000000000E+00 0. -1.
         21    1    1    2  503  501  0.21273666100E+02  0.10266802852E+03  0.48206983131E+02  0.11540020005E+03  0.00000000000E+00 0. -1.
         21    1    1    2  504  503  0.14180426299E+02  0.34903302959E+02  0.76882745693E+02  0.85617063911E+02  0.00000000000E+00 0. -1.
         21    1    1    2  505  502 -0.56112139583E+02 -0.38806588949E+02  0.91168889198E+02  0.11386961804E+03  0.00000000000E+00 0.  1.
          1    1    1    2  501    0  0.20658047184E+02 -0.98764742532E+02  0.25500782974E+04  0.25520737748E+04  0.00000000000E+00 0. -1.
<scales pt_clust_3="100.77190" pt_clust_4="37.67393" pt_clust_5="60.65288" pt_clust_6="14000.00000"></scales>
<clustering>
<clus scale="   37.674">  2  4  1 -1</clus>
<clus scale="   60.653">  2  5  1 -1</clus>
<clus scale="  100.772">  2  3  1 -1</clus>
<clus scale="   37.674">  2  3  1 -1</clus>
</clustering>
</event>
<event>
 6    0  0.1993420E+002  0.1011512E+03  0.7546771E-02  0.1277894E+00
         21   -1    0    0  503  502  0.00000000000E+00  0.00000000000E+00  0.24013170522E+04  0.24013170522E+04  0.00000000000E+00 0. -1.
         -2   -1    0    0    0  501 -0.00000000000E+00 -0.00000000000E+00 -0.53172633239E+03  0.53172633239E+03  0.00000000000E+00 0.  1.
         21    1    1    2  503  501  0.28821754123E+01 -0.10624701069E+03  0.21303752119E+04  0.21330249126E+04  0.00000000000E+00 0. -1.
         21    1    1    2  504  505 -0.11562309575E+02  0.12317074062E+03  0.11140811261E+03  0.16648268950E+03  0.00000000000E+00 0.  1.
         21    1    1    2  505  502 -0.49101464468E+02  0.18053936285E+02  0.12304949493E+03  0.13370892502E+03  0.00000000000E+00 0.  1.
         -2    1    1    2    0  504  0.57781598631E+02 -0.34977666222E+02 -0.49524209960E+03  0.49982685751E+03  0.00000000000E+00 0.  1.
<scales pt_clust_3="101.15121" pt_clust_4="14000.00000" pt_clust_5="52.31537" pt_clust_6="67.49190"></scales>
<clustering>
<clus scale="   52.315">  1  5  2 -1</clus>
<clus scale="   67.492">  2  6  1 -1</clus>
<clus scale="  101.151">  1  3  2 -1</clus>
<clus scale="   52.315">  1  3  2 -1</clus>
</clustering>
</event>
<event>
 6    0  0.1993420E+002  0.1551014E+03  0.7546771E-02  0.1194341E+00
          2   -1    0    0  504    0 -0.00000000000E+00  0.00000000000E+00  0.17388929618E+04  0.17388929618E+04  0.00000000000E+00 0.  1.
         21   -1    0    0  503  502  0.00000000000E+00 -0.00000000000E+00 -0.12863709637E+03  0.12863709637E+03  0.00000000000E+00 0.  1.
         21    1    1    2  503  505 -0.19141769948E+03  0.46289652131E+02 -0.15132397529E+02  0.19751571336E+03  0.00000000000E+00 0.  1.
         21    1    1    2  504  502  0.34800682875E+02 -0.19999639310E+02  0.22582987208E+02  0.46055015062E+02  0.00000000000E+00 0. -1.
         21    1    1    2  505  501  0.12437844710E+03  0.26543760594E+02  0.40372909350E+03  0.42328684160E+03  0.00000000000E+00 0. -1.
          2    1    1    2  501    0  0.32238569508E+02 -0.52833773415E+02  0.11990761823E+04  0.12006724882E+04  0.00000000000E+00 0.  1.
<scales pt_clust_3="14000.00000" pt_clust_4="40.13818" pt_clust_5="155.10143" pt_clust_6="62.13338"></scales>
<clustering>
<clus scale="   40.138">  2  4  1 -1</clus>
<clus scale="   62.133">  1  6  2 -1</clus>
<clus scale="  155.101">  1  5  2 -1</clus>
<clus scale="   40.138">  2  3  1 -1</clus>
</clustering>
</event>
<event>
 6    0  0.1993420E+002  0.1333684E+03  0.7546771E-02  0.1222542E+00
          2   -1    0    0  505    0 -0.00000000000E+00  0.00000000000E+00  0.22481244207E+03  0.22481244207E+03  0.00000000000E+00 0.  1.
         21   -1    0    0  501  502  0.00000000000E+00 -0.00000000000E+00 -0.23823987777E+03  0.23823987777E+03  0.00000000000E+00 0. -1.
         21    1    1    2  503  502  0.19226686504E+01  0.35378053556E+02 -0.81214587643E+02  0.88606504130E+02  0.00000000000E+00 0. -1.
         21    1    1    2  504  503  0.60562771284E+02 -0.15524865115E+02 -0.39164097358E+02  0.73774638083E+02  0.00000000000E+00 0. -1.
         21    1    1    2  505  504  0.59808306024E+02  0.20920183829E+02 -0.61669583888E+02  0.88418466045E+02  0.00000000000E+00 0. -1.
          2    1    1    2  501    0 -0.12229374596E+03 -0.40773372269E+02  0.16862083319E+03  0.21225271158E+03  0.00000000000E+00 0.  1.
<scales pt_clust_3="35.43026" pt_clust_4="37.21155" pt_clust_5="37.21155" pt_clust_6="127.14658"></scales>
<clustering>
<clus scale="   35.430">  2  3  1 -1</clus>
<clus scale="   37.212">  4  5 -1 -1</clus>
<clus scale="  127.147">  1  6  2 -1</clus>
<clus scale="   35.430">  2  3  1 -1</clus>
</clustering>
</event>
<event>
 6    0  0.1993420E+002  0.1336528E+03  0.7546771E-02  0.1222134E+00
         21   -1    0    0  505  502  0.00000000000E+00  0.00000000000E+00  0.32431819668E+02  0.32431819668E+02  0.00000000000E+00 0.  1.
          2   -1    0    0  503    0 -0.00000000000E+00 -0.00000000000E+00 -0.12352137680E+04  0.12352137680E+04  0.00000000000E+00 0. -1.
         21    1    1    2  503  504  0.50973985476E+02 -0.80251399609E+02 -0.11588644012E+03  0.14989430055E+03  0.00000000000E+00 0.  1.
         21    1    1    2  504  502  0.91633563108E+01 -0.61810388366E+02 -0.11121107438E+03  0.12756329517E+03  0.00000000000E+00 0.  1.
         21    1    1    2  505  501 -0.13063214794E+02  0.28397768453E+02 -0.76706715562E+02  0.82831159874E+02  0.00000000000E+00 0. -1.
          2    1    1    2  501    0 -0.47074126993E+02  0.11366401952E+03 -0.89897771832E+03  0.90735683212E+03  0.00000000000E+00 0. -1.
<scales pt_clust_3="33.63612" pt_clust_4="33.63612" pt_clust_5="31.25829" pt_clust_6="127.48214"></scales>
<clustering>
<clus scale="   31.258">  1  5  2 -1</clus>
<clus scale="   33.636">  3  4 -1 -1</clus>
<clus scale="  127.482">  2  6  1 -1</clus>
<clus scale="   31.258">  1  3  2 -1</clus>
</clustering>
</event>
<event>
 6    0  0.1993420E+002  0.9563356E+02  0.7546771E-02  0.1289755E+00
         21   -1    0    0  505  502  0.00000000000E+00  0.00000000000E+00  0.38111228208E+03  0.38111228208E+03  0.00000000000E+00 0. -1.
          2   -1    0    0  504    0 -0.00000000000E+00 -0.00000000000E+00 -0.38420282545E+03  0.38420282545E+03  0.00000000000E+00 0.  1.
         21    1    1    2  503  502 -0.32070037230E+02 -0.36655306815E+02  0.77566723368E+02  0.91589821376E+02  0.00000000000E+00 0. -1.
         21    1    1    2  504  503  0.10456928054E+02 -0.66171703404E+02  0.24102588937E+03  0.25016298892E+03  0.00000000000E+00 0. -1.
         21    1    1    2  505  501  0.63850138423E+02  0.16070968867E+02  0.19763228001E+02  0.68743737154E+02  0.00000000000E+00 0. -1.
          2    1    1    2  501    0 -0.42237029247E+02  0.86756041352E+02 -0.34144638411E+03  0.35481856008E+03  0.00000000000E+00 0.  1.
<scales pt_clust_3="48.70420" pt_clust_4="95.63356" pt_clust_5="60.00789" pt_clust_6="14000.00000"></scales>
<clustering>
<clus scale="   48.704">  1  3  2 -1</clus>
<clus scale="   60.008">  1  5  2 -1</clus>
<clus scale="   95.634">  1  4  2 -1</clus>
<clus scale="   48.704">  1  3  2 -1</clus>
</clustering>
</event>
<event>
 6    0  0.1993420E+002  0.1531162E+03  0.7546771E-02  0.1196695E+00
         21   -1    0    0  501  502  0.00000000000E+00  0.00000000000E+00  0.99930902584E+03  0.99930902584E+03  0.00000000000E+00 0.  1.
         -2   -1    0    0    0  501 -0.00000000000E+00 -0.00000000000E+00 -0.85079832277E+02  0.85079832277E+02  0.00000000000E+00 0.  1.
         21    1    1    2  503  505  0.42220862122E+02 -0.61466565470E+02  0.27226365767E+03  0.28229105398E+03  0.00000000000E+00 0.  1.
         21    1    1    2  504  503  0.92314001796E+02 -0.14766231473E+02  0.43823593346E+03  0.44809669704E+03  0.00000000000E+00 0.  1.
         21    1    1    2  505  502 -0.30110653259E+02 -0.99420144997E+01  0.21575977751E+03  0.21807745569E+03  0.00000000000E+00 0. -1.
         -2    1    1    2    0  504 -0.10442421066E+03  0.86174811443E+02 -0.12030175076E+02  0.13592365141E+03  0.00000000000E+00 0.  1.
<scales pt_clust_3="66.30809" pt_clust_4="66.30809" pt_clust_5="31.70954" pt_clust_6="136.74448"></scales>
<clustering>
<clus scale="   31.710">  1  5  2 -1</clus>
<clus scale="   66.308">  3  4 -1 -1</clus>
<clus scale="  136.744">  2  6  1 -1</clus>
<clus scale="   31.710">  1  3  2 -1</clus>
</clustering>
</event>
<event>
 6    0  0.1993420E+002  0.2282920E+03  0.7546771E-02  0.1127848E+00
          1   -1    0    0  503    0 -0.00000000000E+00  0.00000000000E+00  0.23741736306E+04  0.23741736306E+04  0.00000000000E+00 0.  1.
         21   -1    0    0  504  502  0.00000000000E+00 -0.00000000000E+00 -0.68554680289E+02  0.68554680289E+02  0.00000000000E+00 0. -1.
         21    1    1    2  503  505  0.35809565759E+02  0.22780798912E+02  0.63011527637E+02  0.75971984403E+02  0.00000000000E+00 0. -1.
         21    1    1    2  504  501 -0.27233806580E+03 -0.12214795554E+03  0.51262658039E+03  0.59318981452E+03  0.00000000000E+00 0. -1.
         21    1    1    2  505  502  0.50116433993E+02  0.13831288222E+03  0.33810988031E+03  0.36872808614E+03  0.00000000000E+00 0. -1.
          1    1    1    2  501    0  0.18641206605E+03 -0.38945725584E+02  0.13918709620E+04  0.14048384258E+04  0.00000000000E+00 0.  1.
<scales pt_clust_3="31.89114" pt_clust_4="220.43577" pt_clust_5="31.89114" pt_clust_6="190.43694"></scales>
<clustering>
<clus scale="   31.891">  3  5 -1 -1</clus>
<clus scale="  190.437">  1  6  2 -1</clus>
<clus scale="  220.436">  1  4  2 -1</clus>
<clus scale="  228.292">  2  3  1 -1</clus>
</clustering>
</event>
<event>
 6    0  0.1993420E+002  0.9033765E+02  0.7546771E-02  0.1302036E+00
          2   -1    0    0  505    0 -0.00000000000E+00  0.00000000000E+00  0.20291589114E+02  0.20291589114E+02  0.00000000000E+00 0. -1.
         21   -1    0    0  504  502  0.00000000000E+00 -0.00000000000E+00 -0.36633204757E+04  0.36633204757E+04  0.00000000000E+00 0. -1.
         21    1    1    2  503  501  0.17691452210E+02 -0.40091742322E+02 -0.32092650249E+03  0.32390454657E+03  0.00000000000E+00 0. -1.
         21    1    1    2  504  503 -0.16785797579E+02 -0.28787359050E+02 -0.45975132393E+03  0.46095743285E+03  0.00000000000E+00 0. -1.
         21    1    1    2  505  502  0.82979147742E+02  0.99641110125E+02 -0.27593578450E+04  0.27624028683E+04  0.00000000000E+00 0. -1.
          2    1    1    2  501    0 -0.83884802373E+02 -0.30762008754E+02 -0.10299321513E+03  0.13634721712E+03  0.00000000000E+00 0. -1.
<scales pt_clust_3="45.87108" pt_clust_4="33.32379" pt_clust_5="90.33765" pt_clust_6="14000.00000"></scales>
<clustering>
<clus scale="   33.324">  2  4  1 -1</clus>
<clus scale="   45.871">  2  3  1 -1</clus>
<clus scale="   90.338">  2  5  1 -1</clus>
<clus scale="   33.324">  2  3  1 -1</clus>
</clustering>
</event>
<event>
 6    0  0.1993420E+002  0.7572512E+02  0.7546771E-02  0.1341640E+00
         21   -1    0    0  503  502  0.00000000000E+00  0.00000000000E+00  0.10134633836E+03  0.10134633836E+03  0.00000000000E+00 0.  1.
          2   -1    0    0  504    0 -0.00000000000E+00 -0.00000000000E+00 -0.53050801654E+03  0.53050801654E+03  0.00000000000E+00 0.  1.
         21    1    1    2  503  505  0.67348307074E+02 -0.25526414703E+02  0.20734535094E+02  0.74948737540E+02  0.00000000000E+00 0.  1.
         21    1    1    2  504  502 -0.83627257276E+02  0.24165252079E+02 -0.58170911362E+02  0.10469638244E+03  0.00000000000E+00 0.  1.
         21    1    1    2  505  501  0.52605030519E+02  0.32981343332E+02 -0.47739709033E+01  0.62272377842E+02  0.00000000000E+00 0.  1.
          2    1    1    2  501    0 -0.36326080316E+02 -0.31620180709E+02 -0.38695133101E+03  0.38993685708E+03  0.00000000000E+00 0.  1.
<scales pt_clust_3="14000.00000" pt_clust_4="75.72512" pt_clust_5="50.89376" pt_clust_6="48.16036"></scales>
<clustering>
<clus scale="   48.160">  2  6  1 -1</clus>
<clus scale="   50.894">  2  5  1 -1</clus>
<clus scale="   75.725">  2  4  1 -1</clus>
<clus scale="   75.725">  1  3  2 -1</clus>
</clustering>
</event>
<event>
 6    0  0.1993420E+002  0.9346095E+02  0.7546771E-02  0.1294681E+00
         -1   -1    0    0    0  501 -0.00000000000E+00  0.00000000000E+00  0.14162294409E+04  0.14162294409E+04  0.00000000000E+00 0.  1.
         21   -1    0    0  505  502  0.00000000000E+00 -0.00000000000E+00 -0.58367024130E+02  0.58367024130E+02  0.00000000000E+00 0.  1.
         21    1    1    2  503  502  0.19485601272E+02  0.34903200567E+02  0.50849738896E+02  0.64680893721E+02  0.00000000000E+00 0.  1.
         21    1    1    2  504  501  0.75044908839E+02  0.41979590397E+01  0.16523355093E+01  0.75180392493E+02  0.00000000000E+00 0.  1.
         21    1    1    2  505  504 -0.31098220815E+00 -0.43946000497E+02  0.24324086483E+02  0.50229561543E+02  0.00000000000E+00 0.  1.
         -1    1    1    2    0  503 -0.94219527903E+02  0.48448408902E+01  0.12810362559E+04  0.12845056173E+04  0.00000000000E+00 0.  1.
<scales pt_clust_3="39.97402" pt_clust_4="14000.00000" pt_clust_5="35.45815" pt_clust_6="93.46095"></scales>
<clustering>
<clus scale="   39.974">  2  3  1 -1</clus>
<clus scale="   35.458">  2  5  1 -1</clus>
<clus scale="   93.461">  1  6  2 -1</clus>
<clus scale="   39.974">  2  3  1 -1</clus>
</clustering>
</event>
<event>
 6    0  0.1993420E+002  0.2357536E+03  0.7546771E-02  0.1122654E+00
          1   -1    0    0  505    0 -0.00000000000E+00  0.00000000000E+00  0.11079432329E+04  0.11079432329E+04  0.00000000000E+00 0.  1.
         21   -1    0    0  504  502  0.00000000000E+00 -0.00000000000E+00 -0.76544787397E+02  0.76544787397E+02  0.00000000000E+00 0.  1.
         21    1    1    2  503  502  0.65032943417E+02  0.16419610869E+03  0.38833922915E+03  0.42661106729E+03  0.00000000000E+00 0.  1.
         21    1    1    2  504  501  0.42071554215E+02  0.62399576689E+01 -0.77292382786E+01  0.43228391945E+02  0.00000000000E+00 0.  1.
         21    1    1    2  505  503  0.17140458910E+02  0.34141109503E+02  0.20635863553E+03  0.20986494979E+03  0.00000000000E+00 0. -1.
          1    1    1    2  501    0 -0.12424495654E+03 -0.20457717586E+03  0.44442981908E+03  0.50478361126E+03  0.00000000000E+00 0.  1.
<scales pt_clust_3="34.00621" pt_clust_4="42.53179" pt_clust_5="34.00621" pt_clust_6="224.12878"></scales>
<clustering>
<clus scale="   34.006">  3  5 -1 -1</clus>
<clus scale="   42.532">  2  4  1 -1</clus>
<clus scale="  224.129">  2  6  1 -1</clus>
<clus scale="   42.532">  2  3  1 -1</clus>
</clustering>
</event>
<event>
 6    0  0.1993420E+002  0.2427092E+03  0.7546771E-02  0.1118001E+00
         21   -1    0    0  503  502  0.00000000000E+00  0.00000000000E+00  0.23010506615E+04  0.23010506615E+04  0.00000000000E+00 0. -1.
         -1   -1    0    0    0  501 -0.00000000000E+00 -0.00000000000E+00 -0.65456936285E+03  0.65456936285E+03  0.00000000000E+00 0.  1.
         21    1    1    2  503  505  0.65115784191E+02  0.12370623464E+03  0.12413197764E+04  0.12491669565E+04  0.00000000000E+00 0. -1.
         21    1    1    2  504  502 -0.58789658180E+02 -0.24117688866E+03  0.50165176157E+03  0.55971153768E+03  0.00000000000E+00 0. -1.
         21    1    1    2  505  501  0.17432187504E+02  0.91913119642E+02  0.52046213703E+03  0.52880311913E+03  0.00000000000E+00 0. -1.
         -1    1    1    2    0  504 -0.23758313515E+02  0.25557534373E+02 -0.61695237642E+03  0.61793841100E+03  0.00000000000E+00 0.  1.
<scales pt_clust_3="52.13041" pt_clust_4="234.33211" pt_clust_5="52.13041" pt_clust_6="34.89477"></scales>
<clustering>
<clus scale="   34.895">  2  6  1 -1</clus>
<clus scale="   52.130">  3  5 -1 -1</clus>
<clus scale="  234.332">  2  4  1 -1</clus>
<clus scale="  242.709">  1  3  2 -1</clus>
</clustering>
</event>
<event>
 6    0  0.1993420E+002  0.1012535E+03  0.7546771E-02  0.1277682E+00
         -4   -1    0    0    0  501 -0.00000000000E+00  0.00000000000E+00  0.21194125251E+03  0.21194125251E+03  0.00000000000E+00 0. -1.
         21   -1    0    0  504  502  0.00000000000E+00 -0.00000000000E+00 -0.51801788991E+03  0.51801788991E+03  0.00000000000E+00 0.  1.
         21    1    1    2  503  501 -0.44253022950E+02 -0.22798698239E+02 -0.78805954348E+01  0.50400540334E+02  0.00000000000E+00 0.  1.
         21    1    1    2  504  503 -0.12158426467E+02 -0.76497686086E+02 -0.36088996410E+03  0.36910877732E+03  0.00000000000E+00 0.  1.
         21    1    1    2  505  502  0.51303630896E+02 -0.20828141511E+02 -0.96317835260E+02  0.11109905225E+03  0.00000000000E+00 0.  1.
         -4    1    1    2    0  505  0.51078185208E+01  0.12012452584E+03  0.15901175739E+03  0.19935077252E+03  0.00000000000E+00 0. -1.
<scales pt_clust_3="49.78063" pt_clust_4="14000.00000" pt_clust_5="54.13330" pt_clust_6="101.25349"></scales>
<clustering>
<clus scale="   49.781">  1  3  2 -1</clus>
<clus scale="   54.133">  2  5  1 -1</clus>
<clus scale="  101.253">  1  6  2 -1</clus>
<clus scale="   54.133">  2  3  1 -1</clus>
</clustering>
</event>
<event>
 6    0  0.1993420E+002  0.8877535E+02  0.7546771E-02  0.1305845E+00
         21   -1    0    0  503  502  0.00000000000E+00  0.00000000000E+00  0.29622288224E+03  0.29622288224E+03  0.00000000000E+00 0.  1.
          1   -1    0    0  505    0 -0.00000000000E+00 -0.00000000000E+00 -0.23420183034E+04  0.23420183034E+04  0.00000000000E+00 0.  1.
         21    1    1    2  503  501 -0.91655970219E+02  0.61308736018E+02  0.13303879349E+03  0.17279727591E+03  0.00000000000E+00 0.  1.
         21    1    1    2  504  502  0.64598244291E+02 -0.40884215863E+02  0.11664608908E+03  0.13946599001E+03  0.00000000000E+00 0.  1.
         21    1    1    2  505  504  0.54731512098E+02 -0.52501210391E+01 -0.34784887030E+02  0.65062205259E+02  0.00000000000E+00 0.  1.
          1    1    1    2  501    0 -0.27673786170E+02 -0.15174399116E+02 -0.22606954167E+04  0.22609157145E+04  0.00000000000E+00 0.  1.
<scales pt_clust_3="14000.00000" pt_clust_4="88.77535" pt_clust_5="40.43887" pt_clust_6="31.56107"></scales>
<clustering>
<clus scale="   31.561">  2  6  1 -1</clus>
<clus scale="   40.439">  2  5  1 -1</clus>
<clus scale="   88.775">  1  4  2 -1</clus>
<clus scale="   88.775">  1  3  2 -1</clus>
</clustering>
</event>
<event>
 6    0  0.1993420E+002  0.1310132E+03  0.7546771E-02  0.1225960E+00
         21   -1    0    0  505  502  0.00000000000E+00  0.00000000000E+00  0.14053482125E+03  0.14053482125E+03  0.00000000000E+00 0. -1.
          1   -1    0    0  504    0 -0.00000000000E+00 -0.00000000000E+00 -0.24105331766E+04  0.24105331766E+04  0.00000000000E+00 0. -1.
         21    1    1    2  503  501 -0.34874493935E+02 -0.29430626563E+02  0.16626424595E+02  0.48567788728E+02  0.00000000000E+00 0. -1.
         21    1    1    2  504  502 -0.29583668501E+02  0.14940261709E+02 -0.53466140681E+02  0.62904952597E+02  0.00000000000E+00 0.  1.
         21    1    1    2  505  503 -0.45280952912E+02 -0.40800855641E+02  0.92454472102E+02  0.11073799677E+03  0.00000000000E+00 0. -1.
          1    1    1    2  501    0  0.10973911535E+03  0.55291220495E+02 -0.23256131114E+04  0.23288572598E+04  0.00000000000E+00 0. -1.
<scales pt_clust_3="37.69332" pt_clust_4="33.14219" pt_clust_5="37.69332" pt_clust_6="122.64638"></scales>
<clustering>
<clus scale="   33.142">  1  4  2 -1</clus>
<clus scale="   37.693">  3  5 -1 -1</clus>
<clus scale="  122.646">  2  6  1 -1</clus>
<clus scale="   33.142">  1  3  2 -1</clus>
</clustering>
</event>
<event>
 6    0  0.1993420E+002  0.1083576E+03  0.7546771E-02  0.1263642E+00
          1   -1    0    0  503    0 -0.00000000000E+00  0.00000000000E+00  0.84411997036E+03  0.84411997036E+03  0.00000000000E+00 0.  1.
         21   -1    0    0  504  502  0.00000000000E+00 -0.00000000000E+00 -0.71023961728E+03  0.71023961728E+03  0.00000000000E+00 0.  1.
         21    1    1    2  503  505  0.10008167569E+02  0.51048826099E+02 -0.60933260088E+02  0.80118713476E+02  0.00000000000E+00 0.  1.
         21    1    1    2  504  501  0.78870921441E+02 -0.61111662358E+02 -0.47704403970E+03  0.48736667238E+03  0.00000000000E+00 0.  1.
         21    1    1    2  505  502 -0.26782687392E+02  0.62698916485E+02 -0.14801887277E+03  0.16296641730E+03  0.00000000000E+00 0.  1.
          1    1    1    2  501    0 -0.62096401617E+02 -0.52636080225E+02  0.81987652565E+03  0.82390778449E+03  0.00000000000E+00 0.  1.
<scales pt_clust_3="41.05848" pt_clust_4="97.63154" pt_clust_5="41.05848" pt_clust_6="81.40344"></scales>
<clustering>
<clus scale="   41.058">  3  5 -1 -1</clus>
<clus scale="   81.403">  1  6  2 -1</clus>
<clus scale="   97.632">  2  4  1 -1</clus>
<clus scale="   97.632">  2  3  1 -1</clus>
</clustering>
</event>
<event>
 6    0  0.1993420E+002  0.3295203E+03  0.7546771E-02  0.1071349E+00
         21   -1    0    0  501  502  0.00000000000E+00  0.00000000000E+00  0.34820834663E+02  0.34820834663E+02  0.00000000000E+00 0.  1.
          2   -1    0    0  505    0 -0.00000000000E+00 -0.00000000000E+00 -0.28878653778E+04  0.28878653778E+04  0.00000000000E+00 0.  1.
         21    1    1    2  503  502  0.10487464588E+03  0.23987319522E+02 -0.45444693141E+03  0.46700759770E+03  0.00000000000E+00 0.  1.
         21    1    1    2  504  503  0.10472717663E+03  0.70191493267E+02 -0.51032202037E+03  0.52566452394E+03  0.00000000000E+00 0.  1.
         21    1    1    2  505  504  0.20085172232E+02  0.90738065633E+02 -0.28265071497E+03  0.29753695127E+03  0.00000000000E+00 0.  1.
          2    1    1    2  501    0 -0.22968699475E+03 -0.18491687842E+03 -0.16056248764E+04  0.16324771396E+04  0.00000000000E+00 0.  1.
<scales pt_clust_3="39.36819" pt_clust_4="87.74972" pt_clust_5="87.74972" pt_clust_6="294.87348"></scales>
<clustering>
<clus scale="   39.368">  3  4 -1 -1</clus>
<clus scale="   87.750">  3  5 -1 -1</clus>
<clus scale="  294.873">  2  6  1 -1</clus>
<clus scale="  329.520">  1  3  2 -1</clus>
</clustering>
</event>
<event>
 6    0  0.1993420E+002  0.2192900E+03  0.7546771E-02  0.1134413E+00
          1   -1    0    0  502    0 -0.00000000000E+00  0.00000000000E+00  0.72546618142E+02  0.72546618142E+02  0.00000000000E+00 0.  1.
         21   -1    0    0  505  502  0.00000000000E+00 -0.00000000000E+00 -0.15259674068E+04  0.15259674068E+04  0.00000000000E+00 0.  1.
         21    1    1    2  503  501  0.10076396928E+03 -0.14762161660E+03 -0.36577061525E+03  0.40710399429E+03  0.00000000000E+00 0.  1.
         21    1    1    2  504  503 -0.75612012296E+02  0.73740513885E+02 -0.39798730463E+03  0.41176295904E+03  0.00000000000E+00 0.  1.
         21    1    1    2  505  504 -0.84774097930E+02  0.10505123700E+03 -0.69882879287E+03  0.71174721062E+03  0.00000000000E+00 0.  1.
          1    1    1    2  501    0  0.59622140950E+02 -0.31170134282E+02  0.91659240613E+01  0.67899861021E+02  0.00000000000E+00 0.  1.
<scales pt_clust_3="215.65889" pt_clust_4="35.15234" pt_clust_5="35.15234" pt_clust_6="67.27835"></scales>
<clustering>
<clus scale="   35.152">  4  5 -1 -1</clus>
<clus scale="   67.278">  1  6  2 -1</clus>
<clus scale="  215.659">  1  3  2 -1</clus>
<clus scale="  219.290">  2  3  1 -1</clus>
</clustering>
</event>
<event>
 6    0  0.1993420E+002  0.1042671E+03  0.7546771E-02  0.1271570E+00
          2   -1    0    0  505    0 -0.00000000000E+00  0.00000000000E+00  0.24932544113E+04  0.24932544113E+04  0.00000000000E+00 0.  1.
         21   -1    0    0  504  502  0.00000000000E+00 -0.00000000000E+00 -0.39251279146E+02  0.39251279146E+02  0.00000000000E+00 0.  1.
         21    1    1    2  503  502 -0.34176159464E+02 -0.32250234493E+02  0.18091955243E+02  0.50352818641E+02  0.00000000000E+00 0.  1.
         21    1    1    2  504  501  0.13267504046E+02  0.78778860561E+02  0.14503482370E+03  0.16558150749E+03  0.00000000000E+00 0.  1.
         21    1    1    2  505  503 -0.44819044607E+02 -0.54611373377E+02  0.88687555115E+02  0.11338708610E+03  0.00000000000E+00 0.  1.
          2    1    1    2  501    0  0.65727700024E+02  0.80827473094E+01  0.22021887981E+04  0.22031842782E+04  0.00000000000E+00 0.  1.
<scales pt_clust_3="32.86309" pt_clust_4="96.16605" pt_clust_5="32.86309" pt_clust_6="66.22282"></scales>
<clustering>
<clus scale="   32.863">  3  5 -1 -1</clus>
<clus scale="   66.223">  1  6  2 -1</clus>
<clus scale="   96.166">  1  4  2 -1</clus>
<clus scale="  104.267">  2  3  1 -1</clus>
</clustering>
</event>
<event>
 6    0  0.1993420E+002  0.1076698E+03  0.7546771E-02  0.1264947E+00
         21   -1    0    0  504  502  0.00000000000E+00  0.00000000000E+00  0.28162766337E+03  0.28162766337E+03  0.00000000000E+00 0. -1.
          2   -1    0    0  505    0 -0.00000000000E+00 -0.00000000000E+00 -0.13745297181E+04  0.13745297181E+04  0.00000000000E+00 0.  1.
         21    1    1    2  503  501 -0.54182588948E+02  0.19800376305E+02  0.82419066251E+02  0.10060174118E+03  0.00000000000E+00 0. -1.
         21    1    1    2  504  503 -0.18877580686E+02  0.65137530545E+02  0.14876900218E+03  0.16349763590E+03  0.00000000000E+00 0. -1.
         21    1    1    2  505  502 -0.17844599753E+02 -0.24964691041E+02  0.24382970067E+02  0.39194320615E+02  0.00000000000E+00 0. -1.
          2    1    1    2  501    0  0.90904769387E+02 -0.59973215809E+02 -0.13484730932E+04  0.13528636838E+04  0.00000000000E+00 0.  1.
<scales pt_clust_3="107.66982" pt_clust_4="57.92750" pt_clust_5="30.68657" pt_clust_6="14000.00000"></scales>
<clustering>
<clus scale="   30.687">  1  5  2 -1</clus>
<clus scale="   57.927">  1  4  2 -1</clus>
<clus scale="  107.670">  1  3  2 -1</clus>
<clus scale="   30.687">  1  3  2 -1</clus>
</clustering>
</event>
<event>
 6    0  0.1993420E+002  0.1183959E+03  0.7546771E-02  0.1245767E+00
          2   -1    0    0  504    0 -0.00000000000E+00  0.00000000000E+00  0.18602338436E+04  0.18602338436E+04  0.00000000000E+00 0. -1.
         21   -1    0    0  505  502  0.00000000000E+00 -0.00000000000E+00 -0.63274412134E+03  0.63274412134E+03  0.00000000000E+00 0.  1.
         21    1    1    2  503  502  0.86917445575E+01 -0.11882109159E+03 -0.61425972476E+03  0.62570680649E+03  0.00000000000E+00 0.  1.
         21    1    1    2  504  503 -0.44306533618E+02 -0.39350905599E+02  0.15968688476E+03  0.17032751938E+03  0.00000000000E+00 0. -1.
         21    1    1    2  505  501 -0.11383327411E+02  0.81323076525E+02  0.27494443323E+03  0.28694505447E+03  0.00000000000E+00 0.  1.
          2    1    1    2  501    0  0.46998116471E+02  0.76848920668E+02  0.14071181290E+04  0.14099985846E+04  0.00000000000E+00 0. -1.
<scales pt_clust_3="118.39586" pt_clust_4="59.25844" pt_clust_5="14000.00000" pt_clust_6="45.31165"></scales>
<clustering>
<clus scale="   59.258">  1  4  2 -1</clus>
<clus scale="   45.312">  1  6  2 -1</clus>
<clus scale="  118.396">  2  3  1 -1</clus>
<clus scale="  118.396">  2  3  1 -1</clus>
</clustering>
</event>
<event>
 6    0  0.1993420E+002  0.1048950E+03  0.7546771E-02  0.1270327E+00
         21   -1    0    0  505  502  0.00000000000E+00  0.00000000000E+00  0.32278327619E+03  0.32278327619E+03  0.00000000000E+00 0. -1.
          3   -1    0    0  502    0 -0.00000000000E+00 -0.00000000000E+00 -0.55805477514E+03  0.55805477514E+03  0.00000000000E+00 0.  1.
         21    1    1    2  503  501  0.22183117026E+02  0.55234434950E+02 -0.42503575543E+01  0.59674106819E+02  0.00000000000E+00 0. -1.
         21    1    1    2  504  503  0.20064699476E+02  0.38666035144E+02  0.32542391391E+02  0.54375193575E+02  0.00000000000E+00 0. -1.
         21    1    1    2  505  504  0.15209640168E+02 -0.97503957683E+02  0.24023386571E+03  0.25971265882E+03  0.00000000000E+00 0. -1.
          3    1    1    2  501    0 -0.57457456669E+02  0.36034875883E+01 -0.50379739850E+03  0.50707609210E+03  0.00000000000E+00 0.  1.
<scales pt_clust_3="34.26894" pt_clust_4="34.26894" pt_clust_5="96.94495" pt_clust_6="57.57034"></scales>
<clustering>
<clus scale="   34.269">  3  4 -1 -1</clus>
<clus scale="   57.570">  2  6  1 -1</clus>
<clus scale="   96.945">  1  5  2 -1</clus>
<clus scale="   96.945">  1  3  2 -1</clus>
</clustering>
</event>
<event>
 6    0  0.1993420E+002  0.1270530E+03  0.7546771E-02  0.1231895E+00
          1   -1    0    0  503    0 -0.00000000000E+00  0.00000000000E+00  0.45208978253E+03  0.45208978253E+03  0.00000000000E+00 0. -1.
         21   -1    0    0  501  502  0.00000000000E+00 -0.00000000000E+00 -0.99743400673E+02  0.99743400673E+02  0.00000000000E+00 0.  1.
         21    1    1    2  503  504  0.28666667971E+02 -0.13974751559E+03  0.61496507288E+02  0.15534788822E+03  0.00000000000E+00 0.  1.
         21    1    1    2  504  505  0.15452940112E+02  0.44018412164E+02 -0.43896470702E+01  0.46858115295E+02  0.00000000000E+00 0.  1.
         21    1    1    2  505  502 -0.33739788089E+02  0.55821705931E+02  0.15734756377E+02  0.67097084225E+02  0.00000000000E+00 0.  1.
          1    1    1    2  501    0 -0.10379819994E+02  0.39907397494E+02  0.27950476526E+03  0.28253009546E+03  0.00000000000E+00 0. -1.
<scales pt_clust_3="116.56688" pt_clust_4="41.71267" pt_clust_5="41.71267" pt_clust_6="41.23519"></scales>
<clustering>
<clus scale="   41.235">  1  6  2 -1</clus>
<clus scale="   41.713">  4  5 -1 -1</clus>
<clus scale="  116.567">  1  3  2 -1</clus>
<clus scale="  127.053">  2  3  1 -1</clus>
</clustering>
</event>
<event>
 6    0  0.1993420E+002  0.2495929E+03  0.7546771E-02  0.1113562E+00
         21   -1    0    0  505  502  0.00000000000E+00  0.00000000000E+00  0.19277289462E+04  0.19277289462E+04  0.00000000000E+00 0.  1.
          1   -1    0    0  503    0 -0.00000000000E+00 -0.00000000000E+00 -0.62578919206E+03  0.62578919206E+03  0.00000000000E+00 0. -1.
         21    1    1    2  503  504  0.10631611642E+03  0.15960099026E+02  0.39086388296E+03  0.40537934872E+03  0.00000000000E+00 0.  1.
         21    1    1    2  504  502  0.13581166089E+03  0.16708666483E+02  0.93922823875E+03  0.94914365152E+03  0.00000000000E+00 0.  1.
         21    1    1    2  505  501 -0.18927205532E+02  0.48404076895E+02  0.56119900996E+03  0.56360049907E+03  0.00000000000E+00 0.  1.
          1    1    1    2  501    0 -0.22320057178E+03 -0.81072842405E+02 -0.58935137752E+03  0.63539463895E+03  0.00000000000E+00 0. -1.
<scales pt_clust_3="68.38386" pt_clust_4="68.38386" pt_clust_5="51.97301" pt_clust_6="237.49147"></scales>
<clustering>
<clus scale="   51.973">  1  5  2 -1</clus>
<clus scale="   68.384">  3  4 -1 -1</clus>
<clus scale="  237.491">  2  6  1 -1</clus>
<clus scale="   51.973">  1  3  2 -1</clus>
</clustering>
</event>
<event>
 6    0  0.1993420E+002  0.2823447E+03  0.7546771E-02  0.1094415E+00
          2   -1    0    0  505    0 -0.00000000000E+00  0.00000000000E+00  0.12722213682E+04  0.12722213682E+04  0.00000000000E+00 0.  1.
         21   -1    0    0  504  502  0.00000000000E+00 -0.00000000000E+00 -0.12588804562E+04  0.12588804562E+04  0.00000000000E+00 0. -1.
         21    1    1    2  503  501  0.21554682501E+02  0.38916487732E+03  0.58571745223E+01  0.38980535216E+03  0.00000000000E+00 0. -1.
         21    1    1    2  504  503 -0.73011267448E+02 -0.32844656977E+02 -0.26501011865E+02  0.84331016217E+02  0.00000000000E+00 0. -1.
         21    1    1    2  505  502 -0.60712653895E+01 -0.22495441693E+03 -0.99393408066E+03  0.10190909217E+04  0.00000000000E+00 0. -1.
          2    1    1    2  501    0  0.57527850336E+02 -0.13136580342E+03  0.10279188300E+04  0.10378745343E+04  0.00000000000E+00 0.  1.
<scales pt_clust_3="282.34465" pt_clust_4="80.05883" pt_clust_5="14000.00000" pt_clust_6="143.41368"></scales>
<clustering>
<clus scale="   80.059">  2  4  1 -1</clus>
<clus scale="  143.414">  1  6  2 -1</clus>
<clus scale="  282.345">  1  3  2 -1</clus>
<clus scale="   80.059">  2  3  1 -1</clus>
</clustering>
</event>
<event>
 6    0  0.1993420E+002  0.1477205E+03  0.7546771E-02  0.1203302E+00
         -3   -1    0    0    0  501 -0.00000000000E+00  0.00000000000E+00  0.31698633021E+03  0.31698633021E+03  0.00000000000E+00 0.  1.
         21   -1    0    0  503  502  0.00000000000E+00 -0.00000000000E+00 -0.57790670359E+03  0.57790670359E+03  0.00000000000E+00 0. -1.
         21    1    1    2  503  501 -0.41549210200E+02  0.72710862125E+02 -0.14665740350E+03  0.16888339273E+03  0.00000000000E+00 0. -1.
         21    1    1    2  504  502  0.72677870136E+02  0.82864532791E+01 -0.30114284281E+03  0.30989958033E+03  0.00000000000E+00 0. -1.
         21    1    1    2  505  504  0.48845673502E+02  0.27810349668E+02 -0.91112668734E+02  0.10705528372E+03  0.00000000000E+00 0. -1.
         -3    1    1    2    0  505 -0.79974333438E+02 -0.10880766507E+03  0.27799254165E+03  0.30905477702E+03  0.00000000000E+00 0.  1.
<scales pt_clust_3="83.74489" pt_clust_4="54.85514" pt_clust_5="54.85514" pt_clust_6="133.81080"></scales>
<clustering>
<clus scale="   54.855">  4  5 -1 -1</clus>
<clus scale="   83.745">  2  3  1 -1</clus>
<clus scale="  133.811">  1  6  2 -1</clus>
<clus scale="   83.745">  2  3  1 -1</clus>
</clustering>
</event>
<event>
 6    0  0.1993420E+002  0.1239149E+03  0.7546771E-02  0.1236775E+00
         -3   -1    0    0    0  501 -0.00000000000E+00  0.00000000000E+00  0.13118326317E+04  0.13118326317E+04  0.00000000000E+00 0. -1.
         21   -1    0    0  504  502  0.00000000000E+00 -0.00000000000E+00 -0.11511271934E+03  0.11511271934E+03  0.00000000000E+00 0. -1.
         21    1    1    2  503  502 -0.11696930069E+03 -0.74777586429E+02 -0.44933736154E+02  0.14591965385E+03  0.00000000000E+00 0. -1.
         21    1    1    2  504  501  0.65400728447E+02  0.46487495375E-01  0.22518304868E+03  0.23448808681E+03  0.00000000000E+00 0. -1.
         21    1    1    2  505  503  0.33690613906E+02  0.44974651915E+02  0.38885523807E+02  0.68336379345E+02  0.00000000000E+00 0. -1.
         -3    1    1    2    0  505  0.17877958337E+02  0.29756447019E+02  0.97758507606E+03  0.97820123107E+03  0.00000000000E+00 0. -1.
<scales pt_clust_3="14000.00000" pt_clust_4="123.91494" pt_clust_5="61.74082" pt_clust_6="34.71408"></scales>
<clustering>
<clus scale="   34.714">  1  6  2 -1</clus>
<clus scale="   61.741">  1  5  2 -1</clus>
<clus scale="  123.915">  1  4  2 -1</clus>
<clus scale="  123.915">  2  3  1 -1</clus>
</clustering>
</event>
<event>
 6    0  0.1993420E+002  0.1892112E+03  0.7546771E-02  0.1159175E+00
          1   -1    0    0  502    0 -0.00000000000E+00  0.00000000000E+00  0.70492934807E+03  0.70492934807E+03  0.00000000000E+00 0.  1.
         21   -1    0    0  503  502  0.00000000000E+00 -0.00000000000E+00 -0.12147628663E+04  0.12147628663E+04  0.00000000000E+00 0.  1.
         21    1    1    2  503  504 -0.55802588204E+02 -0.62016298902E+02 -0.48744043315E+03  0.49452818529E+03  0.00000000000E+00 0.  1.
         21    1    1    2  504  505 -0.44064281642E+02  0.44880293172E+01 -0.23000193232E+03  0.23422786383E+03  0.00000000000E+00 0.  1.
         21    1    1    2  505  501 -0.80019145627E+02  0.85967374365E+02 -0.47249369001E+03  0.48687137955E+03  0.00000000000E+00 0.  1.
          1    1    1    2  501    0  0.17988601547E+03 -0.28439104780E+02  0.68010253726E+03  0.70406478568E+03  0.00000000000E+00 0.  1.
<scales pt_clust_3="83.42632" pt_clust_4="33.10010" pt_clust_5="33.10010" pt_clust_6="181.37179"></scales>
<clustering>
<clus scale="   33.100">  4  5 -1 -1</clus>
<clus scale="   83.426">  2  3  1 -1</clus>
<clus scale="  181.372">  1  6  2 -1</clus>
<clus scale="   83.426">  2  3  1 -1</clus>
</clustering>
</event>
<event>
 6    0  0.1993420E+002  0.9203884E+02  0.7546771E-02  0.1297988E+00
         -3   -1    0    0    0  501 -0.00000000000E+00  0.00000000000E+00  0.20199477779E+03  0.20199477779E+03  0.00000000000E+00 0.  1.
         21   -1    0    0  505  502  0.00000000000E+00 -0.00000000000E+00 -0.10082675709E+04  0.10082675709E+04  0.00000000000E+00 0. -1.
         21    1    1    2  503  502  0.36206217272E+02  0.46013866666E+02 -0.67315243331E+02  0.89216075230E+02  0.00000000000E+00 0. -1.
         21    1    1    2  504  501 -0.46618895285E+02 -0.44604718333E+02 -0.29237036173E+03  0.29940496107E+03  0.00000000000E+00 0. -1.
         21    1    1    2  505  504 -0.59007156006E+02 -0.24308495533E+02 -0.62530429897E+03  0.62855247491E+03  0.00000000000E+00 0. -1.
         -3    1    1    2    0  503  0.69419834018E+02  0.22899347200E+02  0.17871711087E+03  0.19308883752E+03  0.00000000000E+00 0.  1.
<scales pt_clust_3="58.55054" pt_clust_4="55.12600" pt_clust_5="55.12600" pt_clust_6="73.47668"></scales>
<clustering>
<clus scale="   55.126">  4  5 -1 -1</clus>
<clus scale="   58.551">  2  3  1 -1</clus>
<clus scale="   73.477">  1  6  2 -1</clus>
<clus scale="   58.551">  2  3  1 -1</clus>
</clustering>
</event>
<event>
 6    0  0.1993420E+002  0.1550330E+03  0.7546771E-02  0.1194421E+00
         21   -1    0    0  505  502  0.00000000000E+00  0.00000000000E+00  0.18607728554E+03  0.18607728554E+03  0.00000000000E+00 0. -1.
          1   -1    0    0  504    0 -0.00000000000E+00 -0.00000000000E+00 -0.11016942375E+04  0.11016942375E+04  0.00000000000E+00 0. -1.
         21    1    1    2  503  501  0.84324288016E+02  0.64778569733E+02 -0.62446968928E+02  0.12331452702E+03  0.00000000000E+00 0.  1.
         21    1    1    2  504  502  0.20707839352E+02  0.60324815558E+02  0.26773738169E+02  0.69171750290E+02  0.00000000000E+00 0.  1.
         21    1    1    2  505  503 -0.83449618211E+02 -0.22690856029E+03 -0.35389563092E+02  0.24434351780E+03  0.00000000000E+00 0. -1.
          1    1    1    2  501    0 -0.21582509157E+02  0.10180517500E+03 -0.84455415808E+03  0.85094172790E+03  0.00000000000E+00 0. -1.
<scales pt_clust_3="155.03304" pt_clust_4="63.78008" pt_clust_5="14000.00000" pt_clust_6="105.33590"></scales>
<clustering>
<clus scale="   63.780">  1  4  2 -1</clus>
<clus scale="  105.336">  2  6  1 -1</clus>
<clus scale="  155.033">  2  3  1 -1</clus>
<clus scale="   63.780">  1  3  2 -1</clus>
</clustering>
</event>
<event>
 6    0  0.1993420E+002  0.1777974E+03  0.7546771E-02  0.1169952E+00
         21   -1    0    0  504  502  0.00000000000E+00  0.00000000000E+00  0.16515089668E+04  0.16515089668E+04  0.00000000000E+00 0.  1.
          1   -1    0    0  503    0 -0.00000000000E+00 -0.00000000000E+00 -0.73334575048E+03  0.73334575048E+03  0.00000000000E+00 0. -1.
         21    1    1    2  503  502 -0.16068839664E+03  0.59709801067E+02  0.15555906037E+04  0.15650073954E+04  0.00000000000E+00 0.  1.
         21    1    1    2  504  505  0.45401217811E+02 -0.63225783983E+02  0.13773616682E+02  0.79047345658E+02  0.00000000000E+00 0. -1.
         21    1    1    2  505  501  0.87987714398E+02 -0.58501909883E+02 -0.21957641844E+02  0.10791871654E+03  0.00000000000E+00 0. -1.
          1    1    1    2  501    0  0.27299464430E+02  0.62017892800E+02 -0.62924336231E+03  0.63288125964E+03  0.00000000000E+00 0. -1.
<scales pt_clust_3="171.26824" pt_clust_4="40.97500" pt_clust_5="40.97500" pt_clust_6="67.76046"></scales>
<clustering>
<clus scale="   40.975">  4  5 -1 -1</clus>
<clus scale="   67.760">  2  6  1 -1</clus>
<clus scale="  171.268">  1  3  2 -1</clus>
<clus scale="  171.268">  1  3  2 -1</clus>
</clustering>
</event>
<event>
 6    0  0.1993420E+002  0.1668074E+03  0.7546771E-02  0.1181219E+00
          1   -1    0    0  503    0 -0.00000000000E+00  0.00000000000E+00  0.19092267923E+03  0.19092267923E+03  0.00000000000E+00 0. -1.
         21   -1    0    0  505  502  0.00000000000E+00 -0.00000000000E+00 -0.50335363958E+03  0.50335363958E+03  0.00000000000E+00 0. -1.
         21    1    1    2  503  504  0.71064239993E+02  0.55096459905E+02 -0.10482187749E+03  0.13810637965E+03  0.00000000000E+00 0. -1.
         21    1    1    2  504  502  0.65403224844E+02  0.11804050096E+03 -0.13838819209E+03  0.19329364552E+03  0.00000000000E+00 0. -1.
         21    1    1    2  505  501 -0.93652947638E+02 -0.25950172190E+02 -0.15817811141E+03  0.18564644076E+03  0.00000000000E+00 0. -1.
          1    1    1    2  501    0 -0.42814517199E+02 -0.14718678867E+03  0.88957220650E+02  0.17722985287E+03  0.00000000000E+00 0. -1.
<scales pt_clust_3="37.18445" pt_clust_4="37.18445" pt_clust_5="97.18172" pt_clust_6="160.46701"></scales>
<clustering>
<clus scale="   37.184">  3  4 -1 -1</clus>
<clus scale="   97.182">  2  5  1 -1</clus>
<clus scale="  160.467">  1  6  2 -1</clus>
<clus scale="   97.182">  2  3  1 -1</clus>
</clustering>
</event>
<event>
 6    0  0.1993420E+002  0.1289164E+03  0.7546771E-02  0.1229073E+00
          2   -1    0    0  503    0 -0.00000000000E+00  0.00000000000E+00  0.41372957553E+03  0.41372957553E+03  0.00000000000E+00 0.  1.
         21   -1    0    0  504  502  0.00000000000E+00 -0.00000000000E+00 -0.44041196933E+03  0.44041196933E+03  0.00000000000E+00 0. -1.
         21    1    1    2  503  505  0.95447954066E+02 -0.32287594755E+02 -0.10489730294E+03  0.14545186446E+03  0.00000000000E+00 0.  1.
         21    1    1    2  504  501 -0.35883432393E+01  0.74885313128E+02 -0.21615281433E+03  0.22878532617E+03  0.00000000000E+00 0. -1.
         21    1    1    2  505  502  0.28079650600E+02 -0.35491656972E+02 -0.77148495620E+02  0.89442802219E+02  0.00000000000E+00 0. -1.
          2    1    1    2  501    0 -0.11993926143E+03 -0.71060614007E+01  0.37151621909E+03  0.39046155200E+03  0.00000000000E+00 0.  1.
<scales pt_clust_3="31.30356" pt_clust_4="74.97124" pt_clust_5="31.30356" pt_clust_6="120.15696"></scales>
<clustering>
<clus scale="   31.304">  3  5 -1 -1</clus>
<clus scale="   74.971">  2  4  1 -1</clus>
<clus scale="  120.157">  1  6  2 -1</clus>
<clus scale="   74.971">  2  3  1 -1</clus>
</clustering>
</event>
<event>
 6    0  0.1993420E+002  0.1310876E+03  0.7546771E-02  0.1225851E+00
          2   -1    0    0  503    0 -0.00000000000E+00  0.00000000000E+00  0.29372399693E+04  0.29372399693E+04  0.00000000000E+00 0.  1.
         21   -1    0    0  504  502  0.00000000000E+00 -0.00000000000E+00 -0.82641687042E+02  0.82641687042E+02  0.00000000000E+00 0.  1.
         21    1    1    2  503  505 -0.10804477423E+03  0.10454706786E+03  0.37781457778E+03  0.40662958306E+03  0.00000000000E+00 0. -1.
         21    1    1    2  504  501  0.70809256642E+02 -0.79376551393E+02  0.10309460033E+03  0.14813198289E+03  0.00000000000E+00 0.  1.
         21    1    1    2  505  502  0.74691988037E+02  0.29135108308E+02 -0.97538024994E+01  0.80764375044E+02  0.00000000000E+00 0.  1.
          2    1    1    2  501    0 -0.37456470446E+02 -0.54305624777E+02  0.23834429067E+04  0.23843557154E+04  0.00000000000E+00 0.  1.
<scales pt_clust_3="131.08762" pt_clust_4="14000.00000" pt_clust_5="76.70457" pt_clust_6="65.97036"></scales>
<clustering>
<clus scale="   65.970">  1  6  2 -1</clus>
<clus scale="   76.705">  2  5  1 -1</clus>
<clus scale="  131.088">  1  3  2 -1</clus>
<clus scale="   76.705">  2  3  1 -1</clus>
</clustering>
</event>
<event>
 6    0  0.1993420E+002  0.7857270E+02  0.7546771E-02  0.1333151E+00
          2   -1    0    0  505    0 -0.00000000000E+00  0.00000000000E+00  0.53057545983E+04  0.53057545983E+04  0.00000000000E+00 0.  1.
         21   -1    0    0  503  502  0.00000000000E+00 -0.00000000000E+00 -0.19061220016E+04  0.19061220016E+04  0.00000000000E+00 0.  1.
         21    1    1    2  503  501  0.51776106217E+02  0.58970160017E+01 -0.59298904587E+03  0.59527434726E+03  0.00000000000E+00 0.  1.
         21    1    1    2  504  502 -0.47926976705E+02 -0.99257224381E+01 -0.18433855587E+03  0.19072550496E+03  0.00000000000E+00 0. -1.
         21    1    1    2  505  504 -0.55171186766E+02  0.63522309505E+02 -0.11225928018E+04  0.11257413301E+04  0.00000000000E+00 0.  1.
          2    1    1    2  501    0  0.51322057254E+02 -0.59493603069E+02  0.52995530002E+04  0.53001354176E+04  0.00000000000E+00 0.  1.
<scales pt_clust_3="35.29356" pt_clust_4="48.94400" pt_clust_5="14000.00000" pt_clust_6="78.57270"></scales>
<clustering>
<clus scale="   48.944">  2  4  1 -1</clus>
<clus scale="   35.294">  2  3  1 -1</clus>
<clus scale="   78.573">  1  6  2 -1</clus>
<clus scale="   48.944">  2  3  1 -1</clus>
</clustering>
</event>
<event>
 6    0  0.1993420E+002  0.9090793E+02  0.7546771E-02  0.1300668E+00
         21   -1    0    0  505  502  0.00000000000E+00  0.00000000000E+00  0.12998979010E+04  0.12998979010E+04  0.00000000000E+00 0.  1.
          1   -1    0    0  504    0 -0.00000000000E+00 -0.00000000000E+00 -0.17822119078E+04  0.17822119078E+04  0.00000000000E+00 0.  1.
         21    1    1    2  503  502 -0.37891659747E+02  0.23634475039E+02  0.25454671479E+03  0.25843451065E+03  0.00000000000E+00 0.  1.
         21    1    1    2  504  503  0.10752214769E+03 -0.46894694843E+02  0.10112712071E+03  0.15487678713E+03  0.00000000000E+00 0.  1.
         21    1    1    2  505  501 -0.53795133129E+02 -0.89670405705E+01  0.91440895176E+03  0.91603387232E+03  0.00000000000E+00 0.  1.
          1    1    1    2  501    0 -0.15835354815E+02  0.32227260375E+02 -0.17523967940E+04  0.17527646386E+04  0.00000000000E+00 0.  1.
<scales pt_clust_3="46.67525" pt_clust_4="90.90793" pt_clust_5="14000.00000" pt_clust_6="35.90759"></scales>
<clustering>
<clus scale="   35.908">  2  6  1 -1</clus>
<clus scale="   46.675">  1  3  2 -1</clus>
<clus scale="   90.908">  2  4  1 -1</clus>
<clus scale="   46.675">  1  3  2 -1</clus>
</clustering>
</event>
<event>
 6    0  0.1993420E+002  0.7752404E+02  0.7546771E-02  0.1336228E+00
          4   -1    0    0  505    0 -0.00000000000E+00  0.00000000000E+00  0.22592061009E+03  0.22592061009E+03  0.00000000000E+00 0.  1.
         21   -1    0    0  503  502  0.00000000000E+00 -0.00000000000E+00 -0.52035238348E+03  0.52035238348E+03  0.00000000000E+00 0.  1.
         21    1    1    2  503  501 -0.13108180506E+02 -0.75867346225E+02 -0.32799404112E+03  0.33690914151E+03  0.00000000000E+00 0.  1.
         21    1    1    2  504  502  0.59250170684E+02  0.67427413536E+02 -0.10350980835E+03  0.13700846415E+03  0.00000000000E+00 0.  1.
         21    1    1    2  505  504 -0.49662178549E+02 -0.46671342329E+02 -0.45281881699E+02  0.81822949001E+02  0.00000000000E+00 0.  1.
          4    1    1    2  501    0  0.35201883712E+01  0.55111275018E+02  0.18235395778E+03  0.19053243891E+03  0.00000000000E+00 0.  1.
<scales pt_clust_3="77.52404" pt_clust_4="14000.00000" pt_clust_5="52.48942" pt_clust_6="55.22359"></scales>
<clustering>
<clus scale="   55.224">  1  6  2 -1</clus>
<clus scale="   52.489">  1  5  2 -1</clus>
<clus scale="   77.524">  2  3  1 -1</clus>
<clus scale="   77.524">  2  3  1 -1</clus>
</clustering>
</event>
<event>
 6    0  0.1993420E+002  0.1671066E+03  0.7546771E-02  0.1180899E+00
          2   -1    0    0  504    0 -0.00000000000E+00  0.00000000000E+00  0.28599130222E+04  0.28599130222E+04  0.00000000000E+00 0.  1.
         21   -1    0    0  505  502  0.00000000000E+00 -0.00000000000E+00 -0.90811836238E+02  0.90811836238E+02  0.00000000000E+00 0. -1.
         21    1    1    2  503  502  0.49422103945E+02 -0.13290973992E+01  0.29234511785E+02  0.57436639330E+02  0.00000000000E+00 0. -1.
         21    1    1    2  504  503  0.80676263441E+02 -0.13307141067E+03  0.60142523948E+02  0.16683459775E+03  0.00000000000E+00 0. -1.
         21    1    1    2  505  501 -0.19842631204E+01  0.71760332252E+02  0.38647854004E+02  0.81529989600E+02  0.00000000000E+00 0.  1.
          2    1    1    2  501    0 -0.12811410427E+03  0.62640175816E+02  0.26410762962E+04  0.26449236317E+04  0.00000000000E+00 0.  1.
<scales pt_clust_3="48.22515" pt_clust_4="48.22515" pt_clust_5="71.78776" pt_clust_6="143.54225"></scales>
<clustering>
<clus scale="   48.225">  3  4 -1 -1</clus>
<clus scale="   71.788">  2  5  1 -1</clus>
<clus scale="  143.542">  1  6  2 -1</clus>
<clus scale="   71.788">  2  3  1 -1</clus>
</clustering>
</event>
<event>
 6    0  0.1993420E+002  0.1325176E+03  0.7546771E-02  0.1223767E+00
         -1   -1    0    0    0  501 -0.00000000000E+00  0.00000000000E+00  0.24547555496E+03  0.24547555496E+03  0.00000000000E+00 0.  1.
         21   -1    0    0  504  502  0.00000000000E+00 -0.00000000000E+00 -0.67885887443E+03  0.67885887443E+03  0.00000000000E+00 0.  1.
         21    1    1    2  503  502  0.72260036415E+02 -0.11531325075E+03 -0.45608388036E+03  0.47595290165E+03  0.00000000000E+00 0.  1.
         21    1    1    2  504  501  0.97733817123E+01  0.77321509403E+02 -0.12850520693E+03  0.15029212559E+03  0.00000000000E+00 0. -1.
         21    1    1    2  505  503  0.77897648229E+01 -0.35911810187E+02 -0.52162377485E+02  0.63806364665E+02  0.00000000000E+00 0.  1.
         -1    1    1    2    0  505 -0.89823182950E+02  0.73903551531E+02  0.20336814532E+03  0.23428303749E+03  0.00000000000E+00 0.  1.
<scales pt_clust_3="31.81672" pt_clust_4="77.93674" pt_clust_5="31.81672" pt_clust_6="117.52485"></scales>
<clustering>
<clus scale="   31.817">  3  5 -1 -1</clus>
<clus scale="   77.937">  2  4  1 -1</clus>
<clus scale="  117.525">  1  6  2 -1</clus>
<clus scale="   77.937">  2  3  1 -1</clus>
</clustering>
</event>
<event>
 6    0  0.1993420E+002  0.1974108E+03  0.7546771E-02  0.1151942E+00
         21   -1    0    0  505  502  0.00000000000E+00  0.00000000000E+00  0.45307006093E+03  0.45307006093E+03  0.00000000000E+00 0. -1.
          1   -1    0    0  503    0 -0.00000000000E+00 -0.00000000000E+00 -0.78199885233E+03  0.78199885233E+03  0.00000000000E+00 0.  1.
         21    1    1    2  503  502  0.16312920580E+03 -0.56980948106E+02  0.13583337904E+03  0.21979234085E+03  0.00000000000E+00 0. -1.
         21    1    1    2  504  501 -0.66282073167E+01  0.34142264871E+02  0.53560289497E+02  0.63861819531E+02  0.00000000000E+00 0. -1.
         21    1    1    2  505  504 -0.15725250444E+03  0.69628709051E+02  0.18149532139E+03  0.25003411560E+03  0.00000000000E+00 0. -1.
          1    1    1    2  501    0  0.75150595488E+00 -0.46790025817E+02 -0.69981778133E+03  0.70138063728E+03  0.00000000000E+00 0.  1.
<scales pt_clust_3="182.52895" pt_clust_4="33.81523" pt_clust_5="33.81523" pt_clust_6="46.79606"></scales>
<clustering>
<clus scale="   33.815">  4  5 -1 -1</clus>
<clus scale="   46.796">  2  6  1 -1</clus>
<clus scale="  182.529">  2  3  1 -1</clus>
<clus scale="  197.411">  1  3  2 -1</clus>
</clustering>
</event>
<event>
 6    0  0.1993420E+002  0.2495262E+03  0.7546771E-02  0.1113605E+00
          1   -1    0    0  504    0 -0.00000000000E+00  0.00000000000E+00  0.50433694690E+03  0.50433694690E+03  0.00000000000E+00 0. -1.
         21   -1    0    0  501  502  0.00000000000E+00 -0.00000000000E+00 -0.14917942076E+03  0.14917942076E+03  0.00000000000E+00 0. -1.
         21    1    1    2  503  505  0.41817046378E+02  0.10162827289E+03 -0.91004797114E+01  0.11027143759E+03  0.00000000000E+00 0. -1.
         21    1    1    2  504  503 -0.20096890040E+02  0.27308357857E+02 -0.38544862709E+01  0.34124602013E+02  0.00000000000E+00 0.  1.
         21    1    1    2  505  502  0.63146942089E+02  0.78423116642E+02  0.32903643561E+02  0.10592625396E+03  0.00000000000E+00 0. -1.
          1    1    1    2  501    0 -0.84867098428E+02 -0.20735974739E+03  0.33520884856E+03  0.40319407409E+03  0.00000000000E+00 0. -1.
<scales pt_clust_3="69.82326" pt_clust_4="33.26237" pt_clust_5="69.82326" pt_clust_6="224.05466"></scales>
<clustering>
<clus scale="   33.262">  3  4 -1 -1</clus>
<clus scale="   69.823">  3  5 -1 -1</clus>
<clus scale="  224.055">  1  6  2 -1</clus>
<clus scale="  249.526">  2  3  1 -1</clus>
</clustering>
</event>
<event>
 6    0  0.1993420E+002  0.1920343E+03  0.7546771E-02  0.1156639E+00
          2   -1    0    0  504    0 -0.00000000000E+00  0.00000000000E+00  0.73103175680E+03  0.73103175680E+03  0.00000000000E+00 0. -1.
         21   -1    0    0  505  502  0.00000000000E+00 -0.00000000000E+00 -0.14239032670E+03  0.14239032670E+03  0.00000000000E+00 0.  1.
         21    1    1    2  503  502 -0.35786945676E+02 -0.86434883366E+02  0.57511415311E+02  0.10981465036E+03  0.00000000000E+00 0. -1.
         21    1    1    2  504  503  0.33193413319E+02 -0.47720597532E+02  0.54994185824E+02  0.80021363341E+02  0.00000000000E+00 0. -1.
         21    1    1    2  505  501  0.66258539703E+02  0.20293564918E+03  0.16082840541E+02  0.21408346398E+03  0.00000000000E+00 0.  1.
          2    1    1    2  501    0 -0.63665007346E+02 -0.68780168282E+02  0.46005298842E+03  0.46950260581E+03  0.00000000000E+00 0. -1.
<scales pt_clust_3="57.79586" pt_clust_4="57.79586" pt_clust_5="177.48636" pt_clust_6="93.72270"></scales>
<clustering>
<clus scale="   57.796">  3  4 -1 -1</clus>
<clus scale="   93.723">  1  6  2 -1</clus>
<clus scale="  177.486">  2  5  1 -1</clus>
<clus scale="  177.486">  2  3  1 -1</clus>
</clustering>
</event>
<event>
 6    0  0.1993420E+002  0.1822550E+03  0.7546771E-02  0.1165638E+00
         21   -1    0    0  504  502  0.00000000000E+00  0.00000000000E+00  0.15164868790E+04  0.15164868790E+04  0.00000000000E+00 0. -1.
          2   -1    0    0  505    0 -0.00000000000E+00 -0.00000000000E+00 -0.45760675328E+03  0.45760675328E+03  0.00000000000E+00 0. -1.
         21    1    1    2  503  502 -0.16482999484E+02 -0.10785995288E+03  0.10522508167E+04  0.10578928301E+04  0.00000000000E+00 0. -1.
         21    1    1    2  504  501 -0.38166214524E+02  0.35417401729E+01  0.29659607292E+02  0.48465411989E+02  0.00000000000E+00 0. -1.
         21    1    1    2  505  503  0.34764129615E+02 -0.61297527433E+02  0.40357359944E+03  0.40967985275E+03  0.00000000000E+00 0. -1.
          2    1    1    2  501    0  0.19885084393E+02  0.16561574014E+03 -0.42660389765E+03  0.45805553752E+03  0.00000000000E+00 0. -1.
<scales pt_clust_3="55.46513" pt_clust_4="38.33020" pt_clust_5="55.46513" pt_clust_6="166.79475"></scales>
<clustering>
<clus scale="   38.330">  1  4  2 -1</clus>
<clus scale="   55.465">  3  5 -1 -1</clus>
<clus scale="  166.795">  2  6  1 -1</clus>
<clus scale="   38.330">  1  3  2 -1</clus>
</clustering>
</event>
<event>
 6    0  0.1993420E+002  0.1942041E+03  0.7546771E-02  0.1154723E+00
          2   -1    0    0  504    0 -0.00000000000E+00  0.00000000000E+00  0.32103681709E+04  0.32103681709E+04  0.00000000000E+00 0.  1.
         21   -1    0    0  501  502  0.00000000000E+00 -0.00000000000E+00 -0.23278676111E+04  0.23278676111E+04  0.00000000000E+00 0. -1.
         21    1    1    2  503  502 -0.12776491525E+03 -0.12557427898E+03 -0.18289989986E+04  0.18377513733E+04  0.00000000000E+00 0. -1.
         21    1    1    2  504  505  0.78954868452E+02  0.73552969377E+02 -0.15201479877E+03  0.18641998177E+03  0.00000000000E+00 0. -1.
         21    1    1    2  505  503  0.12445056250E+03  0.75584535992E+02 -0.30846095069E+03  0.34109987201E+03  0.00000000000E+00 0. -1.
          2    1    1    2  501    0 -0.75640515705E+02 -0.23563226390E+02  0.31719753079E+04  0.31729645550E+04  0.00000000000E+00 0.  1.
<scales pt_clust_3="187.32780" pt_clust_4="44.09381" pt_clust_5="44.09381" pt_clust_6="79.22571"></scales>
<clustering>
<clus scale="   44.094">  4  5 -1 -1</clus>
<clus scale="   79.226">  1  6  2 -1</clus>
<clus scale="  187.328">  2  3  1 -1</clus>
<clus scale="  187.328">  2  3  1 -1</clus>
</clustering>
</event>
<event>
 6    0  0.1993420E+002  0.2197645E+03  0.7546771E-02  0.1134059E+00
         21   -1    0    0  504  502  0.00000000000E+00  0.00000000000E+00  0.52744459403E+03  0.52744459403E+03  0.00000000000E+00 0. -1.
         -3   -1    0    0    0  501 -0.00000000000E+00 -0.00000000000E+00 -0.22620385660E+03  0.22620385660E+03  0.00000000000E+00 0.  1.
         21    1    1    2  503  505  0.57103560617E+02 -0.23199591709E+02  0.56453189807E+02  0.83582296749E+02  0.00000000000E+00 0. -1.
         21    1    1    2  504  503 -0.71353583158E+02 -0.13920308297E+03  0.22718399365E+03  0.27582856833E+03  0.00000000000E+00 0. -1.
         21    1    1    2  505  501  0.45747487188E+02 -0.92989489943E+02  0.78253753463E+02  0.12985964637E+03  0.00000000000E+00 0. -1.
         -3    1    1    2    0  502 -0.31497464646E+02  0.25539216462E+03 -0.60650199485E+02  0.26437793918E+03  0.00000000000E+00 0.  1.
<scales pt_clust_3="44.52493" pt_clust_4="156.42516" pt_clust_5="44.52493" pt_clust_6="212.04517"></scales>
<clustering>
<clus scale="   44.525">  3  5 -1 -1</clus>
<clus scale="  156.425">  1  4  2 -1</clus>
<clus scale="  212.045">  2  6  1 -1</clus>
<clus scale="  156.425">  1  3  2 -1</clus>
</clustering>
</event>
<event>
 6    0  0.1993420E+002  0.6147527E+02  0.7546771E-02  0.1391743E+00
         21   -1    0    0  503  502  0.00000000000E+00  0.00000000000E+00  0.55506689424E+03  0.55506689424E+03  0.00000000000E+00 0.  1.
          2   -1    0    0  505    0 -0.00000000000E+00 -0.00000000000E+00 -0.10569548409E+04  0.10569548409E+04  0.00000000000E+00 0. -1.
         21    1    1    2  503  504  0.37728529977E+02 -0.34262119564E+02  0.74084918288E+02  0.89921687756E+02  0.00000000000E+00 0.  1.
         21    1    1    2  504  501  0.32355983444E+02 -0.87243770974E+02 -0.89335726889E+02  0.12899324532E+03  0.00000000000E+00 0. -1.
         21    1    1    2  505  502 -0.22734914212E+02  0.83792178750E+02  0.44808891601E+03  0.45642270123E+03  0.00000000000E+00 0.  1.
          2    1    1    2  501    0 -0.47349599209E+02  0.37713711788E+02 -0.93472605406E+03  0.93668410083E+03  0.00000000000E+00 0. -1.
<scales pt_clust_3="50.96405" pt_clust_4="61.47527" pt_clust_5="52.75019" pt_clust_6="14000.00000"></scales>
<clustering>
<clus scale="   50.964">  1  3  2 -1</clus>
<clus scale="   52.750">  1  5  2 -1</clus>
<clus scale="   61.475">  1  4  2 -1</clus>
<clus scale="   50.964">  1  3  2 -1</clus>
</clustering>
</event>
<event>
 6    0  0.1993420E+002  0.1410077E+03  0.7546771E-02  0.1211979E+00
          1   -1    0    0  505    0 -0.00000000000E+00  0.00000000000E+00  0.10651253706E+04  0.10651253706E+04  0.00000000000E+00 0. -1.
         21   -1    0    0  503  502  0.00000000000E+00 -0.00000000000E+00 -0.77710080059E+03  0.77710080059E+03  0.00000000000E+00 0. -1.
         21    1    1    2  503  504  0.47672875565E+02 -0.31824503837E+02 -0.20661271062E+02  0.60929387253E+02  0.00000000000E+00 0. -1.
         21    1    1    2  504  501  0.78636506321E+02 -0.14719412570E+03 -0.31889324633E+03  0.35992042638E+03  0.00000000000E+00 0. -1.
         21    1    1    2  505  502 -0.10374424024E+03  0.94507081324E+02 -0.38254391737E+03  0.40747307214E+03  0.00000000000E+00 0. -1.
          1    1    1    2  501    0 -0.22565141642E+02  0.84511548214E+02  0.10101230048E+04  0.10139032854E+04  0.00000000000E+00 0. -1.
<scales pt_clust_3="57.31930" pt_clust_4="14000.00000" pt_clust_5="141.00765" pt_clust_6="87.36176"></scales>
<clustering>
<clus scale="   57.319">  2  3  1 -1</clus>
<clus scale="   87.362">  1  6  2 -1</clus>
<clus scale="  141.008">  2  5  1 -1</clus>
<clus scale="   57.319">  2  3  1 -1</clus>
</clustering>
</event>
<event>
 6    0  0.1993420E+002  0.1229360E+03  0.7546771E-02  0.1238331E+00
         21   -1    0    0  504  502  0.00000000000E+00  0.00000000000E+00  0.15315950406E+03  0.15315950406E+03  0.00000000000E+00 0. -1.
          2   -1    0    0  505    0 -0.00000000000E+00 -0.00000000000E+00 -0.21363363706E+04  0.21363363706E+04  0.00000000000E+00 0. -1.
         21    1    1    2  503  502  0.36301646333E+02  0.65027611240E+02  0.18073974806E+02  0.76635946626E+02  0.00000000000E+00 0. -1.
         21    1    1    2  504  501 -0.56079613356E+02 -0.24348870018E+02  0.59301170687E+02  0.85172879194E+02  0.00000000000E+00 0. -1.
         21    1    1    2  505  503  0.17839395704E+02  0.75339358288E+02 -0.15019375163E+02  0.78865991255E+02  0.00000000000E+00 0. -1.
          2    1    1    2  501    0  0.19385713189E+01 -0.11601809951E+03 -0.20455326368E+04  0.20488210575E+04  0.00000000000E+00 0. -1.
<scales pt_clust_3="38.45563" pt_clust_4="61.13747" pt_clust_5="38.45563" pt_clust_6="116.51557"></scales>
<clustering>
<clus scale="   38.456">  3  5 -1 -1</clus>
<clus scale="   61.137">  1  4  2 -1</clus>
<clus scale="  116.516">  2  6  1 -1</clus>
<clus scale="   61.137">  1  3  2 -1</clus>
</clustering>
</event>
<event>
 6    0  0.1993420E+002  0.1561539E+03  0.7546771E-02  0.1193109E+00
         21   -1    0    0  505  502  0.00000000000E+00  0.00000000000E+00  0.11420589459E+03  0.11420589459E+03  0.00000000000E+00 0. -1.
         -4   -1    0    0    0  501 -0.00000000000E+00 -0.00000000000E+00 -0.74030089569E+03  0.74030089569E+03  0.00000000000E+00 0. -1.
         21    1    1    2  503  502  0.53339342806E+02 -0.22261046014E+02 -0.18215268440E+02  0.60600624295E+02  0.00000000000E+00 0. -1.
         21    1    1    2  504  503  0.10187006795E+03  0.88745376004E+02  0.12303033462E+02  0.13566361759E+03  0.00000000000E+00 0. -1.
         21    1    1    2  505  501 -0.27261965481E+02  0.28332636261E+02 -0.38031935998E+02  0.54702661683E+02  0.00000000000E+00 0. -1.
         -4    1    1    2    0  504 -0.12794744527E+03 -0.94816966252E+02 -0.58215083012E+03  0.60353988671E+03  0.00000000000E+00 0. -1.
<scales pt_clust_3="50.67460" pt_clust_4="156.15390" pt_clust_5="39.31861" pt_clust_6="14000.00000"></scales>
<clustering>
<clus scale="   39.319">  1  5  2 -1</clus>
<clus scale="   50.675">  1  3  2 -1</clus>
<clus scale="  156.154">  1  4  2 -1</clus>
<clus scale="   39.319">  1  3  2 -1</clus>
</clustering>
</event>
<event>
 6    0  0.1993420E+002  0.1222255E+03  0.7546771E-02  0.1239470E+00
         21   -1    0    0  504  502  0.00000000000E+00  0.00000000000E+00  0.40478672664E+03  0.40478672664E+03  0.00000000000E+00 0. -1.
          2   -1    0    0  503    0 -0.00000000000E+00 -0.00000000000E+00 -0.10206646264E+04  0.10206646264E+04  0.00000000000E+00 0. -1.
         21    1    1    2  503  502 -0.97516004223E+02 -0.10449963784E+03  0.89098738570E+02  0.16842841388E+03  0.00000000000E+00 0. -1.
         21    1    1    2  504  505  0.61540034474E+02  0.97315432944E+02  0.20932030697E+03  0.23889843081E+03  0.00000000000E+00 0. -1.
         21    1    1    2  505  501  0.32009406426E+02  0.63199527084E+02  0.26511567907E+02  0.75641559717E+02  0.00000000000E+00 0.  1.
          2    1    1    2  501    0  0.39665633227E+01 -0.56015322191E+02 -0.94080851319E+03  0.94248294862E+03  0.00000000000E+00 0. -1.
<scales pt_clust_3="14000.00000" pt_clust_4="122.22549" pt_clust_5="56.58092" pt_clust_6="56.15559"></scales>
<clustering>
<clus scale="   56.156">  2  6  1 -1</clus>
<clus scale="   56.581">  2  5  1 -1</clus>
<clus scale="  122.225">  1  4  2 -1</clus>
<clus scale="  122.225">  1  3  2 -1</clus>
</clustering>
</event>
<event>
 6    0  0.1993420E+002  0.1113070E+03  0.7546771E-02  0.1258169E+00
         -2   -1    0    0    0  501 -0.00000000000E+00  0.00000000000E+00  0.17160059733E+03  0.17160059733E+03  0.00000000000E+00 0.  1.
         21   -1    0    0  505  502  0.00000000000E+00 -0.00000000000E+00 -0.29260673530E+03  0.29260673530E+03  0.00000000000E+00 0.  1.
         21    1    1    2  503  504 -0.47453934972E+02  0.41107474251E+02 -0.10230790465E+03  0.12003586021E+03  0.00000000000E+00 0.  1.
         21    1    1    2  504  502 -0.11573316797E+02  0.46676390807E+02 -0.11902866434E+03  0.12837620517E+03  0.00000000000E+00 0.  1.
         21    1    1    2  505  501  0.56956906137E+02  0.15902895878E+02 -0.14681798616E+02  0.60930669326E+02  0.00000000000E+00 0.  1.
         -2    1    1    2    0  503  0.20703456324E+01 -0.10368676094E+03  0.11501222963E+03  0.15486459792E+03  0.00000000000E+00 0.  1.
<scales pt_clust_3="34.21619" pt_clust_4="34.21619" pt_clust_5="59.13536" pt_clust_6="104.21509"></scales>
<clustering>
<clus scale="   34.216">  3  4 -1 -1</clus>
<clus scale="   59.135">  1  5  2 -1</clus>
<clus scale="  104.215">  1  6  2 -1</clus>
<clus scale="  111.307">  2  3  1 -1</clus>
</clustering>
</event>
<event>
 6    0  0.1993420E+002  0.1237762E+03  0.7546771E-02  0.1236994E+00
          2   -1    0    0  502    0 -0.00000000000E+00  0.00000000000E+00  0.85112669409E+03  0.85112669409E+03  0.00000000000E+00 0. -1.
         21   -1    0    0  504  502  0.00000000000E+00 -0.00000000000E+00 -0.28288943546E+03  0.28288943546E+03  0.00000000000E+00 0.  1.
         21    1    1    2  503  505  0.48455054741E+02 -0.49764706635E+02 -0.18972632095E+03  0.20204082562E+03  0.00000000000E+00 0.  1.
         21    1    1    2  504  503  0.23693773681E+02 -0.45878603981E+02 -0.47735672999E+02  0.70320236712E+02  0.00000000000E+00 0.  1.
         21    1    1    2  505  501 -0.25603780005E+02  0.73327864811E+02  0.28484079601E+02  0.82727698499E+02  0.00000000000E+00 0.  1.
          2    1    1    2  501    0 -0.46545048418E+02  0.22315445805E+02  0.77721517297E+03  0.77892736873E+03  0.00000000000E+00 0. -1.
<scales pt_clust_3="50.56450" pt_clust_4="50.56450" pt_clust_5="109.00139" pt_clust_6="51.61803"></scales>
<clustering>
<clus scale="   50.564">  3  4 -1 -1</clus>
<clus scale="   51.618">  1  6  2 -1</clus>
<clus scale="  109.001">  1  5  2 -1</clus>
<clus scale="  123.776">  2  3  1 -1</clus>
</clustering>
</event>
<event>
 6    0  0.1993420E+002  0.1781813E+03  0.7546771E-02  0.1169575E+00
          2   -1    0    0  503    0 -0.00000000000E+00  0.00000000000E+00  0.45897486446E+03  0.45897486446E+03  0.00000000000E+00 0.  1.
         21   -1    0    0  501  502  0.00000000000E+00 -0.00000000000E+00 -0.22789096104E+03  0.22789096104E+03  0.00000000000E+00 0. -1.
         21    1    1    2  503  505  0.81595479389E+02 -0.56314777464E+02  0.22890944755E+02  0.10175053695E+03  0.00000000000E+00 0. -1.
         21    1    1    2  504  502  0.22621432179E+02 -0.22130873052E+02 -0.12229336914E+03  0.12632170389E+03  0.00000000000E+00 0. -1.
         21    1    1    2  505  504  0.25618181654E+02 -0.28420673485E+02 -0.37891310066E+02  0.53849580232E+02  0.00000000000E+00 0. -1.
          2    1    1    2  501    0 -0.12983509322E+03  0.10686632400E+03  0.36837763787E+03  0.40494400443E+03  0.00000000000E+00 0.  1.
<scales pt_clust_3="49.99813" pt_clust_4="31.64656" pt_clust_5="49.99813" pt_clust_6="162.59474"></scales>
<clustering>
<clus scale="   31.647">  2  4  1 -1</clus>
<clus scale="   49.998">  3  5 -1 -1</clus>
<clus scale="  162.595">  1  6  2 -1</clus>
<clus scale="   31.647">  2  3  1 -1</clus>
</clustering>
</event>
<event>
 6    0  0.1993420E+002  0.1533445E+03  0.7546771E-02  0.1196423E+00
         -1   -1    0    0    0  501 -0.00000000000E+00  0.00000000000E+00  0.23726491792E+03  0.23726491792E+03  0.00000000000E+00 0.  1.
         21   -1    0    0  501  502  0.00000000000E+00 -0.00000000000E+00 -0.84352804982E+03  0.84352804982E+03  0.00000000000E+00 0. -1.
         21    1    1    2  503  504 -0.51724693267E+02  0.14566739501E+03 -0.20927979223E+03  0.26017775712E+03  0.00000000000E+00 0. -1.
         21    1    1    2  504  505 -0.69400107849E+02 -0.68620864312E+02 -0.30435195200E+03  0.31961744113E+03  0.00000000000E+00 0. -1.
         21    1    1    2  505  502 -0.21898480723E+02 -0.69434049185E+02 -0.26619342733E+03  0.27597023643E+03  0.00000000000E+00 0. -1.
         -1    1    1    2    0  503  0.14302328184E+03 -0.76124815157E+01  0.17356203966E+03  0.22502753305E+03  0.00000000000E+00 0.  1.
<scales pt_clust_3="147.33113" pt_clust_4="36.72568" pt_clust_5="36.72568" pt_clust_6="143.22573"></scales>
<clustering>
<clus scale="   36.726">  4  5 -1 -1</clus>
<clus scale="  143.226">  1  6  2 -1</clus>
<clus scale="  147.331">  1  3  2 -1</clus>
<clus scale="  153.344">  2  3  1 -1</clus>
</clustering>
</event>
<event>
 6    0  0.1993420E+002  0.1253809E+03  0.7546771E-02  0.1234475E+00
         21   -1    0    0  503  502  0.00000000000E+00  0.00000000000E+00  0.18383525679E+02  0.18383525679E+02  0.00000000000E+00 0. -1.
          1   -1    0    0  504    0 -0.00000000000E+00 -0.00000000000E+00 -0.23550247376E+04  0.23550247376E+04  0.00000000000E+00 0.  1.
         21    1    1    2  503  501  0.33293723457E+02 -0.12272958873E+02 -0.86804782924E+02  0.93777224738E+02  0.00000000000E+00 0.  1.
         21    1    1    2  504  505  0.10275449717E+01 -0.13495132138E+03 -0.53221399693E+03  0.54905796918E+03  0.00000000000E+00 0. -1.
         21    1    1    2  505  502 -0.29497769250E+02  0.11454379408E+03 -0.55419384579E+03  0.56667558432E+03  0.00000000000E+00 0. -1.
          1    1    1    2  501    0 -0.48234991788E+01  0.32680486166E+02 -0.11634285862E+04  0.11638974850E+04  0.00000000000E+00 0.  1.
<scales pt_clust_3="34.35446" pt_clust_4="14000.00000" pt_clust_5="125.38093" pt_clust_6="33.03453"></scales>
<clustering>
<clus scale="   33.035">  2  6  1 -1</clus>
<clus scale="   34.354">  1  3  2 -1</clus>
<clus scale="  125.381">  1  5  2 -1</clus>
<clus scale="   34.354">  1  3  2 -1</clus>
</clustering>
</event>
<event>
 6    0  0.1993420E+002  0.8917005E+02  0.7546771E-02  0.1304874E+00
          1   -1    0    0  505    0 -0.00000000000E+00  0.00000000000E+00  0.11050653637E+04  0.11050653637E+04  0.00000000000E+00 0.  1.
         21   -1    0    0  504  502  0.00000000000E+00 -0.00000000000E+00 -0.50815815384E+02  0.50815815384E+02  0.00000000000E+00 0. -1.
         21    1    1    2  503  502  0.14616593655E+02  0.39105320016E+02  0.14570072926E+02  0.44217167352E+02  0.00000000000E+00 0. -1.
         21    1    1    2  504  501 -0.11546039101E+03 -0.33202115898E+02  0.11725728937E+03  0.16787720007E+03  0.00000000000E+00 0. -1.
         21    1    1    2  505  503  0.64339560698E+02  0.14497565312E+02  0.96951909069E+02  0.11725796836E+03  0.00000000000E+00 0. -1.
          1    1    1    2  501    0  0.36504236660E+02 -0.20400769430E+02  0.82547027698E+03  0.82652884333E+03  0.00000000000E+00 0.  1.
<scales pt_clust_3="41.74770" pt_clust_4="89.17005" pt_clust_5="14000.00000" pt_clust_6="41.72957"></scales>
<clustering>
<clus scale="   41.748">  2  3  1 -1</clus>
<clus scale="   41.730">  1  6  2 -1</clus>
<clus scale="   89.170">  2  4  1 -1</clus>
<clus scale="   41.748">  2  3  1 -1</clus>
</clustering>
</event>
<event>
 6    0  0.1993420E+002  0.2509699E+03  0.7546771E-02  0.1112693E+00
          1   -1    0    0  505    0 -0.00000000000E+00  0.00000000000E+00  0.58828842613E+03  0.58828842613E+03  0.00000000000E+00 0. -1.
         21   -1    0    0  503  502  0.00000000000E+00 -0.00000000000E+00 -0.99299657844E+03  0.99299657844E+03  0.00000000000E+00 0.  1.
         21    1    1    2  503  501 -0.72803518771E+02  0.24400686988E+03 -0.80769974557E+03  0.84688758634E+03  0.00000000000E+00 0.  1.
         21    1    1    2  504  502  0.37198662656E+01 -0.89190829502E+02 -0.56828067125E+02  0.10582188188E+03  0.00000000000E+00 0. -1.
         21    1    1    2  505  504  0.16850675613E+02 -0.13167679718E+03 -0.29453177082E+02  0.13597872563E+03  0.00000000000E+00 0.  1.
          1    1    1    2  501    0  0.52232976893E+02 -0.23139243198E+02  0.48927283747E+03  0.49259681072E+03  0.00000000000E+00 0. -1.
<scales pt_clust_3="247.32255" pt_clust_4="34.95898" pt_clust_5="34.95898" pt_clust_6="57.12888"></scales>
<clustering>
<clus scale="   34.959">  4  5 -1 -1</clus>
<clus scale="   57.129">  1  6  2 -1</clus>
<clus scale="  247.323">  2  3  1 -1</clus>
<clus scale="  247.323">  2  3  1 -1</clus>
</clustering>
</event>
<event>
 6    0  0.1993420E+002  0.1584731E+03  0.7546771E-02  0.1190432E+00
          2   -1    0    0  503    0 -0.00000000000E+00  0.00000000000E+00  0.28483188641E+04  0.28483188641E+04  0.00000000000E+00 0. -1.
         21   -1    0    0  505  502  0.00000000000E+00 -0.00000000000E+00 -0.22037904092E+03  0.22037904092E+03  0.00000000000E+00 0. -1.
         21    1    1    2  503  502  0.15239050216E+03 -0.17071090890E+02 -0.12096555736E+03  0.19531245060E+03  0.00000000000E+00 0. -1.
         21    1    1    2  504  501  0.82263961162E-01  0.38679774774E+02  0.68236742487E+01  0.39277146971E+02  0.00000000000E+00 0. -1.
         21    1    1    2  505  504 -0.18819147769E+03 -0.22362118567E+02  0.14977295318E+03  0.24155337739E+03  0.00000000000E+00 0. -1.
          2    1    1    2  501    0  0.35718711567E+02  0.75343468331E+00  0.25923087531E+04  0.25925549301E+04  0.00000000000E+00 0. -1.
<scales pt_clust_3="14000.00000" pt_clust_4="38.88790" pt_clust_5="158.47306" pt_clust_6="35.72666"></scales>
<clustering>
<clus scale="   35.727">  1  6  2 -1</clus>
<clus scale="   38.888">  1  4  2 -1</clus>
<clus scale="  158.473">  1  5  2 -1</clus>
<clus scale="  158.473">  2  3  1 -1</clus>
</clustering>
</event>
<event>
 6    0  0.1993420E+002  0.1262296E+03  0.7546771E-02  0.1233160E+00
         21   -1    0    0  503  502  0.00000000000E+00  0.00000000000E+00  0.13552359199E+03  0.13552359199E+03  0.00000000000E+00 0.  1.
          1   -1    0    0  504    0 -0.00000000000E+00 -0.00000000000E+00 -0.11562682327E+04  0.11562682327E+04  0.00000000000E+00 0. -1.
         21    1    1    2  503  505  0.91820468855E+01  0.42037803724E+02 -0.26538964298E+01  0.43110672614E+02  0.00000000000E+00 0.  1.
         21    1    1    2  504  502  0.76156764871E+02  0.17573483289E+02  0.89380415883E+02  0.11873305729E+03  0.00000000000E+00 0.  1.
         21    1    1    2  505  501  0.12865925645E+01  0.36154157712E+02 -0.37111114899E+02  0.51826762288E+02  0.00000000000E+00 0.  1.
          1    1    1    2  501    0 -0.86625404321E+02 -0.95765444724E+02 -0.10703600453E+04  0.10781213325E+04  0.00000000000E+00 0. -1.
<scales pt_clust_3="31.87286" pt_clust_4="78.15805" pt_clust_5="31.87286" pt_clust_6="121.34916"></scales>
<clustering>
<clus scale="   31.873">  3  5 -1 -1</clus>
<clus scale="   78.158">  1  4  2 -1</clus>
<clus scale="  121.349">  2  6  1 -1</clus>
<clus scale="   78.158">  1  3  2 -1</clus>
</clustering>
</event>
<event>
 6    0  0.1993420E+002  0.1374133E+03  0.7546771E-02  0.1216852E+00
          2   -1    0    0  504    0 -0.00000000000E+00  0.00000000000E+00  0.13241704478E+04  0.13241704478E+04  0.00000000000E+00 0.  1.
         21   -1    0    0  503  502  0.00000000000E+00 -0.00000000000E+00 -0.48819457211E+02  0.48819457211E+02  0.00000000000E+00 0.  1.
         21    1    1    2  503  505 -0.55157278295E+02  0.16194989909E+02  0.71751256613E+01  0.57931731161E+02  0.00000000000E+00 0.  1.
         21    1    1    2  504  502 -0.31007754453E+02 -0.19097290146E+02  0.35828283113E+02  0.51086722326E+02  0.00000000000E+00 0.  1.
         21    1    1    2  505  501 -0.38914120301E+02  0.39691047188E+02  0.50954154853E+02  0.75405662138E+02  0.00000000000E+00 0.  1.
          2    1    1    2  501    0  0.12507915305E+03 -0.36788746951E+02  0.11813934270E+04  0.11885657894E+04  0.00000000000E+00 0.  1.
<scales pt_clust_3="43.84833" pt_clust_4="36.41685" pt_clust_5="43.84833" pt_clust_6="128.27803"></scales>
<clustering>
<clus scale="   36.417">  2  4  1 -1</clus>
<clus scale="   43.848">  3  5 -1 -1</clus>
<clus scale="  128.278">  1  6  2 -1</clus>
<clus scale="   36.417">  2  3  1 -1</clus>
</clustering>
</event>
<event>
 6    0  0.1993420E+002  0.4835456E+03  0.7546771E-02  0.1018165E+00
          2   -1    0    0  505    0 -0.00000000000E+00  0.00000000000E+00  0.29351667768E+04  0.29351667768E+04  0.00000000000E+00 0.  1.
         21   -1    0    0  504  502  0.00000000000E+00 -0.00000000000E+00 -0.26977596459E+03  0.26977596459E+03  0.00000000000E+00 0.  1.
         21    1    1    2  503  502 -0.11375258124E+03  0.53603825242E+03  0.22414874942E+03  0.59204672084E+03  0.00000000000E+00 0.  1.
         21    1    1    2  504  501 -0.36907954408E+01 -0.72312350478E+02  0.14058336196E+02  0.73758625389E+02  0.00000000000E+00 0.  1.
         21    1    1    2  505  503  0.15790237236E+03 -0.41266059465E+03  0.82702177178E+03  0.93764968755E+03  0.00000000000E+00 0.  1.
          2    1    1    2  501    0 -0.40458995683E+02 -0.51065307291E+02  0.16001619549E+04  0.16014877076E+04  0.00000000000E+00 0.  1.
<scales pt_clust_3="483.54555" pt_clust_4="74.16297" pt_clust_5="14000.00000" pt_clust_6="65.15056"></scales>
<clustering>
<clus scale="   65.151">  1  6  2 -1</clus>
<clus scale="   74.163">  2  4  1 -1</clus>
<clus scale="  483.546">  2  3  1 -1</clus>
<clus scale="   74.163">  2  3  1 -1</clus>
</clustering>
</event>
<event>
 6    0  0.1993420E+002  0.1201095E+03  0.7546771E-02  0.1242916E+00
         21   -1    0    0  504  502  0.00000000000E+00  0.00000000000E+00  0.43958059202E+03  0.43958059202E+03  0.00000000000E+00 0.  1.
         -1   -1    0    0    0  501 -0.00000000000E+00 -0.00000000000E+00 -0.32331322163E+03  0.32331322163E+03  0.00000000000E+00 0. -1.
         21    1    1    2  503  501  0.10156083874E+03  0.31569153365E+02  0.23490699946E+03  0.25786142365E+03  0.00000000000E+00 0.  1.
         21    1    1    2  504  503  0.10436511594E+02 -0.36832692845E+02  0.14158933626E+03  0.14667347470E+03  0.00000000000E+00 0. -1.
         21    1    1    2  505  502  0.39413639027E+01 -0.31778987542E+02  0.29851772076E+02  0.43778610013E+02  0.00000000000E+00 0.  1.
         -1    1    1    2    0  505 -0.11593871423E+03  0.37042527022E+02 -0.29008073741E+03  0.31458030530E+03  0.00000000000E+00 0. -1.
<scales pt_clust_3="120.10954" pt_clust_4="49.63937" pt_clust_5="32.02247" pt_clust_6="14000.00000"></scales>
<clustering>
<clus scale="   32.022">  1  5  2 -1</clus>
<clus scale="   49.639">  1  4  2 -1</clus>
<clus scale="  120.110">  1  3  2 -1</clus>
<clus scale="   32.022">  1  3  2 -1</clus>
</clustering>
</event>
<event>
 6    0  0.1993420E+002  0.8928094E+02  0.7546771E-02  0.1304602E+00
          2   -1    0    0  504    0 -0.00000000000E+00  0.00000000000E+00  0.18273269095E+04  0.18273269095E+04  0.00000000000E+00 0. -1.
         21   -1    0    0  505  502  0.00000000000E+00 -0.00000000000E+00 -0.36472458300E+02  0.36472458300E+02  0.00000000000E+00 0. -1.
         21    1    1    2  503  501 -0.12113990900E+02  0.60756692670E+02  0.19795548811E+03  0.20742347927E+03  0.00000000000E+00 0.  1.
         21    1    1    2  504  502  0.62271527822E+02  0.23314431882E+02  0.82533218911E+02  0.10598602802E+03  0.00000000000E+00 0.  1.
         21    1    1    2  505  503  0.21902540847E+02 -0.26253651930E+02 -0.28939564685E+01  0.34312541720E+02  0.00000000000E+00 0. -1.
          2    1    1    2  501    0 -0.72060077769E+02 -0.57817472622E+02  0.15132597006E+04  0.15160773187E+04  0.00000000000E+00 0. -1.
<scales pt_clust_3="54.17039" pt_clust_4="89.28094" pt_clust_5="34.19028" pt_clust_6="14000.00000"></scales>
<clustering>
<clus scale="   34.190">  2  5  1 -1</clus>
<clus scale="   54.170">  2  3  1 -1</clus>
<clus scale="   89.281">  2  4  1 -1</clus>
<clus scale="   34.190">  2  3  1 -1</clus>
</clustering>
</event>
<event>
 6    0  0.1993420E+002  0.1448443E+03  0.7546771E-02  0.1206955E+00
         21   -1    0    0  505  502  0.00000000000E+00  0.00000000000E+00  0.14693964339E+03  0.14693964339E+03  0.00000000000E+00 0. -1.
          2   -1    0    0  503    0 -0.00000000000E+00 -0.00000000000E+00 -0.38420151785E+04  0.38420151785E+04  0.00000000000E+00 0.  1.
         21    1    1    2  503  504 -0.90853835287E+02  0.24420603620E+02 -0.12491082527E+02  0.94904227567E+02  0.00000000000E+00 0. -1.
         21    1    1    2  504  502 -0.53126486963E+02  0.57555480510E+02  0.56504281345E+02  0.96580488527E+02  0.00000000000E+00 0. -1.
         21    1    1    2  505  501  0.57858358525E+01 -0.33002237094E+02  0.17650905646E+02  0.37870542904E+02  0.00000000000E+00 0. -1.
          2    1    1    2  501    0  0.13819448640E+03 -0.48973847036E+02 -0.37567396395E+04  0.37595995629E+04  0.00000000000E+00 0.  1.
<scales pt_clust_3="144.84427" pt_clust_4="61.34690" pt_clust_5="33.50557" pt_clust_6="14000.00000"></scales>
<clustering>
<clus scale="   33.506">  1  5  2 -1</clus>
<clus scale="   61.347">  1  4  2 -1</clus>
<clus scale="  144.844">  1  3  2 -1</clus>
<clus scale="   33.506">  1  3  2 -1</clus>
</clustering>
</event>
<event>
 6    0  0.1993420E+002  0.1051965E+03  0.7546771E-02  0.1269733E+00
          2   -1    0    0  505    0 -0.00000000000E+00  0.00000000000E+00  0.15436912680E+03  0.15436912680E+03  0.00000000000E+00 0.  1.
         21   -1    0    0  503  502  0.00000000000E+00 -0.00000000000E+00 -0.21465301516E+03  0.21465301516E+03  0.00000000000E+00 0. -1.
         21    1    1    2  503  501  0.25750909796E+02  0.97755163153E+02 -0.27877461654E+02  0.10486340709E+03  0.00000000000E+00 0. -1.
         21    1    1    2  504  502  0.26206900502E+02  0.18140572981E+02 -0.47510126080E+02  0.57210961381E+02  0.00000000000E+00 0. -1.
         21    1    1    2  505  504 -0.19230724048E+02 -0.11319799601E+03 -0.56651751308E+02  0.12803526067E+03  0.00000000000E+00 0. -1.
          2    1    1    2  501    0 -0.32727086250E+02 -0.26977401266E+01  0.71755450685E+02  0.78912512818E+02  0.00000000000E+00 0.  1.
<scales pt_clust_3="105.19652" pt_clust_4="31.87290" pt_clust_5="14000.00000" pt_clust_6="32.23123"></scales>
<clustering>
<clus scale="   31.873">  2  4  1 -1</clus>
<clus scale="   32.231">  1  6  2 -1</clus>
<clus scale="  105.197">  1  3  2 -1</clus>
<clus scale="   31.873">  2  3  1 -1</clus>
</clustering>
</event>
<event>
 6    0  0.1993420E+002  0.1748664E+03  0.7546771E-02  0.1172866E+00
         21   -1    0    0  503  502  0.00000000000E+00  0.00000000000E+00  0.68667028501E+03  0.68667028501E+03  0.00000000000E+00 0. -1.
          2   -1    0    0  505    0 -0.00000000000E+00 -0.00000000000E+00 -0.70548505122E+03  0.70548505122E+03  0.00000000000E+00 0.  1.
         21    1    1    2  503  501  0.18093770326E+02 -0.76769021903E+02  0.25548802897E+03  0.26738548988E+03  0.00000000000E+00 0. -1.
         21    1    1    2  504  502  0.11132324886E+02  0.71513603830E+02  0.23515196377E+03  0.24603774153E+03  0.00000000000E+00 0. -1.
         21    1    1    2  505  504  0.14541065933E+03  0.31907250375E+02  0.14080017768E+03  0.20490735103E+03  0.00000000000E+00 0. -1.
          2    1    1    2  501    0 -0.17463675454E+03 -0.26651832302E+02 -0.65025493664E+03  0.67382475379E+03  0.00000000000E+00 0.  1.
<scales pt_clust_3="42.67330" pt_clust_4="72.37489" pt_clust_5="174.86638" pt_clust_6="14000.00000"></scales>
<clustering>
<clus scale="   72.375">  1  4  2 -1</clus>
<clus scale="   42.673">  1  3  2 -1</clus>
<clus scale="  174.866">  1  5  2 -1</clus>
<clus scale="   72.375">  1  3  2 -1</clus>
</clustering>
</event>
<event>
 6    0  0.1993420E+002  0.6867610E+02  0.7546771E-02  0.1364654E+00
         21   -1    0    0  505  502  0.00000000000E+00  0.00000000000E+00  0.18144164089E+04  0.18144164089E+04  0.00000000000E+00 0.  1.
         -1   -1    0    0    0  501 -0.00000000000E+00 -0.00000000000E+00 -0.69496120674E+02  0.69496120674E+02  0.00000000000E+00 0.  1.
         21    1    1    2  503  504  0.37748672003E+02 -0.83901005181E+02  0.10393567644E+04  0.10434207323E+04  0.00000000000E+00 0.  1.
         21    1    1    2  504  502 -0.40737433300E+02  0.39364448187E+02  0.65471385968E+03  0.65716005380E+03  0.00000000000E+00 0.  1.
         21    1    1    2  505  501 -0.18180098691E+02 -0.47466430610E+02  0.70488831298E+02  0.86903701654E+02  0.00000000000E+00 0.  1.
         -1    1    1    2    0  503  0.21168859988E+02  0.92002987604E+02 -0.19639167151E+02  0.96428041812E+02  0.00000000000E+00 0.  1.
<scales pt_clust_3="68.67610" pt_clust_4="14000.00000" pt_clust_5="50.82891" pt_clust_6="47.22338"></scales>
<clustering>
<clus scale="   50.829">  2  5  1 -1</clus>
<clus scale="   47.223">  2  6  1 -1</clus>
<clus scale="   68.676">  2  3  1 -1</clus>
<clus scale="   68.676">  1  3  2 -1</clus>
</clustering>
</event>
<event>
 6    0  0.1993420E+002  0.1133434E+03  0.7546771E-02  0.1254501E+00
         21   -1    0    0  505  502  0.00000000000E+00  0.00000000000E+00  0.59823497642E+03  0.59823497642E+03  0.00000000000E+00 0.  1.
          2   -1    0    0  502    0 -0.00000000000E+00 -0.00000000000E+00 -0.99946575551E+03  0.99946575551E+03  0.00000000000E+00 0. -1.
         21    1    1    2  503  504 -0.40909371382E+02 -0.29164935143E+02  0.10010354914E+03  0.11200397609E+03  0.00000000000E+00 0.  1.
         21    1    1    2  504  501 -0.25355732372E+02 -0.31462508201E+02  0.27935479331E+02  0.49124266833E+02  0.00000000000E+00 0.  1.
         21    1    1    2  505  503  0.67727231980E+02 -0.46821833246E+02  0.44694264707E+03  0.45446341084E+03  0.00000000000E+00 0.  1.
          2    1    1    2  501    0 -0.14621282256E+01  0.10744927659E+03 -0.97621245463E+03  0.98210907818E+03  0.00000000000E+00 0. -1.
<scales pt_clust_3="34.75171" pt_clust_4="34.75171" pt_clust_5="82.33627" pt_clust_6="106.51363"></scales>
<clustering>
<clus scale="   34.752">  3  4 -1 -1</clus>
<clus scale="   82.336">  1  5  2 -1</clus>
<clus scale="  106.514">  2  6  1 -1</clus>
<clus scale="   82.336">  1  3  2 -1</clus>
</clustering>
</event>
<event>
 6    0  0.1993420E+002  0.8102135E+02  0.7546771E-02  0.1326178E+00
         21   -1    0    0  503  502  0.00000000000E+00  0.00000000000E+00  0.25707155991E+03  0.25707155991E+03  0.00000000000E+00 0.  1.
          1   -1    0    0  505    0 -0.00000000000E+00 -0.00000000000E+00 -0.11705447868E+04  0.11705447868E+04  0.00000000000E+00 0.  1.
         21    1    1    2  503  504  0.36117525013E+02  0.10203238379E+00  0.27586827549E+02  0.45447982110E+02  0.00000000000E+00 0. -1.
         21    1    1    2  504  501  0.47285274891E+02 -0.92292712163E+02  0.78322219710E+00  0.10370369028E+03  0.00000000000E+00 0.  1.
         21    1    1    2  505  502 -0.61062226641E+02  0.64981606688E+02  0.15619844179E+03  0.17985871663E+03  0.00000000000E+00 0.  1.
          1    1    1    2  501    0 -0.22340573263E+02  0.27209073092E+02 -0.10980417184E+04  0.10986059576E+04  0.00000000000E+00 0.  1.
<scales pt_clust_3="33.53463" pt_clust_4="81.02135" pt_clust_5="14000.00000" pt_clust_6="35.20561"></scales>
<clustering>
<clus scale="   35.206">  2  6  1 -1</clus>
<clus scale="   33.535">  1  3  2 -1</clus>
<clus scale="   81.021">  2  4  1 -1</clus>
<clus scale="   33.535">  1  3  2 -1</clus>
</clustering>
</event>
<event>
 6    0  0.1993420E+002  0.1961872E+03  0.7546771E-02  0.1152996E+00
         -1   -1    0    0    0  501 -0.00000000000E+00  0.00000000000E+00  0.13339625421E+04  0.13339625421E+04  0.00000000000E+00 0.  1.
         21   -1    0    0  505  502  0.00000000000E+00 -0.00000000000E+00 -0.43254604526E+03  0.43254604526E+03  0.00000000000E+00 0.  1.
         21    1    1    2  503  502 -0.15415158234E+03 -0.56930259783E+02 -0.65941380517E+02  0.17706504590E+03  0.00000000000E+00 0.  1.
         21    1    1    2  504  501  0.51883280253E+02  0.19971444404E+02 -0.29723382114E+02  0.63041357898E+02  0.00000000000E+00 0.  1.
         21    1    1    2  505  504  0.10761321666E+03  0.83309355608E+02 -0.24669898031E+03  0.28174712069E+03  0.00000000000E+00 0.  1.
         -1    1    1    2    0  503 -0.53449145754E+01 -0.46350540229E+02  0.12437802398E+04  0.12446550629E+04  0.00000000000E+00 0.  1.
<scales pt_clust_3="179.23649" pt_clust_4="50.54462" pt_clust_5="50.54462" pt_clust_6="46.65770"></scales>
<clustering>
<clus scale="   46.658">  1  6  2 -1</clus>
<clus scale="   50.545">  4  5 -1 -1</clus>
<clus scale="  179.236">  1  3  2 -1</clus>
<clus scale="  196.187">  2  3  1 -1</clus>
</clustering>
</event>
<event>
 6    0  0.1993420E+002  0.7626264E+02  0.7546771E-02  0.1340005E+00
         21   -1    0    0  504  502  0.00000000000E+00  0.00000000000E+00  0.61172694209E+02  0.61172694209E+02  0.00000000000E+00 0.  1.
          2   -1    0    0  505    0 -0.00000000000E+00 -0.00000000000E+00 -0.60395989283E+03  0.60395989283E+03  0.00000000000E+00 0.  1.
         21    1    1    2  503  501 -0.14829095474E+02  0.49526572082E+02  0.49793688980E+01  0.51938208761E+02  0.00000000000E+00 0.  1.
         21    1    1    2  504  503 -0.33683242108E+02  0.45571187584E+01 -0.11549524614E+02  0.35898741609E+02  0.00000000000E+00 0.  1.
         21    1    1    2  505  502  0.11407285586E+03 -0.26243548827E+02 -0.18493988260E+03  0.21887005385E+03  0.00000000000E+00 0.  1.
          2    1    1    2  501    0 -0.65560518275E+02 -0.27840142013E+02 -0.35127716031E+03  0.35842558282E+03  0.00000000000E+00 0.  1.
<scales pt_clust_3="62.48944" pt_clust_4="33.99012" pt_clust_5="14000.00000" pt_clust_6="76.26264"></scales>
<clustering>
<clus scale="   33.990">  1  4  2 -1</clus>
<clus scale="   62.489">  1  3  2 -1</clus>
<clus scale="   76.263">  2  6  1 -1</clus>
<clus scale="   33.990">  1  3  2 -1</clus>
</clustering>
</event>
<event>
 6    0  0.1993420E+002  0.1376250E+03  0.7546771E-02  0.1216561E+00
         21   -1    0    0  503  502  0.00000000000E+00  0.00000000000E+00  0.10369438104E+03  0.10369438104E+03  0.00000000000E+00 0. -1.
          2   -1    0    0  505    0 -0.00000000000E+00 -0.00000000000E+00 -0.27356015213E+04  0.27356015213E+04  0.00000000000E+00 0. -1.
         21    1    1    2  503  501  0.42534786695E+02 -0.70441549995E+02 -0.18187477101E+03  0.19962377708E+03  0.00000000000E+00 0.  1.
         21    1    1    2  504  502 -0.28701994582E+02  0.15634882673E+03  0.24897867057E+02  0.16089954598E+03  0.00000000000E+00 0. -1.
         21    1    1    2  505  504 -0.13719667312E+02 -0.32149863422E+02 -0.18868831528E+03  0.19189873192E+03  0.00000000000E+00 0.  1.
          2    1    1    2  501    0 -0.11312480096E+00 -0.53757413309E+02 -0.22862419211E+04  0.22868738474E+04  0.00000000000E+00 0. -1.
<scales pt_clust_3="14000.00000" pt_clust_4="137.62500" pt_clust_5="34.95487" pt_clust_6="83.56979"></scales>
<clustering>
<clus scale="   34.955">  2  5  1 -1</clus>
<clus scale="   83.570">  2  6  1 -1</clus>
<clus scale="  137.625">  1  4  2 -1</clus>
<clus scale="  137.625">  1  3  2 -1</clus>
</clustering>
</event>
<event>
 6    0  0.1993420E+002  0.1121007E+03  0.7546771E-02  0.1256728E+00
          2   -1    0    0  505    0 -0.00000000000E+00  0.00000000000E+00  0.10216139605E+04  0.10216139605E+04  0.00000000000E+00 0. -1.
         21   -1    0    0  503  502  0.00000000000E+00 -0.00000000000E+00 -0.91757137846E+02  0.91757137846E+02  0.00000000000E+00 0.  1.
         21    1    1    2  503  501 -0.26406509594E+02 -0.34295503344E+02  0.52049115005E+02  0.67694871824E+02  0.00000000000E+00 0.  1.
         21    1    1    2  504  502 -0.22978336805E+02 -0.73245983650E+02 -0.54787805913E+02  0.94311620492E+02  0.00000000000E+00 0.  1.
         21    1    1    2  505  504 -0.29046383112E+02  0.32725158664E+02  0.74111137212E+02  0.86064447017E+02  0.00000000000E+00 0.  1.
          2    1    1    2  501    0  0.78431229511E+02  0.74816328329E+02  0.85848437634E+03  0.86530015901E+03  0.00000000000E+00 0. -1.
<scales pt_clust_3="43.28378" pt_clust_4="14000.00000" pt_clust_5="43.28425" pt_clust_6="112.10068"></scales>
<clustering>
<clus scale="   43.284">  2  3  1 -1</clus>
<clus scale="   43.284">  1  5  2 -1</clus>
<clus scale="  112.101">  1  6  2 -1</clus>
<clus scale="   43.284">  2  3  1 -1</clus>
</clustering>
</event>
<event>
 6    0  0.2732550E+002  0.1157560E+03  0.7546771E-02  0.1250267E+00
         21   -1    0    0  503  502  0.00000000000E+00  0.00000000000E+00  0.70255738921E+03  0.70255738921E+03  0.00000000000E+00 0.  1.
         -1   -1    0    0    0  501 -0.00000000000E+00 -0.00000000000E+00 -0.13339473693E+04  0.13339473693E+04  0.00000000000E+00 0.  1.
         21    1    1    2  503  501  0.26360392774E+02 -0.31220406848E+02  0.59699235265E+02  0.72343505598E+02  0.00000000000E+00 0. -1.
         21    1    1    2  504  502  0.87016535850E+02 -0.15395798462E+01  0.61901577737E+03  0.62510381574E+03  0.00000000000E+00 0.  1.
         21    1    1    2  505  504 -0.81034527856E+02  0.60515260447E+02 -0.16755240272E+03  0.19571024273E+03  0.00000000000E+00 0. -1.
         -1    1    1    2    0  505 -0.32342400769E+02 -0.27755273753E+02 -0.11425525900E+04  0.11433471945E+04  0.00000000000E+00 0.  1.
<scales pt_clust_3="40.86054" pt_clust_4="14000.00000" pt_clust_5="115.75599" pt_clust_6="42.61929"></scales>
<clustering>
<clus scale="   40.861">  1  3  2 -1</clus>
<clus scale="   42.619">  2  6  1 -1</clus>
<clus scale="  115.756">  2  5  1 -1</clus>
<clus scale="   40.861">  1  3  2 -1</clus>
</clustering>
</event>
<event>
 6    0  0.1993420E+002  0.1405677E+03  0.7546771E-02  0.1212567E+00
         21   -1    0    0  504  502  0.00000000000E+00  0.00000000000E+00  0.27051331559E+04  0.27051331559E+04  0.00000000000E+00 0.  1.
          2   -1    0    0  503    0 -0.00000000000E+00 -0.00000000000E+00 -0.34998691057E+02  0.34998691057E+02  0.00000000000E+00 0.  1.
         21    1    1    2  503  502 -0.11110166967E+03  0.37418477675E+02  0.11155775027E+04  0.11217205035E+04  0.00000000000E+00 0.  1.
         21    1    1    2  504  505  0.36915247011E+02  0.14004327267E+02  0.26517510942E+03  0.26809829410E+03  0.00000000000E+00 0. -1.
         21    1    1    2  505  501 -0.32339748218E+01  0.75483348520E+02  0.11294032434E+04  0.11319275069E+04  0.00000000000E+00 0.  1.
          2    1    1    2  501    0  0.77420397483E+02 -0.12690615346E+03  0.15997860926E+03  0.21838554245E+03  0.00000000000E+00 0.  1.
<scales pt_clust_3="140.56768" pt_clust_4="39.48236" pt_clust_5="83.14397" pt_clust_6="14000.00000"></scales>
<clustering>
<clus scale="   39.482">  1  4  2 -1</clus>
<clus scale="   83.144">  1  5  2 -1</clus>
<clus scale="  140.568">  1  3  2 -1</clus>
<clus scale="   39.482">  1  3  2 -1</clus>
</clustering>
</event>
<event>
 6    0  0.1993420E+002  0.1372339E+03  0.7546771E-02  0.1217100E+00
          1   -1    0    0  505    0 -0.00000000000E+00  0.00000000000E+00  0.34733401881E+03  0.34733401881E+03  0.00000000000E+00 0. -1.
         21   -1    0    0  503  502  0.00000000000E+00 -0.00000000000E+00 -0.33051084678E+03  0.33051084678E+03  0.00000000000E+00 0.  1.
         21    1    1    2  503  504 -0.56922402566E+02 -0.20206266391E+02 -0.12338130374E+03  0.13737321147E+03  0.00000000000E+00 0.  1.
         21    1    1    2  504  501 -0.96155354669E+02  0.11958777557E+02 -0.97419764077E+01  0.97384653291E+02  0.00000000000E+00 0. -1.
         21    1    1    2  505  502  0.19655203737E+03 -0.13239535850E+02 -0.76631657824E+02  0.21137738688E+03  0.00000000000E+00 0.  1.
          1    1    1    2  501    0 -0.43474280132E+02  0.21487024683E+02  0.22657811001E+03  0.23170961396E+03  0.00000000000E+00 0. -1.
<scales pt_clust_3="62.43601" pt_clust_4="137.23389" pt_clust_5="14000.00000" pt_clust_6="48.49438"></scales>
<clustering>
<clus scale="   48.494">  1  6  2 -1</clus>
<clus scale="   62.436">  2  3  1 -1</clus>
<clus scale="  137.234">  1  4  2 -1</clus>
<clus scale="   62.436">  2  3  1 -1</clus>
</clustering>
</event>
<event>
 6    0  0.1993420E+002  0.6998075E+02  0.7546771E-02  0.1360159E+00
         21   -1    0    0  504  502  0.00000000000E+00  0.00000000000E+00  0.17985969941E+03  0.17985969941E+03  0.00000000000E+00 0. -1.
         -1   -1    0    0    0  501 -0.00000000000E+00 -0.00000000000E+00 -0.75165894558E+03  0.75165894558E+03  0.00000000000E+00 0.  1.
         21    1    1    2  503  505 -0.17908322758E+02  0.77132062390E+02  0.58471486383E+02  0.98432605331E+02  0.00000000000E+00 0. -1.
         21    1    1    2  504  501  0.41714854528E+02 -0.57606684823E+01  0.18351890837E+02  0.45935893231E+02  0.00000000000E+00 0. -1.
         21    1    1    2  505  502 -0.58453182779E+02 -0.10720399287E+02  0.54459233869E+02  0.80607131765E+02  0.00000000000E+00 0. -1.
         -1    1    1    2    0  503  0.34646651009E+02 -0.60650994620E+02 -0.70308185726E+03  0.70654301467E+03  0.00000000000E+00 0.  1.
<scales pt_clust_3="69.98075" pt_clust_4="42.11074" pt_clust_5="41.58439" pt_clust_6="14000.00000"></scales>
<clustering>
<clus scale="   42.111">  1  4  2 -1</clus>
<clus scale="   41.584">  1  5  2 -1</clus>
<clus scale="   69.981">  1  3  2 -1</clus>
<clus scale="   42.111">  1  3  2 -1</clus>
</clustering>
</event>
<event>
 6    0  0.2051297E+002  0.1217566E+03  0.7546771E-02  0.1240227E+00
          2   -1    0    0  503    0 -0.00000000000E+00  0.00000000000E+00  0.91571663235E+03  0.91571663235E+03  0.00000000000E+00 0.  1.
         21   -1    0    0  501  502  0.00000000000E+00 -0.00000000000E+00 -0.13895623494E+04  0.13895623494E+04  0.00000000000E+00 0. -1.
         21    1    1    2  503  504 -0.54451369403E+02 -0.14642838336E+02  0.87538678461E+00  0.56392647095E+02  0.00000000000E+00 0.  1.
         21    1    1    2  504  505  0.55139479393E+02 -0.47323346653E+02 -0.73014698249E+03  0.73375368985E+03  0.00000000000E+00 0. -1.
         21    1    1    2  505  502  0.27932937943E+01 -0.48114641777E+02 -0.62549732955E+03  0.62735136130E+03  0.00000000000E+00 0.  1.
          2    1    1    2  501    0 -0.34814037846E+01  0.11008082677E+03  0.88092320821E+03  0.88778128351E+03  0.00000000000E+00 0.  1.
<scales pt_clust_3="56.38585" pt_clust_4="39.65517" pt_clust_5="39.65517" pt_clust_6="111.59673"></scales>
<clustering>
<clus scale="   39.655">  4  5 -1 -1</clus>
<clus scale="   56.386">  1  3  2 -1</clus>
<clus scale="  111.597">  1  6  2 -1</clus>
<clus scale="  121.757">  2  3  1 -1</clus>
</clustering>
</event>
<event>
 6    0  0.1993420E+002  0.9688306E+02  0.7546771E-02  0.1286990E+00
          2   -1    0    0  504    0 -0.00000000000E+00  0.00000000000E+00  0.22625427286E+04  0.22625427286E+04  0.00000000000E+00 0.  1.
         21   -1    0    0  505  502  0.00000000000E+00 -0.00000000000E+00 -0.67095785621E+02  0.67095785621E+02  0.00000000000E+00 0.  1.
         21    1    1    2  503  502 -0.49340063291E+02 -0.10289854395E+02 -0.27651359905E+02  0.57488439304E+02  0.00000000000E+00 0.  1.
         21    1    1    2  504  503 -0.34307874148E+02  0.46972734763E+02  0.18338529593E+03  0.19238927933E+03  0.00000000000E+00 0.  1.
         21    1    1    2  505  501 -0.16200592508E+02 -0.55721212620E+02  0.26175106799E+02  0.63658848162E+02  0.00000000000E+00 0.  1.
          2    1    1    2  501    0  0.99848529947E+02  0.19038332251E+02  0.20135379001E+04  0.20161019474E+04  0.00000000000E+00 0.  1.
<scales pt_clust_3="50.40162" pt_clust_4="62.55449" pt_clust_5="96.88306" pt_clust_6="14000.00000"></scales>
<clustering>
<clus scale="   50.402">  2  3  1 -1</clus>
<clus scale="   62.554">  2  4  1 -1</clus>
<clus scale="   96.883">  2  5  1 -1</clus>
<clus scale="   50.402">  2  3  1 -1</clus>
</clustering>
</event>
<event>
 6    0  0.1993420E+002  0.1264522E+03  0.7546771E-02  0.1232817E+00
         -2   -1    0    0    0  501 -0.00000000000E+00  0.00000000000E+00  0.15926709144E+03  0.15926709144E+03  0.00000000000E+00 0. -1.
         21   -1    0    0  504  502  0.00000000000E+00 -0.00000000000E+00 -0.10590704013E+04  0.10590704013E+04  0.00000000000E+00 0.  1.
         21    1    1    2  503  505  0.13517386398E+03 -0.33695848991E+02 -0.43572531870E+03  0.45745375405E+03  0.00000000000E+00 0. -1.
         21    1    1    2  504  501 -0.13041062642E+03 -0.33672627761E+02 -0.32866647833E+03  0.35519351250E+03  0.00000000000E+00 0.  1.
         21    1    1    2  505  502 -0.41995527509E+02  0.73057668930E+02 -0.26116186614E+03  0.27442042134E+03  0.00000000000E+00 0.  1.
         -2    1    1    2    0  503  0.37232289949E+02 -0.56891921774E+01  0.12575035328E+03  0.13126980488E+03  0.00000000000E+00 0. -1.
<scales pt_clust_3="126.45221" pt_clust_4="14000.00000" pt_clust_5="79.45915" pt_clust_6="37.66444"></scales>
<clustering>
<clus scale="   37.664">  1  6  2 -1</clus>
<clus scale="   79.459">  2  5  1 -1</clus>
<clus scale="  126.452">  2  3  1 -1</clus>
<clus scale="   79.459">  2  3  1 -1</clus>
</clustering>
</event>
<event>
 6    0  0.1993420E+002  0.6663220E+02  0.7546771E-02  0.1371935E+00
         -1   -1    0    0    0  501 -0.00000000000E+00  0.00000000000E+00  0.32892269024E+03  0.32892269024E+03  0.00000000000E+00 0.  1.
         21   -1    0    0  503  502  0.00000000000E+00 -0.00000000000E+00 -0.21540585964E+03  0.21540585964E+03  0.00000000000E+00 0. -1.
         21    1    1    2  503  504  0.88486025521E+02  0.15676060526E+02 -0.13267752725E+02  0.90838036353E+02  0.00000000000E+00 0. -1.
         21    1    1    2  504  501 -0.49869369366E+02  0.11484242012E+02  0.12171966008E+02  0.52602267746E+02  0.00000000000E+00 0. -1.
         21    1    1    2  505  502 -0.52440933741E+02  0.41464079800E+02 -0.13014779455E+03  0.14631394284E+03  0.00000000000E+00 0. -1.
         -1    1    1    2    0  505  0.13824277586E+02 -0.68624382337E+02  0.24476041186E+03  0.25457430294E+03  0.00000000000E+00 0.  1.
<scales pt_clust_3="14000.00000" pt_clust_4="51.17462" pt_clust_5="66.63220" pt_clust_6="65.33669"></scales>
<clustering>
<clus scale="   51.175">  1  4  2 -1</clus>
<clus scale="   65.337">  1  6  2 -1</clus>
<clus scale="   66.632">  2  5  1 -1</clus>
<clus scale="   66.632">  2  3  1 -1</clus>
</clustering>
</event>
<event>
 6    0  0.1993420E+002  0.8206577E+02  0.7546771E-02  0.1323289E+00
         21   -1    0    0  505  502  0.00000000000E+00  0.00000000000E+00  0.16155180497E+04  0.16155180497E+04  0.00000000000E+00 0.  1.
          2   -1    0    0  504    0 -0.00000000000E+00 -0.00000000000E+00 -0.65178847891E+02  0.65178847891E+02  0.00000000000E+00 0. -1.
         21    1    1    2  503  501  0.91952621768E+02  0.33053212045E+02  0.38809284908E+03  0.40020477132E+03  0.00000000000E+00 0.  1.
         21    1    1    2  504  502 -0.90334042033E+02 -0.21855626305E+02  0.50610193848E+03  0.51456494215E+03  0.00000000000E+00 0.  1.
         21    1    1    2  505  503  0.37816225307E+02  0.18413136595E+02  0.69919885766E+03  0.70046281346E+03  0.00000000000E+00 0.  1.
          2    1    1    2  501    0 -0.39434805042E+02 -0.29610722335E+02 -0.43054443425E+02  0.65464370650E+02  0.00000000000E+00 0. -1.
<scales pt_clust_3="14000.00000" pt_clust_4="82.06577" pt_clust_5="42.06080" pt_clust_6="48.80905"></scales>
<clustering>
<clus scale="   42.061">  1  5  2 -1</clus>
<clus scale="   48.809">  2  6  1 -1</clus>
<clus scale="   82.066">  1  4  2 -1</clus>
<clus scale="   42.061">  1  3  2 -1</clus>
</clustering>
</event>
<event>
 6    0  0.1993420E+002  0.1613506E+03  0.7546771E-02  0.1187180E+00
         21   -1    0    0  504  502  0.00000000000E+00  0.00000000000E+00  0.16118505902E+03  0.16118505902E+03  0.00000000000E+00 0.  1.
          2   -1    0    0  505    0 -0.00000000000E+00 -0.00000000000E+00 -0.76256288091E+03  0.76256288091E+03  0.00000000000E+00 0. -1.
         21    1    1    2  503  502  0.70528205330E+02 -0.63651459892E+01  0.11738503536E+02  0.71781162542E+02  0.00000000000E+00 0.  1.
         21    1    1    2  504  501 -0.52204614209E+02 -0.46303974558E+02 -0.25342960672E+02  0.74240457031E+02  0.00000000000E+00 0.  1.
         21    1    1    2  505  503  0.75793432284E+02 -0.63930931506E+02  0.57947816245E+02  0.11484667078E+03  0.00000000000E+00 0.  1.
          2    1    1    2  501    0 -0.94117023405E+02  0.11660005205E+03 -0.64572118101E+03  0.66287964958E+03  0.00000000000E+00 0. -1.
<scales pt_clust_3="50.86164" pt_clust_4="69.78094" pt_clust_5="50.86164" pt_clust_6="149.70573"></scales>
<clustering>
<clus scale="   50.862">  3  5 -1 -1</clus>
<clus scale="   69.781">  1  4  2 -1</clus>
<clus scale="  149.706">  2  6  1 -1</clus>
<clus scale="   69.781">  1  3  2 -1</clus>
</clustering>
</event>
<event>
 6    0  0.2737224E+002  0.7706635E+02  0.7546771E-02  0.1337589E+00
          1   -1    0    0  505    0 -0.00000000000E+00  0.00000000000E+00  0.24273444417E+04  0.24273444417E+04  0.00000000000E+00 0.  1.
         21   -1    0    0  504  502  0.00000000000E+00 -0.00000000000E+00 -0.23748115916E+03  0.23748115916E+03  0.00000000000E+00 0. -1.
         21    1    1    2  503  501 -0.80419128917E+02  0.41066603533E+02  0.13530181781E+03  0.16266617388E+03  0.00000000000E+00 0.  1.
         21    1    1    2  504  503  0.42835425354E+02  0.20732123780E+02  0.34758616685E+02  0.58930943108E+02  0.00000000000E+00 0. -1.
         21    1    1    2  505  502 -0.48545054068E+01 -0.87686655667E+02 -0.20231557241E+03  0.22055409006E+03  0.00000000000E+00 0. -1.
          1    1    1    2  501    0  0.42438208969E+02  0.25887928355E+02  0.22221184204E+04  0.22226743938E+04  0.00000000000E+00 0.  1.
<scales pt_clust_3="77.06635" pt_clust_4="47.58881" pt_clust_5="14000.00000" pt_clust_6="49.76945"></scales>
<clustering>
<clus scale="   47.589">  2  4  1 -1</clus>
<clus scale="   49.769">  1  6  2 -1</clus>
<clus scale="   77.066">  1  3  2 -1</clus>
<clus scale="   47.589">  2  3  1 -1</clus>
</clustering>
</event>
<event>
 6    0  0.1993420E+002  0.4004524E+03  0.7546771E-02  0.1043623E+00
         21   -1    0    0  503  502  0.00000000000E+00  0.00000000000E+00  0.15169329921E+04  0.15169329921E+04  0.00000000000E+00 0.  1.
          1   -1    0    0  504    0 -0.00000000000E+00 -0.00000000000E+00 -0.14070705393E+03  0.14070705393E+03  0.00000000000E+00 0.  1.
         21    1    1    2  503  501 -0.18565803976E+02 -0.76017144004E+02  0.34815087442E+03  0.35683655449E+03  0.00000000000E+00 0.  1.
         21    1    1    2  504  505  0.75283416672E+02 -0.60453022407E+02  0.10533688948E+03  0.14289164086E+03  0.00000000000E+00 0. -1.
         21    1    1    2  505  502  0.10728771514E+03 -0.25388449243E+03  0.38489631218E+03  0.47340591509E+03  0.00000000000E+00 0.  1.
          1    1    1    2  501    0 -0.16400532784E+03  0.39035465885E+03  0.53784186212E+03  0.68450593561E+03  0.00000000000E+00 0.  1.
<scales pt_clust_3="78.25149" pt_clust_4="50.75481" pt_clust_5="50.75481" pt_clust_6="391.16282"></scales>
<clustering>
<clus scale="   50.755">  4  5 -1 -1</clus>
<clus scale="   78.251">  1  3  2 -1</clus>
<clus scale="  391.163">  1  6  2 -1</clus>
<clus scale="   78.251">  1  3  2 -1</clus>
</clustering>
</event>
<event>
 6    0  0.1993420E+002  0.2883030E+03  0.7546771E-02  0.1091239E+00
         21   -1    0    0  501  502  0.00000000000E+00  0.00000000000E+00  0.45089751725E+03  0.45089751725E+03  0.00000000000E+00 0.  1.
          2   -1    0    0  503    0 -0.00000000000E+00 -0.00000000000E+00 -0.27138795475E+04  0.27138795475E+04  0.00000000000E+00 0. -1.
         21    1    1    2  503  505 -0.94457324462E+02  0.98357723460E+02  0.18922522212E+03  0.23324367643E+03  0.00000000000E+00 0.  1.
         21    1    1    2  504  502 -0.60243961678E+02 -0.31064400690E+02  0.43460303504E+02  0.80517885526E+02  0.00000000000E+00 0. -1.
         21    1    1    2  505  504 -0.10910156035E+03  0.32445649150E+02  0.15115007019E+03  0.18921473076E+03  0.00000000000E+00 0.  1.
          2    1    1    2  501    0  0.26380284649E+03 -0.99738971920E+02 -0.26468176260E+04  0.26618007720E+04  0.00000000000E+00 0. -1.
<scales pt_clust_3="58.28513" pt_clust_4="67.78150" pt_clust_5="58.28513" pt_clust_6="281.15582"></scales>
<clustering>
<clus scale="   58.285">  3  5 -1 -1</clus>
<clus scale="   67.782">  1  4  2 -1</clus>
<clus scale="  281.156">  2  6  1 -1</clus>
<clus scale="   67.782">  1  3  2 -1</clus>
</clustering>
</event>
<event>
 6    0  0.1993420E+002  0.1897149E+03  0.7546771E-02  0.1158719E+00
         21   -1    0    0  501  502  0.00000000000E+00  0.00000000000E+00  0.32803587206E+03  0.32803587206E+03  0.00000000000E+00 0.  1.
          2   -1    0    0  503    0 -0.00000000000E+00 -0.00000000000E+00 -0.97767838303E+03  0.97767838303E+03  0.00000000000E+00 0.  1.
         21    1    1    2  503  505 -0.30203419911E+02  0.41656356801E+01 -0.33026644685E+02  0.44948396569E+02  0.00000000000E+00 0. -1.
         21    1    1    2  504  502  0.34819747283E+02  0.85344181029E+02  0.51254573457E+02  0.10546599137E+03  0.00000000000E+00 0.  1.
         21    1    1    2  505  504  0.10972429642E+03  0.47025688431E+02  0.21970068663E+03  0.25003845365E+03  0.00000000000E+00 0.  1.
          2    1    1    2  501    0 -0.11434062379E+03 -0.13653550514E+03 -0.88757112637E+03  0.90526141350E+03  0.00000000000E+00 0.  1.
<scales pt_clust_3="30.48933" pt_clust_4="91.95985" pt_clust_5="189.71492" pt_clust_6="14000.00000"></scales>
<clustering>
<clus scale="   30.489">  2  3  1 -1</clus>
<clus scale="   91.960">  1  4  2 -1</clus>
<clus scale="  189.715">  1  5  2 -1</clus>
<clus scale="   91.960">  1  3  2 -1</clus>
</clustering>
</event>
<event>
 6    0  0.2058834E+002  0.1394014E+03  0.7546771E-02  0.1214137E+00
         21   -1    0    0  504  502  0.00000000000E+00  0.00000000000E+00  0.48565561511E+03  0.48565561511E+03  0.00000000000E+00 0.  1.
          2   -1    0    0  502    0 -0.00000000000E+00 -0.00000000000E+00 -0.13883848735E+04  0.13883848735E+04  0.00000000000E+00 0.  1.
         21    1    1    2  503  505 -0.37597642380E+02 -0.24135118259E+02  0.15849897047E+02  0.47405757903E+02  0.00000000000E+00 0. -1.
         21    1    1    2  504  503  0.86935661999E+02 -0.90552511293E+02  0.39121891244E+03  0.41086470289E+03  0.00000000000E+00 0.  1.
         21    1    1    2  505  501 -0.89991924423E+02  0.40432792304E+02  0.44885585667E+01  0.98759831474E+02  0.00000000000E+00 0. -1.
          2    1    1    2  501    0  0.40653904804E+02  0.74254837248E+02 -0.13142866265E+04  0.13170101964E+04  0.00000000000E+00 0.  1.
<scales pt_clust_3="44.66858" pt_clust_4="122.58364" pt_clust_5="44.66858" pt_clust_6="84.65531"></scales>
<clustering>
<clus scale="   44.669">  3  5 -1 -1</clus>
<clus scale="   84.655">  2  6  1 -1</clus>
<clus scale="  122.584">  1  4  2 -1</clus>
<clus scale="  122.584">  1  3  2 -1</clus>
</clustering>
</event>
<event>
 6    0  0.1993420E+002  0.1042342E+03  0.7546771E-02  0.1271636E+00
          2   -1    0    0  503    0 -0.00000000000E+00  0.00000000000E+00  0.14083367068E+04  0.14083367068E+04  0.00000000000E+00 0. -1.
         21   -1    0    0  505  502  0.00000000000E+00 -0.00000000000E+00 -0.41042157922E+02  0.41042157922E+02  0.00000000000E+00 0.  1.
         21    1    1    2  503  504  0.44334427743E+02 -0.13632167964E+02  0.76978332347E+02  0.89872360254E+02  0.00000000000E+00 0.  1.
         21    1    1    2  504  502  0.49055624286E+02  0.33923201688E+02  0.14899565559E+03  0.16048969834E+03  0.00000000000E+00 0. -1.
         21    1    1    2  505  501 -0.68289712600E+02 -0.64006711539E+02  0.49212520603E+02  0.10574599828E+03  0.00000000000E+00 0.  1.
          2    1    1    2  501    0 -0.25100339429E+02  0.43715677815E+02  0.10921080404E+04  0.10932708079E+04  0.00000000000E+00 0. -1.
<scales pt_clust_3="43.94729" pt_clust_4="43.94729" pt_clust_5="91.54937" pt_clust_6="50.40920"></scales>
<clustering>
<clus scale="   43.947">  3  4 -1 -1</clus>
<clus scale="   50.409">  1  6  2 -1</clus>
<clus scale="   91.549">  2  5  1 -1</clus>
<clus scale="   91.549">  2  3  1 -1</clus>
</clustering>
</event>
<event>
 6    0  0.1993420E+002  0.1663265E+03  0.7546771E-02  0.1181734E+00
          2   -1    0    0  505    0 -0.00000000000E+00  0.00000000000E+00  0.22999499187E+04  0.22999499187E+04  0.00000000000E+00 0.  1.
         21   -1    0    0  503  502  0.00000000000E+00 -0.00000000000E+00 -0.57885887162E+02  0.57885887162E+02  0.00000000000E+00 0. -1.
         21    1    1    2  503  501 -0.26974036729E+02  0.22537059373E+02  0.56886244232E+02  0.66869742675E+02  0.00000000000E+00 0. -1.
         21    1    1    2  504  502 -0.10063376682E+03 -0.86091239232E+01  0.52223725288E+02  0.11370395561E+03  0.00000000000E+00 0. -1.
         21    1    1    2  505  504  0.28642136662E+02  0.13790374708E+03  0.26120371767E+03  0.29675780963E+03  0.00000000000E+00 0. -1.
          2    1    1    2  501    0  0.98965666885E+02 -0.15183168253E+03  0.18717503444E+04  0.18805042980E+04  0.00000000000E+00 0.  1.
<scales pt_clust_3="35.14993" pt_clust_4="116.39666" pt_clust_5="14000.00000" pt_clust_6="166.32649"></scales>
<clustering>
<clus scale="   35.150">  2  3  1 -1</clus>
<clus scale="  116.397">  2  4  1 -1</clus>
<clus scale="  166.326">  1  6  2 -1</clus>
<clus scale="   35.150">  2  3  1 -1</clus>
</clustering>
</event>
<event>
 6    0  0.1993420E+002  0.1418790E+03  0.7546771E-02  0.1210823E+00
         21   -1    0    0  501  502  0.00000000000E+00  0.00000000000E+00  0.15230033464E+02  0.15230033464E+02  0.00000000000E+00 0.  1.
          2   -1    0    0  505    0 -0.00000000000E+00 -0.00000000000E+00 -0.44137750694E+04  0.44137750694E+04  0.00000000000E+00 0. -1.
         21    1    1    2  503  502  0.34103763150E+02  0.52302033391E+02 -0.17040216647E+03  0.18148131501E+03  0.00000000000E+00 0.  1.
         21    1    1    2  504  503  0.80751717643E+02  0.54361994745E+02 -0.42115366570E+03  0.43225741926E+03  0.00000000000E+00 0.  1.
         21    1    1    2  505  504 -0.93143539424E+02 -0.53841629336E+02 -0.74337053482E+03  0.75111543189E+03  0.00000000000E+00 0.  1.
          2    1    1    2  501    0 -0.21711941370E+02 -0.52822398800E+02 -0.30636186689E+04  0.30641509367E+04  0.00000000000E+00 0. -1.
<scales pt_clust_3="37.29000" pt_clust_4="37.29000" pt_clust_5="134.02137" pt_clust_6="57.11054"></scales>
<clustering>
<clus scale="   37.290">  3  4 -1 -1</clus>
<clus scale="   57.111">  2  6  1 -1</clus>
<clus scale="  134.021">  2  5  1 -1</clus>
<clus scale="  141.879">  1  3  2 -1</clus>
</clustering>
</event>
<event>
 6    0  0.1993420E+002  0.1806453E+03  0.7546771E-02  0.1167180E+00
         21   -1    0    0  505  502  0.00000000000E+00  0.00000000000E+00  0.96551505198E+02  0.96551505198E+02  0.00000000000E+00 0. -1.
         -1   -1    0    0    0  501 -0.00000000000E+00 -0.00000000000E+00 -0.14694722205E+04  0.14694722205E+04  0.00000000000E+00 0. -1.
         21    1    1    2  503  502 -0.30398367375E+02 -0.14971715824E+02 -0.87770875829E+01  0.35003575249E+02  0.00000000000E+00 0. -1.
         21    1    1    2  504  501 -0.19916090141E+02  0.50451032253E+02 -0.12086593447E+02  0.55570163245E+02  0.00000000000E+00 0. -1.
         21    1    1    2  505  504 -0.90400873028E+02  0.70498656413E+02 -0.27303009646E+01  0.11467272101E+03  0.00000000000E+00 0. -1.
         -1    1    1    2    0  503  0.14071533054E+03 -0.10597797284E+03 -0.13493267333E+04  0.13607772662E+04  0.00000000000E+00 0. -1.
<scales pt_clust_3="33.88529" pt_clust_4="30.48667" pt_clust_5="30.48667" pt_clust_6="175.12358"></scales>
<clustering>
<clus scale="   30.487">  4  5 -1 -1</clus>
<clus scale="   33.885">  1  3  2 -1</clus>
<clus scale="  175.124">  2  6  1 -1</clus>
<clus scale="   33.885">  1  3  2 -1</clus>
</clustering>
</event>
<event>
 6    0  0.1993420E+002  0.1460889E+03  0.7546771E-02  0.1205363E+00
          2   -1    0    0  503    0 -0.00000000000E+00  0.00000000000E+00  0.23800043307E+04  0.23800043307E+04  0.00000000000E+00 0. -1.
         21   -1    0    0  505  502  0.00000000000E+00 -0.00000000000E+00 -0.33006383299E+02  0.33006383299E+02  0.00000000000E+00 0. -1.
         21    1    1    2  503  502  0.37719617404E+02  0.21657588090E+02  0.13483184748E+02  0.45536984199E+02  0.00000000000E+00 0.  1.
         21    1    1    2  504  501  0.35631354041E+02  0.30381073791E+02  0.10177019081E+03  0.11202577727E+03  0.00000000000E+00 0. -1.
         21    1    1    2  505  504  0.10209826962E+02  0.67510085148E+02  0.11541968410E+03  0.13410278014E+03  0.00000000000E+00 0. -1.
          2    1    1    2  501    0 -0.83560798407E+02 -0.11954874703E+03  0.21163248877E+04  0.21213451724E+04  0.00000000000E+00 0. -1.
<scales pt_clust_3="43.49506" pt_clust_4="34.38233" pt_clust_5="34.38233" pt_clust_6="140.06506"></scales>
<clustering>
<clus scale="   34.382">  4  5 -1 -1</clus>
<clus scale="   43.495">  2  3  1 -1</clus>
<clus scale="  140.065">  1  6  2 -1</clus>
<clus scale="   43.495">  2  3  1 -1</clus>
</clustering>
</event>
<event>
 6    0  0.1993420E+002  0.7709563E+02  0.7546771E-02  0.1337502E+00
         21   -1    0    0  501  502  0.00000000000E+00  0.00000000000E+00  0.15249452242E+04  0.15249452242E+04  0.00000000000E+00 0. -1.
          1   -1    0    0  504    0 -0.00000000000E+00 -0.00000000000E+00 -0.47923981769E+03  0.47923981769E+03  0.00000000000E+00 0. -1.
         21    1    1    2  503  502  0.67441438969E+02  0.33856859645E+02  0.86919791242E+03  0.87246756134E+03  0.00000000000E+00 0. -1.
         21    1    1    2  504  505  0.20569183244E+02 -0.93446468749E+02  0.14472847230E+03  0.17349831272E+03  0.00000000000E+00 0.  1.
         21    1    1    2  505  503 -0.59169568782E+02  0.45774966096E+02  0.49161414082E+03  0.49727341458E+03  0.00000000000E+00 0. -1.
          1    1    1    2  501    0 -0.28841053430E+02  0.13814643008E+02 -0.45983511905E+03  0.46094575325E+03  0.00000000000E+00 0. -1.
<scales pt_clust_3="73.79743" pt_clust_4="14000.00000" pt_clust_5="77.09563" pt_clust_6="31.97891"></scales>
<clustering>
<clus scale="   31.979">  2  6  1 -1</clus>
<clus scale="   73.797">  1  3  2 -1</clus>
<clus scale="   77.096">  1  5  2 -1</clus>
<clus scale="   73.797">  1  3  2 -1</clus>
</clustering>
</event>
<event>
 6    0  0.1993420E+002  0.1267934E+03  0.7546771E-02  0.1232293E+00
         -3   -1    0    0    0  501 -0.00000000000E+00  0.00000000000E+00  0.14359363504E+03  0.14359363504E+03  0.00000000000E+00 0. -1.
         21   -1    0    0  504  502  0.00000000000E+00 -0.00000000000E+00 -0.59666196271E+03  0.59666196271E+03  0.00000000000E+00 0. -1.
         21    1    1    2  503  501  0.65292715462E+02  0.82462395759E+02 -0.16825828333E+03  0.19842891754E+03  0.00000000000E+00 0. -1.
         21    1    1    2  504  503 -0.24624395054E+02  0.60803383429E+02 -0.10807408265E+03  0.12642554966E+03  0.00000000000E+00 0. -1.
         21    1    1    2  505  502  0.26343031158E+02 -0.17944702119E+03 -0.25057491742E+03  0.30932665250E+03  0.00000000000E+00 0. -1.
         -3    1    1    2    0  505 -0.67011351566E+02  0.36181242001E+02  0.73838955725E+02  0.10607447805E+03  0.00000000000E+00 0. -1.
<scales pt_clust_3="126.79339" pt_clust_4="65.60040" pt_clust_5="14000.00000" pt_clust_6="77.86748"></scales>
<clustering>
<clus scale="   65.600">  2  4  1 -1</clus>
<clus scale="   77.867">  1  6  2 -1</clus>
<clus scale="  126.793">  1  3  2 -1</clus>
<clus scale="   65.600">  2  3  1 -1</clus>
</clustering>
</event>
<event>
 6    0  0.1993420E+002  0.1536555E+03  0.7546771E-02  0.1196052E+00
          1   -1    0    0  502    0 -0.00000000000E+00  0.00000000000E+00  0.72390566040E+03  0.72390566040E+03  0.00000000000E+00 0.  1.
         21   -1    0    0  504  502  0.00000000000E+00 -0.00000000000E+00 -0.12228025463E+03  0.12228025463E+03  0.00000000000E+00 0.  1.
         21    1    1    2  503  505  0.75371795786E+02  0.32441665866E+02 -0.35340421241E+02  0.89343800332E+02  0.00000000000E+00 0.  1.
         21    1    1    2  504  503  0.80551898285E+02 -0.26382929233E+01 -0.32098810907E+01  0.80658987369E+02  0.00000000000E+00 0.  1.
         21    1    1    2  505  501 -0.11061725455E+03 -0.13127395443E+02  0.16818193001E+03  0.20172671389E+03  0.00000000000E+00 0.  1.
          1    1    1    2  501    0 -0.45306439519E+02 -0.16675977500E+02  0.47199377809E+03  0.47445641343E+03  0.00000000000E+00 0.  1.
<scales pt_clust_3="46.63613" pt_clust_4="46.63613" pt_clust_5="146.27244" pt_clust_6="48.27796"></scales>
<clustering>
<clus scale="   46.636">  3  4 -1 -1</clus>
<clus scale="   48.278">  1  6  2 -1</clus>
<clus scale="  146.272">  1  5  2 -1</clus>
<clus scale="  153.655">  2  3  1 -1</clus>
</clustering>
</event>
<event>
 6    0  0.1993420E+002  0.9998138E+02  0.7546771E-02  0.1280335E+00
         -2   -1    0    0    0  501 -0.00000000000E+00  0.00000000000E+00  0.15062671818E+04  0.15062671818E+04  0.00000000000E+00 0.  1.
         21   -1    0    0  505  502  0.00000000000E+00 -0.00000000000E+00 -0.45861412739E+02  0.45861412739E+02  0.00000000000E+00 0.  1.
         21    1    1    2  503  504 -0.85657748865E+02 -0.51054031068E+02  0.12226466483E+03  0.15777329399E+03  0.00000000000E+00 0.  1.
         21    1    1    2  504  501 -0.65142855619E+01 -0.32674411629E+02  0.65342274991E+02  0.73346206396E+02  0.00000000000E+00 0.  1.
         21    1    1    2  505  503  0.71595143975E+02  0.22650773825E+01  0.33870865593E+02  0.79235287293E+02  0.00000000000E+00 0.  1.
         -2    1    1    2    0  502  0.20576890451E+02  0.81463365314E+02  0.12389279636E+04  0.12417738069E+04  0.00000000000E+00 0.  1.
<scales pt_clust_3="30.11141" pt_clust_4="30.11141" pt_clust_5="71.63097" pt_clust_6="85.33787"></scales>
<clustering>
<clus scale="   30.111">  3  4 -1 -1</clus>
<clus scale="   71.631">  2  5  1 -1</clus>
<clus scale="   85.338">  1  6  2 -1</clus>
<clus scale="   71.631">  2  3  1 -1</clus>
</clustering>
</event>
<event>
 6    0  0.1993420E+002  0.2073747E+03  0.7546771E-02  0.1143662E+00
         21   -1    0    0  501  502  0.00000000000E+00  0.00000000000E+00  0.29465250616E+03  0.29465250616E+03  0.00000000000E+00 0.  1.
          2   -1    0    0  505    0 -0.00000000000E+00 -0.00000000000E+00 -0.17940355299E+04  0.17940355299E+04  0.00000000000E+00 0.  1.
         21    1    1    2  503  504  0.43250754349E+02  0.10533940146E+03  0.12692362015E+03  0.17051868696E+03  0.00000000000E+00 0.  1.
         21    1    1    2  504  502  0.74459960348E+02  0.56656975166E+02  0.11709675217E+03  0.14988645002E+03  0.00000000000E+00 0. -1.
         21    1    1    2  505  503  0.21797596111E+02 -0.31324195211E+02 -0.44340412078E+02  0.58501389257E+02  0.00000000000E+00 0.  1.
          2    1    1    2  501    0 -0.13950831081E+03 -0.13067218141E+03 -0.16990629840E+04  0.17097815098E+04  0.00000000000E+00 0.  1.
<scales pt_clust_3="49.82403" pt_clust_4="49.82403" pt_clust_5="38.16203" pt_clust_6="199.97344"></scales>
<clustering>
<clus scale="   38.162">  2  5  1 -1</clus>
<clus scale="   49.824">  3  4 -1 -1</clus>
<clus scale="  199.973">  2  6  1 -1</clus>
<clus scale="  207.375">  1  3  2 -1</clus>
</clustering>
</event>
<event>
 6    0  0.1993420E+002  0.2079827E+03  0.7546771E-02  0.1143173E+00
          1   -1    0    0  505    0 -0.00000000000E+00  0.00000000000E+00  0.49854278225E+03  0.49854278225E+03  0.00000000000E+00 0.  1.
         21   -1    0    0  503  502  0.00000000000E+00 -0.00000000000E+00 -0.18860916380E+04  0.18860916380E+04  0.00000000000E+00 0.  1.
         21    1    1    2  503  501 -0.84792352207E+02 -0.21099394762E+03 -0.17491531193E+04  0.17638721109E+04  0.00000000000E+00 0.  1.
         21    1    1    2  504  502 -0.32749615447E+02  0.33444322784E+02 -0.64009699839E+02  0.79298812802E+02  0.00000000000E+00 0. -1.
         21    1    1    2  505  504  0.89944008867E+02  0.13583716044E+03  0.61825403553E+02  0.17425280317E+03  0.00000000000E+00 0.  1.
          1    1    1    2  501    0  0.27597958787E+02  0.41712464391E+02  0.36378855986E+03  0.36721069334E+03  0.00000000000E+00 0.  1.
<scales pt_clust_3="207.98271" pt_clust_4="46.80876" pt_clust_5="14000.00000" pt_clust_6="50.02505"></scales>
<clustering>
<clus scale="   46.809">  2  4  1 -1</clus>
<clus scale="   50.025">  1  6  2 -1</clus>
<clus scale="  207.983">  2  3  1 -1</clus>
<clus scale="   46.809">  2  3  1 -1</clus>
</clustering>
</event>
<event>
 6    0  0.1993420E+002  0.1404245E+03  0.7546771E-02  0.1212759E+00
         21   -1    0    0  501  502  0.00000000000E+00  0.00000000000E+00  0.14424343023E+03  0.14424343023E+03  0.00000000000E+00 0. -1.
          1   -1    0    0  504    0 -0.00000000000E+00 -0.00000000000E+00 -0.33105678967E+03  0.33105678967E+03  0.00000000000E+00 0.  1.
         21    1    1    2  503  502 -0.62072503663E+02 -0.86215115773E+02  0.15541994846E+02  0.10736664055E+03  0.00000000000E+00 0. -1.
         21    1    1    2  504  505  0.57550945768E+01 -0.54283050574E+02 -0.39841459729E+02  0.67580415850E+02  0.00000000000E+00 0. -1.
         21    1    1    2  505  503  0.38209618512E+02 -0.49040579168E+02 -0.41578199793E+02  0.74791042578E+02  0.00000000000E+00 0. -1.
          1    1    1    2  501    0  0.18107790574E+02  0.18953874551E+03 -0.12093569476E+03  0.22556212093E+03  0.00000000000E+00 0.  1.
<scales pt_clust_3="106.23578" pt_clust_4="30.09941" pt_clust_5="30.09941" pt_clust_6="136.70124"></scales>
<clustering>
<clus scale="   30.099">  4  5 -1 -1</clus>
<clus scale="  106.236">  1  3  2 -1</clus>
<clus scale="  136.701">  1  6  2 -1</clus>
<clus scale="  106.236">  1  3  2 -1</clus>
</clustering>
</event>
<event>
 6    0  0.1993420E+002  0.3150908E+03  0.7546771E-02  0.1077931E+00
         21   -1    0    0  501  502  0.00000000000E+00  0.00000000000E+00  0.25776479441E+03  0.25776479441E+03  0.00000000000E+00 0. -1.
          1   -1    0    0  503    0 -0.00000000000E+00 -0.00000000000E+00 -0.38300378627E+03  0.38300378627E+03  0.00000000000E+00 0. -1.
         21    1    1    2  503  504 -0.34181487032E+02 -0.67692085939E+02 -0.80507319192E+01  0.76258814828E+02  0.00000000000E+00 0. -1.
         21    1    1    2  504  505  0.60778863340E+02 -0.15203906627E+03 -0.49399612070E+01  0.16381193826E+03  0.00000000000E+00 0. -1.
         21    1    1    2  505  502  0.12144375173E+02 -0.59490355621E+02  0.47133328005E+02  0.76864418745E+02  0.00000000000E+00 0. -1.
          1    1    1    2  501    0 -0.38741751480E+02  0.27922150782E+03 -0.15938162674E+03  0.32383340884E+03  0.00000000000E+00 0. -1.
<scales pt_clust_3="63.41151" pt_clust_4="63.41151" pt_clust_5="47.49165" pt_clust_6="281.89639"></scales>
<clustering>
<clus scale="   47.492">  4  5 -1 -1</clus>
<clus scale="   63.412">  3  4 -1 -1</clus>
<clus scale="  281.896">  2  6  1 -1</clus>
<clus scale="  315.091">  1  3  2 -1</clus>
</clustering>
</event>
<event>
 6    0  0.1993420E+002  0.3035820E+03  0.7546771E-02  0.1083464E+00
         21   -1    0    0  505  502  0.00000000000E+00  0.00000000000E+00  0.82204444706E+03  0.82204444706E+03  0.00000000000E+00 0.  1.
          1   -1    0    0  504    0 -0.00000000000E+00 -0.00000000000E+00 -0.63434313322E+03  0.63434313322E+03  0.00000000000E+00 0.  1.
         21    1    1    2  503  501 -0.27537143378E+01  0.55964523348E+02  0.26647255886E+03  0.27229989982E+03  0.00000000000E+00 0.  1.
         21    1    1    2  504  502  0.57692426673E+02  0.12802681454E+03  0.15713419013E+03  0.21073783487E+03  0.00000000000E+00 0.  1.
         21    1    1    2  505  503  0.80004352714E+02  0.86301930865E+02  0.31983785595E+03  0.34080048977E+03  0.00000000000E+00 0.  1.
          1    1    1    2  501    0 -0.13494306505E+03 -0.27029326875E+03 -0.55574329111E+03  0.63254935582E+03  0.00000000000E+00 0.  1.
<scales pt_clust_3="53.11322" pt_clust_4="140.42536" pt_clust_5="53.11322" pt_clust_6="293.66175"></scales>
<clustering>
<clus scale="   53.113">  3  5 -1 -1</clus>
<clus scale="  140.425">  1  4  2 -1</clus>
<clus scale="  293.662">  2  6  1 -1</clus>
<clus scale="  140.425">  1  3  2 -1</clus>
</clustering>
</event>
<event>
 6    0  0.1993420E+002  0.1021064E+03  0.7546771E-02  0.1275928E+00
         21   -1    0    0  503  502  0.00000000000E+00  0.00000000000E+00  0.99649916438E+02  0.99649916438E+02  0.00000000000E+00 0. -1.
         -2   -1    0    0    0  501 -0.00000000000E+00 -0.00000000000E+00 -0.12532807463E+04  0.12532807463E+04  0.00000000000E+00 0.  1.
         21    1    1    2  503  504 -0.35617914555E+02  0.13837223203E+02  0.36450735696E+02  0.52808718182E+02  0.00000000000E+00 0. -1.
         21    1    1    2  504  501 -0.79115129670E+02 -0.18361873554E+02 -0.12812893421E+02  0.82222456670E+02  0.00000000000E+00 0. -1.
         21    1    1    2  505  502  0.28320435840E+02  0.64898461920E+02 -0.52366031707E+02  0.88068488817E+02  0.00000000000E+00 0. -1.
         -2    1    1    2    0  505  0.86412608385E+02 -0.60373811569E+02 -0.11249026404E+04  0.11298309991E+04  0.00000000000E+00 0.  1.
<scales pt_clust_3="38.21131" pt_clust_4="102.10638" pt_clust_5="71.38435" pt_clust_6="14000.00000"></scales>
<clustering>
<clus scale="   38.211">  1  3  2 -1</clus>
<clus scale="   71.384">  1  5  2 -1</clus>
<clus scale="  102.106">  1  4  2 -1</clus>
<clus scale="   38.211">  1  3  2 -1</clus>
</clustering>
</event>
<event>
 6    0  0.1993420E+002  0.1029371E+03  0.7546771E-02  0.1274238E+00
          2   -1    0    0  505    0 -0.00000000000E+00  0.00000000000E+00  0.46414244524E+04  0.46414244524E+04  0.00000000000E+00 0.  1.
         21   -1    0    0  504  502  0.00000000000E+00 -0.00000000000E+00 -0.76906111903E+02  0.76906111903E+02  0.00000000000E+00 0.  1.
         21    1    1    2  503  501  0.97926838186E+02 -0.11356130489E+03  0.16386746958E+03  0.22212245090E+03  0.00000000000E+00 0.  1.
         21    1    1    2  504  503 -0.65461464412E+02  0.83345506958E+01 -0.14131758234E+02  0.67486107082E+02  0.00000000000E+00 0.  1.
         21    1    1    2  505  502 -0.32662670720E+02  0.41221339404E+02  0.95979127794E+02  0.10944424084E+03  0.00000000000E+00 0.  1.
          2    1    1    2  501    0  0.19729694582E+00  0.64005414794E+02  0.43188035014E+04  0.43192777655E+04  0.00000000000E+00 0.  1.
<scales pt_clust_3="14000.00000" pt_clust_4="102.93714" pt_clust_5="52.59324" pt_clust_6="64.14477"></scales>
<clustering>
<clus scale="   52.593">  2  5  1 -1</clus>
<clus scale="   64.145">  1  6  2 -1</clus>
<clus scale="  102.937">  2  4  1 -1</clus>
<clus scale="   52.593">  2  3  1 -1</clus>
</clustering>
</event>
<event>
 6    0  0.1993420E+002  0.1411802E+03  0.7546771E-02  0.1211750E+00
         21   -1    0    0  503  502  0.00000000000E+00  0.00000000000E+00  0.74684022442E+02  0.74684022442E+02  0.00000000000E+00 0.  1.
         -3   -1    0    0    0  501 -0.00000000000E+00 -0.00000000000E+00 -0.22323468804E+04  0.22323468804E+04  0.00000000000E+00 0. -1.
         21    1    1    2  503  501  0.38337516203E+02 -0.58675448926E+01 -0.13183433249E+03  0.13742082977E+03  0.00000000000E+00 0. -1.
         21    1    1    2  504  502  0.15984663528E+01  0.45064239304E+02 -0.67147888953E+02  0.80883742183E+02  0.00000000000E+00 0.  1.
         21    1    1    2  505  504 -0.14551925985E+03 -0.39195419174E+02 -0.25720265374E+02  0.15288449209E+03  0.00000000000E+00 0.  1.
         -3    1    1    2    0  505  0.10558327729E+03 -0.12752374429E-02 -0.19329603711E+04  0.19358418388E+04  0.00000000000E+00 0. -1.
<scales pt_clust_3="38.78393" pt_clust_4="44.95418" pt_clust_5="14000.00000" pt_clust_6="141.18024"></scales>
<clustering>
<clus scale="   38.784">  2  3  1 -1</clus>
<clus scale="   44.954">  1  4  2 -1</clus>
<clus scale="  141.180">  2  6  1 -1</clus>
<clus scale="   44.954">  1  3  2 -1</clus>
</clustering>
</event>
<event>
 6    0  0.1993420E+002  0.1108911E+03  0.7546771E-02  0.1258929E+00
          2   -1    0    0  505    0 -0.00000000000E+00  0.00000000000E+00  0.12818506615E+04  0.12818506615E+04  0.00000000000E+00 0.  1.
         21   -1    0    0  501  502  0.00000000000E+00 -0.00000000000E+00 -0.20324686019E+02  0.20324686019E+02  0.00000000000E+00 0. -1.
         21    1    1    2  503  502  0.21750978884E+02  0.50630864560E+02  0.72331767139E+02  0.90931150141E+02  0.00000000000E+00 0. -1.
         21    1    1    2  504  503  0.39595832355E+02  0.28742324129E+02  0.11455807365E+03  0.12456927139E+03  0.00000000000E+00 0. -1.
         21    1    1    2  505  504 -0.12025494377E+02  0.34336418175E+02  0.19720842651E+03  0.20053619527E+03  0.00000000000E+00 0.  1.
          2    1    1    2  501    0 -0.49321316862E+02 -0.11370960686E+03  0.87742770823E+03  0.88613873076E+03  0.00000000000E+00 0.  1.
<scales pt_clust_3="35.86982" pt_clust_4="35.86982" pt_clust_5="36.38134" pt_clust_6="104.15254"></scales>
<clustering>
<clus scale="   35.870">  3  4 -1 -1</clus>
<clus scale="   36.381">  1  5  2 -1</clus>
<clus scale="  104.153">  1  6  2 -1</clus>
<clus scale="  110.891">  2  3  1 -1</clus>
</clustering>
</event>
<event>
 6    0  0.1993420E+002  0.1177558E+03  0.7546771E-02  0.1246846E+00
          4   -1    0    0  505    0 -0.00000000000E+00  0.00000000000E+00  0.55879735511E+03  0.55879735511E+03  0.00000000000E+00 0.  1.
         21   -1    0    0  503  502  0.00000000000E+00 -0.00000000000E+00 -0.16753039974E+03  0.16753039974E+03  0.00000000000E+00 0. -1.
         21    1    1    2  503  501  0.88074225330E+02 -0.64926153037E+01 -0.49116701120E+02  0.10105282554E+03  0.00000000000E+00 0. -1.
         21    1    1    2  504  502 -0.19302215291E+02 -0.30838798613E+02 -0.27841465339E+02  0.45812162220E+02  0.00000000000E+00 0.  1.
         21    1    1    2  505  504  0.21282025361E+02 -0.45544805119E+02 -0.35203073790E+02  0.61371901397E+02  0.00000000000E+00 0. -1.
          4    1    1    2  501    0 -0.90054035400E+02  0.82876219036E+02  0.50342819562E+03  0.51809086570E+03  0.00000000000E+00 0.  1.
<scales pt_clust_3="117.75583" pt_clust_4="34.82101" pt_clust_5="86.68223" pt_clust_6="14000.00000"></scales>
<clustering>
<clus scale="   34.821">  4  5 -1 -1</clus>
<clus scale="   86.682">  2  4  1 -1</clus>
<clus scale="  117.756">  2  3  1 -1</clus>
<clus scale="   86.682">  2  3  1 -1</clus>
</clustering>
</event>
<event>
 6    0  0.1993420E+002  0.1666701E+03  0.7546771E-02  0.1181366E+00
          3   -1    0    0  503    0 -0.00000000000E+00  0.00000000000E+00  0.74425437352E+02  0.74425437352E+02  0.00000000000E+00 0.  1.
         21   -1    0    0  504  502  0.00000000000E+00 -0.00000000000E+00 -0.10119654566E+04  0.10119654566E+04  0.00000000000E+00 0.  1.
         21    1    1    2  503  502 -0.63675873326E+02  0.66322680500E+02 -0.10047831883E+03  0.13619547477E+03  0.00000000000E+00 0.  1.
         21    1    1    2  504  505  0.63424454975E+02  0.71028242861E+02 -0.34387308871E+03  0.35681420083E+03  0.00000000000E+00 0. -1.
         21    1    1    2  505  501  0.61770609581E+02  0.30766164732E+02 -0.36925637597E+03  0.37564935285E+03  0.00000000000E+00 0.  1.
          3    1    1    2  501    0 -0.61519191231E+02 -0.16811708809E+03 -0.12393223571E+03  0.21773186548E+03  0.00000000000E+00 0.  1.
<scales pt_clust_3="91.94191" pt_clust_4="37.23667" pt_clust_5="37.23667" pt_clust_6="160.82782"></scales>
<clustering>
<clus scale="   37.237">  4  5 -1 -1</clus>
<clus scale="   91.942">  1  3  2 -1</clus>
<clus scale="  160.828">  1  6  2 -1</clus>
<clus scale="  166.670">  2  3  1 -1</clus>
</clustering>
</event>
<event>
 6    0  0.1993420E+002  0.9347893E+02  0.7546771E-02  0.1294639E+00
         21   -1    0    0  503  502  0.00000000000E+00  0.00000000000E+00  0.33151280002E+03  0.33151280002E+03  0.00000000000E+00 0.  1.
         -2   -1    0    0    0  501 -0.00000000000E+00 -0.00000000000E+00 -0.46146045050E+03  0.46146045050E+03  0.00000000000E+00 0.  1.
         21    1    1    2  503  504 -0.57777207162E+01  0.30003024896E+02  0.94360190335E+02  0.99183713782E+02  0.00000000000E+00 0.  1.
         21    1    1    2  504  501 -0.14152492091E+02  0.44524739040E+02  0.43986464491E+02  0.64168173399E+02  0.00000000000E+00 0.  1.
         21    1    1    2  505  502 -0.74034302343E+02 -0.76220070860E+02  0.15948499840E+03  0.19164039720E+03  0.00000000000E+00 0.  1.
         -2    1    1    2    0  505  0.93964515149E+02  0.16923069240E+01 -0.42777930372E+03  0.43798096614E+03  0.00000000000E+00 0.  1.
<scales pt_clust_3="30.55427" pt_clust_4="53.71645" pt_clust_5="93.47893" pt_clust_6="14000.00000"></scales>
<clustering>
<clus scale="   30.554">  1  3  2 -1</clus>
<clus scale="   53.716">  1  4  2 -1</clus>
<clus scale="   93.479">  1  5  2 -1</clus>
<clus scale="   30.554">  1  3  2 -1</clus>
</clustering>
</event>
<event>
 6    0  0.1993420E+002  0.1456481E+03  0.7546771E-02  0.1205925E+00
          2   -1    0    0  503    0 -0.00000000000E+00  0.00000000000E+00  0.54894823780E+03  0.54894823780E+03  0.00000000000E+00 0.  1.
         21   -1    0    0  505  502  0.00000000000E+00 -0.00000000000E+00 -0.17428344084E+04  0.17428344084E+04  0.00000000000E+00 0.  1.
         21    1    1    2  503  504 -0.19000064396E+02  0.34804957635E+02 -0.18568145426E+03  0.18986834907E+03  0.00000000000E+00 0.  1.
         21    1    1    2  504  502  0.52698441483E+02  0.10178123266E+03 -0.55964281661E+03  0.57125880934E+03  0.00000000000E+00 0.  1.
         21    1    1    2  505  501 -0.13810159102E+03 -0.58313810539E+02 -0.97593403520E+03  0.98738026667E+03  0.00000000000E+00 0.  1.
          2    1    1    2  501    0  0.10440321393E+03 -0.78272379753E+02  0.52737213552E+03  0.54327522108E+03  0.00000000000E+00 0.  1.
<scales pt_clust_3="37.26986" pt_clust_4="37.26986" pt_clust_5="131.14289" pt_clust_6="130.48600"></scales>
<clustering>
<clus scale="   37.270">  3  4 -1 -1</clus>
<clus scale="  130.486">  1  6  2 -1</clus>
<clus scale="  131.143">  2  5  1 -1</clus>
<clus scale="  131.143">  2  3  1 -1</clus>
</clustering>
</event>
<event>
 6    0  0.1993420E+002  0.1513698E+03  0.7546771E-02  0.1198800E+00
          2   -1    0    0  505    0 -0.00000000000E+00  0.00000000000E+00  0.11476536968E+04  0.11476536968E+04  0.00000000000E+00 0. -1.
         21   -1    0    0  501  502  0.00000000000E+00 -0.00000000000E+00 -0.11806378475E+04  0.11806378475E+04  0.00000000000E+00 0. -1.
         21    1    1    2  503  502 -0.89014146452E+02  0.69033064962E+02 -0.90020638491E+03  0.90722688329E+03  0.00000000000E+00 0. -1.
         21    1    1    2  504  503  0.15311659104E+03  0.82352006085E+02 -0.17148165170E+03  0.24419766630E+03  0.00000000000E+00 0. -1.
         21    1    1    2  505  504 -0.20779389415E+02 -0.14994332400E+03  0.14857787801E+02  0.15210370572E+03  0.00000000000E+00 0. -1.
          2    1    1    2  501    0 -0.43323055172E+02 -0.14417470489E+01  0.10238460981E+04  0.10247632890E+04  0.00000000000E+00 0. -1.
<scales pt_clust_3="113.59765" pt_clust_4="14000.00000" pt_clust_5="151.36977" pt_clust_6="43.34704"></scales>
<clustering>
<clus scale="   43.347">  1  6  2 -1</clus>
<clus scale="  113.598">  2  3  1 -1</clus>
<clus scale="  151.370">  1  5  2 -1</clus>
<clus scale="  113.598">  2  3  1 -1</clus>
</clustering>
</event>
<event>
 6    0  0.1993420E+002  0.1261391E+03  0.7546771E-02  0.1233300E+00
         21   -1    0    0  503  502  0.00000000000E+00  0.00000000000E+00  0.64945431233E+02  0.64945431233E+02  0.00000000000E+00 0. -1.
          1   -1    0    0  505    0 -0.00000000000E+00 -0.00000000000E+00 -0.14708612231E+04  0.14708612231E+04  0.00000000000E+00 0. -1.
         21    1    1    2  503  501  0.15718016858E+02  0.42800168674E+02 -0.24133397022E+02  0.51588093048E+02  0.00000000000E+00 0. -1.
         21    1    1    2  504  502  0.61931353635E+02 -0.83179560220E+01 -0.25913485669E+02  0.67647540199E+02  0.00000000000E+00 0. -1.
         21    1    1    2  505  504  0.43052357994E+02 -0.33673543835E+02  0.68114362874E+00  0.54661476744E+02  0.00000000000E+00 0. -1.
          1    1    1    2  501    0 -0.12070172849E+03 -0.80866881751E+00 -0.13565500528E+04  0.13619095443E+04  0.00000000000E+00 0. -1.
<scales pt_clust_3="45.59507" pt_clust_4="36.67750" pt_clust_5="36.67750" pt_clust_6="119.88789"></scales>
<clustering>
<clus scale="   36.678">  4  5 -1 -1</clus>
<clus scale="   45.595">  1  3  2 -1</clus>
<clus scale="  119.888">  2  6  1 -1</clus>
<clus scale="   45.595">  1  3  2 -1</clus>
</clustering>
</event>
<event>
 6    0  0.1993420E+002  0.1383960E+03  0.7546771E-02  0.1215504E+00
         21   -1    0    0  504  502  0.00000000000E+00  0.00000000000E+00  0.10658687479E+03  0.10658687479E+03  0.00000000000E+00 0.  1.
          1   -1    0    0  505    0 -0.00000000000E+00 -0.00000000000E+00 -0.19099598647E+04  0.19099598647E+04  0.00000000000E+00 0.  1.
         21    1    1    2  503  502  0.26184370989E+02 -0.16349946693E+02  0.10425801768E+02  0.32582808097E+02  0.00000000000E+00 0.  1.
         21    1    1    2  504  501  0.67713080484E+01  0.83484814465E+02 -0.37443890352E+02  0.91747532848E+02  0.00000000000E+00 0.  1.
         21    1    1    2  505  503  0.32638514152E+02  0.62013252738E+02  0.32728070498E+02  0.77343666320E+02  0.00000000000E+00 0.  1.
          1    1    1    2  501    0 -0.65594193190E+02 -0.12914812051E+03 -0.18090829718E+04  0.18148727322E+04  0.00000000000E+00 0.  1.
<scales pt_clust_3="30.86976" pt_clust_4="138.39599" pt_clust_5="71.43924" pt_clust_6="14000.00000"></scales>
<clustering>
<clus scale="   30.870">  1  3  2 -1</clus>
<clus scale="   71.439">  1  5  2 -1</clus>
<clus scale="  138.396">  1  4  2 -1</clus>
<clus scale="   30.870">  1  3  2 -1</clus>
</clustering>
</event>
<event>
 6    0  0.1993420E+002  0.1567427E+03  0.7546771E-02  0.1192424E+00
         21   -1    0    0  501  502  0.00000000000E+00  0.00000000000E+00  0.15344695818E+03  0.15344695818E+03  0.00000000000E+00 0. -1.
          1   -1    0    0  503    0 -0.00000000000E+00 -0.00000000000E+00 -0.35367408767E+03  0.35367408767E+03  0.00000000000E+00 0. -1.
         21    1    1    2  503  504 -0.31272987535E+02 -0.47182073950E+02  0.13335517658E+02  0.58154826823E+02  0.00000000000E+00 0. -1.
         21    1    1    2  504  505 -0.67928317542E+02 -0.41075055796E+02 -0.32906293288E+02  0.85931604609E+02  0.00000000000E+00 0. -1.
         21    1    1    2  505  502 -0.75985885811E+02  0.10227127468E+03 -0.28467246520E+02  0.13055134083E+03  0.00000000000E+00 0. -1.
          1    1    1    2  501    0  0.17518719089E+03 -0.14014144935E+02 -0.15218910734E+03  0.23248327360E+03  0.00000000000E+00 0. -1.
<scales pt_clust_3="44.26398" pt_clust_4="44.26398" pt_clust_5="127.40984" pt_clust_6="147.71806"></scales>
<clustering>
<clus scale="   44.264">  3  4 -1 -1</clus>
<clus scale="  127.410">  1  5  2 -1</clus>
<clus scale="  147.718">  2  6  1 -1</clus>
<clus scale="  127.410">  1  3  2 -1</clus>
</clustering>
</event>
<event>
 6    0  0.1993420E+002  0.3618585E+03  0.7546771E-02  0.1057850E+00
         21   -1    0    0  504  502  0.00000000000E+00  0.00000000000E+00  0.16802671795E+03  0.16802671795E+03  0.00000000000E+00 0. -1.
          1   -1    0    0  502    0 -0.00000000000E+00 -0.00000000000E+00 -0.97980896317E+03  0.97980896317E+03  0.00000000000E+00 0.  1.
         21    1    1    2  503  505 -0.25981558875E+03 -0.24218082366E+03 -0.29295177565E+03  0.46040898597E+03  0.00000000000E+00 0. -1.
         21    1    1    2  504  503  0.35185944547E+02  0.37379333300E+00  0.22072451717E+02  0.41537736336E+02  0.00000000000E+00 0. -1.
         21    1    1    2  505  501  0.13491130717E+03  0.59555592319E+02 -0.26500202604E+03  0.30327216025E+03  0.00000000000E+00 0.  1.
          1    1    1    2  501    0  0.89718337036E+02  0.18225143800E+03 -0.27590089526E+03  0.34261679856E+03  0.00000000000E+00 0.  1.
<scales pt_clust_3="339.52041" pt_clust_4="35.18793" pt_clust_5="107.22553" pt_clust_6="107.22553"></scales>
<clustering>
<clus scale="   35.188">  1  4  2 -1</clus>
<clus scale="  107.226">  5  6 -1 -1</clus>
<clus scale="  339.520">  1  3  2 -1</clus>
<clus scale="   35.188">  1  3  2 -1</clus>
</clustering>
</event>
<event>
 6    0  0.1993420E+002  0.9716977E+02  0.7546771E-02  0.1286363E+00
          4   -1    0    0  505    0 -0.00000000000E+00  0.00000000000E+00  0.82243101784E+02  0.82243101784E+02  0.00000000000E+00 0.  1.
         21   -1    0    0  504  502  0.00000000000E+00 -0.00000000000E+00 -0.37057376938E+03  0.37057376938E+03  0.00000000000E+00 0. -1.
         21    1    1    2  503  501  0.66314099482E+02 -0.10930771549E+02 -0.12199830222E+03  0.13928613464E+03  0.00000000000E+00 0. -1.
         21    1    1    2  504  503  0.63941485552E+02  0.25087164419E+02 -0.13348279829E+03  0.15011840937E+03  0.00000000000E+00 0. -1.
         21    1    1    2  505  502 -0.49153855993E+02  0.12876183409E+02 -0.55224640527E+02  0.75044377401E+02  0.00000000000E+00 0. -1.
          4    1    1    2  501    0 -0.81101729041E+02 -0.27032576279E+02  0.22375073436E+02  0.88367949761E+02  0.00000000000E+00 0.  1.
<scales pt_clust_3="35.90445" pt_clust_4="35.90445" pt_clust_5="50.81238" pt_clust_6="90.13594"></scales>
<clustering>
<clus scale="   35.904">  3  4 -1 -1</clus>
<clus scale="   50.812">  2  5  1 -1</clus>
<clus scale="   90.136">  1  6  2 -1</clus>
<clus scale="   50.812">  2  3  1 -1</clus>
</clustering>
</event>
<event>
 6    0  0.1993420E+002  0.2272836E+03  0.7546771E-02  0.1128566E+00
         21   -1    0    0  504  502  0.00000000000E+00  0.00000000000E+00  0.71540734872E+03  0.71540734872E+03  0.00000000000E+00 0. -1.
          3   -1    0    0  503    0 -0.00000000000E+00 -0.00000000000E+00 -0.23738221448E+03  0.23738221448E+03  0.00000000000E+00 0. -1.
         21    1    1    2  503  502  0.22079450618E+02 -0.19456236252E+03  0.30654701803E+03  0.36374866228E+03  0.00000000000E+00 0. -1.
         21    1    1    2  504  505 -0.28100512635E+02  0.10759909172E+03  0.10583773483E+03  0.15352142999E+03  0.00000000000E+00 0. -1.
         21    1    1    2  505  501 -0.12756634510E+02  0.16531432889E+03  0.21158524071E+03  0.26881196615E+03  0.00000000000E+00 0. -1.
          3    1    1    2  501    0  0.18777696527E+02 -0.78351058092E+02 -0.14594485932E+03  0.16670750479E+03  0.00000000000E+00 0. -1.
<scales pt_clust_3="224.05514" pt_clust_4="31.26182" pt_clust_5="31.26182" pt_clust_6="80.56978"></scales>
<clustering>
<clus scale="   31.262">  4  5 -1 -1</clus>
<clus scale="   80.570">  2  6  1 -1</clus>
<clus scale="  224.055">  1  3  2 -1</clus>
<clus scale="  224.055">  1  3  2 -1</clus>
</clustering>
</event>
<event>
 6    0  0.1993420E+002  0.1064233E+03  0.7546771E-02  0.1267340E+00
          2   -1    0    0  504    0 -0.00000000000E+00  0.00000000000E+00  0.15892940125E+04  0.15892940125E+04  0.00000000000E+00 0.  1.
         21   -1    0    0  505  502  0.00000000000E+00 -0.00000000000E+00 -0.30442637029E+02  0.30442637029E+02  0.00000000000E+00 0.  1.
         21    1    1    2  503  502  0.22421427580E+02 -0.80705724426E+02  0.75762414821E+02  0.11294280796E+03  0.00000000000E+00 0.  1.
         21    1    1    2  504  503  0.15884460900E+02 -0.32050761512E+02  0.95263551192E+02  0.10175810335E+03  0.00000000000E+00 0.  1.
         21    1    1    2  505  501 -0.36002288873E+02  0.21238040893E+02  0.55055973772E+02  0.69125823200E+02  0.00000000000E+00 0.  1.
          2    1    1    2  501    0 -0.23035996064E+01  0.91518445045E+02  0.13327694357E+04  0.13359099150E+04  0.00000000000E+00 0.  1.
<scales pt_clust_3="33.73720" pt_clust_4="33.73720" pt_clust_5="41.79975" pt_clust_6="93.06285"></scales>
<clustering>
<clus scale="   33.737">  3  4 -1 -1</clus>
<clus scale="   41.800">  2  5  1 -1</clus>
<clus scale="   93.063">  1  6  2 -1</clus>
<clus scale="   41.800">  2  3  1 -1</clus>
</clustering>
</event>
<event>
 6    0  0.1993420E+002  0.1987660E+03  0.7546771E-02  0.1150784E+00
         -2   -1    0    0    0  501 -0.00000000000E+00  0.00000000000E+00  0.56628529309E+03  0.56628529309E+03  0.00000000000E+00 0. -1.
         21   -1    0    0  504  502  0.00000000000E+00 -0.00000000000E+00 -0.15702979279E+03  0.15702979279E+03  0.00000000000E+00 0. -1.
         21    1    1    2  503  502  0.67614599551E+02 -0.15163432895E+03  0.86074145732E+02  0.18701193104E+03  0.00000000000E+00 0. -1.
         21    1    1    2  504  505 -0.58761662666E+02  0.10383761288E+03  0.38320122267E+02  0.12531406393E+03  0.00000000000E+00 0. -1.
         21    1    1    2  505  501 -0.48210744696E+02  0.61675325619E+02 -0.36892576696E+02  0.86540071120E+02  0.00000000000E+00 0. -1.
         -2    1    1    2    0  503  0.39357807810E+02 -0.13878609548E+02  0.32175380900E+03  0.32444901979E+03  0.00000000000E+00 0. -1.
<scales pt_clust_3="182.93552" pt_clust_4="64.32834" pt_clust_5="64.32834" pt_clust_6="41.73311"></scales>
<clustering>
<clus scale="   41.733">  1  6  2 -1</clus>
<clus scale="   64.328">  4  5 -1 -1</clus>
<clus scale="  182.936">  1  3  2 -1</clus>
<clus scale="  198.766">  2  3  1 -1</clus>
</clustering>
</event>
<event>
 6    0  0.1993420E+002  0.2466498E+03  0.7546771E-02  0.1115441E+00
         -2   -1    0    0    0  501 -0.00000000000E+00  0.00000000000E+00  0.79298975145E+03  0.79298975145E+03  0.00000000000E+00 0.  1.
         21   -1    0    0  504  502  0.00000000000E+00 -0.00000000000E+00 -0.35933784216E+03  0.35933784216E+03  0.00000000000E+00 0.  1.
         21    1    1    2  503  505  0.14032204738E+03 -0.11795153856E+03 -0.10076240881E+03  0.20917912290E+03  0.00000000000E+00 0.  1.
         21    1    1    2  504  501 -0.50146696923E+02 -0.15356492329E+02 -0.82133005959E+02  0.97449185409E+02  0.00000000000E+00 0.  1.
         21    1    1    2  505  502  0.92066000000E+02 -0.48231528136E+01 -0.74035688905E+02  0.11823998643E+03  0.00000000000E+00 0.  1.
         -2    1    1    2    0  503 -0.18224135046E+03  0.13813118370E+03  0.69058301296E+03  0.72745929887E+03  0.00000000000E+00 0.  1.
<scales pt_clust_3="57.95247" pt_clust_4="52.44533" pt_clust_5="57.95247" pt_clust_6="230.79227"></scales>
<clustering>
<clus scale="   52.445">  2  4  1 -1</clus>
<clus scale="   57.952">  3  5 -1 -1</clus>
<clus scale="  230.792">  1  6  2 -1</clus>
<clus scale="   52.445">  2  3  1 -1</clus>
</clustering>
</event>
<event>
 6    0  0.1993420E+002  0.8362910E+02  0.7546771E-02  0.1319057E+00
          2   -1    0    0  505    0 -0.00000000000E+00  0.00000000000E+00  0.27006557090E+04  0.27006557090E+04  0.00000000000E+00 0. -1.
         21   -1    0    0  504  502  0.00000000000E+00 -0.00000000000E+00 -0.36236384569E+02  0.36236384569E+02  0.00000000000E+00 0. -1.
         21    1    1    2  503  502 -0.31713105764E+02 -0.28159090891E+02  0.30003811405E+02  0.51950786095E+02  0.00000000000E+00 0. -1.
         21    1    1    2  504  501  0.28019186474E+02 -0.74387222425E+02  0.74074290397E+02  0.10865327500E+03  0.00000000000E+00 0. -1.
         21    1    1    2  505  503  0.41246325449E+02  0.27614042124E+02  0.77502215848E+02  0.92034711641E+02  0.00000000000E+00 0. -1.
          2    1    1    2  501    0 -0.37552406159E+02  0.74932271193E+02  0.24828390067E+04  0.24842533208E+04  0.00000000000E+00 0. -1.
<scales pt_clust_3="42.41056" pt_clust_4="14000.00000" pt_clust_5="37.58765" pt_clust_6="83.62910"></scales>
<clustering>
<clus scale="   42.411">  2  3  1 -1</clus>
<clus scale="   37.588">  2  5  1 -1</clus>
<clus scale="   83.629">  1  6  2 -1</clus>
<clus scale="   42.411">  2  3  1 -1</clus>
</clustering>
</event>
<event>
 6    0  0.1993420E+002  0.1028346E+03  0.7546771E-02  0.1274446E+00
         21   -1    0    0  504  502  0.00000000000E+00  0.00000000000E+00  0.70440747436E+02  0.70440747436E+02  0.00000000000E+00 0.  1.
          2   -1    0    0  503    0 -0.00000000000E+00 -0.00000000000E+00 -0.99215036773E+03  0.99215036773E+03  0.00000000000E+00 0.  1.
         21    1    1    2  503  502  0.10979789047E+03  0.20978069419E+02 -0.22888101073E+03  0.25471979354E+03  0.00000000000E+00 0.  1.
         21    1    1    2  504  505  0.20668280670E+02 -0.41408951301E+02 -0.10998846328E+02  0.47569461783E+02  0.00000000000E+00 0.  1.
         21    1    1    2  505  501 -0.10872280553E+03 -0.31042967775E+01 -0.37313310494E+02  0.11498942665E+03  0.00000000000E+00 0.  1.
          2    1    1    2  501    0 -0.21743365609E+02  0.23535178660E+02 -0.64451645274E+03  0.64531243319E+03  0.00000000000E+00 0.  1.
<scales pt_clust_3="14000.00000" pt_clust_4="43.69212" pt_clust_5="102.83455" pt_clust_6="32.04183"></scales>
<clustering>
<clus scale="   32.042">  2  6  1 -1</clus>
<clus scale="   43.692">  1  4  2 -1</clus>
<clus scale="  102.835">  1  5  2 -1</clus>
<clus scale="   43.692">  1  3  2 -1</clus>
</clustering>
</event>
<event>
 6    0  0.1993420E+002  0.1604718E+03  0.7546771E-02  0.1188165E+00
          2   -1    0    0  504    0 -0.00000000000E+00  0.00000000000E+00  0.20032533286E+03  0.20032533286E+03  0.00000000000E+00 0.  1.
         21   -1    0    0  501  502  0.00000000000E+00 -0.00000000000E+00 -0.58252027681E+03  0.58252027681E+03  0.00000000000E+00 0.  1.
         21    1    1    2  503  505  0.68100815274E+01  0.39615030463E+02 -0.91965627703E+02  0.10036635157E+03  0.00000000000E+00 0. -1.
         21    1    1    2  504  503 -0.51883133288E+02 -0.78828198012E+02 -0.15335967854E+02  0.95608243534E+02  0.00000000000E+00 0.  1.
         21    1    1    2  505  502  0.11130455958E+03  0.86458229878E+02 -0.40756272050E+03  0.43124366852E+03  0.00000000000E+00 0.  1.
          2    1    1    2  501    0 -0.66231507822E+02 -0.47245062330E+02  0.13266937210E+03  0.15562734604E+03  0.00000000000E+00 0.  1.
<scales pt_clust_3="30.37534" pt_clust_4="150.05365" pt_clust_5="30.37534" pt_clust_6="81.35545"></scales>
<clustering>
<clus scale="   30.375">  3  5 -1 -1</clus>
<clus scale="   81.355">  1  6  2 -1</clus>
<clus scale="  150.054">  1  4  2 -1</clus>
<clus scale="  160.472">  2  3  1 -1</clus>
</clustering>
</event>
<event>
 6    0  0.1993420E+002  0.8779932E+02  0.7546771E-02  0.1308270E+00
         21   -1    0    0  503  502  0.00000000000E+00  0.00000000000E+00  0.11518604829E+03  0.11518604829E+03  0.00000000000E+00 0. -1.
          1   -1    0    0  504    0 -0.00000000000E+00 -0.00000000000E+00 -0.74542655660E+03  0.74542655660E+03  0.00000000000E+00 0. -1.
         21    1    1    2  503  505 -0.53601229607E+02  0.70198836040E+02  0.32400325270E+02  0.94078421938E+02  0.00000000000E+00 0. -1.
         21    1    1    2  504  502  0.30818559792E+02  0.31176081786E+02  0.72827097303E+01  0.44438379406E+02  0.00000000000E+00 0. -1.
         21    1    1    2  505  501 -0.17194004064E+02 -0.87773107169E+02 -0.53486247662E+02  0.10421387051E+03  0.00000000000E+00 0. -1.
          1    1    1    2  501    0  0.39976673879E+02 -0.13601810657E+02 -0.61643729564E+03  0.61788193303E+03  0.00000000000E+00 0. -1.
<scales pt_clust_3="87.79932" pt_clust_4="46.83148" pt_clust_5="14000.00000" pt_clust_6="42.22729"></scales>
<clustering>
<clus scale="   42.227">  2  6  1 -1</clus>
<clus scale="   46.831">  1  4  2 -1</clus>
<clus scale="   87.799">  1  3  2 -1</clus>
<clus scale="   46.831">  1  3  2 -1</clus>
</clustering>
</event>
<event>
 6    0  0.1993420E+002  0.1776457E+03  0.7546771E-02  0.1170101E+00
          2   -1    0    0  504    0 -0.00000000000E+00  0.00000000000E+00  0.14212817453E+04  0.14212817453E+04  0.00000000000E+00 0.  1.
         21   -1    0    0  501  502  0.00000000000E+00 -0.00000000000E+00 -0.21072923180E+03  0.21072923180E+03  0.00000000000E+00 0.  1.
         21    1    1    2  503  505  0.84847014627E+02 -0.12712127368E+03 -0.14641297921E+03  0.21164969784E+03  0.00000000000E+00 0.  1.
         21    1    1    2  504  503 -0.46393013550E+02  0.46358066394E+02  0.10801332678E+03  0.12636558387E+03  0.00000000000E+00 0. -1.
         21    1    1    2  505  502 -0.32555218012E+02 -0.49402171222E+02  0.26858313624E+02  0.64975270311E+02  0.00000000000E+00 0.  1.
          2    1    1    2  501    0 -0.58987830652E+01  0.13016537850E+03  0.12220938523E+04  0.12290204251E+04  0.00000000000E+00 0.  1.
<scales pt_clust_3="14000.00000" pt_clust_4="65.07484" pt_clust_5="59.16432" pt_clust_6="177.64571"></scales>
<clustering>
<clus scale="   59.164">  2  5  1 -1</clus>
<clus scale="   65.075">  1  4  2 -1</clus>
<clus scale="  177.646">  1  6  2 -1</clus>
<clus scale="   59.164">  2  3  1 -1</clus>
</clustering>
</event>
<event>
 6    0  0.1993420E+002  0.2102781E+03  0.7546771E-02  0.1141346E+00
         21   -1    0    0  501  502  0.00000000000E+00  0.00000000000E+00  0.16530061870E+03  0.16530061870E+03  0.00000000000E+00 0.  1.
          2   -1    0    0  505    0 -0.00000000000E+00 -0.00000000000E+00 -0.82158586269E+03  0.82158586269E+03  0.00000000000E+00 0.  1.
         21    1    1    2  503  504  0.10580505567E+03 -0.23577799829E+01 -0.13749921708E+03  0.17351168154E+03  0.00000000000E+00 0.  1.
         21    1    1    2  504  502 -0.17737660885E+03  0.82429508357E+02  0.70186101890E+02  0.20780561617E+03  0.00000000000E+00 0.  1.
         21    1    1    2  505  503  0.74868099890E+02 -0.40865288350E+02 -0.24640701379E+03  0.26075202898E+03  0.00000000000E+00 0. -1.
          2    1    1    2  501    0 -0.32965467130E+01 -0.39206440024E+02 -0.34256511501E+03  0.34481715471E+03  0.00000000000E+00 0.  1.
<scales pt_clust_3="77.76448" pt_clust_4="193.71864" pt_clust_5="77.76448" pt_clust_6="39.34479"></scales>
<clustering>
<clus scale="   39.345">  2  6  1 -1</clus>
<clus scale="   77.764">  3  5 -1 -1</clus>
<clus scale="  193.719">  1  4  2 -1</clus>
<clus scale="  193.719">  1  3  2 -1</clus>
</clustering>
</event>
<event>
 6    0  0.1993420E+002  0.1894197E+03  0.7546771E-02  0.1158986E+00
         21   -1    0    0  505  502  0.00000000000E+00  0.00000000000E+00  0.13996572263E+03  0.13996572263E+03  0.00000000000E+00 0. -1.
          3   -1    0    0  504    0 -0.00000000000E+00 -0.00000000000E+00 -0.82266830040E+03  0.82266830040E+03  0.00000000000E+00 0.  1.
         21    1    1    2  503  502 -0.28816432413E+02 -0.13568821574E+02 -0.16772250269E+02  0.35997334276E+02  0.00000000000E+00 0.  1.
         21    1    1    2  504  503 -0.86126019730E+02 -0.11059038189E+03  0.62742885875E+02  0.15357276311E+03  0.00000000000E+00 0. -1.
         21    1    1    2  505  501  0.86483432642E+01 -0.40153091215E+02 -0.40795571079E+02  0.57890786788E+02  0.00000000000E+00 0. -1.
          3    1    1    2  501    0  0.10629410888E+03  0.16431229468E+03 -0.68787764230E+03  0.71517313885E+03  0.00000000000E+00 0.  1.
<scales pt_clust_3="31.85121" pt_clust_4="189.41971" pt_clust_5="41.59562" pt_clust_6="14000.00000"></scales>
<clustering>
<clus scale="   31.851">  1  3  2 -1</clus>
<clus scale="   41.596">  1  5  2 -1</clus>
<clus scale="  189.420">  1  4  2 -1</clus>
<clus scale="   31.851">  1  3  2 -1</clus>
</clustering>
</event>
<event>
 6    0  0.1993420E+002  0.9351625E+02  0.7546771E-02  0.1294553E+00
         21   -1    0    0  505  502  0.00000000000E+00  0.00000000000E+00  0.18068798236E+03  0.18068798236E+03  0.00000000000E+00 0.  1.
          2   -1    0    0  504    0 -0.00000000000E+00 -0.00000000000E+00 -0.27192078188E+04  0.27192078188E+04  0.00000000000E+00 0.  1.
         21    1    1    2  503  501  0.68470181396E+02  0.23557556238E+02 -0.22426325401E+02  0.75802798545E+02  0.00000000000E+00 0. -1.
         21    1    1    2  504  502  0.51243836713E+00  0.47130368301E+02  0.24348626633E+02  0.53050823068E+02  0.00000000000E+00 0.  1.
         21    1    1    2  505  503  0.24557789561E+02 -0.59320764512E+02  0.10545822280E+03  0.12346446811E+03  0.00000000000E+00 0.  1.
          2    1    1    2  501    0 -0.93540409325E+02 -0.11367160026E+02 -0.26459003605E+04  0.26475777115E+04  0.00000000000E+00 0.  1.
<scales pt_clust_3="93.51625" pt_clust_4="47.13315" pt_clust_5="32.83908" pt_clust_6="14000.00000"></scales>
<clustering>
<clus scale="   47.133">  1  4  2 -1</clus>
<clus scale="   32.839">  1  5  2 -1</clus>
<clus scale="   93.516">  1  3  2 -1</clus>
<clus scale="   47.133">  1  3  2 -1</clus>
</clustering>
</event>
<event>
 6    0  0.1993420E+002  0.1966207E+03  0.7546771E-02  0.1152622E+00
          2   -1    0    0  504    0 -0.00000000000E+00  0.00000000000E+00  0.12221724779E+04  0.12221724779E+04  0.00000000000E+00 0.  1.
         21   -1    0    0  503  502  0.00000000000E+00 -0.00000000000E+00 -0.66342475346E+02  0.66342475346E+02  0.00000000000E+00 0.  1.
         21    1    1    2  503  505 -0.42601287162E+02 -0.22786048234E+02  0.33807926849E+02  0.58966512359E+02  0.00000000000E+00 0.  1.
         21    1    1    2  504  502  0.15377015492E+03  0.11453623035E+03  0.25643341930E+03  0.32019042325E+03  0.00000000000E+00 0.  1.
         21    1    1    2  505  501 -0.14152523812E+03 -0.21971111441E+02  0.24246451062E+03  0.28160461940E+03  0.00000000000E+00 0.  1.
          2    1    1    2  501    0  0.30356370360E+02 -0.69779070680E+02  0.62312414576E+03  0.62775339820E+03  0.00000000000E+00 0.  1.
<scales pt_clust_3="35.59714" pt_clust_4="186.82409" pt_clust_5="35.59714" pt_clust_6="76.09618"></scales>
<clustering>
<clus scale="   35.597">  3  5 -1 -1</clus>
<clus scale="   76.096">  1  6  2 -1</clus>
<clus scale="  186.824">  2  4  1 -1</clus>
<clus scale="  186.824">  2  3  1 -1</clus>
</clustering>
</event>
<event>
 6    0  0.1993420E+002  0.1640509E+03  0.7546771E-02  0.1184198E+00
          3   -1    0    0  505    0 -0.00000000000E+00  0.00000000000E+00  0.32365072235E+03  0.32365072235E+03  0.00000000000E+00 0.  1.
         21   -1    0    0  504  502  0.00000000000E+00 -0.00000000000E+00 -0.17235335436E+03  0.17235335436E+03  0.00000000000E+00 0.  1.
         21    1    1    2  503  502  0.13574133337E+03  0.28670363991E+01  0.44830337136E+02  0.14298142750E+03  0.00000000000E+00 0.  1.
         21    1    1    2  504  501 -0.14432383524E+03  0.12548974013E+02 -0.60277874565E+02  0.15690847119E+03  0.00000000000E+00 0.  1.
         21    1    1    2  505  503  0.35482997856E+02 -0.30626141239E+02  0.29386475230E+02  0.55322405863E+02  0.00000000000E+00 0.  1.
          3    1    1    2  501    0 -0.26900495981E+02  0.15210130827E+02  0.13735843019E+03  0.14079177216E+03  0.00000000000E+00 0.  1.
<scales pt_clust_3="34.86258" pt_clust_4="152.26538" pt_clust_5="34.86258" pt_clust_6="30.90283"></scales>
<clustering>
<clus scale="   30.903">  1  6  2 -1</clus>
<clus scale="   34.863">  3  5 -1 -1</clus>
<clus scale="  152.265">  2  4  1 -1</clus>
<clus scale="  152.265">  2  3  1 -1</clus>
</clustering>
</event>
<event>
 6    0  0.1993420E+002  0.1130479E+03  0.7546771E-02  0.1255027E+00
         21   -1    0    0  501  502  0.00000000000E+00  0.00000000000E+00  0.65759133598E+02  0.65759133598E+02  0.00000000000E+00 0.  1.
          1   -1    0    0  503    0 -0.00000000000E+00 -0.00000000000E+00 -0.55186061461E+03  0.55186061461E+03  0.00000000000E+00 0.  1.
         21    1    1    2  503  505 -0.17400907331E+02 -0.24737303821E+02 -0.12531968040E+03  0.12891760187E+03  0.00000000000E+00 0.  1.
         21    1    1    2  504  502 -0.36378210558E+02  0.45934481665E+02 -0.24199327725E+02  0.63395254330E+02  0.00000000000E+00 0.  1.
         21    1    1    2  505  504 -0.73331149228E+02  0.64381060918E+02 -0.18825138287E+03  0.21204000001E+03  0.00000000000E+00 0.  1.
          1    1    1    2  501    0  0.12711026712E+03 -0.85578238762E+02 -0.14833109001E+03  0.21326689199E+03  0.00000000000E+00 0.  1.
<scales pt_clust_3="30.24443" pt_clust_4="57.78655" pt_clust_5="113.04792" pt_clust_6="14000.00000"></scales>
<clustering>
<clus scale="   30.244">  2  3  1 -1</clus>
<clus scale="   57.787">  1  4  2 -1</clus>
<clus scale="  113.048">  2  5  1 -1</clus>
<clus scale="   57.787">  1  3  2 -1</clus>
</clustering>
</event>
<event>
 6    0  0.1993420E+002  0.9385618E+02  0.7546771E-02  0.1293773E+00
         21   -1    0    0  505  502  0.00000000000E+00  0.00000000000E+00  0.95391349420E+02  0.95391349420E+02  0.00000000000E+00 0.  1.
          1   -1    0    0  504    0 -0.00000000000E+00 -0.00000000000E+00 -0.18959914038E+04  0.18959914038E+04  0.00000000000E+00 0. -1.
         21    1    1    2  503  501  0.91738765597E+01  0.41743195684E+02 -0.62281862586E+02  0.75535983506E+02  0.00000000000E+00 0. -1.
         21    1    1    2  504  502  0.43484518854E+02 -0.15531760198E+03 -0.19851138145E+02  0.16250701077E+03  0.00000000000E+00 0.  1.
         21    1    1    2  505  503  0.61298667401E+00  0.37557672152E+02 -0.56216971609E+01  0.37981021170E+02  0.00000000000E+00 0.  1.
          1    1    1    2  501    0 -0.53271382088E+02  0.76016734141E+02 -0.17128453565E+04  0.17153587378E+04  0.00000000000E+00 0. -1.
<scales pt_clust_3="45.82358" pt_clust_4="14000.00000" pt_clust_5="37.56267" pt_clust_6="93.85618"></scales>
<clustering>
<clus scale="   37.563">  1  5  2 -1</clus>
<clus scale="   45.824">  1  3  2 -1</clus>
<clus scale="   93.856">  2  6  1 -1</clus>
<clus scale="   37.563">  1  3  2 -1</clus>
</clustering>
</event>
<event>
 6    0  0.1993420E+002  0.5148523E+03  0.7546771E-02  0.1009973E+00
          1   -1    0    0  504    0 -0.00000000000E+00  0.00000000000E+00  0.23549220711E+04  0.23549220711E+04  0.00000000000E+00 0.  1.
         21   -1    0    0  501  502  0.00000000000E+00 -0.00000000000E+00 -0.11964789024E+03  0.11964789024E+03  0.00000000000E+00 0.  1.
         21    1    1    2  503  505  0.24302690980E+03 -0.18719668001E+03  0.43949778477E+03  0.53596919568E+03  0.00000000000E+00 0.  1.
         21    1    1    2  504  503  0.10674674848E+03 -0.22138938503E+02  0.19691112932E+03  0.22507552901E+03  0.00000000000E+00 0.  1.
         21    1    1    2  505  502  0.25384203631E+02 -0.87516329567E+02  0.80537035483E+02  0.12161282753E+03  0.00000000000E+00 0. -1.
          1    1    1    2  501    0 -0.37515786191E+03  0.29685194808E+03  0.15183282313E+04  0.15919124091E+04  0.00000000000E+00 0.  1.
<scales pt_clust_3="76.34512" pt_clust_4="53.35272" pt_clust_5="76.34512" pt_clust_6="478.39785"></scales>
<clustering>
<clus scale="   53.353">  3  4 -1 -1</clus>
<clus scale="   76.345">  3  5 -1 -1</clus>
<clus scale="  478.398">  1  6  2 -1</clus>
<clus scale="  514.852">  2  3  1 -1</clus>
</clustering>
</event>
<event>
 6    0  0.1993420E+002  0.1015140E+03  0.7546771E-02  0.1277144E+00
          1   -1    0    0  503    0 -0.00000000000E+00  0.00000000000E+00  0.11298560904E+04  0.11298560904E+04  0.00000000000E+00 0.  1.
         21   -1    0    0  504  502  0.00000000000E+00 -0.00000000000E+00 -0.25173857272E+03  0.25173857272E+03  0.00000000000E+00 0. -1.
         21    1    1    2  503  502 -0.52161253675E+02 -0.22128035580E+02 -0.60511910274E+00  0.56664031914E+02  0.00000000000E+00 0. -1.
         21    1    1    2  504  505  0.72522844184E+02  0.33189194060E+01 -0.98552660346E+02  0.12240590270E+03  0.00000000000E+00 0. -1.
         21    1    1    2  505  501  0.57235708954E+01 -0.79815523810E+02 -0.95679469411E+02  0.12473106258E+03  0.00000000000E+00 0. -1.
          1    1    1    2  501    0 -0.26085161404E+02  0.98624639984E+02  0.10729547665E+04  0.10777936659E+04  0.00000000000E+00 0.  1.
<scales pt_clust_3="56.66080" pt_clust_4="47.31371" pt_clust_5="14000.00000" pt_clust_6="101.51398"></scales>
<clustering>
<clus scale="   56.661">  2  3  1 -1</clus>
<clus scale="   47.314">  2  4  1 -1</clus>
<clus scale="  101.514">  1  6  2 -1</clus>
<clus scale="   56.661">  2  3  1 -1</clus>
</clustering>
</event>
<event>
 6    0  0.1993420E+002  0.4189809E+03  0.7546771E-02  0.1037399E+00
         21   -1    0    0  503  502  0.00000000000E+00  0.00000000000E+00  0.32834999166E+03  0.32834999166E+03  0.00000000000E+00 0.  1.
          1   -1    0    0  504    0 -0.00000000000E+00 -0.00000000000E+00 -0.10776549950E+04  0.10776549950E+04  0.00000000000E+00 0. -1.
         21    1    1    2  503  505  0.15853328144E+03  0.34094533384E+03  0.13332315709E+03  0.39893807315E+03  0.00000000000E+00 0.  1.
         21    1    1    2  504  502  0.37586862159E+02  0.66488129779E+01 -0.29143215539E+02  0.48024014128E+02  0.00000000000E+00 0. -1.
         21    1    1    2  505  501 -0.30781955800E+02 -0.17091281484E+03 -0.21585176069E+03  0.27703916993E+03  0.00000000000E+00 0. -1.
          1    1    1    2  501    0 -0.16533818780E+03 -0.17668133197E+03 -0.63763318417E+03  0.68200372944E+03  0.00000000000E+00 0. -1.
<scales pt_clust_3="378.81793" pt_clust_4="38.17039" pt_clust_5="156.60946" pt_clust_6="156.60946"></scales>
<clustering>
<clus scale="   38.170">  2  4  1 -1</clus>
<clus scale="  156.609">  5  6 -1 -1</clus>
<clus scale="  378.818">  1  3  2 -1</clus>
<clus scale="  378.818">  1  3  2 -1</clus>
</clustering>
</event>
<event>
 6    0  0.1993420E+002  0.1361426E+03  0.7546771E-02  0.1218616E+00
         21   -1    0    0  503  502  0.00000000000E+00  0.00000000000E+00  0.20634170048E+03  0.20634170048E+03  0.00000000000E+00 0.  1.
          1   -1    0    0  504    0 -0.00000000000E+00 -0.00000000000E+00 -0.24795306950E+04  0.24795306950E+04  0.00000000000E+00 0. -1.
         21    1    1    2  503  505 -0.36993405596E+02  0.13159822701E+03  0.48192423523E+02  0.14494521411E+03  0.00000000000E+00 0.  1.
         21    1    1    2  504  502  0.13769929554E+02 -0.71514564402E+02 -0.92596545289E+01  0.73414474619E+02  0.00000000000E+00 0.  1.
         21    1    1    2  505  501 -0.12542757090E+02  0.59190931707E+02  0.64033141316E+02  0.88097277702E+02  0.00000000000E+00 0.  1.
          1    1    1    2  501    0  0.35766233132E+02 -0.11927459431E+03 -0.23761549048E+04  0.23794154291E+04  0.00000000000E+00 0. -1.
<scales pt_clust_3="35.57859" pt_clust_4="72.82818" pt_clust_5="35.57859" pt_clust_6="125.19955"></scales>
<clustering>
<clus scale="   35.579">  3  5 -1 -1</clus>
<clus scale="   72.828">  1  4  2 -1</clus>
<clus scale="  125.200">  2  6  1 -1</clus>
<clus scale="   72.828">  1  3  2 -1</clus>
</clustering>
</event>
<event>
 6    0  0.1993420E+002  0.1220499E+03  0.7546771E-02  0.1239753E+00
         21   -1    0    0  505  502  0.00000000000E+00  0.00000000000E+00  0.18347928142E+03  0.18347928142E+03  0.00000000000E+00 0. -1.
          1   -1    0    0  504    0 -0.00000000000E+00 -0.00000000000E+00 -0.17188032833E+04  0.17188032833E+04  0.00000000000E+00 0.  1.
         21    1    1    2  503  502  0.68790968863E+02  0.93891185049E+01  0.10619456953E+03  0.12687647355E+03  0.00000000000E+00 0. -1.
         21    1    1    2  504  503 -0.16728602670E+03 -0.23835962411E+02 -0.76041323688E+03  0.77896152579E+03  0.00000000000E+00 0.  1.
         21    1    1    2  505  501 -0.59933293834E+01  0.47133966581E+02  0.44075292298E+02  0.64808658326E+02  0.00000000000E+00 0. -1.
          1    1    1    2  501    0  0.10448838722E+03 -0.32687122675E+02 -0.92518062683E+03  0.93163590706E+03  0.00000000000E+00 0.  1.
<scales pt_clust_3="81.95296" pt_clust_4="14000.00000" pt_clust_5="47.51348" pt_clust_6="122.04985"></scales>
<clustering>
<clus scale="   47.513">  1  5  2 -1</clus>
<clus scale="   81.953">  1  3  2 -1</clus>
<clus scale="  122.050">  2  6  1 -1</clus>
<clus scale="   47.513">  1  3  2 -1</clus>
</clustering>
</event>
<event>
 6    0  0.1993420E+002  0.1333711E+03  0.7546771E-02  0.1222538E+00
         21   -1    0    0  503  502  0.00000000000E+00  0.00000000000E+00  0.66989632932E+03  0.66989632932E+03  0.00000000000E+00 0.  1.
          2   -1    0    0  502    0 -0.00000000000E+00 -0.00000000000E+00 -0.97254181402E+02  0.97254181402E+02  0.00000000000E+00 0.  1.
         21    1    1    2  503  504 -0.92509204221E+02  0.56295842263E+02  0.30908068024E+03  0.32750273529E+03  0.00000000000E+00 0.  1.
         21    1    1    2  504  505  0.86435871779E+02 -0.61524634413E+02  0.23055311071E+03  0.25379357247E+03  0.00000000000E+00 0.  1.
         21    1    1    2  505  501  0.61100097067E+02 -0.12391217977E+02  0.86828385746E+02  0.10689215460E+03  0.00000000000E+00 0.  1.
          2    1    1    2  501    0 -0.55026764625E+02  0.17620010128E+02 -0.53820028785E+02  0.78962048355E+02  0.00000000000E+00 0.  1.
<scales pt_clust_3="125.12031" pt_clust_4="35.40122" pt_clust_5="35.40122" pt_clust_6="57.77897"></scales>
<clustering>
<clus scale="   35.401">  4  5 -1 -1</clus>
<clus scale="   57.779">  2  6  1 -1</clus>
<clus scale="  125.120">  1  3  2 -1</clus>
<clus scale="  125.120">  1  3  2 -1</clus>
</clustering>
</event>
<event>
 6    0  0.5097498E+002  0.8334383E+02  0.7546771E-02  0.1319821E+00
         21   -1    0    0  504  502  0.00000000000E+00  0.00000000000E+00  0.42926464052E+03  0.42926464052E+03  0.00000000000E+00 0. -1.
          2   -1    0    0  505    0 -0.00000000000E+00 -0.00000000000E+00 -0.22916435653E+04  0.22916435653E+04  0.00000000000E+00 0.  1.
         21    1    1    2  503  502  0.67234715014E+02  0.22849866451E+02  0.35624047125E+02  0.79446183253E+02  0.00000000000E+00 0. -1.
         21    1    1    2  504  501  0.43126615724E+02  0.36562436831E+02  0.35093733349E+03  0.35546269679E+03  0.00000000000E+00 0. -1.
         21    1    1    2  505  503 -0.69419683717E+02 -0.16162757869E+02 -0.51943639771E+02  0.88195628814E+02  0.00000000000E+00 0. -1.
          2    1    1    2  501    0 -0.40941647021E+02 -0.43249545414E+02 -0.21969966656E+04  0.21978036970E+04  0.00000000000E+00 0.  1.
<scales pt_clust_3="14000.00000" pt_clust_4="56.53952" pt_clust_5="83.34383" pt_clust_6="59.25640"></scales>
<clustering>
<clus scale="   56.540">  1  4  2 -1</clus>
<clus scale="   59.256">  2  6  1 -1</clus>
<clus scale="   83.344">  2  5  1 -1</clus>
<clus scale="   56.540">  1  3  2 -1</clus>
</clustering>
</event>
<event>
 6    0  0.1993420E+002  0.7273220E+02  0.7546771E-02  0.1351041E+00
          2   -1    0    0  503    0 -0.00000000000E+00  0.00000000000E+00  0.97866906198E+03  0.97866906198E+03  0.00000000000E+00 0. -1.
         21   -1    0    0  505  502  0.00000000000E+00 -0.00000000000E+00 -0.16255785961E+03  0.16255785961E+03  0.00000000000E+00 0.  1.
         21    1    1    2  503  502  0.10124388051E+03 -0.20118846083E+02 -0.11181033115E+03  0.15217306417E+03  0.00000000000E+00 0.  1.
         21    1    1    2  504  501 -0.23999768733E+02 -0.44660084809E+02  0.30068128173E+02  0.58945775134E+02  0.00000000000E+00 0. -1.
         21    1    1    2  505  504 -0.28303443665E+02  0.11135926819E+02  0.11163233941E+01  0.30435833606E+02  0.00000000000E+00 0.  1.
          2    1    1    2  501    0 -0.48940668110E+02  0.53643004073E+02  0.89673708195E+03  0.89967224867E+03  0.00000000000E+00 0. -1.
<scales pt_clust_3="72.73220" pt_clust_4="51.13565" pt_clust_5="30.41535" pt_clust_6="14000.00000"></scales>
<clustering>
<clus scale="   30.415">  2  5  1 -1</clus>
<clus scale="   51.136">  2  4  1 -1</clus>
<clus scale="   72.732">  2  3  1 -1</clus>
<clus scale="   30.415">  2  3  1 -1</clus>
</clustering>
</event>
<event>
 6    0  0.1993420E+002  0.1570481E+03  0.7546771E-02  0.1192070E+00
          2   -1    0    0  505    0 -0.00000000000E+00  0.00000000000E+00  0.22020176406E+04  0.22020176406E+04  0.00000000000E+00 0.  1.
         21   -1    0    0  503  502  0.00000000000E+00 -0.00000000000E+00 -0.38896289557E+03  0.38896289557E+03  0.00000000000E+00 0.  1.
         21    1    1    2  503  501  0.83137708598E+02  0.47596602032E+02 -0.10164824244E+03  0.13967705720E+03  0.00000000000E+00 0.  1.
         21    1    1    2  504  502 -0.36836612934E+02 -0.21279154057E+02  0.23524837466E+02  0.48612307368E+02  0.00000000000E+00 0.  1.
         21    1    1    2  505  504  0.10664030056E+03 -0.63884208774E+02 -0.23756839718E+03  0.26812700195E+03  0.00000000000E+00 0.  1.
          2    1    1    2  501    0 -0.15294139623E+03  0.37566760799E+02  0.21287465472E+04  0.21345641697E+04  0.00000000000E+00 0.  1.
<scales pt_clust_3="82.16173" pt_clust_4="42.54102" pt_clust_5="14000.00000" pt_clust_6="157.04811"></scales>
<clustering>
<clus scale="   42.541">  2  4  1 -1</clus>
<clus scale="   82.162">  2  3  1 -1</clus>
<clus scale="  157.048">  1  6  2 -1</clus>
<clus scale="   42.541">  2  3  1 -1</clus>
</clustering>
</event>
<event>
 6    0  0.1993420E+002  0.9311247E+02  0.7546771E-02  0.1295485E+00
          1   -1    0    0  505    0 -0.00000000000E+00  0.00000000000E+00  0.25603123259E+03  0.25603123259E+03  0.00000000000E+00 0.  1.
         21   -1    0    0  501  502  0.00000000000E+00 -0.00000000000E+00 -0.10317698941E+04  0.10317698941E+04  0.00000000000E+00 0.  1.
         21    1    1    2  503  502 -0.10548542773E+02  0.35309505710E+02 -0.60999212820E+03  0.61110427049E+03  0.00000000000E+00 0.  1.
         21    1    1    2  504  503 -0.66411975845E+01  0.48926012192E+02 -0.33683048998E+03  0.34043007968E+03  0.00000000000E+00 0.  1.
         21    1    1    2  505  504 -0.63859177839E+02 -0.74309235702E+02 -0.43104717758E+02  0.10704145831E+03  0.00000000000E+00 0. -1.
          1    1    1    2  501    0  0.81048918197E+02 -0.99262822000E+01  0.21418867446E+03  0.22922531816E+03  0.00000000000E+00 0.  1.
<scales pt_clust_3="34.05043" pt_clust_4="34.05043" pt_clust_5="84.35931" pt_clust_6="81.65451"></scales>
<clustering>
<clus scale="   34.050">  3  4 -1 -1</clus>
<clus scale="   81.655">  1  6  2 -1</clus>
<clus scale="   84.359">  1  5  2 -1</clus>
<clus scale="   93.112">  2  3  1 -1</clus>
</clustering>
</event>
<event>
 6    0  0.1993420E+002  0.1327522E+03  0.7546771E-02  0.1223428E+00
         21   -1    0    0  503  502  0.00000000000E+00  0.00000000000E+00  0.90204569856E+03  0.90204569856E+03  0.00000000000E+00 0. -1.
          1   -1    0    0  504    0 -0.00000000000E+00 -0.00000000000E+00 -0.41523746593E+03  0.41523746593E+03  0.00000000000E+00 0.  1.
         21    1    1    2  503  501 -0.37472383496E+02  0.60027205640E+02 -0.18067269608E+02  0.73033356577E+02  0.00000000000E+00 0. -1.
         21    1    1    2  504  505 -0.72481362681E+02  0.78882506983E+02  0.15986376925E+03  0.19243810060E+03  0.00000000000E+00 0. -1.
         21    1    1    2  505  502  0.98983117902E+02 -0.10532248481E+03  0.69002190061E+03  0.70499695514E+03  0.00000000000E+00 0. -1.
          1    1    1    2  501    0  0.10970628275E+02 -0.33587227812E+02 -0.34501016763E+03  0.34681475217E+03  0.00000000000E+00 0.  1.
<scales pt_clust_3="48.54655" pt_clust_4="14000.00000" pt_clust_5="132.75224" pt_clust_6="35.33350"></scales>
<clustering>
<clus scale="   35.334">  2  6  1 -1</clus>
<clus scale="   48.547">  2  3  1 -1</clus>
<clus scale="  132.752">  1  5  2 -1</clus>
<clus scale="  132.752">  1  3  2 -1</clus>
</clustering>
</event>
<event>
 6    0  0.1993420E+002  0.1509689E+03  0.7546771E-02  0.1199287E+00
          2   -1    0    0  503    0 -0.00000000000E+00  0.00000000000E+00  0.13326313039E+04  0.13326313039E+04  0.00000000000E+00 0.  1.
         21   -1    0    0  505  502  0.00000000000E+00 -0.00000000000E+00 -0.44537378560E+03  0.44537378560E+03  0.00000000000E+00 0.  1.
         21    1    1    2  503  502 -0.36042181568E+02 -0.16672852942E+02 -0.22421124569E+02  0.45604053596E+02  0.00000000000E+00 0.  1.
         21    1    1    2  504  501 -0.57860971823E+02  0.60708122778E+02 -0.22045738080E+03  0.23587035630E+03  0.00000000000E+00 0.  1.
         21    1    1    2  505  504 -0.39862119718E+02 -0.24440804057E+01 -0.17723371521E+03  0.18167760436E+03  0.00000000000E+00 0. -1.
          2    1    1    2  501    0  0.13376527311E+03 -0.41591189431E+02  0.13073697389E+04  0.13148530752E+04  0.00000000000E+00 0.  1.
<scales pt_clust_3="39.71175" pt_clust_4="39.30156" pt_clust_5="39.30156" pt_clust_6="139.81422"></scales>
<clustering>
<clus scale="   39.302">  4  5 -1 -1</clus>
<clus scale="   39.712">  2  3  1 -1</clus>
<clus scale="  139.814">  1  6  2 -1</clus>
<clus scale="   39.712">  2  3  1 -1</clus>
</clustering>
</event>
<event>
 6    0  0.1993420E+002  0.1316839E+03  0.7546771E-02  0.1224978E+00
         -1   -1    0    0    0  501 -0.00000000000E+00  0.00000000000E+00  0.20135368431E+03  0.20135368431E+03  0.00000000000E+00 0.  1.
         21   -1    0    0  503  502  0.00000000000E+00 -0.00000000000E+00 -0.65024011821E+03  0.65024011821E+03  0.00000000000E+00 0.  1.
         21    1    1    2  503  504 -0.12898714453E+02 -0.41717903363E+02 -0.47155554483E+02  0.64268239545E+02  0.00000000000E+00 0.  1.
         21    1    1    2  504  501 -0.10047434807E+03 -0.32187769824E+02 -0.51973499721E+03  0.53033537924E+03  0.00000000000E+00 0.  1.
         21    1    1    2  505  502  0.30482268401E+02 -0.31105300666E+02 -0.33446379594E+02  0.54912373144E+02  0.00000000000E+00 0.  1.
         -1    1    1    2    0  505  0.82890794124E+02  0.10501097385E+03  0.15145049738E+03  0.20207781060E+03  0.00000000000E+00 0.  1.
<scales pt_clust_3="45.70638" pt_clust_4="14000.00000" pt_clust_5="43.55122" pt_clust_6="131.68395"></scales>
<clustering>
<clus scale="   43.551">  2  5  1 -1</clus>
<clus scale="   45.706">  2  3  1 -1</clus>
<clus scale="  131.684">  1  6  2 -1</clus>
<clus scale="   43.551">  2  3  1 -1</clus>
</clustering>
</event>
<event>
 6    0  0.1993420E+002  0.1116958E+03  0.7546771E-02  0.1257461E+00
          2   -1    0    0  505    0 -0.00000000000E+00  0.00000000000E+00  0.11534057981E+04  0.11534057981E+04  0.00000000000E+00 0.  1.
         21   -1    0    0  504  502  0.00000000000E+00 -0.00000000000E+00 -0.24087386779E+04  0.24087386779E+04  0.00000000000E+00 0.  1.
         21    1    1    2  503  501 -0.67915808055E+02 -0.60449780050E+02 -0.52960149149E+03  0.53734948839E+03  0.00000000000E+00 0.  1.
         21    1    1    2  504  503 -0.54418672688E+02 -0.36855261701E+02 -0.13012120181E+04  0.13028708371E+04  0.00000000000E+00 0.  1.
         21    1    1    2  505  502  0.70709210091E+02  0.11941684769E+03 -0.56412013612E+03  0.58094036173E+03  0.00000000000E+00 0.  1.
          2    1    1    2  501    0  0.51625270652E+02 -0.22111805938E+02  0.11396007659E+04  0.11409837887E+04  0.00000000000E+00 0.  1.
<scales pt_clust_3="14000.00000" pt_clust_4="63.87511" pt_clust_5="111.69575" pt_clust_6="56.16138"></scales>
<clustering>
<clus scale="   56.161">  1  6  2 -1</clus>
<clus scale="   63.875">  2  4  1 -1</clus>
<clus scale="  111.696">  2  5  1 -1</clus>
<clus scale="   63.875">  2  3  1 -1</clus>
</clustering>
</event>
<event>
 6    0  0.1993420E+002  0.2046365E+03  0.7546771E-02  0.1145885E+00
          2   -1    0    0  503    0 -0.00000000000E+00  0.00000000000E+00  0.48896530140E+04  0.48896530140E+04  0.00000000000E+00 0.  1.
         21   -1    0    0  505  502  0.00000000000E+00 -0.00000000000E+00 -0.11599030682E+03  0.11599030682E+03  0.00000000000E+00 0.  1.
         21    1    1    2  503  502 -0.74454547474E+02 -0.46125043813E+01  0.10344309017E+03  0.12753520196E+03  0.00000000000E+00 0.  1.
         21    1    1    2  504  501 -0.22644001392E+02  0.27895635260E+02  0.16849085033E+02  0.39683862363E+02  0.00000000000E+00 0. -1.
         21    1    1    2  505  504 -0.40206037358E+02  0.11662519186E+03 -0.48438809922E+02  0.13253029512E+03  0.00000000000E+00 0.  1.
          2    1    1    2  501    0  0.13730458622E+03 -0.13990832274E+03  0.47018093419E+04  0.47058939614E+04  0.00000000000E+00 0.  1.
<scales pt_clust_3="74.59728" pt_clust_4="33.37036" pt_clust_5="33.37036" pt_clust_6="195.07094"></scales>
<clustering>
<clus scale="   33.370">  4  5 -1 -1</clus>
<clus scale="   74.597">  2  3  1 -1</clus>
<clus scale="  195.071">  1  6  2 -1</clus>
<clus scale="   74.597">  2  3  1 -1</clus>
</clustering>
</event>
<event>
 6    0  0.1993420E+002  0.9161350E+02  0.7546771E-02  0.1298991E+00
         21   -1    0    0  504  502  0.00000000000E+00  0.00000000000E+00  0.15811437857E+04  0.15811437857E+04  0.00000000000E+00 0.  1.
         -3   -1    0    0    0  501 -0.00000000000E+00 -0.00000000000E+00 -0.44596622059E+03  0.44596622059E+03  0.00000000000E+00 0. -1.
         21    1    1    2  503  502 -0.25539908814E+02 -0.12800347307E+03  0.20026215879E+03  0.23904415555E+03  0.00000000000E+00 0.  1.
         21    1    1    2  504  505  0.22473720653E+02  0.45329970710E+02  0.10158244423E+04  0.10170836602E+04  0.00000000000E+00 0.  1.
         21    1    1    2  505  501 -0.31651851708E+02  0.55325876279E+02  0.34092853884E+03  0.34683578376E+03  0.00000000000E+00 0. -1.
         -3    1    1    2    0  503  0.34718039868E+02  0.27347626077E+02 -0.42183757474E+03  0.42414640681E+03  0.00000000000E+00 0. -1.
<scales pt_clust_3="14000.00000" pt_clust_4="51.69190" pt_clust_5="91.61350" pt_clust_6="44.19542"></scales>
<clustering>
<clus scale="   44.195">  2  6  1 -1</clus>
<clus scale="   51.692">  1  4  2 -1</clus>
<clus scale="   91.614">  1  5  2 -1</clus>
<clus scale="   51.692">  1  3  2 -1</clus>
</clustering>
</event>
<event>
 6    0  0.1993420E+002  0.1766719E+03  0.7546771E-02  0.1171063E+00
         21   -1    0    0  505  502  0.00000000000E+00  0.00000000000E+00  0.65476281647E+03  0.65476281647E+03  0.00000000000E+00 0.  1.
         -3   -1    0    0    0  501 -0.00000000000E+00 -0.00000000000E+00 -0.85306047685E+02  0.85306047685E+02  0.00000000000E+00 0.  1.
         21    1    1    2  503  504 -0.18836241114E+02 -0.70163948659E+02  0.23974525227E+03  0.25051061785E+03  0.00000000000E+00 0. -1.
         21    1    1    2  504  502 -0.65240318383E+02 -0.62022421594E+02  0.15941056954E+03  0.18307050446E+03  0.00000000000E+00 0.  1.
         21    1    1    2  505  501  0.27069561873E+02 -0.53583098961E+02  0.48232470802E+02  0.77008317173E+02  0.00000000000E+00 0.  1.
         -3    1    1    2    0  503  0.57006997624E+02  0.18576946921E+03  0.12206847617E+03  0.22947942467E+03  0.00000000000E+00 0.  1.
<scales pt_clust_3="57.69902" pt_clust_4="57.69902" pt_clust_5="60.03257" pt_clust_6="164.58388"></scales>
<clustering>
<clus scale="   57.699">  3  4 -1 -1</clus>
<clus scale="   60.033">  2  5  1 -1</clus>
<clus scale="  164.584">  2  6  1 -1</clus>
<clus scale="  176.672">  1  3  2 -1</clus>
</clustering>
</event>
<event>
 6    0  0.1993420E+002  0.1131633E+03  0.7546771E-02  0.1254822E+00
          1   -1    0    0  504    0 -0.00000000000E+00  0.00000000000E+00  0.11256119873E+04  0.11256119873E+04  0.00000000000E+00 0.  1.
         21   -1    0    0  503  502  0.00000000000E+00 -0.00000000000E+00 -0.78320401591E+02  0.78320401591E+02  0.00000000000E+00 0.  1.
         21    1    1    2  503  501  0.66948151709E+01 -0.46342263066E+02  0.64400041835E+02  0.79622806309E+02  0.00000000000E+00 0.  1.
         21    1    1    2  504  505 -0.17834951974E+02  0.77594400249E+02  0.74938617866E+02  0.10933788415E+03  0.00000000000E+00 0.  1.
         21    1    1    2  505  502 -0.47853102247E+01  0.88671179696E+02 -0.97458342634E+01  0.89333412495E+02  0.00000000000E+00 0.  1.
          1    1    1    2  501    0  0.15925447028E+02 -0.11992331688E+03  0.91769876026E+03  0.92563828593E+03  0.00000000000E+00 0.  1.
<scales pt_clust_3="46.82335" pt_clust_4="14000.00000" pt_clust_5="56.20329" pt_clust_6="113.16332"></scales>
<clustering>
<clus scale="   46.823">  2  3  1 -1</clus>
<clus scale="   56.203">  2  5  1 -1</clus>
<clus scale="  113.163">  1  6  2 -1</clus>
<clus scale="   46.823">  2  3  1 -1</clus>
</clustering>
</event>
<event>
 6    0  0.1993420E+002  0.1173148E+03  0.7546771E-02  0.1247594E+00
         -3   -1    0    0    0  501 -0.00000000000E+00  0.00000000000E+00  0.18269820510E+03  0.18269820510E+03  0.00000000000E+00 0. -1.
         21   -1    0    0  504  502  0.00000000000E+00 -0.00000000000E+00 -0.25014255677E+03  0.25014255677E+03  0.00000000000E+00 0.  1.
         21    1    1    2  503  502 -0.21838887054E+02  0.10889090742E+03 -0.11976272887E+03  0.16333180319E+03  0.00000000000E+00 0.  1.
         21    1    1    2  504  505  0.43965452140E+02  0.10782986532E+02 -0.57382387201E+02  0.73088796277E+02  0.00000000000E+00 0.  1.
         21    1    1    2  505  501  0.33038509725E+02 -0.77531310227E+01  0.66300912059E+01  0.34577626797E+02  0.00000000000E+00 0. -1.
         -3    1    1    2    0  503 -0.55165074812E+02 -0.11192076293E+03  0.10307067320E+03  0.16184253560E+03  0.00000000000E+00 0. -1.
<scales pt_clust_3="14000.00000" pt_clust_4="46.73953" pt_clust_5="33.93603" pt_clust_6="117.31475"></scales>
<clustering>
<clus scale="   33.936">  1  5  2 -1</clus>
<clus scale="   46.740">  2  4  1 -1</clus>
<clus scale="  117.315">  1  6  2 -1</clus>
<clus scale="   46.740">  2  3  1 -1</clus>
</clustering>
</event>
<event>
 6    0  0.1993420E+002  0.3193884E+03  0.7546771E-02  0.1075931E+00
          2   -1    0    0  502    0 -0.00000000000E+00  0.00000000000E+00  0.13225974618E+04  0.13225974618E+04  0.00000000000E+00 0.  1.
         21   -1    0    0  503  502  0.00000000000E+00 -0.00000000000E+00 -0.88748623970E+02  0.88748623970E+02  0.00000000000E+00 0.  1.
         21    1    1    2  503  505  0.28214818424E+02  0.26979319126E+02  0.21093215355E+02  0.44372101294E+02  0.00000000000E+00 0.  1.
         21    1    1    2  504  501  0.15368627522E+03 -0.62309669945E+02  0.36216509720E+03  0.39832841198E+03  0.00000000000E+00 0.  1.
         21    1    1    2  505  504  0.10938619512E+03 -0.82030940243E+02  0.16312737114E+03  0.21284960431E+03  0.00000000000E+00 0. -1.
          2    1    1    2  501    0 -0.29128728877E+03  0.11736129106E+03  0.68746315418E+03  0.75579596823E+03  0.00000000000E+00 0.  1.
<scales pt_clust_3="39.03793" pt_clust_4="78.79168" pt_clust_5="78.79168" pt_clust_6="307.31727"></scales>
<clustering>
<clus scale="   39.038">  2  3  1 -1</clus>
<clus scale="   78.792">  4  5 -1 -1</clus>
<clus scale="  307.317">  1  6  2 -1</clus>
<clus scale="   39.038">  2  3  1 -1</clus>
</clustering>
</event>
<event>
 6    0  0.1993420E+002  0.7600984E+02  0.7546771E-02  0.1340772E+00
         21   -1    0    0  504  502  0.00000000000E+00  0.00000000000E+00  0.59138208335E+03  0.59138208335E+03  0.00000000000E+00 0. -1.
          2   -1    0    0  505    0 -0.00000000000E+00 -0.00000000000E+00 -0.10335815844E+03  0.10335815844E+03  0.00000000000E+00 0. -1.
         21    1    1    2  503  501  0.35629507940E+02 -0.32353564605E+02  0.10739064273E+03  0.11768162611E+03  0.00000000000E+00 0. -1.
         21    1    1    2  504  503  0.14404147991E+01 -0.41099149049E+02  0.20381594857E+03  0.20792343720E+03  0.00000000000E+00 0. -1.
         21    1    1    2  505  502  0.35331611111E+02  0.98287410836E+02  0.24518580246E+03  0.26650481346E+03  0.00000000000E+00 0. -1.
          2    1    1    2  501    0 -0.72401533850E+02 -0.24834697182E+02 -0.68368468857E+02  0.10263036501E+03  0.00000000000E+00 0. -1.
<scales pt_clust_3="57.15425" pt_clust_4="41.12438" pt_clust_5="14000.00000" pt_clust_6="76.00984"></scales>
<clustering>
<clus scale="   41.124">  1  4  2 -1</clus>
<clus scale="   57.154">  1  3  2 -1</clus>
<clus scale="   76.010">  2  6  1 -1</clus>
<clus scale="   41.124">  1  3  2 -1</clus>
</clustering>
</event>
<event>
 6    0  0.1993420E+002  0.1523159E+03  0.7546771E-02  0.1197656E+00
         -4   -1    0    0    0  501 -0.00000000000E+00  0.00000000000E+00  0.36508272531E+03  0.36508272531E+03  0.00000000000E+00 0. -1.
         21   -1    0    0  503  502  0.00000000000E+00 -0.00000000000E+00 -0.44365629429E+03  0.44365629429E+03  0.00000000000E+00 0. -1.
         21    1    1    2  503  504 -0.73470746943E+02  0.37388433429E+02 -0.22757633598E+03  0.24204717373E+03  0.00000000000E+00 0. -1.
         21    1    1    2  504  501 -0.68131879851E+02  0.31277518523E+02 -0.12231139735E+03  0.14345840560E+03  0.00000000000E+00 0. -1.
         21    1    1    2  505  502  0.13205889768E+03  0.39052202332E+02  0.72712967109E+01  0.13790394744E+03  0.00000000000E+00 0.  1.
         -4    1    1    2    0  505  0.95437291134E+01 -0.10771815428E+03  0.26404286764E+03  0.28532949283E+03  0.00000000000E+00 0. -1.
<scales pt_clust_3="36.02141" pt_clust_4="36.02141" pt_clust_5="147.55792" pt_clust_6="108.14011"></scales>
<clustering>
<clus scale="   36.021">  3  4 -1 -1</clus>
<clus scale="  108.140">  1  6  2 -1</clus>
<clus scale="  147.558">  1  5  2 -1</clus>
<clus scale="  152.316">  2  3  1 -1</clus>
</clustering>
</event>
<event>
 6    0  0.1993420E+002  0.8816799E+02  0.7546771E-02  0.1307350E+00
         -4   -1    0    0    0  501 -0.00000000000E+00  0.00000000000E+00  0.12019290272E+04  0.12019290272E+04  0.00000000000E+00 0. -1.
         21   -1    0    0  503  502  0.00000000000E+00 -0.00000000000E+00 -0.92638148860E+02  0.92638148860E+02  0.00000000000E+00 0. -1.
         21    1    1    2  503  501 -0.71670348105E+02  0.53456792710E+02 -0.45536329677E+02  0.10033855094E+03  0.00000000000E+00 0. -1.
         21    1    1    2  504  505 -0.22744853902E+02 -0.42582552481E+02  0.59470364301E+02  0.76598475082E+02  0.00000000000E+00 0. -1.
         21    1    1    2  505  502  0.67509275633E+02 -0.45170390641E+02  0.14442611063E+03  0.16570083862E+03  0.00000000000E+00 0. -1.
         -4    1    1    2    0  504  0.26905926373E+02  0.34296150412E+02  0.95093073305E+03  0.95192931138E+03  0.00000000000E+00 0. -1.
<scales pt_clust_3="14000.00000" pt_clust_4="36.67509" pt_clust_5="88.16799" pt_clust_6="43.59077"></scales>
<clustering>
<clus scale="   43.591">  1  6  2 -1</clus>
<clus scale="   36.675">  1  4  2 -1</clus>
<clus scale="   88.168">  1  5  2 -1</clus>
<clus scale="   88.168">  2  3  1 -1</clus>
</clustering>
</event>
<event>
 6    0  0.1993420E+002  0.1328815E+03  0.7546771E-02  0.1223242E+00
         21   -1    0    0  501  502  0.00000000000E+00  0.00000000000E+00  0.94746007810E+02  0.94746007810E+02  0.00000000000E+00 0.  1.
          1   -1    0    0  505    0 -0.00000000000E+00 -0.00000000000E+00 -0.15975321706E+04  0.15975321706E+04  0.00000000000E+00 0. -1.
         21    1    1    2  503  504  0.19404648425E+02  0.40444759722E+02  0.23054251553E+02  0.50436271513E+02  0.00000000000E+00 0.  1.
         21    1    1    2  504  502  0.57522633099E+02  0.22581452914E+02 -0.35169547953E+02  0.71103251947E+02  0.00000000000E+00 0.  1.
         21    1    1    2  505  503 -0.22505389542E+02  0.51955974395E+02  0.15896610292E+02  0.58810016601E+02  0.00000000000E+00 0.  1.
          1    1    1    2  501    0 -0.54421891982E+02 -0.11498218703E+03 -0.15065674767E+04  0.15119286383E+04  0.00000000000E+00 0. -1.
<scales pt_clust_3="38.49154" pt_clust_4="61.79624" pt_clust_5="38.49154" pt_clust_6="125.64797"></scales>
<clustering>
<clus scale="   38.492">  3  5 -1 -1</clus>
<clus scale="   61.796">  1  4  2 -1</clus>
<clus scale="  125.648">  2  6  1 -1</clus>
<clus scale="   61.796">  1  3  2 -1</clus>
</clustering>
</event>
<event>
 6    0  0.1993420E+002  0.4415171E+03  0.7546771E-02  0.1030282E+00
         -4   -1    0    0    0  501 -0.00000000000E+00  0.00000000000E+00  0.53646680796E+03  0.53646680796E+03  0.00000000000E+00 0.  1.
         21   -1    0    0  505  502  0.00000000000E+00 -0.00000000000E+00 -0.89731636348E+03  0.89731636348E+03  0.00000000000E+00 0.  1.
         21    1    1    2  503  501  0.70612491465E+02  0.80732648752E+02 -0.10483129885E+02  0.10776725169E+03  0.00000000000E+00 0.  1.
         21    1    1    2  504  503  0.24345557399E+03  0.24970963152E+02 -0.37526294897E+03  0.44801389083E+03  0.00000000000E+00 0.  1.
         21    1    1    2  505  504  0.18408583226E+03 -0.27274492689E+02 -0.24371031892E+03  0.30663693701E+03  0.00000000000E+00 0.  1.
         -4    1    1    2    0  502 -0.49815389772E+03 -0.78429119215E+02  0.26860684225E+03  0.57136509191E+03  0.00000000000E+00 0.  1.
<scales pt_clust_3="107.25616" pt_clust_4="52.12409" pt_clust_5="52.12409" pt_clust_6="437.45207"></scales>
<clustering>
<clus scale="   52.124">  4  5 -1 -1</clus>
<clus scale="  107.256">  1  3  2 -1</clus>
<clus scale="  437.452">  1  6  2 -1</clus>
<clus scale="  441.517">  2  3  1 -1</clus>
</clustering>
</event>
<event>
 6    0  0.1993420E+002  0.3150326E+03  0.7546771E-02  0.1077958E+00
          2   -1    0    0  505    0 -0.00000000000E+00  0.00000000000E+00  0.19969004749E+04  0.19969004749E+04  0.00000000000E+00 0.  1.
         21   -1    0    0  504  502  0.00000000000E+00 -0.00000000000E+00 -0.19738590543E+03  0.19738590543E+03  0.00000000000E+00 0.  1.
         21    1    1    2  503  501 -0.34770058861E+02 -0.30697254343E+02  0.21080922765E+02  0.50947852968E+02  0.00000000000E+00 0. -1.
         21    1    1    2  504  503 -0.19844470924E+03 -0.16915676931E+03 -0.65367767318E+02  0.26882570605E+03  0.00000000000E+00 0.  1.
         21    1    1    2  505  502 -0.11113931361E+02  0.47326656067E+02  0.21364173663E+03  0.21910299741E+03  0.00000000000E+00 0. -1.
          2    1    1    2  501    0  0.24432869946E+03  0.15252736759E+03  0.16301596774E+04  0.16554098239E+04  0.00000000000E+00 0.  1.
<scales pt_clust_3="32.56792" pt_clust_4="32.56792" pt_clust_5="48.61411" pt_clust_6="305.42185"></scales>
<clustering>
<clus scale="   32.568">  3  4 -1 -1</clus>
<clus scale="   48.614">  1  5  2 -1</clus>
<clus scale="  305.422">  1  6  2 -1</clus>
<clus scale="  315.033">  2  3  1 -1</clus>
</clustering>
</event>
<event>
 6    0  0.1993420E+002  0.1845977E+03  0.7546771E-02  0.1163426E+00
         21   -1    0    0  504  502  0.00000000000E+00  0.00000000000E+00  0.10178209202E+04  0.10178209202E+04  0.00000000000E+00 0. -1.
         -1   -1    0    0    0  501 -0.00000000000E+00 -0.00000000000E+00 -0.52527295418E+03  0.52527295418E+03  0.00000000000E+00 0. -1.
         21    1    1    2  503  502 -0.12075066722E+02  0.32788551606E+02  0.63476045108E+02  0.72457605918E+02  0.00000000000E+00 0. -1.
         21    1    1    2  504  501 -0.95505606984E+02  0.11798601839E+03  0.85508043723E+03  0.86844952394E+03  0.00000000000E+00 0. -1.
         21    1    1    2  505  503  0.82456395707E+02 -0.20012532352E+03 -0.50032320738E+02  0.22215408037E+03  0.00000000000E+00 0. -1.
         -1    1    1    2    0  505  0.25124278000E+02  0.49350753529E+02 -0.37597619555E+03  0.38003266418E+03  0.00000000000E+00 0. -1.
<scales pt_clust_3="34.94133" pt_clust_4="14000.00000" pt_clust_5="184.59766" pt_clust_6="55.42875"></scales>
<clustering>
<clus scale="   34.941">  1  3  2 -1</clus>
<clus scale="   55.429">  2  6  1 -1</clus>
<clus scale="  184.598">  2  5  1 -1</clus>
<clus scale="   34.941">  1  3  2 -1</clus>
</clustering>
</event>
<event>
 6    0  0.1993420E+002  0.1403867E+03  0.7546771E-02  0.1212810E+00
         21   -1    0    0  504  502  0.00000000000E+00  0.00000000000E+00  0.24955925771E+03  0.24955925771E+03  0.00000000000E+00 0. -1.
         -1   -1    0    0    0  501 -0.00000000000E+00 -0.00000000000E+00 -0.38660303054E+03  0.38660303054E+03  0.00000000000E+00 0. -1.
         21    1    1    2  503  501 -0.11471424059E+03  0.71547529051E+02  0.67235087631E+02  0.15099325454E+03  0.00000000000E+00 0. -1.
         21    1    1    2  504  505  0.53545662204E+02  0.15780645071E+00  0.15860988314E+02  0.55845624663E+02  0.00000000000E+00 0. -1.
         21    1    1    2  505  503  0.71174463891E+02 -0.32255259264E+02  0.88471543338E+02  0.11803990868E+03  0.00000000000E+00 0. -1.
         -1    1    1    2    0  502 -0.10005885505E+02 -0.39450076237E+02 -0.30861139211E+03  0.31128350037E+03  0.00000000000E+00 0. -1.
<scales pt_clust_3="130.16487" pt_clust_4="42.39778" pt_clust_5="42.39778" pt_clust_6="40.69922"></scales>
<clustering>
<clus scale="   40.699">  2  6  1 -1</clus>
<clus scale="   42.398">  4  5 -1 -1</clus>
<clus scale="  130.165">  2  3  1 -1</clus>
<clus scale="  140.387">  1  3  2 -1</clus>
</clustering>
</event>
<event>
 6    0  0.1993420E+002  0.3052138E+03  0.7546771E-02  0.1082663E+00
          1   -1    0    0  502    0 -0.00000000000E+00  0.00000000000E+00  0.16452235918E+04  0.16452235918E+04  0.00000000000E+00 0. -1.
         21   -1    0    0  503  502  0.00000000000E+00 -0.00000000000E+00 -0.12610739102E+03  0.12610739102E+03  0.00000000000E+00 0. -1.
         21    1    1    2  503  504 -0.14457215221E+02 -0.45803202650E+02 -0.16879077057E+02  0.50910192371E+02  0.00000000000E+00 0. -1.
         21    1    1    2  504  505  0.13814136907E+03 -0.20231628804E+03  0.12389839474E+03  0.27452819614E+03  0.00000000000E+00 0. -1.
         21    1    1    2  505  501 -0.14111604027E+02  0.14512783375E+03  0.47723741619E+03  0.49901580827E+03  0.00000000000E+00 0. -1.
          1    1    1    2  501    0 -0.10957254982E+03  0.10299165694E+03  0.93485946695E+03  0.94687678608E+03  0.00000000000E+00 0. -1.
<scales pt_clust_3="48.03066" pt_clust_4="270.97739" pt_clust_5="136.41975" pt_clust_6="136.41975"></scales>
<clustering>
<clus scale="   48.031">  2  3  1 -1</clus>
<clus scale="  136.420">  5  6 -1 -1</clus>
<clus scale="  270.977">  2  4  1 -1</clus>
<clus scale="   48.031">  2  3  1 -1</clus>
</clustering>
</event>
<event>
 6    0  0.1993420E+002  0.1281248E+03  0.7546771E-02  0.1230265E+00
          3   -1    0    0  505    0 -0.00000000000E+00  0.00000000000E+00  0.13224133123E+04  0.13224133123E+04  0.00000000000E+00 0.  1.
         21   -1    0    0  501  502  0.00000000000E+00 -0.00000000000E+00 -0.90803853458E+02  0.90803853458E+02  0.00000000000E+00 0. -1.
         21    1    1    2  503  504 -0.94996666511E+02 -0.24999214738E+02 -0.37091630366E+02  0.10500055442E+03  0.00000000000E+00 0. -1.
         21    1    1    2  504  502  0.48073957967E+01 -0.64321816630E+02  0.98158626617E+02  0.11745434487E+03  0.00000000000E+00 0.  1.
         21    1    1    2  505  503 -0.35779158400E+02 -0.24767240317E+02  0.15074347971E+03  0.15689856929E+03  0.00000000000E+00 0.  1.
          3    1    1    2  501    0  0.12596842911E+03  0.11408827168E+03  0.10197989829E+04  0.10338636972E+04  0.00000000000E+00 0.  1.
<scales pt_clust_3="14000.00000" pt_clust_4="66.62371" pt_clust_5="43.51511" pt_clust_6="128.12479"></scales>
<clustering>
<clus scale="   43.515">  1  5  2 -1</clus>
<clus scale="   66.624">  2  4  1 -1</clus>
<clus scale="  128.125">  1  6  2 -1</clus>
<clus scale="   66.624">  2  3  1 -1</clus>
</clustering>
</event>
<event>
 6    0  0.1993420E+002  0.8449732E+02  0.7546771E-02  0.1316752E+00
         21   -1    0    0  503  502  0.00000000000E+00  0.00000000000E+00  0.23720898581E+02  0.23720898581E+02  0.00000000000E+00 0.  1.
          2   -1    0    0  504    0 -0.00000000000E+00 -0.00000000000E+00 -0.92358922682E+03  0.92358922682E+03  0.00000000000E+00 0. -1.
         21    1    1    2  503  501 -0.33464261034E+02  0.75612773050E+01 -0.25423602966E+02  0.42701162382E+02  0.00000000000E+00 0.  1.
         21    1    1    2  504  505 -0.49790035834E+02  0.39196753546E+02 -0.22104886763E+03  0.22995224512E+03  0.00000000000E+00 0.  1.
         21    1    1    2  505  502  0.14310082756E+02  0.40469810021E+02 -0.82124114705E+02  0.92665820062E+02  0.00000000000E+00 0.  1.
          2    1    1    2  501    0  0.68944214112E+02 -0.87227840872E+02 -0.57127174294E+03  0.58199089783E+03  0.00000000000E+00 0. -1.
<scales pt_clust_3="34.30787" pt_clust_4="84.49732" pt_clust_5="43.19154" pt_clust_6="14000.00000"></scales>
<clustering>
<clus scale="   34.308">  1  3  2 -1</clus>
<clus scale="   43.192">  1  5  2 -1</clus>
<clus scale="   84.497">  2  4  1 -1</clus>
<clus scale="   34.308">  1  3  2 -1</clus>
</clustering>
</event>
<event>
 6    0  0.1993420E+002  0.1400794E+03  0.7546771E-02  0.1213222E+00
          1   -1    0    0  505    0 -0.00000000000E+00  0.00000000000E+00  0.15013036093E+04  0.15013036093E+04  0.00000000000E+00 0. -1.
         21   -1    0    0  503  502  0.00000000000E+00 -0.00000000000E+00 -0.54124251924E+03  0.54124251924E+03  0.00000000000E+00 0. -1.
         21    1    1    2  503  501  0.35271385570E+02 -0.10037849026E+02 -0.33265983816E+03  0.33467506178E+03  0.00000000000E+00 0. -1.
         21    1    1    2  504  502  0.24369619611E+02 -0.20700592257E+02 -0.26417149343E+02  0.41476001003E+02  0.00000000000E+00 0. -1.
         21    1    1    2  505  504  0.81457216150E+02  0.23942550643E+02 -0.15967828353E+03  0.18084711229E+03  0.00000000000E+00 0. -1.
          1    1    1    2  501    0 -0.14109822133E+03  0.67958906392E+01  0.14788163611E+04  0.14855479535E+04  0.00000000000E+00 0. -1.
<scales pt_clust_3="56.49065" pt_clust_4="31.97488" pt_clust_5="140.07935" pt_clust_6="14000.00000"></scales>
<clustering>
<clus scale="   31.975">  2  4  1 -1</clus>
<clus scale="   56.491">  2  3  1 -1</clus>
<clus scale="  140.079">  2  5  1 -1</clus>
<clus scale="   31.975">  2  3  1 -1</clus>
</clustering>
</event>
<event>
 6    0  0.1993420E+002  0.9027865E+02  0.7546771E-02  0.1302178E+00
          2   -1    0    0  503    0 -0.00000000000E+00  0.00000000000E+00  0.27278538831E+04  0.27278538831E+04  0.00000000000E+00 0.  1.
         21   -1    0    0  504  502  0.00000000000E+00 -0.00000000000E+00 -0.84069557359E+02  0.84069557359E+02  0.00000000000E+00 0. -1.
         21    1    1    2  503  505  0.17478250820E+03 -0.89660330295E+02  0.14877994616E+03  0.24642112811E+03  0.00000000000E+00 0. -1.
         21    1    1    2  504  501 -0.39370745438E+02  0.41278926168E+02  0.52329168267E+01  0.57283407375E+02  0.00000000000E+00 0. -1.
         21    1    1    2  505  502 -0.50088600246E+02  0.24616357749E+02  0.84198486346E+02  0.10101592967E+03  0.00000000000E+00 0. -1.
          2    1    1    2  501    0 -0.85323162515E+02  0.23765046377E+02  0.24055729764E+04  0.24072029753E+04  0.00000000000E+00 0.  1.
<scales pt_clust_3="14000.00000" pt_clust_4="75.35406" pt_clust_5="55.81069" pt_clust_6="90.27865"></scales>
<clustering>
<clus scale="   55.811">  2  5  1 -1</clus>
<clus scale="   75.354">  2  4  1 -1</clus>
<clus scale="   90.279">  1  6  2 -1</clus>
<clus scale="   55.811">  2  3  1 -1</clus>
</clustering>
</event>
<event>
 6    0  0.1993420E+002  0.3304023E+03  0.7546771E-02  0.1070959E+00
         21   -1    0    0  505  502  0.00000000000E+00  0.00000000000E+00  0.40193632809E+03  0.40193632809E+03  0.00000000000E+00 0.  1.
          1   -1    0    0  504    0 -0.00000000000E+00 -0.00000000000E+00 -0.69416261039E+03  0.69416261039E+03  0.00000000000E+00 0.  1.
         21    1    1    2  503  501  0.39360078615E+02 -0.23345514677E+03  0.14679376706E+03  0.27856584749E+03  0.00000000000E+00 0.  1.
         21    1    1    2  504  502  0.12878303814E+02 -0.45155233634E+02 -0.45596268857E+02  0.65451245728E+02  0.00000000000E+00 0.  1.
         21    1    1    2  505  503  0.23454041039E+01 -0.79915147366E+02  0.10730769612E+03  0.13381656604E+03  0.00000000000E+00 0.  1.
          1    1    1    2  501    0 -0.54583786533E+02  0.35852552777E+03 -0.50073147661E+03  0.61826527922E+03  0.00000000000E+00 0.  1.
<scales pt_clust_3="43.29771" pt_clust_4="46.95579" pt_clust_5="43.29771" pt_clust_6="321.89174"></scales>
<clustering>
<clus scale="   43.298">  3  5 -1 -1</clus>
<clus scale="   46.956">  2  4  1 -1</clus>
<clus scale="  321.892">  2  6  1 -1</clus>
<clus scale="  330.402">  1  3  2 -1</clus>
</clustering>
</event>
<event>
 6    0  0.1993420E+002  0.1605586E+03  0.7546771E-02  0.1188068E+00
          2   -1    0    0  505    0 -0.00000000000E+00  0.00000000000E+00  0.16223874998E+04  0.16223874998E+04  0.00000000000E+00 0. -1.
         21   -1    0    0  503  502  0.00000000000E+00 -0.00000000000E+00 -0.40826898148E+02  0.40826898148E+02  0.00000000000E+00 0.  1.
         21    1    1    2  503  501  0.57520350815E+02  0.65571829892E+02  0.13570113244E+03  0.16131662338E+03  0.00000000000E+00 0.  1.
         21    1    1    2  504  502  0.30161126164E+02 -0.55010060579E+02  0.93298258691E+02  0.11242937948E+03  0.00000000000E+00 0.  1.
         21    1    1    2  505  504  0.71748659581E+02 -0.16910981809E+02  0.87619619428E+02  0.11450348975E+03  0.00000000000E+00 0. -1.
          2    1    1    2  501    0 -0.15943013656E+03  0.63492124964E+01  0.12649415910E+04  0.12749649053E+04  0.00000000000E+00 0. -1.
<scales pt_clust_3="87.22532" pt_clust_4="52.25968" pt_clust_5="52.25968" pt_clust_6="150.23336"></scales>
<clustering>
<clus scale="   52.260">  4  5 -1 -1</clus>
<clus scale="   87.225">  2  3  1 -1</clus>
<clus scale="  150.233">  1  6  2 -1</clus>
<clus scale="   87.225">  2  3  1 -1</clus>
</clustering>
</event>
<event>
 6    0  0.1993420E+002  0.1436645E+03  0.7546771E-02  0.1208481E+00
         21   -1    0    0  504  502  0.00000000000E+00  0.00000000000E+00  0.28841594395E+03  0.28841594395E+03  0.00000000000E+00 0. -1.
          1   -1    0    0  503    0 -0.00000000000E+00 -0.00000000000E+00 -0.16838419575E+04  0.16838419575E+04  0.00000000000E+00 0.  1.
         21    1    1    2  503  505 -0.46980683550E+02 -0.16405691444E+02 -0.10548312309E+01  0.49773928994E+02  0.00000000000E+00 0. -1.
         21    1    1    2  504  501  0.17431239655E+03 -0.45609681310E+02  0.19348521111E+03  0.26438907228E+03  0.00000000000E+00 0. -1.
         21    1    1    2  505  502 -0.17077253003E+02 -0.29659863588E+02  0.22764216852E+02  0.41104131752E+02  0.00000000000E+00 0. -1.
          1    1    1    2  501    0 -0.11025446000E+03  0.91675236342E+02 -0.16106206102E+04  0.16169907684E+04  0.00000000000E+00 0.  1.
<scales pt_clust_3="88.24695" pt_clust_4="143.66452" pt_clust_5="32.77697" pt_clust_6="14000.00000"></scales>
<clustering>
<clus scale="   32.777">  3  5 -1 -1</clus>
<clus scale="   88.247">  1  3  2 -1</clus>
<clus scale="  143.665">  1  4  2 -1</clus>
<clus scale="   88.247">  1  3  2 -1</clus>
</clustering>
</event>
<event>
 6    0  0.1993420E+002  0.9925813E+02  0.7546771E-02  0.1281864E+00
          2   -1    0    0  503    0 -0.00000000000E+00  0.00000000000E+00  0.15408123968E+04  0.15408123968E+04  0.00000000000E+00 0.  1.
         21   -1    0    0  505  502  0.00000000000E+00 -0.00000000000E+00 -0.50080059371E+02  0.50080059371E+02  0.00000000000E+00 0. -1.
         21    1    1    2  503  504  0.95446750602E+02 -0.86087646582E+00  0.21333792711E+03  0.23371755273E+03  0.00000000000E+00 0. -1.
         21    1    1    2  504  502 -0.15833791427E+02 -0.26740474529E+02  0.82638769023E+01  0.32156703663E+02  0.00000000000E+00 0.  1.
         21    1    1    2  505  501 -0.84611896097E+02  0.62698354174E+02  0.72478760290E+02  0.12784141454E+03  0.00000000000E+00 0. -1.
          2    1    1    2  501    0  0.49989369221E+01 -0.35097003179E+02  0.11966517731E+04  0.11971767852E+04  0.00000000000E+00 0.  1.
<scales pt_clust_3="14000.00000" pt_clust_4="31.07671" pt_clust_5="99.25813" pt_clust_6="35.61834"></scales>
<clustering>
<clus scale="   31.077">  2  4  1 -1</clus>
<clus scale="   35.618">  1  6  2 -1</clus>
<clus scale="   99.258">  2  5  1 -1</clus>
<clus scale="   31.077">  2  3  1 -1</clus>
</clustering>
</event>
<event>
 6    0  0.1993420E+002  0.2195481E+03  0.7546771E-02  0.1134220E+00
          2   -1    0    0  504    0 -0.00000000000E+00  0.00000000000E+00  0.10916985567E+04  0.10916985567E+04  0.00000000000E+00 0. -1.
         21   -1    0    0  505  502  0.00000000000E+00 -0.00000000000E+00 -0.25164248179E+03  0.25164248179E+03  0.00000000000E+00 0.  1.
         21    1    1    2  503  502  0.38475503589E+02  0.62935609900E+02 -0.31628451323E+02  0.80259667972E+02  0.00000000000E+00 0.  1.
         21    1    1    2  504  503  0.81784261787E+02  0.10102101347E+03 -0.11574669874E+03  0.17404369827E+03  0.00000000000E+00 0.  1.
         21    1    1    2  505  501  0.61721890695E+02 -0.45169070897E+02 -0.15108661401E+01  0.76499146879E+02  0.00000000000E+00 0. -1.
          2    1    1    2  501    0 -0.18198165607E+03 -0.11878755247E+03  0.98894209117E+03  0.10125385254E+04  0.00000000000E+00 0. -1.
<scales pt_clust_3="30.19560" pt_clust_4="30.19560" pt_clust_5="76.48423" pt_clust_6="215.85825"></scales>
<clustering>
<clus scale="   30.196">  3  4 -1 -1</clus>
<clus scale="   76.484">  2  5  1 -1</clus>
<clus scale="  215.858">  1  6  2 -1</clus>
<clus scale="   76.484">  2  3  1 -1</clus>
</clustering>
</event>
<event>
 6    0  0.1993420E+002  0.1792838E+03  0.7546771E-02  0.1168498E+00
          2   -1    0    0  504    0 -0.00000000000E+00  0.00000000000E+00  0.19530730466E+04  0.19530730466E+04  0.00000000000E+00 0. -1.
         21   -1    0    0  501  502  0.00000000000E+00 -0.00000000000E+00 -0.23731624090E+02  0.23731624090E+02  0.00000000000E+00 0.  1.
         21    1    1    2  503  505 -0.49119237724E+02 -0.22971153794E+02  0.12749551755E+03  0.13854775500E+03  0.00000000000E+00 0. -1.
         21    1    1    2  504  503 -0.36035401739E+02  0.71111302470E+01  0.18679033569E+03  0.19036740230E+03  0.00000000000E+00 0.  1.
         21    1    1    2  505  502 -0.62732315543E+02 -0.62093317157E+01  0.64673146245E+02  0.90313426792E+02  0.00000000000E+00 0.  1.
          2    1    1    2  501    0  0.14788695501E+03  0.22069355263E+02  0.15503824230E+04  0.15575760866E+04  0.00000000000E+00 0. -1.
<scales pt_clust_3="62.81375" pt_clust_4="35.93822" pt_clust_5="62.81375" pt_clust_6="149.52461"></scales>
<clustering>
<clus scale="   35.938">  3  4 -1 -1</clus>
<clus scale="   62.814">  3  5 -1 -1</clus>
<clus scale="  149.525">  1  6  2 -1</clus>
<clus scale="  179.284">  2  3  1 -1</clus>
</clustering>
</event>
<event>
 6    0  0.5080990E+002  0.1378289E+03  0.7546771E-02  0.1216280E+00
          1   -1    0    0  504    0 -0.00000000000E+00  0.00000000000E+00  0.26806137412E+04  0.26806137412E+04  0.00000000000E+00 0. -1.
         21   -1    0    0  503  502  0.00000000000E+00 -0.00000000000E+00 -0.36130135494E+03  0.36130135494E+03  0.00000000000E+00 0.  1.
         21    1    1    2  503  501  0.68296447835E+02  0.10060165318E+03  0.13226536358E+04  0.13282310558E+04  0.00000000000E+00 0.  1.
         21    1    1    2  504  505 -0.42264234053E+02 -0.59748279163E+02 -0.20634195711E+03  0.21893635059E+03  0.00000000000E+00 0.  1.
         21    1    1    2  505  502 -0.56749604982E+02 -0.29145623521E+02 -0.13868732841E+03  0.15265700147E+03  0.00000000000E+00 0.  1.
          1    1    1    2  501    0  0.30717391201E+02 -0.11707750498E+02  0.13416880360E+04  0.13420906883E+04  0.00000000000E+00 0. -1.
<scales pt_clust_3="132.91453" pt_clust_4="34.03486" pt_clust_5="34.03486" pt_clust_6="32.87293"></scales>
<clustering>
<clus scale="   32.873">  1  6  2 -1</clus>
<clus scale="   34.035">  4  5 -1 -1</clus>
<clus scale="  132.915">  1  3  2 -1</clus>
<clus scale="  137.829">  2  3  1 -1</clus>
</clustering>
</event>
<event>
 6    0  0.1993420E+002  0.1677107E+03  0.7546771E-02  0.1180256E+00
          2   -1    0    0  503    0 -0.00000000000E+00  0.00000000000E+00  0.23620317206E+04  0.23620317206E+04  0.00000000000E+00 0.  1.
         21   -1    0    0  505  502  0.00000000000E+00 -0.00000000000E+00 -0.31464896882E+02  0.31464896882E+02  0.00000000000E+00 0. -1.
         21    1    1    2  503  502 -0.60046428801E+00  0.30450076235E+02  0.92826417541E+02  0.97694992162E+02  0.00000000000E+00 0. -1.
         21    1    1    2  504  501 -0.15965758450E+02  0.50915996693E+02  0.55232532564E+02  0.76798286540E+02  0.00000000000E+00 0. -1.
         21    1    1    2  505  504 -0.76020489455E+02  0.53451536758E+02  0.12897310369E+03  0.15896616959E+03  0.00000000000E+00 0. -1.
          2    1    1    2  501    0  0.92586712193E+02 -0.13481760969E+03  0.20535347699E+04  0.20600371692E+04  0.00000000000E+00 0.  1.
<scales pt_clust_3="30.45600" pt_clust_4="37.88115" pt_clust_5="37.88115" pt_clust_6="160.71020"></scales>
<clustering>
<clus scale="   30.456">  2  3  1 -1</clus>
<clus scale="   37.881">  4  5 -1 -1</clus>
<clus scale="  160.710">  1  6  2 -1</clus>
<clus scale="   30.456">  2  3  1 -1</clus>
</clustering>
</event>
<event>
 6    0  0.1993420E+002  0.1552513E+03  0.7546771E-02  0.1194165E+00
         21   -1    0    0  504  502  0.00000000000E+00  0.00000000000E+00  0.73610779417E+03  0.73610779417E+03  0.00000000000E+00 0.  1.
         -2   -1    0    0    0  501 -0.00000000000E+00 -0.00000000000E+00 -0.28871743207E+03  0.28871743207E+03  0.00000000000E+00 0. -1.
         21    1    1    2  503  502  0.32962444412E+02 -0.13515178526E+02  0.33634761033E+03  0.33822906109E+03  0.00000000000E+00 0.  1.
         21    1    1    2  504  505  0.41322713191E+02 -0.49215462007E+02  0.25414135769E+03  0.26214034031E+03  0.00000000000E+00 0. -1.
         21    1    1    2  505  501  0.36836321096E+02 -0.41485014060E+02  0.11333327854E+03  0.12618380629E+03  0.00000000000E+00 0.  1.
         -2    1    1    2    0  503 -0.11112147870E+03  0.10421565459E+03 -0.25643188446E+03  0.29827201856E+03  0.00000000000E+00 0. -1.
<scales pt_clust_3="35.62559" pt_clust_4="35.04524" pt_clust_5="35.04524" pt_clust_6="150.59995"></scales>
<clustering>
<clus scale="   35.045">  4  5 -1 -1</clus>
<clus scale="   35.626">  1  3  2 -1</clus>
<clus scale="  150.600">  2  6  1 -1</clus>
<clus scale="   35.626">  1  3  2 -1</clus>
</clustering>
</event>
<event>
 6    0  0.1993420E+002  0.1390621E+03  0.7546771E-02  0.1214597E+00
         21   -1    0    0  504  502  0.00000000000E+00  0.00000000000E+00  0.22089614633E+03  0.22089614633E+03  0.00000000000E+00 0. -1.
          1   -1    0    0  503    0 -0.00000000000E+00 -0.00000000000E+00 -0.10289051679E+04  0.10289051679E+04  0.00000000000E+00 0.  1.
         21    1    1    2  503  505 -0.10401128015E+03 -0.41893934198E+01  0.11679637005E+02  0.10474880112E+03  0.00000000000E+00 0.  1.
         21    1    1    2  504  501  0.18091876074E+03 -0.58378407055E+02  0.93375727340E+02  0.21179863752E+03  0.00000000000E+00 0. -1.
         21    1    1    2  505  502 -0.22344062289E+02  0.26552153961E+02 -0.24960767002E+02  0.42747092169E+02  0.00000000000E+00 0.  1.
          1    1    1    2  501    0 -0.54563418302E+02  0.36015646513E+02 -0.88810361888E+03  0.89050678340E+03  0.00000000000E+00 0.  1.
<scales pt_clust_3="139.06206" pt_clust_4="14000.00000" pt_clust_5="34.70265" pt_clust_6="65.56670"></scales>
<clustering>
<clus scale="   34.703">  1  5  2 -1</clus>
<clus scale="   65.567">  2  6  1 -1</clus>
<clus scale="  139.062">  2  3  1 -1</clus>
<clus scale="   34.703">  1  3  2 -1</clus>
</clustering>
</event>
<event>
 6    0  0.1993420E+002  0.1382599E+03  0.7546771E-02  0.1215690E+00
          2   -1    0    0  503    0 -0.00000000000E+00  0.00000000000E+00  0.60087277535E+03  0.60087277535E+03  0.00000000000E+00 0. -1.
         21   -1    0    0  504  502  0.00000000000E+00 -0.00000000000E+00 -0.77291539316E+02  0.77291539316E+02  0.00000000000E+00 0. -1.
         21    1    1    2  503  505  0.26528375200E+02  0.20942618080E+02  0.59627839896E+02  0.68540697644E+02  0.00000000000E+00 0.  1.
         21    1    1    2  504  501  0.15037088202E+02  0.15018705030E+03  0.11525851303E+03  0.18991258232E+03  0.00000000000E+00 0. -1.
         21    1    1    2  505  502 -0.41166482701E+02 -0.12266351768E+03  0.92698071540E+02  0.15916642339E+03  0.00000000000E+00 0. -1.
          2    1    1    2  501    0 -0.39898070080E+00 -0.48466150699E+02  0.25599681157E+03  0.26054461131E+03  0.00000000000E+00 0. -1.
<scales pt_clust_3="33.79864" pt_clust_4="138.25991" pt_clust_5="14000.00000" pt_clust_6="40.33197"></scales>
<clustering>
<clus scale="   33.799">  1  3  2 -1</clus>
<clus scale="   40.332">  1  6  2 -1</clus>
<clus scale="  138.260">  1  4  2 -1</clus>
<clus scale="  138.260">  2  3  1 -1</clus>
</clustering>
</event>
<event>
 6    0  0.1993420E+002  0.2030793E+03  0.7546771E-02  0.1147167E+00
         21   -1    0    0  505  502  0.00000000000E+00  0.00000000000E+00  0.53229825731E+02  0.53229825731E+02  0.00000000000E+00 0.  1.
          1   -1    0    0  503    0 -0.00000000000E+00 -0.00000000000E+00 -0.17204825154E+04  0.17204825154E+04  0.00000000000E+00 0.  1.
         21    1    1    2  503  504  0.40722899899E+02  0.15484250171E+02 -0.11809042005E+03  0.12587082222E+03  0.00000000000E+00 0.  1.
         21    1    1    2  504  502  0.77644221915E+02  0.81814398946E+02 -0.12853716888E+03  0.17100884438E+03  0.00000000000E+00 0.  1.
         21    1    1    2  505  501 -0.48687673734E+02  0.10552857828E+03 -0.15809028658E+03  0.19621240817E+03  0.00000000000E+00 0. -1.
          1    1    1    2  501    0 -0.69679448080E+02 -0.20282722740E+03 -0.12625348142E+04  0.12806202664E+04  0.00000000000E+00 0.  1.
<scales pt_clust_3="38.48559" pt_clust_4="38.48559" pt_clust_5="116.21863" pt_clust_6="193.40797"></scales>
<clustering>
<clus scale="   38.486">  3  4 -1 -1</clus>
<clus scale="  116.219">  1  5  2 -1</clus>
<clus scale="  193.408">  2  6  1 -1</clus>
<clus scale="  116.219">  1  3  2 -1</clus>
</clustering>
</event>
<event>
 6    0  0.1993420E+002  0.1754552E+03  0.7546771E-02  0.1172275E+00
          2   -1    0    0  504    0 -0.00000000000E+00  0.00000000000E+00  0.60073117469E+03  0.60073117469E+03  0.00000000000E+00 0.  1.
         21   -1    0    0  503  502  0.00000000000E+00 -0.00000000000E+00 -0.76359651937E+03  0.76359651937E+03  0.00000000000E+00 0. -1.
         21    1    1    2  503  505 -0.39474765067E+02 -0.82878251999E+02 -0.48131205148E+03  0.48998811478E+03  0.00000000000E+00 0. -1.
         21    1    1    2  504  502 -0.32117839786E+02  0.82667888211E+01 -0.10872587071E+03  0.11367150210E+03  0.00000000000E+00 0. -1.
         21    1    1    2  505  501 -0.35690543562E+02 -0.51076557475E+02 -0.14887389294E+03  0.16138793518E+03  0.00000000000E+00 0.  1.
          2    1    1    2  501    0  0.10728314842E+03  0.12568802065E+03  0.57604647045E+03  0.59928014199E+03  0.00000000000E+00 0.  1.
<scales pt_clust_3="48.42060" pt_clust_4="33.16467" pt_clust_5="48.42060" pt_clust_6="164.99028"></scales>
<clustering>
<clus scale="   33.165">  2  4  1 -1</clus>
<clus scale="   48.421">  3  5 -1 -1</clus>
<clus scale="  164.990">  1  6  2 -1</clus>
<clus scale="   33.165">  2  3  1 -1</clus>
</clustering>
</event>
<event>
 6    0  0.1993420E+002  0.1053158E+03  0.7546771E-02  0.1269499E+00
         21   -1    0    0  505  502  0.00000000000E+00  0.00000000000E+00  0.25228990229E+03  0.25228990229E+03  0.00000000000E+00 0. -1.
          2   -1    0    0  504    0 -0.00000000000E+00 -0.00000000000E+00 -0.18616541703E+04  0.18616541703E+04  0.00000000000E+00 0.  1.
         21    1    1    2  503  502  0.37946256188E+02 -0.82665085678E+02  0.62578725717E+02  0.11040621206E+03  0.00000000000E+00 0. -1.
         21    1    1    2  504  503 -0.14556933899E+02 -0.42956446472E+02 -0.70737454205E+02  0.84029447490E+02  0.00000000000E+00 0. -1.
         21    1    1    2  505  501 -0.47026716928E+02  0.18514606711E+03  0.10101096401E+03  0.21608746637E+03  0.00000000000E+00 0. -1.
          2    1    1    2  501    0  0.23637394640E+02 -0.59524534958E+02 -0.17022165035E+04  0.17034209467E+04  0.00000000000E+00 0.  1.
<scales pt_clust_3="91.40122" pt_clust_4="45.35593" pt_clust_5="14000.00000" pt_clust_6="105.31584"></scales>
<clustering>
<clus scale="   45.356">  2  4  1 -1</clus>
<clus scale="   91.401">  1  3  2 -1</clus>
<clus scale="  105.316">  2  6  1 -1</clus>
<clus scale="   91.401">  1  3  2 -1</clus>
</clustering>
</event>
<event>
 6    0  0.1993420E+002  0.1541389E+03  0.7546771E-02  0.1195477E+00
         21   -1    0    0  505  502  0.00000000000E+00  0.00000000000E+00  0.37190913471E+03  0.37190913471E+03  0.00000000000E+00 0.  1.
          2   -1    0    0  503    0 -0.00000000000E+00 -0.00000000000E+00 -0.53714215348E+03  0.53714215348E+03  0.00000000000E+00 0. -1.
         21    1    1    2  503  502 -0.61850934987E+02  0.62645108144E+02  0.20769946998E+03  0.22558594275E+03  0.00000000000E+00 0.  1.
         21    1    1    2  504  501 -0.49823979696E+02 -0.14721539491E+02  0.41158866359E+02  0.66281256459E+02  0.00000000000E+00 0. -1.
         21    1    1    2  505  504 -0.38804297506E+02 -0.88060023901E+01  0.85313097747E+02  0.94136304528E+02  0.00000000000E+00 0.  1.
          2    1    1    2  501    0  0.15047921219E+03 -0.39117566263E+02 -0.49940445286E+03  0.52304778446E+03  0.00000000000E+00 0. -1.
<scales pt_clust_3="88.03379" pt_clust_4="31.91763" pt_clust_5="31.91763" pt_clust_6="149.76206"></scales>
<clustering>
<clus scale="   31.918">  4  5 -1 -1</clus>
<clus scale="   88.034">  1  3  2 -1</clus>
<clus scale="  149.762">  2  6  1 -1</clus>
<clus scale="   88.034">  1  3  2 -1</clus>
</clustering>
</event>
<event>
 6    0  0.1993420E+002  0.1249245E+03  0.7546771E-02  0.1235187E+00
          1   -1    0    0  505    0 -0.00000000000E+00  0.00000000000E+00  0.11386873495E+04  0.11386873495E+04  0.00000000000E+00 0.  1.
         21   -1    0    0  501  502  0.00000000000E+00 -0.00000000000E+00 -0.25892156484E+03  0.25892156484E+03  0.00000000000E+00 0. -1.
         21    1    1    2  503  502  0.18683773994E+02  0.33149308319E+02 -0.56957181665E+02  0.68498763463E+02  0.00000000000E+00 0. -1.
         21    1    1    2  504  503  0.99643420282E+02 -0.70469055231E+02 -0.16249710171E+03  0.20322403159E+03  0.00000000000E+00 0. -1.
         21    1    1    2  505  504 -0.13060827325E+03  0.67972822462E+02  0.40589158358E+03  0.43177170270E+03  0.00000000000E+00 0. -1.
          1    1    1    2  501    0  0.12281078973E+02 -0.30653075550E+02  0.69332848442E+03  0.69411441654E+03  0.00000000000E+00 0.  1.
<scales pt_clust_3="37.78543" pt_clust_4="124.92451" pt_clust_5="14000.00000" pt_clust_6="33.02175"></scales>
<clustering>
<clus scale="   33.022">  1  6  2 -1</clus>
<clus scale="   37.785">  2  3  1 -1</clus>
<clus scale="  124.925">  2  4  1 -1</clus>
<clus scale="   37.785">  2  3  1 -1</clus>
</clustering>
</event>
<event>
 6    0  0.1993420E+002  0.1322976E+03  0.7546771E-02  0.1224086E+00
          1   -1    0    0  504    0 -0.00000000000E+00  0.00000000000E+00  0.15140393494E+04  0.15140393494E+04  0.00000000000E+00 0.  1.
         21   -1    0    0  505  502  0.00000000000E+00 -0.00000000000E+00 -0.23767433290E+02  0.23767433290E+02  0.00000000000E+00 0.  1.
         21    1    1    2  503  501  0.19770460053E+02 -0.40213450941E+02  0.17475226613E+03  0.18040606210E+03  0.00000000000E+00 0. -1.
         21    1    1    2  504  502 -0.50807401018E+02  0.68056614382E+02  0.17482512263E+03  0.19436285206E+03  0.00000000000E+00 0. -1.
         21    1    1    2  505  503 -0.28309060804E+02 -0.11666528767E+03  0.60102297921E+03  0.61289543465E+03  0.00000000000E+00 0.  1.
          1    1    1    2  501    0  0.59346001769E+02  0.88822124228E+02  0.53967154809E+03  0.55014243383E+03  0.00000000000E+00 0.  1.
<scales pt_clust_3="32.42192" pt_clust_4="84.92994" pt_clust_5="32.42192" pt_clust_6="121.18773"></scales>
<clustering>
<clus scale="   32.422">  3  5 -1 -1</clus>
<clus scale="   84.930">  2  4  1 -1</clus>
<clus scale="  121.188">  1  6  2 -1</clus>
<clus scale="   84.930">  2  3  1 -1</clus>
</clustering>
</event>
<event>
 6    0  0.1993420E+002  0.8197469E+02  0.7546771E-02  0.1323539E+00
         21   -1    0    0  503  502  0.00000000000E+00  0.00000000000E+00  0.20658768601E+03  0.20658768601E+03  0.00000000000E+00 0. -1.
          4   -1    0    0  504    0 -0.00000000000E+00 -0.00000000000E+00 -0.69813125271E+03  0.69813125271E+03  0.00000000000E+00 0.  1.
         21    1    1    2  503  505 -0.11016842122E+03  0.14976463438E+02  0.11326855449E+03  0.15871717276E+03  0.00000000000E+00 0. -1.
         21    1    1    2  504  502  0.24656934075E+02  0.22570513610E+02  0.44511677685E+02  0.55665805778E+02  0.00000000000E+00 0.  1.
         21    1    1    2  505  501  0.30945053538E+02 -0.52792516941E+02 -0.29508659041E+02  0.67936787839E+02  0.00000000000E+00 0. -1.
          4    1    1    2  501    0  0.54566433612E+02  0.15245539894E+02 -0.61981513984E+03  0.62239917234E+03  0.00000000000E+00 0.  1.
<scales pt_clust_3="81.97469" pt_clust_4="33.42742" pt_clust_5="14000.00000" pt_clust_6="56.90251"></scales>
<clustering>
<clus scale="   33.427">  1  4  2 -1</clus>
<clus scale="   56.903">  2  6  1 -1</clus>
<clus scale="   81.975">  1  3  2 -1</clus>
<clus scale="   33.427">  1  3  2 -1</clus>
</clustering>
</event>
<event>
 6    0  0.1993420E+002  0.1015204E+03  0.7546771E-02  0.1277131E+00
          4   -1    0    0  504    0 -0.00000000000E+00  0.00000000000E+00  0.12538665886E+04  0.12538665886E+04  0.00000000000E+00 0.  1.
         21   -1    0    0  505  502  0.00000000000E+00 -0.00000000000E+00 -0.38214907640E+03  0.38214907640E+03  0.00000000000E+00 0.  1.
         21    1    1    2  503  501  0.67556875952E+02 -0.10060562994E+03 -0.20267093458E+03  0.23613752770E+03  0.00000000000E+00 0.  1.
         21    1    1    2  504  502  0.39896678285E+02  0.38635587666E+02 -0.36321825340E+01  0.55656502966E+02  0.00000000000E+00 0.  1.
         21    1    1    2  505  503 -0.83730724650E+02  0.36316780721E+02 -0.11716952926E+03  0.14852084500E+03  0.00000000000E+00 0.  1.
          4    1    1    2  501    0 -0.23722829587E+02  0.25653261550E+02  0.11951901585E+04  0.11957007893E+04  0.00000000000E+00 0.  1.
<scales pt_clust_3="14000.00000" pt_clust_4="58.01953" pt_clust_5="101.52037" pt_clust_6="34.94084"></scales>
<clustering>
<clus scale="   34.941">  1  6  2 -1</clus>
<clus scale="   58.020">  1  4  2 -1</clus>
<clus scale="  101.520">  2  5  1 -1</clus>
<clus scale="  101.520">  2  3  1 -1</clus>
</clustering>
</event>
<event>
 6    0  0.1993420E+002  0.1262852E+03  0.7546771E-02  0.1233074E+00
          2   -1    0    0  504    0 -0.00000000000E+00  0.00000000000E+00  0.16296020452E+04  0.16296020452E+04  0.00000000000E+00 0.  1.
         21   -1    0    0  503  502  0.00000000000E+00 -0.00000000000E+00 -0.47517611481E+03  0.47517611481E+03  0.00000000000E+00 0. -1.
         21    1    1    2  503  505  0.57960967087E+02  0.27169956942E+02 -0.35126814258E+03  0.35705320088E+03  0.00000000000E+00 0. -1.
         21    1    1    2  504  502 -0.11329514654E+03 -0.12920941294E+03  0.10933978211E+02  0.17219295717E+03  0.00000000000E+00 0.  1.
         21    1    1    2  505  501  0.76136275281E+02  0.62541634297E+02  0.20555239256E+02  0.10065140980E+03  0.00000000000E+00 0.  1.
          2    1    1    2  501    0 -0.20802095830E+02  0.39497821699E+02  0.14742048555E+04  0.14748805921E+04  0.00000000000E+00 0.  1.
<scales pt_clust_3="63.97991" pt_clust_4="126.28524" pt_clust_5="14000.00000" pt_clust_6="44.64085"></scales>
<clustering>
<clus scale="   44.641">  1  6  2 -1</clus>
<clus scale="   63.980">  2  3  1 -1</clus>
<clus scale="  126.285">  2  4  1 -1</clus>
<clus scale="   63.980">  2  3  1 -1</clus>
</clustering>
</event>
<event>
 6    0  0.1993420E+002  0.2087295E+03  0.7546771E-02  0.1142576E+00
         21   -1    0    0  501  502  0.00000000000E+00  0.00000000000E+00  0.58563933146E+02  0.58563933146E+02  0.00000000000E+00 0. -1.
          2   -1    0    0  505    0 -0.00000000000E+00 -0.00000000000E+00 -0.12341698690E+04  0.12341698690E+04  0.00000000000E+00 0.  1.
         21    1    1    2  503  502  0.93047425461E+01 -0.40052358201E+02 -0.24533324505E+02  0.47881662906E+02  0.00000000000E+00 0.  1.
         21    1    1    2  504  503 -0.30901683860E+02 -0.26338173513E+02 -0.54879694170E+02  0.68267080512E+02  0.00000000000E+00 0.  1.
         21    1    1    2  505  504 -0.16993328927E+03  0.10540977258E+02 -0.22121192810E+03  0.27914718723E+03  0.00000000000E+00 0. -1.
          2    1    1    2  501    0  0.19153023058E+03  0.55849554457E+02 -0.87498098911E+03  0.89743787154E+03  0.00000000000E+00 0.  1.
<scales pt_clust_3="41.11897" pt_clust_4="30.44154" pt_clust_5="30.44154" pt_clust_6="199.20380"></scales>
<clustering>
<clus scale="   30.442">  4  5 -1 -1</clus>
<clus scale="   41.119">  1  3  2 -1</clus>
<clus scale="  199.204">  2  6  1 -1</clus>
<clus scale="   41.119">  1  3  2 -1</clus>
</clustering>
</event>
<event>
 6    0  0.1993420E+002  0.8506940E+02  0.7546771E-02  0.1315251E+00
          2   -1    0    0  503    0 -0.00000000000E+00  0.00000000000E+00  0.41643456624E+03  0.41643456624E+03  0.00000000000E+00 0.  1.
         21   -1    0    0  505  502  0.00000000000E+00 -0.00000000000E+00 -0.90710832386E+02  0.90710832386E+02  0.00000000000E+00 0. -1.
         21    1    1    2  503  504  0.32675147350E+02 -0.36293691430E+01  0.39945391593E+02  0.51734629449E+02  0.00000000000E+00 0. -1.
         21    1    1    2  504  502 -0.12287663934E+03 -0.29922456744E+02 -0.62133914947E+01  0.12662001480E+03  0.00000000000E+00 0. -1.
         21    1    1    2  505  501  0.33881428391E+02  0.52025479622E+02  0.50203892382E+02  0.79843800824E+02  0.00000000000E+00 0.  1.
          2    1    1    2  501    0  0.56320063603E+02 -0.18473653735E+02  0.24178784137E+03  0.24894695355E+03  0.00000000000E+00 0.  1.
<scales pt_clust_3="32.87609" pt_clust_4="85.06940" pt_clust_5="64.88535" pt_clust_6="14000.00000"></scales>
<clustering>
<clus scale="   32.876">  1  3  2 -1</clus>
<clus scale="   64.885">  2  5  1 -1</clus>
<clus scale="   85.069">  2  4  1 -1</clus>
<clus scale="   64.885">  2  3  1 -1</clus>
</clustering>
</event>
<event>
 6    0  0.1993420E+002  0.2853982E+03  0.7546771E-02  0.1092777E+00
          2   -1    0    0  504    0 -0.00000000000E+00  0.00000000000E+00  0.62394279967E+03  0.62394279967E+03  0.00000000000E+00 0.  1.
         21   -1    0    0  505  502  0.00000000000E+00 -0.00000000000E+00 -0.12736584447E+03  0.12736584447E+03  0.00000000000E+00 0.  1.
         21    1    1    2  503  502 -0.26680425488E+02 -0.23698310510E+03  0.19848010928E+03  0.31026954570E+03  0.00000000000E+00 0.  1.
         21    1    1    2  504  503 -0.37223226692E+02 -0.27610170238E+02  0.49542990588E+02  0.67840975983E+02  0.00000000000E+00 0.  1.
         21    1    1    2  505  501  0.36705936037E+02  0.51781349914E+02  0.65002392097E+02  0.90851224084E+02  0.00000000000E+00 0.  1.
          2    1    1    2  501    0  0.27197716143E+02  0.21281192543E+03  0.18355146323E+03  0.28234689838E+03  0.00000000000E+00 0.  1.
<scales pt_clust_3="37.81649" pt_clust_4="37.81649" pt_clust_5="31.73670" pt_clust_6="278.38430"></scales>
<clustering>
<clus scale="   31.737">  5  6 -1 -1</clus>
<clus scale="   37.816">  3  4 -1 -1</clus>
<clus scale="  278.384">  1  5  2 -1</clus>
<clus scale="  285.398">  2  3  1 -1</clus>
</clustering>
</event>
<event>
 6    0  0.1993420E+002  0.1554556E+03  0.7546771E-02  0.1193925E+00
         21   -1    0    0  501  502  0.00000000000E+00  0.00000000000E+00  0.37626424913E+03  0.37626424913E+03  0.00000000000E+00 0. -1.
          2   -1    0    0  503    0 -0.00000000000E+00 -0.00000000000E+00 -0.33634017233E+03  0.33634017233E+03  0.00000000000E+00 0. -1.
         21    1    1    2  503  505 -0.12429155670E+03 -0.56539734111E+02  0.11216944309E+03  0.17671195931E+03  0.00000000000E+00 0.  1.
         21    1    1    2  504  502  0.43844460109E+02  0.20630350801E+02  0.30029248233E+02  0.57006173401E+02  0.00000000000E+00 0.  1.
         21    1    1    2  505  504  0.10851875023E+03  0.16650992016E+02  0.17115745939E+03  0.20334318428E+03  0.00000000000E+00 0. -1.
          2    1    1    2  501    0 -0.28071653644E+02  0.19258391294E+02 -0.27343207392E+03  0.27554310447E+03  0.00000000000E+00 0. -1.
<scales pt_clust_3="146.51005" pt_clust_4="34.33053" pt_clust_5="34.33053" pt_clust_6="34.04267"></scales>
<clustering>
<clus scale="   34.043">  2  6  1 -1</clus>
<clus scale="   34.331">  4  5 -1 -1</clus>
<clus scale="  146.510">  2  3  1 -1</clus>
<clus scale="  155.456">  1  3  2 -1</clus>
</clustering>
</event>
<event>
 6    0  0.1993420E+002  0.1258901E+03  0.7546771E-02  0.1233685E+00
         21   -1    0    0  503  502  0.00000000000E+00  0.00000000000E+00  0.43194547799E+02  0.43194547799E+02  0.00000000000E+00 0.  1.
          2   -1    0    0  504    0 -0.00000000000E+00 -0.00000000000E+00 -0.24128372210E+04  0.24128372210E+04  0.00000000000E+00 0.  1.
         21    1    1    2  503  505  0.80609546573E+02  0.21130322705E+02 -0.18045985858E+03  0.19877160284E+03  0.00000000000E+00 0.  1.
         21    1    1    2  504  502 -0.10858840810E+03 -0.23199230898E+02 -0.90049484443E+02  0.14296347903E+03  0.00000000000E+00 0.  1.
         21    1    1    2  505  501  0.66791096020E+02  0.45236735238E+02 -0.22093335596E+03  0.23519983099E+03  0.00000000000E+00 0.  1.
          2    1    1    2  501    0 -0.38812234491E+02 -0.43167827045E+02 -0.18781999742E+04  0.18790968559E+04  0.00000000000E+00 0.  1.
<scales pt_clust_3="32.38093" pt_clust_4="121.51201" pt_clust_5="32.38093" pt_clust_6="58.05042"></scales>
<clustering>
<clus scale="   32.381">  3  5 -1 -1</clus>
<clus scale="   58.050">  2  6  1 -1</clus>
<clus scale="  121.512">  1  4  2 -1</clus>
<clus scale="  121.512">  1  3  2 -1</clus>
</clustering>
</event>
<event>
 6    0  0.1993420E+002  0.1079435E+03  0.7546771E-02  0.1264426E+00
         21   -1    0    0  504  502  0.00000000000E+00  0.00000000000E+00  0.14965136850E+03  0.14965136850E+03  0.00000000000E+00 0. -1.
          2   -1    0    0  505    0 -0.00000000000E+00 -0.00000000000E+00 -0.12320109475E+04  0.12320109475E+04  0.00000000000E+00 0. -1.
         21    1    1    2  503  501  0.10102449304E+02  0.67560806108E+02  0.80166495916E+01  0.68780728948E+02  0.00000000000E+00 0. -1.
         21    1    1    2  504  503  0.22267575402E+02  0.45502260625E+02  0.45295549701E+02  0.67955775758E+02  0.00000000000E+00 0. -1.
         21    1    1    2  505  502 -0.73260104810E+02 -0.53641345683E+02  0.14970607510E+02  0.92024757608E+02  0.00000000000E+00 0. -1.
          2    1    1    2  501    0  0.40890080104E+02 -0.59421721050E+02 -0.11506423858E+04  0.11529010537E+04  0.00000000000E+00 0. -1.
<scales pt_clust_3="38.73838" pt_clust_4="38.73838" pt_clust_5="98.12334" pt_clust_6="72.13140"></scales>
<clustering>
<clus scale="   38.738">  3  4 -1 -1</clus>
<clus scale="   72.131">  2  6  1 -1</clus>
<clus scale="   98.123">  2  5  1 -1</clus>
<clus scale="  107.943">  1  3  2 -1</clus>
</clustering>
</event>
<event>
 6    0  0.1993420E+002  0.2408872E+03  0.7546771E-02  0.1119203E+00
          2   -1    0    0  505    0 -0.00000000000E+00  0.00000000000E+00  0.34630738438E+03  0.34630738438E+03  0.00000000000E+00 0.  1.
         21   -1    0    0  504  502  0.00000000000E+00 -0.00000000000E+00 -0.95023139721E+03  0.95023139721E+03  0.00000000000E+00 0.  1.
         21    1    1    2  503  501  0.53154624471E+02 -0.13173321647E+03 -0.22505311106E+03  0.26613522357E+03  0.00000000000E+00 0.  1.
         21    1    1    2  504  503 -0.30036289525E+02 -0.75804991744E+02 -0.22026892949E+03  0.23487651386E+03  0.00000000000E+00 0.  1.
         21    1    1    2  505  502 -0.98090724676E+02  0.21950894467E+03 -0.44144448195E+03  0.50267205781E+03  0.00000000000E+00 0.  1.
          2    1    1    2  501    0  0.74972389730E+02 -0.11970736457E+02  0.28284250967E+03  0.29285498635E+03  0.00000000000E+00 0.  1.
<scales pt_clust_3="72.25132" pt_clust_4="72.25132" pt_clust_5="221.20619" pt_clust_6="75.92205"></scales>
<clustering>
<clus scale="   72.251">  3  4 -1 -1</clus>
<clus scale="   75.922">  1  6  2 -1</clus>
<clus scale="  221.206">  1  5  2 -1</clus>
<clus scale="  240.887">  2  3  1 -1</clus>
</clustering>
</event>
<event>
 6    0  0.1993420E+002  0.9246621E+02  0.7546771E-02  0.1296987E+00
         21   -1    0    0  505  502  0.00000000000E+00  0.00000000000E+00  0.65140045414E+02  0.65140045414E+02  0.00000000000E+00 0. -1.
          2   -1    0    0  504    0 -0.00000000000E+00 -0.00000000000E+00 -0.99707207667E+03  0.99707207667E+03  0.00000000000E+00 0. -1.
         21    1    1    2  503  502 -0.37752053583E+02 -0.15739429039E+02 -0.42252226096E+01  0.41119334653E+02  0.00000000000E+00 0. -1.
         21    1    1    2  504  503  0.43145113616E+02  0.12767814455E+03 -0.84747195736E+02  0.15920206221E+03  0.00000000000E+00 0. -1.
         21    1    1    2  505  501  0.40644653691E+02 -0.35060522018E+02 -0.99543135302E+02  0.11309316453E+03  0.00000000000E+00 0.  1.
          2    1    1    2  501    0 -0.46037713725E+02 -0.76878193496E+02 -0.74341647761E+03  0.74879756069E+03  0.00000000000E+00 0. -1.
<scales pt_clust_3="40.90168" pt_clust_4="14000.00000" pt_clust_5="51.29628" pt_clust_6="92.46621"></scales>
<clustering>
<clus scale="   40.902">  1  3  2 -1</clus>
<clus scale="   51.296">  1  5  2 -1</clus>
<clus scale="   92.466">  2  6  1 -1</clus>
<clus scale="   40.902">  1  3  2 -1</clus>
</clustering>
</event>
<event>
 6    0  0.1993420E+002  0.1917138E+03  0.7546771E-02  0.1156925E+00
         21   -1    0    0  503  502  0.00000000000E+00  0.00000000000E+00  0.17950739716E+04  0.17950739716E+04  0.00000000000E+00 0.  1.
          2   -1    0    0  505    0 -0.00000000000E+00 -0.00000000000E+00 -0.99691660885E+03  0.99691660885E+03  0.00000000000E+00 0. -1.
         21    1    1    2  503  501 -0.49084440640E+02  0.98611678765E+01  0.31734453514E+02  0.59275631457E+02  0.00000000000E+00 0.  1.
         21    1    1    2  504  502 -0.50611604245E+02 -0.65372605490E+01  0.11817591613E+04  0.11828605098E+04  0.00000000000E+00 0.  1.
         21    1    1    2  505  504 -0.13843464420E+02 -0.15896452519E+03  0.54629150084E+03  0.56911841093E+03  0.00000000000E+00 0.  1.
          2    1    1    2  501    0  0.11353950930E+03  0.15564061786E+03 -0.96162775288E+03  0.98073602831E+03  0.00000000000E+00 0. -1.
<scales pt_clust_3="50.06521" pt_clust_4="83.78159" pt_clust_5="14000.00000" pt_clust_6="191.71378"></scales>
<clustering>
<clus scale="   50.065">  1  3  2 -1</clus>
<clus scale="   83.782">  1  4  2 -1</clus>
<clus scale="  191.714">  2  6  1 -1</clus>
<clus scale="   50.065">  1  3  2 -1</clus>
</clustering>
</event>
<event>
 6    0  0.1993420E+002  0.8341991E+02  0.7546771E-02  0.1319617E+00
         21   -1    0    0  505  502  0.00000000000E+00  0.00000000000E+00  0.40808580103E+02  0.40808580103E+02  0.00000000000E+00 0.  1.
          2   -1    0    0  504    0 -0.00000000000E+00 -0.00000000000E+00 -0.14487024853E+04  0.14487024853E+04  0.00000000000E+00 0.  1.
         21    1    1    2  503  502 -0.30874886365E+02 -0.10957575764E+02 -0.90733157837E+02  0.96466745595E+02  0.00000000000E+00 0.  1.
         21    1    1    2  504  503  0.11276538142E+03 -0.46984164197E+02 -0.12710837683E+03  0.17629544065E+03  0.00000000000E+00 0.  1.
         21    1    1    2  505  501 -0.24490452104E+02  0.62548071987E+02 -0.76892025975E+02  0.10210008429E+03  0.00000000000E+00 0.  1.
          2    1    1    2  501    0 -0.57400042948E+02 -0.46063320253E+01 -0.11131603445E+04  0.11146487948E+04  0.00000000000E+00 0.  1.
<scales pt_clust_3="32.76167" pt_clust_4="83.41991" pt_clust_5="14000.00000" pt_clust_6="58.20567"></scales>
<clustering>
<clus scale="   32.762">  1  3  2 -1</clus>
<clus scale="   58.206">  2  6  1 -1</clus>
<clus scale="   83.420">  1  4  2 -1</clus>
<clus scale="   32.762">  1  3  2 -1</clus>
</clustering>
</event>
<event>
 6    0  0.1993420E+002  0.1233222E+03  0.7546771E-02  0.1237715E+00
          2   -1    0    0  503    0 -0.00000000000E+00  0.00000000000E+00  0.12080530161E+04  0.12080530161E+04  0.00000000000E+00 0. -1.
         21   -1    0    0  504  502  0.00000000000E+00 -0.00000000000E+00 -0.75498533187E+02  0.75498533187E+02  0.00000000000E+00 0. -1.
         21    1    1    2  503  505  0.45161422150E+02 -0.11214066394E+03  0.14220725004E+03  0.18664936250E+03  0.00000000000E+00 0. -1.
         21    1    1    2  504  501 -0.38781630884E+02  0.12007050062E+03  0.11834979986E+03  0.17299599747E+03  0.00000000000E+00 0. -1.
         21    1    1    2  505  502 -0.71232709814E+02  0.66989705568E+00  0.26691090189E+02  0.76072084269E+02  0.00000000000E+00 0. -1.
          2    1    1    2  501    0  0.64852918548E+02 -0.85997337407E+01  0.84530634281E+03  0.84783410504E+03  0.00000000000E+00 0. -1.
<scales pt_clust_3="123.32220" pt_clust_4="14000.00000" pt_clust_5="62.01690" pt_clust_6="65.42061"></scales>
<clustering>
<clus scale="   65.421">  1  6  2 -1</clus>
<clus scale="   62.017">  2  5  1 -1</clus>
<clus scale="  123.322">  2  3  1 -1</clus>
<clus scale="   62.017">  2  3  1 -1</clus>
</clustering>
</event>
<event>
 6    0  0.4065321E+002  0.9709639E+02  0.7546771E-02  0.1286523E+00
          2   -1    0    0  504    0 -0.00000000000E+00  0.00000000000E+00  0.51235324171E+03  0.51235324171E+03  0.00000000000E+00 0.  1.
         21   -1    0    0  503  502  0.00000000000E+00 -0.00000000000E+00 -0.77357474714E+03  0.77357474714E+03  0.00000000000E+00 0. -1.
         21    1    1    2  503  501  0.20859559053E+01  0.39475270633E+02 -0.37658166087E+02  0.54596572022E+02  0.00000000000E+00 0. -1.
         21    1    1    2  504  505 -0.84656934879E+02 -0.33057776594E+02 -0.64677922581E+03  0.65313320246E+03  0.00000000000E+00 0. -1.
         21    1    1    2  505  502 -0.12026048811E+02 -0.28535789322E+02 -0.69452348600E+02  0.76043052597E+02  0.00000000000E+00 0. -1.
          2    1    1    2  501    0  0.94597027785E+02  0.22118295283E+02  0.49266823507E+03  0.50215516177E+03  0.00000000000E+00 0.  1.
<scales pt_clust_3="37.61936" pt_clust_4="97.09639" pt_clust_5="30.96639" pt_clust_6="14000.00000"></scales>
<clustering>
<clus scale="   30.966">  2  5  1 -1</clus>
<clus scale="   37.619">  2  3  1 -1</clus>
<clus scale="   97.096">  2  4  1 -1</clus>
<clus scale="   30.966">  2  3  1 -1</clus>
</clustering>
</event>
<event>
 6    0  0.1993420E+002  0.3111793E+03  0.7546771E-02  0.1079782E+00
         -1   -1    0    0    0  501 -0.00000000000E+00  0.00000000000E+00  0.14764200897E+04  0.14764200897E+04  0.00000000000E+00 0. -1.
         21   -1    0    0  503  502  0.00000000000E+00 -0.00000000000E+00 -0.24708056555E+04  0.24708056555E+04  0.00000000000E+00 0.  1.
         21    1    1    2  503  501 -0.52795029421E+02 -0.25746758843E+02 -0.55114589966E+03  0.55426709575E+03  0.00000000000E+00 0.  1.
         21    1    1    2  504  502 -0.22388628996E+03  0.16950983137E+03 -0.18830264666E+04  0.19038506579E+04  0.00000000000E+00 0.  1.
         21    1    1    2  505  504  0.28020201180E+03 -0.11276036946E+03  0.91847311530E+03  0.96686138193E+03  0.00000000000E+00 0.  1.
         -1    1    1    2    0  505 -0.35206924255E+01 -0.31002703063E+02  0.52131368513E+03  0.52224660954E+03  0.00000000000E+00 0. -1.
<scales pt_clust_3="58.76590" pt_clust_4="311.17928" pt_clust_5="14000.00000" pt_clust_6="31.20197"></scales>
<clustering>
<clus scale="   31.202">  1  6  2 -1</clus>
<clus scale="   58.766">  2  3  1 -1</clus>
<clus scale="  311.179">  2  4  1 -1</clus>
<clus scale="   58.766">  2  3  1 -1</clus>
</clustering>
</event>
<event>
 6    0  0.1993420E+002  0.1552508E+03  0.7546771E-02  0.1194165E+00
         21   -1    0    0  504  502  0.00000000000E+00  0.00000000000E+00  0.26572645415E+03  0.26572645415E+03  0.00000000000E+00 0.  1.
          1   -1    0    0  505    0 -0.00000000000E+00 -0.00000000000E+00 -0.41937018659E+03  0.41937018659E+03  0.00000000000E+00 0.  1.
         21    1    1    2  503  502 -0.69887692188E+02  0.12365478359E+03  0.22332992730E+03  0.26467159170E+03  0.00000000000E+00 0.  1.
         21    1    1    2  504  501  0.65509988265E+01 -0.60153677023E+02 -0.12652776721E+03  0.14025211699E+03  0.00000000000E+00 0.  1.
         21    1    1    2  505  503  0.69463921504E+01 -0.32367956557E+02 -0.15494206946E+02  0.36551435327E+02  0.00000000000E+00 0. -1.
          1    1    1    2  501    0  0.56390301211E+02 -0.31133150006E+02 -0.23495168560E+03  0.24362149672E+03  0.00000000000E+00 0.  1.
<scales pt_clust_3="140.37853" pt_clust_4="63.12189" pt_clust_5="33.10494" pt_clust_6="63.12189"></scales>
<clustering>
<clus scale="   33.105">  2  5  1 -1</clus>
<clus scale="   63.122">  4  6 -1 -1</clus>
<clus scale="  140.379">  1  3  2 -1</clus>
<clus scale="  140.379">  1  3  2 -1</clus>
</clustering>
</event>
<event>
 6    0  0.1993420E+002  0.1124137E+03  0.7546771E-02  0.1256164E+00
         21   -1    0    0  505  502  0.00000000000E+00  0.00000000000E+00  0.24754823093E+03  0.24754823093E+03  0.00000000000E+00 0. -1.
         -3   -1    0    0    0  501 -0.00000000000E+00 -0.00000000000E+00 -0.35714555833E+03  0.35714555833E+03  0.00000000000E+00 0.  1.
         21    1    1    2  503  504  0.81322328875E+02 -0.62320968499E+02  0.37261861302E+02  0.10902142265E+03  0.00000000000E+00 0.  1.
         21    1    1    2  504  502 -0.33371186034E+02 -0.72159867876E+01  0.33715423309E+02  0.47983708606E+02  0.00000000000E+00 0. -1.
         21    1    1    2  505  501 -0.63364649899E+02  0.10442529780E+03  0.10408892853E+03  0.16048123479E+03  0.00000000000E+00 0. -1.
         -3    1    1    2    0  503  0.15413507058E+02 -0.34888342513E+02 -0.28466354053E+03  0.28720742322E+03  0.00000000000E+00 0.  1.
<scales pt_clust_3="112.41365" pt_clust_4="34.14244" pt_clust_5="14000.00000" pt_clust_6="38.09967"></scales>
<clustering>
<clus scale="   34.142">  1  4  2 -1</clus>
<clus scale="   38.100">  2  6  1 -1</clus>
<clus scale="  112.414">  2  3  1 -1</clus>
<clus scale="   34.142">  1  3  2 -1</clus>
</clustering>
</event>
<event>
 6    0  0.1993420E+002  0.1039117E+03  0.7546771E-02  0.1272279E+00
          2   -1    0    0  503    0 -0.00000000000E+00  0.00000000000E+00  0.91813054703E+02  0.91813054703E+02  0.00000000000E+00 0. -1.
         21   -1    0    0  505  502  0.00000000000E+00 -0.00000000000E+00 -0.10089150758E+04  0.10089150758E+04  0.00000000000E+00 0.  1.
         21    1    1    2  503  502 -0.33556197389E+02 -0.16864876310E+02 -0.17066317258E+03  0.17474656195E+03  0.00000000000E+00 0.  1.
         21    1    1    2  504  501 -0.19011287550E+02  0.78776244315E+02 -0.37551896025E+02  0.89315567611E+02  0.00000000000E+00 0. -1.
         21    1    1    2  505  504  0.32946607103E+02 -0.94425073717E+02 -0.76356927863E+03  0.77009065488E+03  0.00000000000E+00 0.  1.
          2    1    1    2  501    0  0.19620877837E+02  0.32513705712E+02  0.54682326162E+02  0.66575346043E+02  0.00000000000E+00 0. -1.
<scales pt_clust_3="37.55586" pt_clust_4="14000.00000" pt_clust_5="103.91173" pt_clust_6="37.74955"></scales>
<clustering>
<clus scale="   37.556">  2  3  1 -1</clus>
<clus scale="   37.750">  1  6  2 -1</clus>
<clus scale="  103.912">  2  5  1 -1</clus>
<clus scale="   37.556">  2  3  1 -1</clus>
</clustering>
</event>
<event>
 6    0  0.1993420E+002  0.1325691E+03  0.7546771E-02  0.1223693E+00
         21   -1    0    0  504  502  0.00000000000E+00  0.00000000000E+00  0.12065375661E+04  0.12065375661E+04  0.00000000000E+00 0. -1.
         -3   -1    0    0    0  501 -0.00000000000E+00 -0.00000000000E+00 -0.11314578606E+03  0.11314578606E+03  0.00000000000E+00 0.  1.
         21    1    1    2  503  501  0.36205054175E+02  0.66393053473E+02  0.19917604394E+03  0.21304914921E+03  0.00000000000E+00 0. -1.
         21    1    1    2  504  503  0.39327741532E+02  0.84241829339E+01  0.21517705904E+03  0.21890364284E+03  0.00000000000E+00 0.  1.
         21    1    1    2  505  502  0.58675978439E+02 -0.43144059979E+02  0.73522803679E+03  0.73882646571E+03  0.00000000000E+00 0. -1.
         -3    1    1    2    0  505 -0.13420877415E+03 -0.31673176428E+02 -0.56189359783E+02  0.14890409436E+03  0.00000000000E+00 0.  1.
<scales pt_clust_3="81.33401" pt_clust_4="40.21987" pt_clust_5="132.56907" pt_clust_6="14000.00000"></scales>
<clustering>
<clus scale="   40.220">  1  4  2 -1</clus>
<clus scale="   81.334">  1  3  2 -1</clus>
<clus scale="  132.569">  1  5  2 -1</clus>
<clus scale="   40.220">  1  3  2 -1</clus>
</clustering>
</event>
<event>
 6    0  0.1993420E+002  0.2238497E+03  0.7546771E-02  0.1131045E+00
          1   -1    0    0  503    0 -0.00000000000E+00  0.00000000000E+00  0.15637311630E+04  0.15637311630E+04  0.00000000000E+00 0.  1.
         21   -1    0    0  504  502  0.00000000000E+00 -0.00000000000E+00 -0.13654517213E+04  0.13654517213E+04  0.00000000000E+00 0. -1.
         21    1    1    2  503  505  0.44584268937E+02  0.21788687877E+00  0.20368800215E+02  0.49017267708E+02  0.00000000000E+00 0. -1.
         21    1    1    2  504  501 -0.63625838738E+02  0.89825730056E+02 -0.96899543288E+03  0.97522769551E+03  0.00000000000E+00 0. -1.
         21    1    1    2  505  502  0.39885616466E+02 -0.30783604736E+03 -0.30586556107E+03  0.43578393259E+03  0.00000000000E+00 0. -1.
          1    1    1    2  501    0 -0.20844046665E+02  0.21779243042E+03  0.14527716355E+04  0.14691539885E+04  0.00000000000E+00 0.  1.
<scales pt_clust_3="44.58480" pt_clust_4="110.02470" pt_clust_5="223.84971" pt_clust_6="14000.00000"></scales>
<clustering>
<clus scale="   44.585">  1  3  2 -1</clus>
<clus scale="  110.025">  2  4  1 -1</clus>
<clus scale="  223.850">  2  5  1 -1</clus>
<clus scale="  110.025">  2  3  1 -1</clus>
</clustering>
</event>
<event>
 6    0  0.1993420E+002  0.1750924E+03  0.7546771E-02  0.1172639E+00
          1   -1    0    0  503    0 -0.00000000000E+00  0.00000000000E+00  0.20572470766E+03  0.20572470766E+03  0.00000000000E+00 0. -1.
         21   -1    0    0  504  502  0.00000000000E+00 -0.00000000000E+00 -0.19413844195E+04  0.19413844195E+04  0.00000000000E+00 0. -1.
         21    1    1    2  503  505 -0.60704388192E+02  0.17757540304E+03 -0.37768727495E+03  0.42174130005E+03  0.00000000000E+00 0.  1.
         21    1    1    2  504  501 -0.48057676841E+02 -0.46330580919E+02 -0.17548689687E+03  0.18775439810E+03  0.00000000000E+00 0.  1.
         21    1    1    2  505  502  0.13659897662E+03 -0.11338658102E+03 -0.13526575361E+04  0.13642573831E+04  0.00000000000E+00 0. -1.
          1    1    1    2  501    0 -0.27836911582E+02 -0.17858241092E+02  0.17017199609E+03  0.17335604597E+03  0.00000000000E+00 0. -1.
<scales pt_clust_3="175.09243" pt_clust_4="72.62133" pt_clust_5="14000.00000" pt_clust_6="33.07280"></scales>
<clustering>
<clus scale="   33.073">  1  6  2 -1</clus>
<clus scale="   72.621">  1  4  2 -1</clus>
<clus scale="  175.092">  1  3  2 -1</clus>
<clus scale="  175.092">  2  3  1 -1</clus>
</clustering>
</event>
<event>
 6    0  0.1993420E+002  0.1039066E+03  0.7546771E-02  0.1272289E+00
         21   -1    0    0  504  502  0.00000000000E+00  0.00000000000E+00  0.11270235392E+04  0.11270235392E+04  0.00000000000E+00 0.  1.
         -4   -1    0    0    0  501 -0.00000000000E+00 -0.00000000000E+00 -0.45587678220E+02  0.45587678220E+02  0.00000000000E+00 0. -1.
         21    1    1    2  503  502 -0.12084713241E+02 -0.81719580078E+02  0.29367626539E+03  0.30507356312E+03  0.00000000000E+00 0. -1.
         21    1    1    2  504  505  0.25820847427E+02  0.80709717122E+02  0.49772241824E+03  0.50488452167E+03  0.00000000000E+00 0.  1.
         21    1    1    2  505  501 -0.15843735277E+02  0.10432474207E+03  0.19758170782E+03  0.22399376559E+03  0.00000000000E+00 0.  1.
         -4    1    1    2    0  503  0.21076010910E+01 -0.10331487911E+03  0.92455469567E+02  0.13865936709E+03  0.00000000000E+00 0. -1.
<scales pt_clust_3="82.60829" pt_clust_4="36.28379" pt_clust_5="14000.00000" pt_clust_6="103.90660"></scales>
<clustering>
<clus scale="   82.608">  1  3  2 -1</clus>
<clus scale="   36.284">  1  4  2 -1</clus>
<clus scale="  103.907">  2  6  1 -1</clus>
<clus scale="   82.608">  1  3  2 -1</clus>
</clustering>
</event>
<event>
 6    0  0.1993420E+002  0.7867193E+02  0.7546771E-02  0.1332863E+00
         21   -1    0    0  504  502  0.00000000000E+00  0.00000000000E+00  0.10615744456E+03  0.10615744456E+03  0.00000000000E+00 0. -1.
          2   -1    0    0  505    0 -0.00000000000E+00 -0.00000000000E+00 -0.10912799732E+04  0.10912799732E+04  0.00000000000E+00 0.  1.
         21    1    1    2  503  501 -0.37991765346E+02  0.13904369951E+02 -0.51237494754E+02  0.65283892396E+02  0.00000000000E+00 0.  1.
         21    1    1    2  504  503  0.53174802628E+01 -0.77588952840E+02  0.48192638137E+02  0.91492357985E+02  0.00000000000E+00 0. -1.
         21    1    1    2  505  502  0.65267491299E+02  0.81241215263E+02 -0.64966744480E+02  0.12280333206E+03  0.00000000000E+00 0. -1.
          2    1    1    2  501    0 -0.32593206216E+02 -0.17556632373E+02 -0.91711092752E+03  0.91785783529E+03  0.00000000000E+00 0.  1.
<scales pt_clust_3="49.57074" pt_clust_4="78.67193" pt_clust_5="14000.00000" pt_clust_6="37.02097"></scales>
<clustering>
<clus scale="   37.021">  2  6  1 -1</clus>
<clus scale="   49.571">  2  3  1 -1</clus>
<clus scale="   78.672">  1  4  2 -1</clus>
<clus scale="   78.672">  1  3  2 -1</clus>
</clustering>
</event>
<event>
 6    0  0.1993420E+002  0.1173646E+03  0.7546771E-02  0.1247509E+00
          2   -1    0    0  503    0 -0.00000000000E+00  0.00000000000E+00  0.38161826298E+03  0.38161826298E+03  0.00000000000E+00 0.  1.
         21   -1    0    0  505  502  0.00000000000E+00 -0.00000000000E+00 -0.12542715496E+03  0.12542715496E+03  0.00000000000E+00 0.  1.
         21    1    1    2  503  502  0.20277846801E+02  0.39332008055E+02  0.17424362412E+02  0.47558451762E+02  0.00000000000E+00 0.  1.
         21    1    1    2  504  501  0.10919507913E+02  0.52515576677E+02 -0.53554495429E+02  0.75797133372E+02  0.00000000000E+00 0.  1.
         21    1    1    2  505  504  0.68582773945E+02 -0.17282431664E+01  0.78592816269E+01  0.69053254913E+02  0.00000000000E+00 0.  1.
          2    1    1    2  501    0 -0.99780128658E+02 -0.90119341566E+02  0.28446195940E+03  0.31463657789E+03  0.00000000000E+00 0.  1.
<scales pt_clust_3="44.25153" pt_clust_4="117.36456" pt_clust_5="74.76998" pt_clust_6="14000.00000"></scales>
<clustering>
<clus scale="   44.252">  2  3  1 -1</clus>
<clus scale="   74.770">  2  5  1 -1</clus>
<clus scale="  117.365">  2  4  1 -1</clus>
<clus scale="   44.252">  2  3  1 -1</clus>
</clustering>
</event>
<event>
 6    0  0.1993420E+002  0.2245368E+03  0.7546771E-02  0.1130545E+00
          1   -1    0    0  505    0 -0.00000000000E+00  0.00000000000E+00  0.12901713637E+04  0.12901713637E+04  0.00000000000E+00 0.  1.
         21   -1    0    0  504  502  0.00000000000E+00 -0.00000000000E+00 -0.21172473836E+03  0.21172473836E+03  0.00000000000E+00 0.  1.
         21    1    1    2  503  502 -0.57821005502E+02 -0.28907361039E+02  0.21996467631E+02  0.68284323147E+02  0.00000000000E+00 0.  1.
         21    1    1    2  504  501  0.23402207966E+03 -0.26755796416E+01  0.31871673078E+02  0.23619757840E+03  0.00000000000E+00 0. -1.
         21    1    1    2  505  503 -0.81352212951E+02 -0.17193726902E+03  0.49127360854E+02  0.19645382311E+03  0.00000000000E+00 0.  1.
          1    1    1    2  501    0 -0.94848861210E+02  0.20352020971E+03  0.97545112382E+03  0.10009603774E+04  0.00000000000E+00 0.  1.
<scales pt_clust_3="42.52065" pt_clust_4="210.99361" pt_clust_5="42.52065" pt_clust_6="224.53682"></scales>
<clustering>
<clus scale="   42.521">  3  5 -1 -1</clus>
<clus scale="  224.537">  1  6  2 -1</clus>
<clus scale="  210.994">  2  4  1 -1</clus>
<clus scale="  210.994">  2  3  1 -1</clus>
</clustering>
</event>
<event>
 6    0  0.1993420E+002  0.7488863E+02  0.7546771E-02  0.1344216E+00
         21   -1    0    0  503  502  0.00000000000E+00  0.00000000000E+00  0.31726333899E+02  0.31726333899E+02  0.00000000000E+00 0.  1.
          2   -1    0    0  505    0 -0.00000000000E+00 -0.00000000000E+00 -0.26378398230E+04  0.26378398230E+04  0.00000000000E+00 0. -1.
         21    1    1    2  503  501  0.31305430932E+02  0.62032215631E+02 -0.11885333476E+03  0.13767403882E+03  0.00000000000E+00 0.  1.
         21    1    1    2  504  502 -0.10377675589E+03 -0.33805741250E+02 -0.12825703147E+03  0.16841113183E+03  0.00000000000E+00 0.  1.
         21    1    1    2  505  504  0.41095390583E+02  0.58532299426E+01 -0.21461192366E+03  0.21858949930E+03  0.00000000000E+00 0.  1.
          2    1    1    2  501    0  0.31375934371E+02 -0.34079704323E+02 -0.21443911992E+04  0.21448914870E+04  0.00000000000E+00 0. -1.
<scales pt_clust_3="70.76464" pt_clust_4="74.88863" pt_clust_5="41.51014" pt_clust_6="14000.00000"></scales>
<clustering>
<clus scale="   41.510">  2  5  1 -1</clus>
<clus scale="   70.765">  1  3  2 -1</clus>
<clus scale="   74.889">  1  4  2 -1</clus>
<clus scale="   70.765">  1  3  2 -1</clus>
</clustering>
</event>
<event>
 6    0  0.1993420E+002  0.1113055E+03  0.7546771E-02  0.1258171E+00
         21   -1    0    0  503  502  0.00000000000E+00  0.00000000000E+00  0.11835876918E+03  0.11835876918E+03  0.00000000000E+00 0.  1.
          1   -1    0    0  505    0 -0.00000000000E+00 -0.00000000000E+00 -0.84076624036E+03  0.84076624036E+03  0.00000000000E+00 0. -1.
         21    1    1    2  503  501 -0.76365665597E+02  0.68788516479E+02  0.39778131146E+02  0.11020832364E+03  0.00000000000E+00 0.  1.
         21    1    1    2  504  502 -0.26100067751E+02 -0.21613397821E+02  0.27195740809E+02  0.43450671113E+02  0.00000000000E+00 0.  1.
         21    1    1    2  505  504  0.15574901575E+02  0.25657296181E+02 -0.57573686835E+02  0.64927681478E+02  0.00000000000E+00 0. -1.
          1    1    1    2  501    0  0.86890831773E+02 -0.72832414839E+02 -0.73180765630E+03  0.74053833332E+03  0.00000000000E+00 0. -1.
<scales pt_clust_3="111.30551" pt_clust_4="33.59182" pt_clust_5="30.01457" pt_clust_6="14000.00000"></scales>
<clustering>
<clus scale="   30.015">  2  5  1 -1</clus>
<clus scale="   33.592">  1  4  2 -1</clus>
<clus scale="  111.306">  1  3  2 -1</clus>
<clus scale="   33.592">  1  3  2 -1</clus>
</clustering>
</event>
<event>
 6    0  0.1993420E+002  0.1539949E+03  0.7546771E-02  0.1195648E+00
          2   -1    0    0  505    0 -0.00000000000E+00  0.00000000000E+00  0.12092212214E+04  0.12092212214E+04  0.00000000000E+00 0.  1.
         21   -1    0    0  504  502  0.00000000000E+00 -0.00000000000E+00 -0.53133204540E+03  0.53133204540E+03  0.00000000000E+00 0.  1.
         21    1    1    2  503  502 -0.17697578644E+02 -0.72113435254E+02 -0.25120106572E+03  0.26194565706E+03  0.00000000000E+00 0.  1.
         21    1    1    2  504  501 -0.81010775612E+01  0.35604489245E+02 -0.12486559982E+02  0.38590430061E+02  0.00000000000E+00 0.  1.
         21    1    1    2  505  503  0.22263120190E+01 -0.10850569934E+03 -0.23260591564E+03  0.25667870042E+03  0.00000000000E+00 0.  1.
          2    1    1    2  501    0  0.23572344186E+02  0.14501464535E+03  0.11741827174E+04  0.11833384793E+04  0.00000000000E+00 0.  1.
<scales pt_clust_3="36.08241" pt_clust_4="36.51448" pt_clust_5="36.08241" pt_clust_6="147.22438"></scales>
<clustering>
<clus scale="   36.514">  2  4  1 -1</clus>
<clus scale="   36.082">  3  5 -1 -1</clus>
<clus scale="  147.224">  1  6  2 -1</clus>
<clus scale="   36.514">  2  3  1 -1</clus>
</clustering>
</event>
<event>
 6    0  0.1993420E+002  0.2696975E+03  0.7546771E-02  0.1101453E+00
         21   -1    0    0  505  502  0.00000000000E+00  0.00000000000E+00  0.15872832282E+04  0.15872832282E+04  0.00000000000E+00 0.  1.
          2   -1    0    0  502    0 -0.00000000000E+00 -0.00000000000E+00 -0.16361792657E+04  0.16361792657E+04  0.00000000000E+00 0. -1.
         21    1    1    2  503  504  0.18731502430E+03 -0.57824504317E+02  0.10361956729E+04  0.10545767227E+04  0.00000000000E+00 0.  1.
         21    1    1    2  504  501 -0.27223194887E+03  0.15870440628E+03 -0.18855590369E+03  0.36722016744E+03  0.00000000000E+00 0. -1.
         21    1    1    2  505  503  0.46222420038E+02 -0.53342597323E+02  0.44911094763E+03  0.45462356745E+03  0.00000000000E+00 0. -1.
          2    1    1    2  501    0  0.38694504534E+02 -0.47537304639E+02 -0.13456467543E+04  0.13470420362E+04  0.00000000000E+00 0. -1.
<scales pt_clust_3="40.92564" pt_clust_4="260.93078" pt_clust_5="40.92564" pt_clust_6="61.29486"></scales>
<clustering>
<clus scale="   40.926">  3  5 -1 -1</clus>
<clus scale="   61.295">  2  6  1 -1</clus>
<clus scale="  260.931">  2  4  1 -1</clus>
<clus scale="  269.698">  1  3  2 -1</clus>
</clustering>
</event>
<event>
 6    0  0.1993420E+002  0.3994711E+03  0.7546771E-02  0.1043963E+00
         21   -1    0    0  504  502  0.00000000000E+00  0.00000000000E+00  0.34502479341E+03  0.34502479341E+03  0.00000000000E+00 0. -1.
          2   -1    0    0  503    0 -0.00000000000E+00 -0.00000000000E+00 -0.15800973094E+04  0.15800973094E+04  0.00000000000E+00 0. -1.
         21    1    1    2  503  505  0.34604932879E+03  0.26079119903E+03 -0.83562062304E+03  0.94128848559E+03  0.00000000000E+00 0. -1.
         21    1    1    2  504  501 -0.38033020844E+01 -0.47531659631E+02  0.36078859811E+02  0.59794714644E+02  0.00000000000E+00 0. -1.
         21    1    1    2  505  502 -0.32192341570E+03 -0.18358472170E+03  0.10273886437E+03  0.38456899234E+03  0.00000000000E+00 0. -1.
          2    1    1    2  501    0 -0.20322611010E+02 -0.29674817699E+02 -0.53826961714E+03  0.53946991025E+03  0.00000000000E+00 0. -1.
<scales pt_clust_3="399.47111" pt_clust_4="48.03934" pt_clust_5="14000.00000" pt_clust_6="35.96670"></scales>
<clustering>
<clus scale="   35.967">  2  6  1 -1</clus>
<clus scale="   48.039">  1  4  2 -1</clus>
<clus scale="  399.471">  2  3  1 -1</clus>
<clus scale="   48.039">  1  3  2 -1</clus>
</clustering>
</event>
<event>
 6    0  0.1993420E+002  0.1530049E+03  0.7546771E-02  0.1196829E+00
          2   -1    0    0  503    0 -0.00000000000E+00  0.00000000000E+00  0.67047281829E+03  0.67047281829E+03  0.00000000000E+00 0.  1.
         21   -1    0    0  504  502  0.00000000000E+00 -0.00000000000E+00 -0.10806064230E+03  0.10806064230E+03  0.00000000000E+00 0.  1.
         21    1    1    2  503  505 -0.39924186040E+02  0.28990444251E+02 -0.13098398448E+02  0.51048550721E+02  0.00000000000E+00 0.  1.
         21    1    1    2  504  501  0.48612472693E+02 -0.57288964720E+01  0.10900295350E+03  0.11948906489E+03  0.00000000000E+00 0.  1.
         21    1    1    2  505  502 -0.10111695111E+03 -0.22829492523E+02 -0.26013973971E+02  0.10687633215E+03  0.00000000000E+00 0.  1.
          2    1    1    2  501    0  0.92428664460E+02 -0.43205525600E+00  0.49252159491E+03  0.50111951282E+03  0.00000000000E+00 0.  1.
<scales pt_clust_3="40.69797" pt_clust_4="42.38734" pt_clust_5="40.69797" pt_clust_6="152.71943"></scales>
<clustering>
<clus scale="   40.698">  3  5 -1 -1</clus>
<clus scale="   42.387">  4  6 -1 -1</clus>
<clus scale="  152.719">  1  4  2 -1</clus>
<clus scale="  153.005">  2  3  1 -1</clus>
</clustering>
</event>
<event>
 6    0  0.1993420E+002  0.1233353E+03  0.7546771E-02  0.1237694E+00
         21   -1    0    0  504  502  0.00000000000E+00  0.00000000000E+00  0.34890900405E+03  0.34890900405E+03  0.00000000000E+00 0. -1.
          2   -1    0    0  505    0 -0.00000000000E+00 -0.00000000000E+00 -0.13311484529E+04  0.13311484529E+04  0.00000000000E+00 0.  1.
         21    1    1    2  503  501 -0.64602656889E+02  0.50897897221E+02  0.62513374392E+02  0.10330547515E+03  0.00000000000E+00 0. -1.
         21    1    1    2  504  503 -0.71546568957E+02 -0.51667059407E+01  0.35119419961E+02  0.79868517190E+02  0.00000000000E+00 0.  1.
         21    1    1    2  505  502  0.76737975686E+02  0.45223762276E+02  0.19657892573E+03  0.21581746831E+03  0.00000000000E+00 0. -1.
          2    1    1    2  501    0  0.59411250160E+02 -0.90954953557E+02 -0.12764511689E+04  0.12810659963E+04  0.00000000000E+00 0.  1.
<scales pt_clust_3="54.39672" pt_clust_4="54.39672" pt_clust_5="89.07247" pt_clust_6="108.71517"></scales>
<clustering>
<clus scale="   54.397">  3  4 -1 -1</clus>
<clus scale="   89.072">  1  5  2 -1</clus>
<clus scale="  108.715">  2  6  1 -1</clus>
<clus scale="   89.072">  1  3  2 -1</clus>
</clustering>
</event>
<event>
 6    0  0.1993420E+002  0.1543692E+03  0.7546771E-02  0.1195205E+00
         21   -1    0    0  501  502  0.00000000000E+00  0.00000000000E+00  0.23612236395E+03  0.23612236395E+03  0.00000000000E+00 0. -1.
          4   -1    0    0  504    0 -0.00000000000E+00 -0.00000000000E+00 -0.44938693698E+03  0.44938693698E+03  0.00000000000E+00 0. -1.
         21    1    1    2  503  505 -0.12032350197E+03  0.59408137680E+01  0.14690700628E+03  0.18998607024E+03  0.00000000000E+00 0. -1.
         21    1    1    2  504  503  0.10660320804E+03  0.49010069022E+02 -0.12986759289E+03  0.17501949181E+03  0.00000000000E+00 0. -1.
         21    1    1    2  505  502 -0.27131491866E+02 -0.27489631732E+02  0.34120615155E+02  0.51536531530E+02  0.00000000000E+00 0.  1.
          4    1    1    2  501    0  0.40851785795E+02 -0.27461251058E+02 -0.26442460157E+03  0.26896720735E+03  0.00000000000E+00 0. -1.
<scales pt_clust_3="32.79622" pt_clust_4="143.09095" pt_clust_5="32.79622" pt_clust_6="49.22386"></scales>
<clustering>
<clus scale="   32.796">  3  5 -1 -1</clus>
<clus scale="   49.224">  2  6  1 -1</clus>
<clus scale="  143.091">  2  4  1 -1</clus>
<clus scale="  154.369">  1  3  2 -1</clus>
</clustering>
</event>
<event>
 6    0  0.1993420E+002  0.3054314E+03  0.7546771E-02  0.1082557E+00
         21   -1    0    0  505  502  0.00000000000E+00  0.00000000000E+00  0.30302686085E+03  0.30302686085E+03  0.00000000000E+00 0. -1.
          1   -1    0    0  502    0 -0.00000000000E+00 -0.00000000000E+00 -0.14923050115E+04  0.14923050115E+04  0.00000000000E+00 0. -1.
         21    1    1    2  503  504  0.23129461322E+03 -0.11116868368E+03 -0.14543681222E+03  0.29497040646E+03  0.00000000000E+00 0. -1.
         21    1    1    2  504  501 -0.37290251794E+03  0.34153847287E+03 -0.40983196260E+03  0.65089711469E+03  0.00000000000E+00 0. -1.
         21    1    1    2  505  503  0.60724331560E+02  0.30858505859E+02  0.67892708778E+02  0.96172302314E+02  0.00000000000E+00 0. -1.
          1    1    1    2  501    0  0.80883573160E+02 -0.26122829505E+03 -0.70190208459E+03  0.75329204887E+03  0.00000000000E+00 0. -1.
<scales pt_clust_3="271.23619" pt_clust_4="14000.00000" pt_clust_5="68.11528" pt_clust_6="305.43136"></scales>
<clustering>
<clus scale="   68.115">  1  5  2 -1</clus>
<clus scale="  271.236">  1  3  2 -1</clus>
<clus scale="  305.431">  2  6  1 -1</clus>
<clus scale="   68.115">  1  3  2 -1</clus>
</clustering>
</event>
<event>
 6    0  0.1993420E+002  0.1191444E+03  0.7546771E-02  0.1244515E+00
          1   -1    0    0  505    0 -0.00000000000E+00  0.00000000000E+00  0.28098250008E+04  0.28098250008E+04  0.00000000000E+00 0. -1.
         21   -1    0    0  503  502  0.00000000000E+00 -0.00000000000E+00 -0.26290562321E+02  0.26290562321E+02  0.00000000000E+00 0.  1.
         21    1    1    2  503  501 -0.11778548720E+02  0.28069375291E+02  0.44241860710E+02  0.53702572362E+02  0.00000000000E+00 0.  1.
         21    1    1    2  504  502 -0.54882896872E+02 -0.20943028618E+02  0.51004138636E+02  0.77795661670E+02  0.00000000000E+00 0.  1.
         21    1    1    2  505  504 -0.48424214152E+02 -0.69377227427E+02  0.27351156939E+03  0.28629824098E+03  0.00000000000E+00 0.  1.
          1    1    1    2  501    0  0.11508565974E+03  0.62250880753E+02  0.24147768697E+04  0.24183190881E+04  0.00000000000E+00 0. -1.
<scales pt_clust_3="30.44050" pt_clust_4="62.29969" pt_clust_5="119.14439" pt_clust_6="14000.00000"></scales>
<clustering>
<clus scale="   30.440">  2  3  1 -1</clus>
<clus scale="   62.300">  2  4  1 -1</clus>
<clus scale="  119.144">  2  5  1 -1</clus>
<clus scale="   30.440">  2  3  1 -1</clus>
</clustering>
</event>
<event>
 6    0  0.1993420E+002  0.1781910E+03  0.7546771E-02  0.1169565E+00
          2   -1    0    0  505    0 -0.00000000000E+00  0.00000000000E+00  0.37942423431E+03  0.37942423431E+03  0.00000000000E+00 0.  1.
         21   -1    0    0  504  502  0.00000000000E+00 -0.00000000000E+00 -0.10458099676E+04  0.10458099676E+04  0.00000000000E+00 0. -1.
         21    1    1    2  503  501  0.11346145704E+03 -0.67532758431E+02 -0.20535908295E+03  0.24414448313E+03  0.00000000000E+00 0.  1.
         21    1    1    2  504  503  0.51414544954E+02  0.20281452059E+02 -0.74148746176E+03  0.74354451694E+03  0.00000000000E+00 0. -1.
         21    1    1    2  505  502 -0.71906981386E+01 -0.45856297132E+02 -0.44651856581E+02  0.64407254424E+02  0.00000000000E+00 0.  1.
          2    1    1    2  501    0 -0.15768530385E+03  0.93107603504E+02  0.32511266801E+03  0.37313794739E+03  0.00000000000E+00 0.  1.
<scales pt_clust_3="178.19100" pt_clust_4="48.12997" pt_clust_5="46.41666" pt_clust_6="14000.00000"></scales>
<clustering>
<clus scale="   46.417">  2  5  1 -1</clus>
<clus scale="   48.130">  2  4  1 -1</clus>
<clus scale="  178.191">  2  3  1 -1</clus>
<clus scale="   46.417">  2  3  1 -1</clus>
</clustering>
</event>
<event>
 6    0  0.1993420E+002  0.1226451E+03  0.7546771E-02  0.1238796E+00
         21   -1    0    0  504  502  0.00000000000E+00  0.00000000000E+00  0.25411303172E+04  0.25411303172E+04  0.00000000000E+00 0.  1.
          4   -1    0    0  503    0 -0.00000000000E+00 -0.00000000000E+00 -0.25527377334E+03  0.25527377334E+03  0.00000000000E+00 0.  1.
         21    1    1    2  503  505  0.75436790753E+02 -0.21056071713E+00  0.86817860060E+03  0.87144984725E+03  0.00000000000E+00 0.  1.
         21    1    1    2  504  501 -0.28757946295E+02  0.34564417990E+02  0.28643721542E+03  0.28994481689E+03  0.00000000000E+00 0.  1.
         21    1    1    2  505  502  0.64906110778E+02 -0.83202299941E+01  0.13692724334E+04  0.13708351565E+04  0.00000000000E+00 0.  1.
          4    1    1    2  501    0 -0.11158495524E+03 -0.26033627279E+02 -0.23803170559E+03  0.26417426985E+03  0.00000000000E+00 0.  1.
<scales pt_clust_3="40.44746" pt_clust_4="44.96352" pt_clust_5="40.44746" pt_clust_6="114.69880"></scales>
<clustering>
<clus scale="   40.447">  3  5 -1 -1</clus>
<clus scale="   44.964">  1  4  2 -1</clus>
<clus scale="  114.699">  2  6  1 -1</clus>
<clus scale="   44.964">  1  3  2 -1</clus>
</clustering>
</event>
<event>
 6    0  0.1993420E+002  0.1928759E+03  0.7546771E-02  0.1155893E+00
          2   -1    0    0  504    0 -0.00000000000E+00  0.00000000000E+00  0.96572183202E+03  0.96572183202E+03  0.00000000000E+00 0.  1.
         21   -1    0    0  503  502  0.00000000000E+00 -0.00000000000E+00 -0.24438227628E+03  0.24438227628E+03  0.00000000000E+00 0.  1.
         21    1    1    2  503  505  0.27565542020E+02  0.39780182346E+02 -0.75659605551E+02  0.89814797926E+02  0.00000000000E+00 0. -1.
         21    1    1    2  504  502 -0.66085769887E+02  0.95024233021E+02 -0.79855880551E+02  0.14061968390E+03  0.00000000000E+00 0.  1.
         21    1    1    2  505  501  0.86674846240E+02  0.91368801705E+02  0.78273710344E+02  0.14828203069E+03  0.00000000000E+00 0.  1.
          2    1    1    2  501    0 -0.48154618372E+02 -0.22617321707E+03  0.79858133150E+03  0.83138759578E+03  0.00000000000E+00 0.  1.
<scales pt_clust_3="48.39754" pt_clust_4="130.98651" pt_clust_5="14000.00000" pt_clust_6="192.87591"></scales>
<clustering>
<clus scale="   48.398">  2  3  1 -1</clus>
<clus scale="  130.987">  2  4  1 -1</clus>
<clus scale="  192.876">  1  6  2 -1</clus>
<clus scale="   48.398">  2  3  1 -1</clus>
</clustering>
</event>
<event>
 6    0  0.1993420E+002  0.9999535E+02  0.7546771E-02  0.1280306E+00
          2   -1    0    0  504    0 -0.00000000000E+00  0.00000000000E+00  0.12978082603E+04  0.12978082603E+04  0.00000000000E+00 0. -1.
         21   -1    0    0  503  502  0.00000000000E+00 -0.00000000000E+00 -0.10463577969E+03  0.10463577969E+03  0.00000000000E+00 0. -1.
         21    1    1    2  503  501 -0.10112891902E+02 -0.99414411900E+02  0.74465557367E+00  0.99930227599E+02  0.00000000000E+00 0. -1.
         21    1    1    2  504  505  0.26432412442E+02  0.90415113159E+02  0.53213654163E+02  0.10819084113E+03  0.00000000000E+00 0. -1.
         21    1    1    2  505  502 -0.37005265963E+02 -0.16311285509E+02 -0.12358168155E+02  0.42286783563E+02  0.00000000000E+00 0. -1.
          2    1    1    2  501    0  0.20685745423E+02  0.25310584251E+02  0.11515723391E+04  0.11520361877E+04  0.00000000000E+00 0. -1.
<scales pt_clust_3="14000.00000" pt_clust_4="99.99535" pt_clust_5="37.48510" pt_clust_6="32.68831"></scales>
<clustering>
<clus scale="   32.688">  1  6  2 -1</clus>
<clus scale="   37.485">  2  5  1 -1</clus>
<clus scale="   99.995">  1  4  2 -1</clus>
<clus scale="   37.485">  2  3  1 -1</clus>
</clustering>
</event>
<event>
 6    0  0.1993420E+002  0.2238978E+03  0.7546771E-02  0.1131010E+00
          1   -1    0    0  504    0 -0.00000000000E+00  0.00000000000E+00  0.44703913312E+03  0.44703913312E+03  0.00000000000E+00 0. -1.
         21   -1    0    0  501  502  0.00000000000E+00 -0.00000000000E+00 -0.22490679707E+03  0.22490679707E+03  0.00000000000E+00 0. -1.
         21    1    1    2  503  505  0.34512366140E+02 -0.70332032693E+02 -0.27441957541E+02  0.83010597354E+02  0.00000000000E+00 0. -1.
         21    1    1    2  504  503 -0.33681567365E+02 -0.75984430738E+02 -0.42130799028E+02  0.93183077441E+02  0.00000000000E+00 0. -1.
         21    1    1    2  505  502  0.17448602179E+02 -0.51200291165E+02 -0.66845310761E+02  0.85989645331E+02  0.00000000000E+00 0. -1.
          1    1    1    2  501    0 -0.18279400954E+02  0.19751675460E+03  0.35855040338E+03  0.40976261007E+03  0.00000000000E+00 0. -1.
<scales pt_clust_3="68.16808" pt_clust_4="68.16808" pt_clust_5="38.98244" pt_clust_6="198.36079"></scales>
<clustering>
<clus scale="   38.982">  3  5 -1 -1</clus>
<clus scale="   68.168">  3  4 -1 -1</clus>
<clus scale="  198.361">  1  6  2 -1</clus>
<clus scale="  223.898">  2  3  1 -1</clus>
</clustering>
</event>
<event>
 6    0  0.1993420E+002  0.1700131E+03  0.7546771E-02  0.1177834E+00
         21   -1    0    0  501  502  0.00000000000E+00  0.00000000000E+00  0.18777929529E+03  0.18777929529E+03  0.00000000000E+00 0.  1.
          2   -1    0    0  503    0 -0.00000000000E+00 -0.00000000000E+00 -0.13488922528E+04  0.13488922528E+04  0.00000000000E+00 0. -1.
         21    1    1    2  503  504 -0.72285199624E+00  0.64734345337E+02 -0.11844838341E+03  0.13498547149E+03  0.00000000000E+00 0.  1.
         21    1    1    2  504  505 -0.18183131171E+02  0.31951412159E+02 -0.21092624435E+02  0.42384169258E+02  0.00000000000E+00 0.  1.
         21    1    1    2  505  502  0.27623645334E+02 -0.18169279969E+03  0.11678134183E+03  0.21774577158E+03  0.00000000000E+00 0.  1.
          2    1    1    2  501    0 -0.87176621676E+01  0.85007042191E+02 -0.11383532915E+04  0.11415561358E+04  0.00000000000E+00 0. -1.
<scales pt_clust_3="36.00405" pt_clust_4="36.00405" pt_clust_5="163.16164" pt_clust_6="85.45288"></scales>
<clustering>
<clus scale="   36.004">  3  4 -1 -1</clus>
<clus scale="   85.453">  2  6  1 -1</clus>
<clus scale="  163.162">  1  5  2 -1</clus>
<clus scale="  163.162">  1  3  2 -1</clus>
</clustering>
</event>
<event>
 6    0  0.1993420E+002  0.1889836E+03  0.7546771E-02  0.1159381E+00
          2   -1    0    0  503    0 -0.00000000000E+00  0.00000000000E+00  0.22831607626E+04  0.22831607626E+04  0.00000000000E+00 0. -1.
         21   -1    0    0  504  502  0.00000000000E+00 -0.00000000000E+00 -0.18113833823E+03  0.18113833823E+03  0.00000000000E+00 0. -1.
         21    1    1    2  503  502  0.96721151964E+01 -0.12480150493E+03 -0.12025812469E+03  0.17358278141E+03  0.00000000000E+00 0. -1.
         21    1    1    2  504  505  0.42352726019E+02 -0.15158023878E+02  0.30499284535E+01  0.45086817948E+02  0.00000000000E+00 0.  1.
         21    1    1    2  505  501  0.39191881211E+02 -0.27987628548E+02  0.55529530445E+02  0.73504011156E+02  0.00000000000E+00 0.  1.
          2    1    1    2  501    0 -0.91216722426E+02  0.16794715736E+03  0.21637010902E+04  0.21721254903E+04  0.00000000000E+00 0. -1.
<scales pt_clust_3="14000.00000" pt_clust_4="44.51168" pt_clust_5="103.11271" pt_clust_6="188.98363"></scales>
<clustering>
<clus scale="   44.512">  4  5 -1 -1</clus>
<clus scale="  103.113">  2  4  1 -1</clus>
<clus scale="  188.984">  1  6  2 -1</clus>
<clus scale="  103.113">  2  3  1 -1</clus>
</clustering>
</event>
<event>
 6    0  0.1993420E+002  0.1146999E+03  0.7546771E-02  0.1252106E+00
         21   -1    0    0  504  502  0.00000000000E+00  0.00000000000E+00  0.17238203399E+03  0.17238203399E+03  0.00000000000E+00 0. -1.
         -3   -1    0    0    0  501 -0.00000000000E+00 -0.00000000000E+00 -0.51211336443E+03  0.51211336443E+03  0.00000000000E+00 0.  1.
         21    1    1    2  503  505  0.42783367601E+02 -0.44318801090E+02  0.42388906085E+01  0.61745776106E+02  0.00000000000E+00 0.  1.
         21    1    1    2  504  501 -0.42711239329E+02 -0.61163063937E+02  0.12901832154E+02  0.75707513683E+02  0.00000000000E+00 0. -1.
         21    1    1    2  505  502  0.52930883500E+02 -0.14699720399E+02  0.76511955112E+02  0.94190442631E+02  0.00000000000E+00 0. -1.
         -3    1    1    2    0  503 -0.53003011772E+02  0.12018158543E+03 -0.43338400832E+03  0.45285166600E+03  0.00000000000E+00 0.  1.
<scales pt_clust_3="14000.00000" pt_clust_4="70.43341" pt_clust_5="54.93414" pt_clust_6="114.69986"></scales>
<clustering>
<clus scale="   54.934">  1  5  2 -1</clus>
<clus scale="   70.433">  1  4  2 -1</clus>
<clus scale="  114.700">  2  6  1 -1</clus>
<clus scale="   54.934">  1  3  2 -1</clus>
</clustering>
</event>
<event>
 6    0  0.1993420E+002  0.2180401E+03  0.7546771E-02  0.1135353E+00
          1   -1    0    0  503    0 -0.00000000000E+00  0.00000000000E+00  0.56326212338E+03  0.56326212338E+03  0.00000000000E+00 0.  1.
         21   -1    0    0  501  502  0.00000000000E+00 -0.00000000000E+00 -0.27521300962E+03  0.27521300962E+03  0.00000000000E+00 0. -1.
         21    1    1    2  503  505 -0.71741772010E+02  0.12126177852E+03 -0.13651784849E+03  0.19618466744E+03  0.00000000000E+00 0. -1.
         21    1    1    2  504  502 -0.48977746160E+02 -0.58396794375E+01 -0.34421240793E+02  0.60147679029E+02  0.00000000000E+00 0. -1.
         21    1    1    2  505  504 -0.79774629849E+02  0.56315114765E+01  0.16738174325E+02  0.81706009380E+02  0.00000000000E+00 0. -1.
          1    1    1    2  501    0  0.20049414802E+03 -0.12105361056E+03  0.44225002872E+03  0.50043677715E+03  0.00000000000E+00 0.  1.
<scales pt_clust_3="218.04007" pt_clust_4="44.65121" pt_clust_5="140.74721" pt_clust_6="14000.00000"></scales>
<clustering>
<clus scale="   44.651">  4  5 -1 -1</clus>
<clus scale="  140.747">  2  4  1 -1</clus>
<clus scale="  218.040">  2  3  1 -1</clus>
<clus scale="  140.747">  2  3  1 -1</clus>
</clustering>
</event>
<event>
 6    0  0.1993420E+002  0.2064616E+03  0.7546771E-02  0.1144399E+00
         21   -1    0    0  501  502  0.00000000000E+00  0.00000000000E+00  0.11768091332E+04  0.11768091332E+04  0.00000000000E+00 0. -1.
          2   -1    0    0  503    0 -0.00000000000E+00 -0.00000000000E+00 -0.21135986341E+04  0.21135986341E+04  0.00000000000E+00 0.  1.
         21    1    1    2  503  505  0.42953036216E+02  0.17774150742E+02 -0.72192509763E+01  0.47042548182E+02  0.00000000000E+00 0. -1.
         21    1    1    2  504  502 -0.14618287453E+03 -0.13494891829E+03  0.10320040979E+04  0.10510057571E+04  0.00000000000E+00 0. -1.
         21    1    1    2  505  504  0.14834347020E+03 -0.63808229770E+02  0.52394558005E+02  0.16977180286E+03  0.00000000000E+00 0.  1.
          2    1    1    2  501    0 -0.45113631882E+02  0.18098299732E+03 -0.20139689058E+04  0.20225876591E+04  0.00000000000E+00 0.  1.
<scales pt_clust_3="42.43038" pt_clust_4="190.71502" pt_clust_5="42.43038" pt_clust_6="186.52100"></scales>
<clustering>
<clus scale="   42.430">  3  5 -1 -1</clus>
<clus scale="  186.521">  2  6  1 -1</clus>
<clus scale="  190.715">  1  4  2 -1</clus>
<clus scale="  190.715">  1  3  2 -1</clus>
</clustering>
</event>
<event>
 6    0  0.1993420E+002  0.4286355E+03  0.7546771E-02  0.1034292E+00
         21   -1    0    0  501  502  0.00000000000E+00  0.00000000000E+00  0.38688992180E+03  0.38688992180E+03  0.00000000000E+00 0. -1.
          2   -1    0    0  504    0 -0.00000000000E+00 -0.00000000000E+00 -0.66286231935E+03  0.66286231935E+03  0.00000000000E+00 0. -1.
         21    1    1    2  503  505  0.13212493369E+02 -0.89036156859E+02  0.47101208961E+01  0.90134302284E+02  0.00000000000E+00 0. -1.
         21    1    1    2  504  503 -0.13198580073E+03  0.38623844306E+03 -0.16795310510E+03  0.44137130854E+03  0.00000000000E+00 0. -1.
         21    1    1    2  505  502  0.16674097037E+03 -0.30680615591E+03  0.45948907375E+02  0.35219862378E+03  0.00000000000E+00 0. -1.
          2    1    1    2  501    0 -0.47967663015E+02  0.96038697117E+01 -0.15867832072E+03  0.16604800653E+03  0.00000000000E+00 0. -1.
<scales pt_clust_3="32.18153" pt_clust_4="423.92297" pt_clust_5="32.18153" pt_clust_6="48.91964"></scales>
<clustering>
<clus scale="   32.182">  3  5 -1 -1</clus>
<clus scale="   48.920">  2  6  1 -1</clus>
<clus scale="  423.923">  2  4  1 -1</clus>
<clus scale="  428.635">  1  3  2 -1</clus>
</clustering>
</event>
<event>
 6    0  0.1993420E+002  0.1587053E+03  0.7546771E-02  0.1190166E+00
         21   -1    0    0  505  502  0.00000000000E+00  0.00000000000E+00  0.12850141402E+04  0.12850141402E+04  0.00000000000E+00 0. -1.
          4   -1    0    0  504    0 -0.00000000000E+00 -0.00000000000E+00 -0.92017035246E+02  0.92017035246E+02  0.00000000000E+00 0. -1.
         21    1    1    2  503  502  0.11172924756E+02 -0.41324088455E+02  0.70633473919E+03  0.70763074998E+03  0.00000000000E+00 0.  1.
         21    1    1    2  504  503  0.50133225793E+02 -0.57436549182E+02  0.43192707959E+03  0.43860380709E+03  0.00000000000E+00 0. -1.
         21    1    1    2  505  501 -0.27175539692E+01 -0.33484790960E+02  0.77411832664E+02  0.84387251179E+02  0.00000000000E+00 0. -1.
          4    1    1    2  501    0 -0.58588596580E+02  0.13224542860E+03 -0.22676546512E+02  0.14640936717E+03  0.00000000000E+00 0. -1.
<scales pt_clust_3="58.38030" pt_clust_4="58.38030" pt_clust_5="33.59489" pt_clust_6="143.12855"></scales>
<clustering>
<clus scale="   33.595">  1  5  2 -1</clus>
<clus scale="   58.380">  3  4 -1 -1</clus>
<clus scale="  143.129">  2  6  1 -1</clus>
<clus scale="   33.595">  1  3  2 -1</clus>
</clustering>
</event>
<event>
 6    0  0.1993420E+002  0.1923167E+03  0.7546771E-02  0.1156388E+00
          2   -1    0    0  505    0 -0.00000000000E+00  0.00000000000E+00  0.12471176151E+04  0.12471176151E+04  0.00000000000E+00 0. -1.
         21   -1    0    0  501  502  0.00000000000E+00 -0.00000000000E+00 -0.36022700902E+02  0.36022700902E+02  0.00000000000E+00 0.  1.
         21    1    1    2  503  504  0.12864762539E+03  0.35666782028E+02  0.36702717255E+03  0.39055252687E+03  0.00000000000E+00 0.  1.
         21    1    1    2  504  502  0.54222120130E+02 -0.18691161670E+02  0.17942122334E+03  0.18836499999E+03  0.00000000000E+00 0.  1.
         21    1    1    2  505  503  0.37962013132E+01 -0.43934709611E+02  0.13197350757E+03  0.13914624161E+03  0.00000000000E+00 0. -1.
          2    1    1    2  501    0 -0.18666594684E+03  0.26959089253E+02  0.53267301076E+03  0.56507654755E+03  0.00000000000E+00 0. -1.
<scales pt_clust_3="34.74576" pt_clust_4="34.74576" pt_clust_5="44.09841" pt_clust_6="184.86640"></scales>
<clustering>
<clus scale="   34.746">  3  4 -1 -1</clus>
<clus scale="   44.098">  1  5  2 -1</clus>
<clus scale="  184.866">  1  6  2 -1</clus>
<clus scale="  192.317">  2  3  1 -1</clus>
</clustering>
</event>
<event>
 6    0  0.1993420E+002  0.1461596E+03  0.7546771E-02  0.1205273E+00
          1   -1    0    0  505    0 -0.00000000000E+00  0.00000000000E+00  0.12822544152E+04  0.12822544152E+04  0.00000000000E+00 0. -1.
         21   -1    0    0  504  502  0.00000000000E+00 -0.00000000000E+00 -0.58275308642E+02  0.58275308642E+02  0.00000000000E+00 0.  1.
         21    1    1    2  503  501 -0.79091250850E+02 -0.11941366321E+03  0.75995145668E+02  0.16214287245E+03  0.00000000000E+00 0.  1.
         21    1    1    2  504  503 -0.30639296305E+02 -0.30431365172E+01  0.62918454343E+02  0.70048262326E+02  0.00000000000E+00 0.  1.
         21    1    1    2  505  502 -0.11484950285E+02  0.38188923051E+02  0.56059458867E+02  0.68796517756E+02  0.00000000000E+00 0.  1.
          1    1    1    2  501    0  0.12121549744E+03  0.84267876673E+02  0.10290060477E+04  0.10395420713E+04  0.00000000000E+00 0. -1.
<scales pt_clust_3="146.15962" pt_clust_4="30.79005" pt_clust_5="40.71868" pt_clust_6="14000.00000"></scales>
<clustering>
<clus scale="   30.790">  2  4  1 -1</clus>
<clus scale="   40.719">  2  5  1 -1</clus>
<clus scale="  146.160">  2  3  1 -1</clus>
<clus scale="   30.790">  2  3  1 -1</clus>
</clustering>
</event>
<event>
 6    0  0.1993420E+002  0.1401841E+03  0.7546771E-02  0.1213082E+00
          2   -1    0    0  505    0 -0.00000000000E+00  0.00000000000E+00  0.19962689143E+04  0.19962689143E+04  0.00000000000E+00 0. -1.
         21   -1    0    0  501  502  0.00000000000E+00 -0.00000000000E+00 -0.14938866219E+03  0.14938866219E+03  0.00000000000E+00 0. -1.
         21    1    1    2  503  502 -0.51596819152E+02  0.25621630568E+02 -0.40354504791E+01  0.57749325192E+02  0.00000000000E+00 0. -1.
         21    1    1    2  504  503 -0.53268808269E+01 -0.62925324155E+02  0.19257973384E+02  0.66021523901E+02  0.00000000000E+00 0. -1.
         21    1    1    2  505  504 -0.71273046511E+02 -0.23894928430E+02 -0.77198686451E+02  0.10775180719E+03  0.00000000000E+00 0. -1.
          2    1    1    2  501    0  0.12819674649E+03  0.61198622017E+02  0.19088564157E+04  0.19141349202E+04  0.00000000000E+00 0. -1.
<scales pt_clust_3="57.60816" pt_clust_4="59.91155" pt_clust_5="14000.00000" pt_clust_6="140.18405"></scales>
<clustering>
<clus scale="   57.608">  2  3  1 -1</clus>
<clus scale="   59.912">  2  4  1 -1</clus>
<clus scale="  140.184">  1  6  2 -1</clus>
<clus scale="   57.608">  2  3  1 -1</clus>
</clustering>
</event>
<event>
 6    0  0.1993420E+002  0.1807425E+03  0.7546771E-02  0.1167086E+00
         21   -1    0    0  505  502  0.00000000000E+00  0.00000000000E+00  0.77391716065E+02  0.77391716065E+02  0.00000000000E+00 0. -1.
         -1   -1    0    0    0  501 -0.00000000000E+00 -0.00000000000E+00 -0.63299553989E+03  0.63299553989E+03  0.00000000000E+00 0. -1.
         21    1    1    2  503  501  0.58419262284E+02  0.15798153384E+02 -0.10813395055E+03  0.12391667813E+03  0.00000000000E+00 0. -1.
         21    1    1    2  504  503  0.82433819004E+02 -0.48907205004E+02 -0.48682071196E+02  0.10750438723E+03  0.00000000000E+00 0. -1.
         21    1    1    2  505  504  0.30435820403E+02 -0.61307124621E+02 -0.83879265364E+02  0.10826187626E+03  0.00000000000E+00 0. -1.
         -1    1    1    2    0  502 -0.17128890169E+03  0.94416176241E+02 -0.31490853671E+03  0.37070431434E+03  0.00000000000E+00 0. -1.
<scales pt_clust_3="60.51770" pt_clust_4="54.08155" pt_clust_5="54.08155" pt_clust_6="169.03262"></scales>
<clustering>
<clus scale="   54.082">  4  5 -1 -1</clus>
<clus scale="   60.518">  2  3  1 -1</clus>
<clus scale="  169.033">  2  6  1 -1</clus>
<clus scale="  180.742">  1  3  2 -1</clus>
</clustering>
</event>
<event>
 6    0  0.1993420E+002  0.8375683E+02  0.7546771E-02  0.1318716E+00
          1   -1    0    0  502    0 -0.00000000000E+00  0.00000000000E+00  0.32285416068E+03  0.32285416068E+03  0.00000000000E+00 0.  1.
         21   -1    0    0  503  502  0.00000000000E+00 -0.00000000000E+00 -0.19335200674E+03  0.19335200674E+03  0.00000000000E+00 0.  1.
         21    1    1    2  503  505  0.14499229146E+02 -0.10479415279E+03 -0.11723177445E+03  0.15790924940E+03  0.00000000000E+00 0.  1.
         21    1    1    2  504  501  0.15554268361E+02  0.49837315975E+02  0.34976250324E+02  0.62841319326E+02  0.00000000000E+00 0.  1.
         21    1    1    2  505  504  0.57722749315E+01  0.60123356133E+02 -0.17873699698E+02  0.62988937533E+02  0.00000000000E+00 0.  1.
          1    1    1    2  501    0 -0.35825772439E+02 -0.51665193158E+01  0.22963137777E+03  0.23246666116E+03  0.00000000000E+00 0.  1.
<scales pt_clust_3="83.75683" pt_clust_4="47.21715" pt_clust_5="14000.00000" pt_clust_6="36.19639"></scales>
<clustering>
<clus scale="   36.196">  1  6  2 -1</clus>
<clus scale="   47.217">  1  4  2 -1</clus>
<clus scale="   83.757">  2  3  1 -1</clus>
<clus scale="   83.757">  2  3  1 -1</clus>
</clustering>
</event>
<event>
 6    0  0.1993420E+002  0.3139822E+03  0.7546771E-02  0.1078453E+00
          2   -1    0    0  503    0 -0.00000000000E+00  0.00000000000E+00  0.28563908644E+04  0.28563908644E+04  0.00000000000E+00 0. -1.
         21   -1    0    0  504  502  0.00000000000E+00 -0.00000000000E+00 -0.16110114019E+03  0.16110114019E+03  0.00000000000E+00 0. -1.
         21    1    1    2  503  502  0.10846103677E+02 -0.33199144926E+02 -0.11990622097E+02  0.36926903567E+02  0.00000000000E+00 0. -1.
         21    1    1    2  504  505  0.24769137060E+03 -0.74571973294E+02  0.35045695422E+02  0.26103676951E+03  0.00000000000E+00 0. -1.
         21    1    1    2  505  501  0.31898964978E+02  0.21873758508E+02  0.97711566635E+01  0.39893367625E+02  0.00000000000E+00 0. -1.
          2    1    1    2  501    0 -0.29043643925E+03  0.85897359711E+02  0.26624634942E+04  0.26796349639E+04  0.00000000000E+00 0. -1.
<scales pt_clust_3="34.92594" pt_clust_4="33.71605" pt_clust_5="33.71605" pt_clust_6="301.63267"></scales>
<clustering>
<clus scale="   33.716">  4  5 -1 -1</clus>
<clus scale="   34.926">  2  3  1 -1</clus>
<clus scale="  301.633">  1  6  2 -1</clus>
<clus scale="   34.926">  2  3  1 -1</clus>
</clustering>
</event>
<event>
 6    0  0.1993420E+002  0.1502840E+03  0.7546771E-02  0.1200124E+00
          2   -1    0    0  502    0 -0.00000000000E+00  0.00000000000E+00  0.35011352746E+03  0.35011352746E+03  0.00000000000E+00 0. -1.
         21   -1    0    0  504  502  0.00000000000E+00 -0.00000000000E+00 -0.97915566201E+03  0.97915566201E+03  0.00000000000E+00 0.  1.
         21    1    1    2  503  501 -0.37262434452E+02  0.33108555336E+02  0.91132307274E+01  0.50672639876E+02  0.00000000000E+00 0.  1.
         21    1    1    2  504  505  0.10690607987E+03 -0.89024578930E+02 -0.88110754792E+03  0.89202286774E+03  0.00000000000E+00 0.  1.
         21    1    1    2  505  503 -0.76478140695E+02  0.76457362805E+01 -0.48624844143E+02  0.90949099805E+02  0.00000000000E+00 0. -1.
          2    1    1    2  501    0  0.68344952736E+01  0.48270287313E+02  0.29157702679E+03  0.29562458205E+03  0.00000000000E+00 0. -1.
<scales pt_clust_3="58.02572" pt_clust_4="136.70249" pt_clust_5="58.02572" pt_clust_6="48.75173"></scales>
<clustering>
<clus scale="   48.752">  1  6  2 -1</clus>
<clus scale="   58.026">  3  5 -1 -1</clus>
<clus scale="  136.702">  2  4  1 -1</clus>
<clus scale="  136.702">  2  3  1 -1</clus>
</clustering>
</event>
<event>
 6    0  0.1993420E+002  0.2033913E+03  0.7546771E-02  0.1146909E+00
         21   -1    0    0  504  502  0.00000000000E+00  0.00000000000E+00  0.33807282085E+03  0.33807282085E+03  0.00000000000E+00 0.  1.
          2   -1    0    0  503    0 -0.00000000000E+00 -0.00000000000E+00 -0.17416436523E+04  0.17416436523E+04  0.00000000000E+00 0. -1.
         21    1    1    2  503  502  0.50034957121E+02 -0.17774744498E+03 -0.13279659865E+03  0.22744798910E+03  0.00000000000E+00 0. -1.
         21    1    1    2  504  505  0.48810478155E+02  0.62272507303E+02  0.11713957942E+03  0.14135773417E+03  0.00000000000E+00 0. -1.
         21    1    1    2  505  501 -0.89942442744E+02  0.16453262815E+03  0.10651350674E+03  0.21565193218E+03  0.00000000000E+00 0.  1.
          2    1    1    2  501    0 -0.89029925321E+01 -0.49057690469E+02 -0.14944273190E+04  0.14952588177E+04  0.00000000000E+00 0. -1.
<scales pt_clust_3="14000.00000" pt_clust_4="76.96683" pt_clust_5="203.39130" pt_clust_6="49.85900"></scales>
<clustering>
<clus scale="   49.859">  2  6  1 -1</clus>
<clus scale="   76.967">  1  4  2 -1</clus>
<clus scale="  203.391">  1  5  2 -1</clus>
<clus scale="   76.967">  1  3  2 -1</clus>
</clustering>
</event>
<event>
 6    0  0.1993420E+002  0.2681634E+03  0.7546771E-02  0.1102335E+00
          2   -1    0    0  505    0 -0.00000000000E+00  0.00000000000E+00  0.14810450054E+04  0.14810450054E+04  0.00000000000E+00 0. -1.
         21   -1    0    0  501  502  0.00000000000E+00 -0.00000000000E+00 -0.18150259189E+03  0.18150259189E+03  0.00000000000E+00 0.  1.
         21    1    1    2  503  504  0.22630954873E+02 -0.45169411855E+02  0.17573129930E+02  0.53490660692E+02  0.00000000000E+00 0. -1.
         21    1    1    2  504  502  0.44828334294E+02 -0.24264517506E+02  0.16263689265E+02  0.53505644131E+02  0.00000000000E+00 0.  1.
         21    1    1    2  505  503 -0.72463548071E+02 -0.20532898304E+03 -0.39875536155E+02  0.22136172989E+03  0.00000000000E+00 0.  1.
          2    1    1    2  501    0  0.50042589040E+01  0.27476291240E+03  0.13055811304E+04  0.13341895625E+04  0.00000000000E+00 0. -1.
<scales pt_clust_3="30.38399" pt_clust_4="101.50507" pt_clust_5="14000.00000" pt_clust_6="268.16335"></scales>
<clustering>
<clus scale="   30.384">  3  4 -1 -1</clus>
<clus scale="  101.505">  2  3  1 -1</clus>
<clus scale="  268.163">  1  6  2 -1</clus>
<clus scale="  101.505">  2  3  1 -1</clus>
</clustering>
</event>
<event>
 6    0  0.1993420E+002  0.1085677E+03  0.7546771E-02  0.1263245E+00
         21   -1    0    0  504  502  0.00000000000E+00  0.00000000000E+00  0.49848845280E+02  0.49848845280E+02  0.00000000000E+00 0. -1.
         -1   -1    0    0    0  501 -0.00000000000E+00 -0.00000000000E+00 -0.17041321886E+04  0.17041321886E+04  0.00000000000E+00 0.  1.
         21    1    1    2  503  505  0.98032970664E+01 -0.89292383200E+02 -0.12135658427E+03  0.15098561148E+03  0.00000000000E+00 0. -1.
         21    1    1    2  504  503 -0.36129739688E+02  0.41828481204E+02 -0.70880436327E+01  0.55724503518E+02  0.00000000000E+00 0. -1.
         21    1    1    2  505  501 -0.45183592615E+02 -0.51393500061E+02 -0.13756115893E+03  0.15364218605E+03  0.00000000000E+00 0. -1.
         -1    1    1    2    0  502  0.71510035237E+02  0.98857402057E+02 -0.13882775565E+04  0.13936287329E+04  0.00000000000E+00 0.  1.
<scales pt_clust_3="65.97184" pt_clust_4="55.27187" pt_clust_5="108.56774" pt_clust_6="14000.00000"></scales>
<clustering>
<clus scale="   55.272">  1  4  2 -1</clus>
<clus scale="   65.972">  1  3  2 -1</clus>
<clus scale="  108.568">  1  5  2 -1</clus>
<clus scale="   55.272">  1  3  2 -1</clus>
</clustering>
</event>
<event>
 6    0  0.1993420E+002  0.7157670E+02  0.7546771E-02  0.1354812E+00
         21   -1    0    0  505  502  0.00000000000E+00  0.00000000000E+00  0.46552456719E+02  0.46552456719E+02  0.00000000000E+00 0. -1.
          2   -1    0    0  503    0 -0.00000000000E+00 -0.00000000000E+00 -0.19627965769E+04  0.19627965769E+04  0.00000000000E+00 0.  1.
         21    1    1    2  503  502 -0.80231033809E+02  0.77113165116E+02 -0.29736529810E+03  0.31750524332E+03  0.00000000000E+00 0. -1.
         21    1    1    2  504  501  0.44469276225E+02 -0.25208703966E+02 -0.29868673463E+02  0.59204163182E+02  0.00000000000E+00 0. -1.
         21    1    1    2  505  504 -0.10419564930E+02 -0.39389609054E+02  0.21111436360E+01  0.40799087762E+02  0.00000000000E+00 0. -1.
          2    1    1    2  501    0  0.46181322513E+02 -0.12514852095E+02 -0.15911212923E+04  0.15918405394E+04  0.00000000000E+00 0.  1.
<scales pt_clust_3="71.57670" pt_clust_4="14000.00000" pt_clust_5="40.74443" pt_clust_6="47.85409"></scales>
<clustering>
<clus scale="   40.744">  1  5  2 -1</clus>
<clus scale="   47.854">  2  6  1 -1</clus>
<clus scale="   71.577">  2  3  1 -1</clus>
<clus scale="   40.744">  1  3  2 -1</clus>
</clustering>
</event>
<event>
 6    0  0.1993420E+002  0.1706474E+03  0.7546771E-02  0.1177174E+00
          2   -1    0    0  502    0 -0.00000000000E+00  0.00000000000E+00  0.84843086332E+03  0.84843086332E+03  0.00000000000E+00 0.  1.
         21   -1    0    0  503  502  0.00000000000E+00 -0.00000000000E+00 -0.45497460257E+03  0.45497460257E+03  0.00000000000E+00 0.  1.
         21    1    1    2  503  505 -0.85844376636E+02  0.29816456699E+02 -0.20609741889E+03  0.22524303355E+03  0.00000000000E+00 0.  1.
         21    1    1    2  504  501  0.75035773818E+02 -0.33321281085E+02 -0.35081360273E+02  0.89282568087E+02  0.00000000000E+00 0.  1.
         21    1    1    2  505  504  0.16864666280E+03 -0.41607396455E+01 -0.12691483388E+03  0.21110751689E+03  0.00000000000E+00 0.  1.
          2    1    1    2  501    0 -0.15783805998E+03  0.76655640315E+01  0.76154987380E+03  0.77777234737E+03  0.00000000000E+00 0.  1.
<scales pt_clust_3="90.87507" pt_clust_4="39.49684" pt_clust_5="39.49684" pt_clust_6="160.98173"></scales>
<clustering>
<clus scale="   39.497">  4  5 -1 -1</clus>
<clus scale="   90.875">  2  3  1 -1</clus>
<clus scale="  160.982">  1  6  2 -1</clus>
<clus scale="   90.875">  2  3  1 -1</clus>
</clustering>
</event>
<event>
 6    0  0.1993420E+002  0.2095794E+03  0.7546771E-02  0.1141899E+00
         -1   -1    0    0    0  501 -0.00000000000E+00  0.00000000000E+00  0.20763602553E+03  0.20763602553E+03  0.00000000000E+00 0. -1.
         21   -1    0    0  504  502  0.00000000000E+00 -0.00000000000E+00 -0.11264000016E+04  0.11264000016E+04  0.00000000000E+00 0. -1.
         21    1    1    2  503  502 -0.69095600692E+02 -0.33142531051E+02 -0.18287368801E+03  0.19828115181E+03  0.00000000000E+00 0. -1.
         21    1    1    2  504  501  0.10939821115E+03  0.18582404130E+03 -0.60119173625E+03  0.63869401646E+03  0.00000000000E+00 0. -1.
         21    1    1    2  505  503 -0.14793542863E+03 -0.31710467375E+02 -0.25419899866E+03  0.29581679416E+03  0.00000000000E+00 0. -1.
         -1    1    1    2    0  505  0.10763281818E+03 -0.12097104287E+03  0.11950044687E+03  0.20124406467E+03  0.00000000000E+00 0. -1.
<scales pt_clust_3="30.12642" pt_clust_4="205.25998" pt_clust_5="30.12642" pt_clust_6="161.92226"></scales>
<clustering>
<clus scale="   30.126">  3  5 -1 -1</clus>
<clus scale="  161.922">  1  6  2 -1</clus>
<clus scale="  205.260">  2  4  1 -1</clus>
<clus scale="  205.260">  2  3  1 -1</clus>
</clustering>
</event>
<event>
 6    0  0.1993420E+002  0.1503072E+03  0.7546771E-02  0.1200096E+00
          2   -1    0    0  505    0 -0.00000000000E+00  0.00000000000E+00  0.15775435840E+04  0.15775435840E+04  0.00000000000E+00 0. -1.
         21   -1    0    0  501  502  0.00000000000E+00 -0.00000000000E+00 -0.91422238270E+02  0.91422238270E+02  0.00000000000E+00 0.  1.
         21    1    1    2  503  502  0.22073002968E+02 -0.52315337022E+02 -0.29818431348E+02  0.64134630238E+02  0.00000000000E+00 0.  1.
         21    1    1    2  504  503 -0.15888870262E+03  0.15492463420E+02  0.21922450791E+03  0.27119185296E+03  0.00000000000E+00 0.  1.
         21    1    1    2  505  504  0.14939259255E+03 -0.55033927622E+02  0.37666654519E+03  0.40893100416E+03  0.00000000000E+00 0.  1.
          2    1    1    2  501    0 -0.12576892904E+02  0.91856801224E+02  0.92004872400E+03  0.92470833494E+03  0.00000000000E+00 0. -1.
<scales pt_clust_3="56.78126" pt_clust_4="150.30722" pt_clust_5="14000.00000" pt_clust_6="89.84321"></scales>
<clustering>
<clus scale="   56.781">  2  3  1 -1</clus>
<clus scale="   89.843">  1  6  2 -1</clus>
<clus scale="  150.307">  2  4  1 -1</clus>
<clus scale="   56.781">  2  3  1 -1</clus>
</clustering>
</event>
<event>
 6    0  0.1993420E+002  0.1145172E+03  0.7546771E-02  0.1252426E+00
         21   -1    0    0  501  502  0.00000000000E+00  0.00000000000E+00  0.27468200904E+03  0.27468200904E+03  0.00000000000E+00 0. -1.
          1   -1    0    0  503    0 -0.00000000000E+00 -0.00000000000E+00 -0.36932350242E+03  0.36932350242E+03  0.00000000000E+00 0.  1.
         21    1    1    2  503  505 -0.52189984927E+02  0.41157595713E+02  0.53094974974E+02  0.85069492646E+02  0.00000000000E+00 0. -1.
         21    1    1    2  504  502  0.10314562540E+03 -0.29822914612E+02  0.11669368548E+03  0.15857440685E+03  0.00000000000E+00 0. -1.
         21    1    1    2  505  504 -0.20301466009E+02  0.61030010443E+02  0.46684148996E+02  0.79474659259E+02  0.00000000000E+00 0. -1.
          1    1    1    2  501    0 -0.30654174465E+02 -0.72364691544E+02 -0.31111430284E+03  0.32088695272E+03  0.00000000000E+00 0.  1.
<scales pt_clust_3="37.08968" pt_clust_4="108.13234" pt_clust_5="37.08968" pt_clust_6="78.58961"></scales>
<clustering>
<clus scale="   37.090">  3  5 -1 -1</clus>
<clus scale="   78.590">  2  6  1 -1</clus>
<clus scale="  108.132">  1  4  2 -1</clus>
<clus scale="  108.132">  1  3  2 -1</clus>
</clustering>
</event>
<event>
 6    0  0.1993420E+002  0.1191230E+03  0.7546771E-02  0.1244551E+00
         21   -1    0    0  503  502  0.00000000000E+00  0.00000000000E+00  0.54891888109E+02  0.54891888109E+02  0.00000000000E+00 0.  1.
          1   -1    0    0  504    0 -0.00000000000E+00 -0.00000000000E+00 -0.12803125349E+04  0.12803125349E+04  0.00000000000E+00 0.  1.
         21    1    1    2  503  501 -0.63323627379E+02  0.14654523232E+02 -0.73763803230E+01  0.65414431299E+02  0.00000000000E+00 0.  1.
         21    1    1    2  504  505  0.47328467057E+01  0.56896691506E+02 -0.32919202194E+02  0.65903772391E+02  0.00000000000E+00 0.  1.
         21    1    1    2  505  502 -0.51473541715E+02 -0.94431686719E+01 -0.11527820436E+03  0.12660080305E+03  0.00000000000E+00 0.  1.
          1    1    1    2  501    0  0.11006432239E+03 -0.62108046066E+02 -0.10698468599E+04  0.10772854163E+04  0.00000000000E+00 0.  1.
<scales pt_clust_3="14000.00000" pt_clust_4="55.17046" pt_clust_5="52.33258" pt_clust_6="119.12297"></scales>
<clustering>
<clus scale="   52.333">  1  5  2 -1</clus>
<clus scale="   55.170">  1  4  2 -1</clus>
<clus scale="  119.123">  2  6  1 -1</clus>
<clus scale="   52.333">  1  3  2 -1</clus>
</clustering>
</event>
<event>
 6    0  0.1993420E+002  0.1368562E+03  0.7546771E-02  0.1217623E+00
         21   -1    0    0  503  502  0.00000000000E+00  0.00000000000E+00  0.13158834832E+03  0.13158834832E+03  0.00000000000E+00 0. -1.
         -4   -1    0    0    0  501 -0.00000000000E+00 -0.00000000000E+00 -0.39527744319E+03  0.39527744319E+03  0.00000000000E+00 0. -1.
         21    1    1    2  503  505  0.46032641844E+02  0.19622108151E+00  0.63524368078E+02  0.78449907313E+02  0.00000000000E+00 0. -1.
         21    1    1    2  504  501  0.32106054176E+02 -0.54068252722E+02 -0.33550329440E+02  0.71272710575E+02  0.00000000000E+00 0. -1.
         21    1    1    2  505  504  0.35251249174E+02 -0.28354219152E+02  0.66946850418E+01  0.45732167234E+02  0.00000000000E+00 0.  1.
         -4    1    1    2    0  502 -0.11338994519E+03  0.82226250793E+02 -0.30035781855E+03  0.33141100638E+03  0.00000000000E+00 0. -1.
<scales pt_clust_3="46.03306" pt_clust_4="34.33294" pt_clust_5="34.33294" pt_clust_6="130.73318"></scales>
<clustering>
<clus scale="   34.333">  4  5 -1 -1</clus>
<clus scale="   46.033">  1  3  2 -1</clus>
<clus scale="  130.733">  2  6  1 -1</clus>
<clus scale="   46.033">  1  3  2 -1</clus>
</clustering>
</event>
<event>
 6    0  0.1993420E+002  0.1569166E+03  0.7546771E-02  0.1192223E+00
         21   -1    0    0  503  502  0.00000000000E+00  0.00000000000E+00  0.36217195967E+03  0.36217195967E+03  0.00000000000E+00 0.  1.
          2   -1    0    0  504    0 -0.00000000000E+00 -0.00000000000E+00 -0.16858633211E+04  0.16858633211E+04  0.00000000000E+00 0.  1.
         21    1    1    2  503  501 -0.50731491193E+02  0.39995941414E+02  0.85153177856E+02  0.10688509357E+03  0.00000000000E+00 0.  1.
         21    1    1    2  504  505  0.10015513926E+03  0.78774027520E+02  0.14568861130E+03  0.19354991809E+03  0.00000000000E+00 0.  1.
         21    1    1    2  505  502  0.46338177282E+01  0.29689272235E+02  0.90314441330E+02  0.95182054324E+02  0.00000000000E+00 0.  1.
          2    1    1    2  501    0 -0.54057465795E+02 -0.14845924117E+03 -0.16448475919E+04  0.16524182147E+04  0.00000000000E+00 0.  1.
<scales pt_clust_3="70.47600" pt_clust_4="14000.00000" pt_clust_5="30.04871" pt_clust_6="156.91657"></scales>
<clustering>
<clus scale="   30.049">  1  5  2 -1</clus>
<clus scale="   70.476">  1  3  2 -1</clus>
<clus scale="  156.917">  2  6  1 -1</clus>
<clus scale="   30.049">  1  3  2 -1</clus>
</clustering>
</event>
<event>
 6    0  0.1993420E+002  0.6783996E+02  0.7546771E-02  0.1367596E+00
         21   -1    0    0  505  502  0.00000000000E+00  0.00000000000E+00  0.26833319085E+02  0.26833319085E+02  0.00000000000E+00 0. -1.
          2   -1    0    0  504    0 -0.00000000000E+00 -0.00000000000E+00 -0.13617645292E+04  0.13617645292E+04  0.00000000000E+00 0. -1.
         21    1    1    2  503  501  0.48537794134E+02  0.51292881973E+02 -0.26446963126E+03  0.27373538876E+03  0.00000000000E+00 0.  1.
         21    1    1    2  504  502 -0.38455468398E+02 -0.48541516639E+02 -0.10285092082E+03  0.12005587782E+03  0.00000000000E+00 0. -1.
         21    1    1    2  505  503  0.49192497054E+02  0.30132214583E+02 -0.55074299185E+02  0.79756069066E+02  0.00000000000E+00 0. -1.
          2    1    1    2  501    0 -0.59274822791E+02 -0.32883579917E+02 -0.91253635888E+03  0.91505051267E+03  0.00000000000E+00 0. -1.
<scales pt_clust_3="14000.00000" pt_clust_4="32.02228" pt_clust_5="57.68754" pt_clust_6="67.83996"></scales>
<clustering>
<clus scale="   57.688">  1  5  2 -1</clus>
<clus scale="   32.022">  1  4  2 -1</clus>
<clus scale="   67.840">  2  6  1 -1</clus>
<clus scale="   57.688">  1  3  2 -1</clus>
</clustering>
</event>
<event>
 6    0  0.1993420E+002  0.1494070E+03  0.7546771E-02  0.1201204E+00
          2   -1    0    0  503    0 -0.00000000000E+00  0.00000000000E+00  0.54625737308E+03  0.54625737308E+03  0.00000000000E+00 0.  1.
         21   -1    0    0  505  502  0.00000000000E+00 -0.00000000000E+00 -0.41546563892E+03  0.41546563892E+03  0.00000000000E+00 0. -1.
         21    1    1    2  503  502 -0.27572029244E+02 -0.22345671400E+02 -0.60121199613E+02  0.69814786899E+02  0.00000000000E+00 0. -1.
         21    1    1    2  504  501 -0.66037333503E+02 -0.21096148237E+02 -0.30996551224E+03  0.31762335503E+03  0.00000000000E+00 0. -1.
         21    1    1    2  505  504 -0.35168677045E+02 -0.38029140874E+02  0.11201176843E+01  0.51810289175E+02  0.00000000000E+00 0.  1.
          2    1    1    2  501    0  0.12877803979E+03  0.81470960511E+02  0.49975832833E+03  0.52247458089E+03  0.00000000000E+00 0.  1.
<scales pt_clust_3="35.49008" pt_clust_4="14000.00000" pt_clust_5="54.33943" pt_clust_6="149.40696"></scales>
<clustering>
<clus scale="   35.490">  2  3  1 -1</clus>
<clus scale="   54.339">  2  5  1 -1</clus>
<clus scale="  149.407">  1  6  2 -1</clus>
<clus scale="   35.490">  2  3  1 -1</clus>
</clustering>
</event>
<event>
 6    0  0.1993420E+002  0.1230940E+03  0.7546771E-02  0.1238078E+00
         21   -1    0    0  505  502  0.00000000000E+00  0.00000000000E+00  0.26370507557E+02  0.26370507557E+02  0.00000000000E+00 0.  1.
         -2   -1    0    0    0  501 -0.00000000000E+00 -0.00000000000E+00 -0.10305737142E+04  0.10305737142E+04  0.00000000000E+00 0.  1.
         21    1    1    2  503  502  0.35698674928E+02  0.70025098916E+02 -0.99470572367E+02  0.12677659341E+03  0.00000000000E+00 0.  1.
         21    1    1    2  504  503  0.66854441336E+01  0.50564998260E+02 -0.15265376423E+03  0.16094932726E+03  0.00000000000E+00 0.  1.
         21    1    1    2  505  501  0.14181345659E+02 -0.29316053788E+02 -0.55007649441E+02  0.63924823593E+02  0.00000000000E+00 0. -1.
         -2    1    1    2    0  504 -0.56565464721E+02 -0.91274043388E+02 -0.69707122062E+03  0.70529347750E+03  0.00000000000E+00 0.  1.
<scales pt_clust_3="44.04722" pt_clust_4="44.04722" pt_clust_5="32.56596" pt_clust_6="110.77452"></scales>
<clustering>
<clus scale="   32.566">  1  5  2 -1</clus>
<clus scale="   44.047">  3  4 -1 -1</clus>
<clus scale="  110.775">  2  6  1 -1</clus>
<clus scale="   32.566">  1  3  2 -1</clus>
</clustering>
</event>
<event>
 6    0  0.1993420E+002  0.1182690E+03  0.7546771E-02  0.1245980E+00
         21   -1    0    0  503  502  0.00000000000E+00  0.00000000000E+00  0.15628168706E+03  0.15628168706E+03  0.00000000000E+00 0. -1.
          2   -1    0    0  504    0 -0.00000000000E+00 -0.00000000000E+00 -0.62336027610E+03  0.62336027610E+03  0.00000000000E+00 0. -1.
         21    1    1    2  503  505 -0.34860042722E+02 -0.47716779440E+01  0.43546558494E+02  0.55984767979E+02  0.00000000000E+00 0. -1.
         21    1    1    2  504  502  0.54340144261E+02 -0.36911176340E+02 -0.18520451820E+02  0.68251691207E+02  0.00000000000E+00 0. -1.
         21    1    1    2  505  501  0.23693738128E+01 -0.78269178749E+02  0.54476381647E+02  0.95390536384E+02  0.00000000000E+00 0. -1.
          2    1    1    2  501    0 -0.21849475352E+02  0.11995203303E+03 -0.54658107736E+03  0.56001496759E+03  0.00000000000E+00 0. -1.
<scales pt_clust_3="35.18510" pt_clust_4="59.83775" pt_clust_5="118.26897" pt_clust_6="14000.00000"></scales>
<clustering>
<clus scale="   35.185">  1  3  2 -1</clus>
<clus scale="   59.838">  1  4  2 -1</clus>
<clus scale="  118.269">  1  5  2 -1</clus>
<clus scale="   35.185">  1  3  2 -1</clus>
</clustering>
</event>
<event>
 6    0  0.1993420E+002  0.8706802E+02  0.7546771E-02  0.1310111E+00
         21   -1    0    0  505  502  0.00000000000E+00  0.00000000000E+00  0.54356974723E+03  0.54356974723E+03  0.00000000000E+00 0.  1.
         -4   -1    0    0    0  501 -0.00000000000E+00 -0.00000000000E+00 -0.26577329581E+03  0.26577329581E+03  0.00000000000E+00 0.  1.
         21    1    1    2  503  502  0.28532808277E+02 -0.11664061144E+02  0.75045607287E+02  0.81129616316E+02  0.00000000000E+00 0.  1.
         21    1    1    2  504  501 -0.12089940243E+03  0.53928223275E+02  0.39999968916E+02  0.13829286420E+03  0.00000000000E+00 0.  1.
         21    1    1    2  505  504  0.41225125497E+02  0.24556776772E+02  0.36642261127E+03  0.36955118226E+03  0.00000000000E+00 0.  1.
         -4    1    1    2    0  503  0.51141468660E+02 -0.66820938903E+02 -0.20367173605E+03  0.22036938027E+03  0.00000000000E+00 0.  1.
<scales pt_clust_3="30.82485" pt_clust_4="14000.00000" pt_clust_5="65.59951" pt_clust_6="87.06802"></scales>
<clustering>
<clus scale="   30.825">  1  3  2 -1</clus>
<clus scale="   65.600">  1  5  2 -1</clus>
<clus scale="   87.068">  2  6  1 -1</clus>
<clus scale="   30.825">  1  3  2 -1</clus>
</clustering>
</event>
<event>
 6    0  0.1993420E+002  0.8732772E+02  0.7546771E-02  0.1309455E+00
          4   -1    0    0  503    0 -0.00000000000E+00  0.00000000000E+00  0.52289758541E+02  0.52289758541E+02  0.00000000000E+00 0.  1.
         21   -1    0    0  504  502  0.00000000000E+00 -0.00000000000E+00 -0.82500999925E+03  0.82500999925E+03  0.00000000000E+00 0. -1.
         21    1    1    2  503  505  0.24595688004E+02 -0.60278072997E+02 -0.19967182373E+03  0.21001721630E+03  0.00000000000E+00 0.  1.
         21    1    1    2  504  501 -0.70340849463E+02  0.35719260643E+02 -0.43494987060E+03  0.44204648016E+03  0.00000000000E+00 0. -1.
         21    1    1    2  505  502 -0.28096925597E+02 -0.33090791453E+02 -0.12288582481E+03  0.13032790816E+03  0.00000000000E+00 0. -1.
          4    1    1    2  501    0  0.73842087056E+02  0.57649603806E+02 -0.15212721569E+02  0.94908153166E+02  0.00000000000E+00 0.  1.
<scales pt_clust_3="71.86934" pt_clust_4="14000.00000" pt_clust_5="43.41011" pt_clust_6="87.32772"></scales>
<clustering>
<clus scale="   43.410">  2  5  1 -1</clus>
<clus scale="   71.869">  2  3  1 -1</clus>
<clus scale="   87.328">  1  6  2 -1</clus>
<clus scale="   43.410">  2  3  1 -1</clus>
</clustering>
</event>
<event>
 6    0  0.1993420E+002  0.3333610E+03  0.7546771E-02  0.1069659E+00
          2   -1    0    0  505    0 -0.00000000000E+00  0.00000000000E+00  0.11379979721E+04  0.11379979721E+04  0.00000000000E+00 0. -1.
         21   -1    0    0  504  502  0.00000000000E+00 -0.00000000000E+00 -0.43268971269E+03  0.43268971269E+03  0.00000000000E+00 0. -1.
         21    1    1    2  503  501  0.78936674394E+02 -0.79463670946E+02 -0.74594552123E+02  0.13457273413E+03  0.00000000000E+00 0. -1.
         21    1    1    2  504  503  0.72134807223E+02 -0.21117781528E+03 -0.24370846064E+03  0.33044411610E+03  0.00000000000E+00 0. -1.
         21    1    1    2  505  502 -0.48964012142E+02  0.70436934716E+02  0.43948240617E+02  0.96386119906E+02  0.00000000000E+00 0. -1.
          2    1    1    2  501    0 -0.10210746948E+03  0.22020455151E+03  0.97966303156E+03  0.10092847147E+04  0.00000000000E+00 0. -1.
<scales pt_clust_3="61.87904" pt_clust_4="61.87904" pt_clust_5="85.78366" pt_clust_6="321.71534"></scales>
<clustering>
<clus scale="   61.879">  3  4 -1 -1</clus>
<clus scale="   85.784">  1  5  2 -1</clus>
<clus scale="  321.715">  1  6  2 -1</clus>
<clus scale="  333.361">  2  3  1 -1</clus>
</clustering>
</event>
<event>
 6    0  0.1993420E+002  0.9871043E+02  0.7546771E-02  0.1283031E+00
         -2   -1    0    0    0  501 -0.00000000000E+00  0.00000000000E+00  0.82909356231E+03  0.82909356231E+03  0.00000000000E+00 0.  1.
         21   -1    0    0  503  502  0.00000000000E+00 -0.00000000000E+00 -0.38816349377E+03  0.38816349377E+03  0.00000000000E+00 0.  1.
         21    1    1    2  503  505 -0.45993166807E+02 -0.32906530141E+02 -0.22678778809E+03  0.23373256501E+03  0.00000000000E+00 0.  1.
         21    1    1    2  504  502  0.27049281644E+02  0.13349229290E+03 -0.62537814770E+02  0.14987606272E+03  0.00000000000E+00 0.  1.
         21    1    1    2  505  501  0.22659674058E+01 -0.73358434714E+02 -0.25138890136E+02  0.77579368064E+02  0.00000000000E+00 0.  1.
         -2    1    1    2    0  504  0.16677917757E+02 -0.27227328041E+02  0.75539456154E+03  0.75606906029E+03  0.00000000000E+00 0.  1.
<scales pt_clust_3="56.68065" pt_clust_4="14000.00000" pt_clust_5="98.71043" pt_clust_6="31.92930"></scales>
<clustering>
<clus scale="   31.929">  1  6  2 -1</clus>
<clus scale="   56.681">  2  3  1 -1</clus>
<clus scale="   98.710">  1  5  2 -1</clus>
<clus scale="   56.681">  2  3  1 -1</clus>
</clustering>
</event>
<event>
 6    0  0.1993420E+002  0.1133139E+03  0.7546771E-02  0.1254553E+00
         21   -1    0    0  504  502  0.00000000000E+00  0.00000000000E+00  0.46497034543E+02  0.46497034543E+02  0.00000000000E+00 0. -1.
          2   -1    0    0  505    0 -0.00000000000E+00 -0.00000000000E+00 -0.21849073531E+04  0.21849073531E+04  0.00000000000E+00 0.  1.
         21    1    1    2  503  502 -0.95250196286E+01  0.50704033366E+02 -0.97144659050E+01  0.52497579433E+02  0.00000000000E+00 0. -1.
         21    1    1    2  504  501 -0.63073565422E+02 -0.19900782759E+02 -0.16312885022E+03  0.17602652523E+03  0.00000000000E+00 0. -1.
         21    1    1    2  505  503  0.37726228380E+02  0.82206664508E+02 -0.10511770147E+03  0.13867564732E+03  0.00000000000E+00 0. -1.
          2    1    1    2  501    0  0.34872356670E+02 -0.11300991512E+03 -0.18604493009E+04  0.18642046356E+04  0.00000000000E+00 0.  1.
<scales pt_clust_3="51.59094" pt_clust_4="65.88011" pt_clust_5="113.31386" pt_clust_6="14000.00000"></scales>
<clustering>
<clus scale="   51.591">  1  3  2 -1</clus>
<clus scale="   65.880">  1  4  2 -1</clus>
<clus scale="  113.314">  1  5  2 -1</clus>
<clus scale="   51.591">  1  3  2 -1</clus>
</clustering>
</event>
<event>
 6    0  0.1993420E+002  0.1071701E+03  0.7546771E-02  0.1265902E+00
          2   -1    0    0  503    0 -0.00000000000E+00  0.00000000000E+00  0.21794478928E+04  0.21794478928E+04  0.00000000000E+00 0.  1.
         21   -1    0    0  505  502  0.00000000000E+00 -0.00000000000E+00 -0.29715025894E+02  0.29715025894E+02  0.00000000000E+00 0.  1.
         21    1    1    2  503  502 -0.26341067853E+02 -0.89508290333E+02  0.46436785831E+03  0.47364870286E+03  0.00000000000E+00 0.  1.
         21    1    1    2  504  501 -0.20154001303E+02 -0.39367923946E+02  0.26015574866E+02  0.51311083988E+02  0.00000000000E+00 0.  1.
         21    1    1    2  505  504  0.15559389468E+01 -0.50364783927E+02  0.83278210144E+02  0.97335978399E+02  0.00000000000E+00 0.  1.
          2    1    1    2  501    0  0.44939130210E+02  0.17924099821E+03  0.15760712236E+04  0.15868671534E+04  0.00000000000E+00 0.  1.
<scales pt_clust_3="93.30373" pt_clust_4="39.22505" pt_clust_5="39.22505" pt_clust_6="98.65318"></scales>
<clustering>
<clus scale="   39.225">  4  5 -1 -1</clus>
<clus scale="   93.304">  1  3  2 -1</clus>
<clus scale="   98.653">  1  6  2 -1</clus>
<clus scale="  107.170">  2  3  1 -1</clus>
</clustering>
</event>
<event>
 6    0  0.1993420E+002  0.8497974E+02  0.7546771E-02  0.1315486E+00
          1   -1    0    0  503    0 -0.00000000000E+00  0.00000000000E+00  0.33033953119E+04  0.33033953119E+04  0.00000000000E+00 0.  1.
         21   -1    0    0  505  502  0.00000000000E+00 -0.00000000000E+00 -0.34595183967E+02  0.34595183967E+02  0.00000000000E+00 0. -1.
         21    1    1    2  503  504  0.69709300971E+02 -0.69893257847E+01  0.30712557454E+03  0.31501485021E+03  0.00000000000E+00 0.  1.
         21    1    1    2  504  502 -0.38202986672E+02 -0.34053397280E+02  0.40982376396E+02  0.65564145934E+02  0.00000000000E+00 0. -1.
         21    1    1    2  505  501  0.25577461510E+02 -0.29857277443E+02  0.42441327649E+01  0.39543346046E+02  0.00000000000E+00 0. -1.
          1    1    1    2  501    0 -0.57083775809E+02  0.70900000507E+02  0.29164480442E+04  0.29178681537E+04  0.00000000000E+00 0.  1.
<scales pt_clust_3="14000.00000" pt_clust_4="59.07370" pt_clust_5="39.31493" pt_clust_6="84.97974"></scales>
<clustering>
<clus scale="   39.315">  2  5  1 -1</clus>
<clus scale="   59.074">  2  4  1 -1</clus>
<clus scale="   84.980">  1  6  2 -1</clus>
<clus scale="   39.315">  2  3  1 -1</clus>
</clustering>
</event>
<event>
 6    0  0.1993420E+002  0.1853239E+03  0.7546771E-02  0.1162748E+00
          1   -1    0    0  504    0 -0.00000000000E+00  0.00000000000E+00  0.34801942357E+04  0.34801942357E+04  0.00000000000E+00 0. -1.
         21   -1    0    0  505  502  0.00000000000E+00 -0.00000000000E+00 -0.38850645066E+03  0.38850645066E+03  0.00000000000E+00 0. -1.
         21    1    1    2  503  502  0.86819612785E+01 -0.29954959045E+02 -0.19168020244E+02  0.36607226379E+02  0.00000000000E+00 0. -1.
         21    1    1    2  504  503 -0.23857666060E+02 -0.62454763207E+02  0.20343549238E+03  0.21413963958E+03  0.00000000000E+00 0. -1.
         21    1    1    2  505  501  0.37814162015E+02  0.20956474940E+03 -0.32215498072E+03  0.38617499484E+03  0.00000000000E+00 0. -1.
          1    1    1    2  501    0 -0.22638457234E+02 -0.11715502714E+03  0.32295752936E+04  0.32317788255E+04  0.00000000000E+00 0. -1.
<scales pt_clust_3="31.18775" pt_clust_4="67.22636" pt_clust_5="185.32388" pt_clust_6="14000.00000"></scales>
<clustering>
<clus scale="   31.188">  2  3  1 -1</clus>
<clus scale="   67.226">  1  4  2 -1</clus>
<clus scale="  185.324">  2  5  1 -1</clus>
<clus scale="   31.188">  2  3  1 -1</clus>
</clustering>
</event>
<event>
 6    0  0.1993420E+002  0.1185165E+03  0.7546771E-02  0.1245565E+00
         21   -1    0    0  504  502  0.00000000000E+00  0.00000000000E+00  0.11028037486E+04  0.11028037486E+04  0.00000000000E+00 0. -1.
          2   -1    0    0  502    0 -0.00000000000E+00 -0.00000000000E+00 -0.44909657561E+03  0.44909657561E+03  0.00000000000E+00 0.  1.
         21    1    1    2  503  505 -0.54215721536E+02 -0.71849064984E+01  0.35259763439E+03  0.35681375971E+03  0.00000000000E+00 0. -1.
         21    1    1    2  504  503 -0.48448013690E+02  0.40850049646E+02  0.67244816493E+03  0.67542762093E+03  0.00000000000E+00 0. -1.
         21    1    1    2  505  501  0.61865409557E+02 -0.61151192275E+02  0.46703710038E+02  0.98732131283E+02  0.00000000000E+00 0. -1.
          2    1    1    2  501    0  0.40798325670E+02  0.27486049128E+02 -0.41804233639E+03  0.42092681227E+03  0.00000000000E+00 0.  1.
<scales pt_clust_3="50.72773" pt_clust_4="50.72773" pt_clust_5="104.47951" pt_clust_6="49.19336"></scales>
<clustering>
<clus scale="   49.193">  2  6  1 -1</clus>
<clus scale="   50.728">  3  4 -1 -1</clus>
<clus scale="  104.480">  2  5  1 -1</clus>
<clus scale="  118.517">  1  3  2 -1</clus>
</clustering>
</event>
<event>
 6    0  0.1993420E+002  0.1620898E+03  0.7546771E-02  0.1186357E+00
         21   -1    0    0  505  502  0.00000000000E+00  0.00000000000E+00  0.19378954724E+03  0.19378954724E+03  0.00000000000E+00 0. -1.
          2   -1    0    0  503    0 -0.00000000000E+00 -0.00000000000E+00 -0.16926493431E+04  0.16926493431E+04  0.00000000000E+00 0. -1.
         21    1    1    2  503  502 -0.15016884332E+03  0.40425673674E+02  0.13830539098E+03  0.20811847052E+03  0.00000000000E+00 0. -1.
         21    1    1    2  504  501  0.77282475778E+02  0.69237640751E+01 -0.18343677754E+03  0.19917221424E+03  0.00000000000E+00 0. -1.
         21    1    1    2  505  504  0.62797176993E+02 -0.15379043653E+02 -0.71048384963E+02  0.96061820864E+02  0.00000000000E+00 0. -1.
          2    1    1    2  501    0  0.10089190547E+02 -0.31970394096E+02 -0.13826800243E+04  0.13830863847E+04  0.00000000000E+00 0. -1.
<scales pt_clust_3="153.51368" pt_clust_4="47.27851" pt_clust_5="47.27851" pt_clust_6="33.52459"></scales>
<clustering>
<clus scale="   33.525">  2  6  1 -1</clus>
<clus scale="   47.279">  4  5 -1 -1</clus>
<clus scale="  153.514">  1  3  2 -1</clus>
<clus scale="  153.514">  1  3  2 -1</clus>
</clustering>
</event>
<event>
 6    0  0.1993420E+002  0.1166566E+03  0.7546771E-02  0.1248717E+00
         21   -1    0    0  504  502  0.00000000000E+00  0.00000000000E+00  0.76206233240E+02  0.76206233240E+02  0.00000000000E+00 0.  1.
          2   -1    0    0  503    0 -0.00000000000E+00 -0.00000000000E+00 -0.11994233997E+04  0.11994233997E+04  0.00000000000E+00 0. -1.
         21    1    1    2  503  505 -0.26695387230E+02  0.65403662213E+02 -0.93886252221E+02  0.11749430236E+03  0.00000000000E+00 0.  1.
         21    1    1    2  504  501  0.69975498160E+02  0.16864612693E+02  0.16581593095E+02  0.73864299452E+02  0.00000000000E+00 0.  1.
         21    1    1    2  505  502  0.57339475279E+01  0.29823497523E+02  0.85197045065E+00  0.30381655853E+02  0.00000000000E+00 0.  1.
          2    1    1    2  501    0 -0.49014058457E+02 -0.11209177243E+03 -0.10467644778E+04  0.10538893753E+04  0.00000000000E+00 0. -1.
<scales pt_clust_3="75.66813" pt_clust_4="14000.00000" pt_clust_5="30.36971" pt_clust_6="116.65664"></scales>
<clustering>
<clus scale="   30.370">  1  5  2 -1</clus>
<clus scale="   75.668">  1  3  2 -1</clus>
<clus scale="  116.657">  2  6  1 -1</clus>
<clus scale="   30.370">  1  3  2 -1</clus>
</clustering>
</event>
<event>
 6    0  0.2048039E+002  0.1852245E+03  0.7546771E-02  0.1162840E+00
          1   -1    0    0  504    0 -0.00000000000E+00  0.00000000000E+00  0.20503214258E+04  0.20503214258E+04  0.00000000000E+00 0.  1.
         21   -1    0    0  503  502  0.00000000000E+00 -0.00000000000E+00 -0.65666119871E+03  0.65666119871E+03  0.00000000000E+00 0. -1.
         21    1    1    2  503  505 -0.18586476526E+03  0.57873985955E+02 -0.59869999455E+03  0.62955285139E+03  0.00000000000E+00 0. -1.
         21    1    1    2  504  502  0.22494768772E+02 -0.29832604064E+02  0.94852780665E+02  0.10194630394E+03  0.00000000000E+00 0. -1.
         21    1    1    2  505  501  0.11359641787E+03 -0.51031638714E+02  0.61919576836E+02  0.13907698694E+03  0.00000000000E+00 0.  1.
          1    1    1    2  501    0  0.49773578626E+02  0.22990256823E+02  0.18355878642E+04  0.18364064823E+04  0.00000000000E+00 0.  1.
<scales pt_clust_3="14000.00000" pt_clust_4="37.36307" pt_clust_5="185.22453" pt_clust_6="71.11339"></scales>
<clustering>
<clus scale="   37.363">  1  4  2 -1</clus>
<clus scale="   71.113">  1  6  2 -1</clus>
<clus scale="  185.225">  1  5  2 -1</clus>
<clus scale="  185.225">  2  3  1 -1</clus>
</clustering>
</event>
<event>
 6    0  0.1993420E+002  0.8785666E+02  0.7546771E-02  0.1308127E+00
          1   -1    0    0  505    0 -0.00000000000E+00  0.00000000000E+00  0.19106213385E+04  0.19106213385E+04  0.00000000000E+00 0.  1.
         21   -1    0    0  501  502  0.00000000000E+00 -0.00000000000E+00 -0.15754531596E+03  0.15754531596E+03  0.00000000000E+00 0.  1.
         21    1    1    2  503  504 -0.53076871178E+02  0.45403032506E+02  0.69514417694E+02  0.98543614111E+02  0.00000000000E+00 0. -1.
         21    1    1    2  504  502  0.43658989715E+02 -0.40281861907E+02 -0.10497103982E+03  0.12061366002E+03  0.00000000000E+00 0.  1.
         21    1    1    2  505  503 -0.78671193466E+02 -0.52534612308E+00  0.23970185562E+02  0.82243555771E+02  0.00000000000E+00 0.  1.
          1    1    1    2  501    0  0.88089074929E+02 -0.45958244757E+01  0.17645624591E+04  0.17667658245E+04  0.00000000000E+00 0.  1.
<scales pt_clust_3="50.59960" pt_clust_4="59.40316" pt_clust_5="14000.00000" pt_clust_6="87.85666"></scales>
<clustering>
<clus scale="   59.403">  2  4  1 -1</clus>
<clus scale="   50.600">  2  3  1 -1</clus>
<clus scale="   87.857">  1  6  2 -1</clus>
<clus scale="   59.403">  2  3  1 -1</clus>
</clustering>
</event>
<event>
 6    0  0.1993420E+002  0.1380290E+03  0.7546771E-02  0.1216006E+00
         -1   -1    0    0    0  501 -0.00000000000E+00  0.00000000000E+00  0.25814547104E+03  0.25814547104E+03  0.00000000000E+00 0.  1.
         21   -1    0    0  503  502  0.00000000000E+00 -0.00000000000E+00 -0.10872919319E+04  0.10872919319E+04  0.00000000000E+00 0. -1.
         21    1    1    2  503  501 -0.54233525994E+02 -0.19434057196E+02 -0.91720192192E+02  0.10831228728E+03  0.00000000000E+00 0.  1.
         21    1    1    2  504  505  0.13278460325E+03 -0.70761247156E+02 -0.25871255850E+03  0.29928430110E+03  0.00000000000E+00 0.  1.
         21    1    1    2  505  502 -0.11081285095E+03  0.75934098230E+02 -0.70050149542E+03  0.71326560291E+03  0.00000000000E+00 0. -1.
         -1    1    1    2    0  504  0.32261773686E+02  0.14261206122E+02  0.22178778520E+03  0.22457521169E+03  0.00000000000E+00 0.  1.
<scales pt_clust_3="49.26642" pt_clust_4="14000.00000" pt_clust_5="138.02899" pt_clust_6="35.27328"></scales>
<clustering>
<clus scale="   35.273">  1  6  2 -1</clus>
<clus scale="   49.266">  1  3  2 -1</clus>
<clus scale="  138.029">  2  5  1 -1</clus>
<clus scale="  138.029">  2  3  1 -1</clus>
</clustering>
</event>
<event>
 6    0  0.1993420E+002  0.1158164E+03  0.7546771E-02  0.1250163E+00
         -2   -1    0    0    0  501 -0.00000000000E+00  0.00000000000E+00  0.83390985195E+03  0.83390985195E+03  0.00000000000E+00 0. -1.
         21   -1    0    0  501  502  0.00000000000E+00 -0.00000000000E+00 -0.53251208934E+03  0.53251208934E+03  0.00000000000E+00 0.  1.
         21    1    1    2  503  505 -0.13835531920E+02 -0.11693756347E+03 -0.19017430503E+03  0.22367852375E+03  0.00000000000E+00 0.  1.
         21    1    1    2  504  502 -0.40104935570E+02  0.51163517449E+02 -0.22305621246E+03  0.23233636240E+03  0.00000000000E+00 0.  1.
         21    1    1    2  505  504  0.11736790138E+01  0.45791860640E+02 -0.91489946732E+02  0.10231657919E+03  0.00000000000E+00 0. -1.
         -2    1    1    2    0  503  0.52766788476E+02  0.19982185385E+02  0.80611822683E+03  0.80809047596E+03  0.00000000000E+00 0. -1.
<scales pt_clust_3="106.18907" pt_clust_4="38.80741" pt_clust_5="38.80741" pt_clust_6="56.42359"></scales>
<clustering>
<clus scale="   38.807">  4  5 -1 -1</clus>
<clus scale="   56.424">  1  6  2 -1</clus>
<clus scale="  106.189">  1  3  2 -1</clus>
<clus scale="  115.816">  2  3  1 -1</clus>
</clustering>
</event>
<event>
 6    0  0.1993420E+002  0.5240496E+03  0.7546771E-02  0.1007685E+00
          1   -1    0    0  504    0 -0.00000000000E+00  0.00000000000E+00  0.33844418896E+03  0.33844418896E+03  0.00000000000E+00 0. -1.
         21   -1    0    0  501  502  0.00000000000E+00 -0.00000000000E+00 -0.92377449579E+03  0.92377449579E+03  0.00000000000E+00 0. -1.
         21    1    1    2  503  505  0.14187643732E+03 -0.13746546256E+02 -0.29457982654E+02  0.14555295855E+03  0.00000000000E+00 0. -1.
         21    1    1    2  504  503  0.32628649233E+03 -0.48195701421E+02 -0.43046665255E+03  0.54229810960E+03  0.00000000000E+00 0. -1.
         21    1    1    2  505  502  0.14532341368E+02 -0.37308591682E+02 -0.67098553337E+02  0.78136648373E+02  0.00000000000E+00 0.  1.
          1    1    1    2  501    0 -0.48269527103E+03  0.99250839359E+02 -0.58307118291E+02  0.49623096823E+03  0.00000000000E+00 0. -1.
<scales pt_clust_3="127.72359" pt_clust_4="127.72359" pt_clust_5="40.03898" pt_clust_6="485.83221"></scales>
<clustering>
<clus scale="   40.039">  2  5  1 -1</clus>
<clus scale="  127.724">  3  4 -1 -1</clus>
<clus scale="  485.832">  1  6  2 -1</clus>
<clus scale="   40.039">  2  3  1 -1</clus>
</clustering>
</event>
<event>
 6    0  0.1993420E+002  0.1493690E+03  0.7546771E-02  0.1201251E+00
         21   -1    0    0  505  502  0.00000000000E+00  0.00000000000E+00  0.14015093674E+03  0.14015093674E+03  0.00000000000E+00 0.  1.
          2   -1    0    0  503    0 -0.00000000000E+00 -0.00000000000E+00 -0.19587944411E+04  0.19587944411E+04  0.00000000000E+00 0.  1.
         21    1    1    2  503  504  0.83737591527E+02  0.39876181919E+02 -0.21881476967E+03  0.23765941501E+03  0.00000000000E+00 0.  1.
         21    1    1    2  504  502  0.40938625002E+02 -0.33299216102E+00 -0.46268739289E+02  0.61780888115E+02  0.00000000000E+00 0.  1.
         21    1    1    2  505  501 -0.14368903501E+03  0.16877622620E+02  0.79688610994E+02  0.16517163089E+03  0.00000000000E+00 0.  1.
          2    1    1    2  501    0  0.19012818483E+02 -0.56420812378E+02 -0.16332486064E+04  0.16343334438E+04  0.00000000000E+00 0.  1.
<scales pt_clust_3="31.77564" pt_clust_4="31.77564" pt_clust_5="141.50505" pt_clust_6="59.53818"></scales>
<clustering>
<clus scale="   31.776">  3  4 -1 -1</clus>
<clus scale="   59.538">  2  6  1 -1</clus>
<clus scale="  141.505">  1  5  2 -1</clus>
<clus scale="  141.505">  1  3  2 -1</clus>
</clustering>
</event>
<event>
 6    0  0.1993420E+002  0.1240246E+03  0.7546771E-02  0.1236602E+00
          1   -1    0    0  505    0 -0.00000000000E+00  0.00000000000E+00  0.12440421217E+04  0.12440421217E+04  0.00000000000E+00 0.  1.
         21   -1    0    0  501  502  0.00000000000E+00 -0.00000000000E+00 -0.58216318110E+02  0.58216318110E+02  0.00000000000E+00 0.  1.
         21    1    1    2  503  504  0.23951070609E+02  0.72865414228E+02  0.15276123695E+02  0.78207303553E+02  0.00000000000E+00 0.  1.
         21    1    1    2  504  502  0.40462086998E+02  0.28208792411E+02  0.91489982107E+01  0.50165930887E+02  0.00000000000E+00 0.  1.
         21    1    1    2  505  503  0.48419661603E+01 -0.40793473500E+02  0.94520483783E+02  0.10306150577E+03  0.00000000000E+00 0.  1.
          1    1    1    2  501    0 -0.69255123767E+02 -0.60280733139E+02  0.10668801979E+04  0.10708236996E+04  0.00000000000E+00 0.  1.
<scales pt_clust_3="31.24459" pt_clust_4="31.24459" pt_clust_5="41.07983" pt_clust_6="117.74575"></scales>
<clustering>
<clus scale="   31.245">  3  4 -1 -1</clus>
<clus scale="   41.080">  1  5  2 -1</clus>
<clus scale="  117.746">  1  6  2 -1</clus>
<clus scale="  124.025">  2  3  1 -1</clus>
</clustering>
</event>
<event>
 6    0  0.1993420E+002  0.2071477E+03  0.7546771E-02  0.1143845E+00
         21   -1    0    0  504  502  0.00000000000E+00  0.00000000000E+00  0.45194934779E+02  0.45194934779E+02  0.00000000000E+00 0.  1.
          1   -1    0    0  503    0 -0.00000000000E+00 -0.00000000000E+00 -0.37584592039E+04  0.37584592039E+04  0.00000000000E+00 0. -1.
         21    1    1    2  503  502 -0.97333217153E+02  0.86651191614E+02 -0.77994941780E+03  0.79076120194E+03  0.00000000000E+00 0. -1.
         21    1    1    2  504  505 -0.23421650124E+02  0.70589461387E+02 -0.65435656158E+02  0.99061954606E+02  0.00000000000E+00 0.  1.
         21    1    1    2  505  501 -0.68822676212E+01  0.11462597753E+03 -0.21268922039E+03  0.24170888441E+03  0.00000000000E+00 0.  1.
          1    1    1    2  501    0  0.12763713490E+03 -0.27186663053E+03 -0.26551899748E+04  0.26721220977E+04  0.00000000000E+00 0. -1.
<scales pt_clust_3="130.31571" pt_clust_4="47.93839" pt_clust_5="47.93839" pt_clust_6="198.39839"></scales>
<clustering>
<clus scale="   47.938">  4  5 -1 -1</clus>
<clus scale="  130.316">  2  3  1 -1</clus>
<clus scale="  198.398">  2  6  1 -1</clus>
<clus scale="  207.148">  1  3  2 -1</clus>
</clustering>
</event>
<event>
 6    0  0.1993420E+002  0.8683910E+02  0.7546771E-02  0.1310692E+00
          2   -1    0    0  504    0 -0.00000000000E+00  0.00000000000E+00  0.39548489720E+03  0.39548489720E+03  0.00000000000E+00 0. -1.
         21   -1    0    0  503  502  0.00000000000E+00 -0.00000000000E+00 -0.17386557161E+04  0.17386557161E+04  0.00000000000E+00 0. -1.
         21    1    1    2  503  501  0.15733714566E+03 -0.28329604910E+02 -0.11771687633E+04  0.11879746804E+04  0.00000000000E+00 0. -1.
         21    1    1    2  504  505 -0.40119266466E+02  0.33256169696E+02 -0.69704025750E+02  0.87029762555E+02  0.00000000000E+00 0. -1.
         21    1    1    2  505  502 -0.32161578645E+02 -0.20857683631E+02 -0.47202187398E+03  0.47357582246E+03  0.00000000000E+00 0.  1.
          2    1    1    2  501    0 -0.85056300552E+02  0.15931118845E+02  0.37572384414E+03  0.38556034789E+03  0.00000000000E+00 0. -1.
<scales pt_clust_3="86.83910" pt_clust_4="52.86809" pt_clust_5="38.33289" pt_clust_6="14000.00000"></scales>
<clustering>
<clus scale="   38.333">  2  5  1 -1</clus>
<clus scale="   52.868">  2  4  1 -1</clus>
<clus scale="   86.839">  2  3  1 -1</clus>
<clus scale="   38.333">  2  3  1 -1</clus>
</clustering>
</event>
<event>
 6    0  0.1993420E+002  0.1106894E+03  0.7546771E-02  0.1259298E+00
         21   -1    0    0  505  502  0.00000000000E+00  0.00000000000E+00  0.42913805891E+03  0.42913805891E+03  0.00000000000E+00 0. -1.
          1   -1    0    0  504    0 -0.00000000000E+00 -0.00000000000E+00 -0.14759285842E+04  0.14759285842E+04  0.00000000000E+00 0.  1.
         21    1    1    2  503  502  0.26890065094E+02  0.21432566172E+02  0.21117281527E+03  0.21395417360E+03  0.00000000000E+00 0. -1.
         21    1    1    2  504  503  0.22999638442E+02  0.65915008995E+02  0.59022585195E+02  0.91419020681E+02  0.00000000000E+00 0. -1.
         21    1    1    2  505  501 -0.42810733753E+02  0.24360930418E+02  0.13484208311E+03  0.14355696163E+03  0.00000000000E+00 0. -1.
          1    1    1    2  501    0 -0.70789697817E+01 -0.11170850558E+03 -0.14518280089E+04  0.14561364872E+04  0.00000000000E+00 0.  1.
<scales pt_clust_3="34.38649" pt_clust_4="14000.00000" pt_clust_5="45.89160" pt_clust_6="110.68944"></scales>
<clustering>
<clus scale="   34.386">  1  3  2 -1</clus>
<clus scale="   45.892">  1  5  2 -1</clus>
<clus scale="  110.689">  2  6  1 -1</clus>
<clus scale="   34.386">  1  3  2 -1</clus>
</clustering>
</event>
<event>
 6    0  0.1993420E+002  0.1150965E+03  0.7546771E-02  0.1251413E+00
         21   -1    0    0  504  502  0.00000000000E+00  0.00000000000E+00  0.52607410095E+03  0.52607410095E+03  0.00000000000E+00 0. -1.
          1   -1    0    0  505    0 -0.00000000000E+00 -0.00000000000E+00 -0.23870927209E+03  0.23870927209E+03  0.00000000000E+00 0.  1.
         21    1    1    2  503  502  0.18968552113E+00 -0.62591478228E+02  0.34676183963E+03  0.35236558082E+03  0.00000000000E+00 0. -1.
         21    1    1    2  504  501  0.38158340051E+02  0.44006665084E+01  0.41096172287E+02  0.56252290245E+02  0.00000000000E+00 0. -1.
         21    1    1    2  505  503 -0.15300608833E+02 -0.43823174950E+02  0.11095139654E+03  0.12026966238E+03  0.00000000000E+00 0. -1.
          1    1    1    2  501    0 -0.23047416739E+02  0.10201398667E+03 -0.21144457960E+03  0.23589583959E+03  0.00000000000E+00 0.  1.
<scales pt_clust_3="39.13775" pt_clust_4="38.41126" pt_clust_5="39.13775" pt_clust_6="104.48423"></scales>
<clustering>
<clus scale="   38.411">  1  4  2 -1</clus>
<clus scale="   39.138">  3  5 -1 -1</clus>
<clus scale="  104.484">  2  6  1 -1</clus>
<clus scale="   38.411">  1  3  2 -1</clus>
</clustering>
</event>
<event>
 6    0  0.1993420E+002  0.1887042E+03  0.7546771E-02  0.1159635E+00
         21   -1    0    0  501  502  0.00000000000E+00  0.00000000000E+00  0.90469218453E+03  0.90469218453E+03  0.00000000000E+00 0. -1.
         -3   -1    0    0    0  501 -0.00000000000E+00 -0.00000000000E+00 -0.54586152811E+03  0.54586152811E+03  0.00000000000E+00 0.  1.
         21    1    1    2  503  505  0.21428580858E+03 -0.14951299832E+00 -0.10516905922E+02  0.21454378439E+03  0.00000000000E+00 0.  1.
         21    1    1    2  504  502 -0.10606947814E+03 -0.23715794803E+02  0.48483803431E+03  0.49687130388E+03  0.00000000000E+00 0. -1.
         21    1    1    2  505  504 -0.71815581357E+02  0.26979041464E+02  0.30630400256E+03  0.31576492584E+03  0.00000000000E+00 0. -1.
         -3    1    1    2    0  503 -0.36400749082E+02 -0.31137336627E+01 -0.42179447452E+03  0.42337369853E+03  0.00000000000E+00 0.  1.
<scales pt_clust_3="181.08313" pt_clust_4="44.60594" pt_clust_5="44.60594" pt_clust_6="36.53368"></scales>
<clustering>
<clus scale="   36.534">  2  6  1 -1</clus>
<clus scale="   44.606">  4  5 -1 -1</clus>
<clus scale="  181.083">  2  3  1 -1</clus>
<clus scale="  188.704">  1  3  2 -1</clus>
</clustering>
</event>
<event>
 6    0  0.1993420E+002  0.1625277E+03  0.7546771E-02  0.1185872E+00
          2   -1    0    0  504    0 -0.00000000000E+00  0.00000000000E+00  0.68129101811E+03  0.68129101811E+03  0.00000000000E+00 0.  1.
         21   -1    0    0  503  502  0.00000000000E+00 -0.00000000000E+00 -0.97543352106E+02  0.97543352106E+02  0.00000000000E+00 0. -1.
         21    1    1    2  503  505 -0.92935051560E+02  0.10549727070E+03  0.11286224557E+03  0.18029000086E+03  0.00000000000E+00 0. -1.
         21    1    1    2  504  502  0.48956528753E+02 -0.23828071281E+00 -0.15265548553E+02  0.51281921355E+02  0.00000000000E+00 0. -1.
         21    1    1    2  505  501 -0.26191475024E+02  0.20193534743E+02 -0.68148914916E+01  0.33767069097E+02  0.00000000000E+00 0. -1.
          2    1    1    2  501    0  0.70169997831E+02 -0.12545252474E+03  0.49296586049E+03  0.51349537891E+03  0.00000000000E+00 0.  1.
<scales pt_clust_3="32.84144" pt_clust_4="48.95711" pt_clust_5="32.84144" pt_clust_6="147.75039"></scales>
<clustering>
<clus scale="   32.841">  3  5 -1 -1</clus>
<clus scale="   48.957">  2  4  1 -1</clus>
<clus scale="  147.750">  1  6  2 -1</clus>
<clus scale="   48.957">  2  3  1 -1</clus>
</clustering>
</event>
<event>
 6    0  0.1993420E+002  0.1178830E+03  0.7546771E-02  0.1246631E+00
         21   -1    0    0  505  502  0.00000000000E+00  0.00000000000E+00  0.43874232937E+02  0.43874232937E+02  0.00000000000E+00 0. -1.
          1   -1    0    0  503    0 -0.00000000000E+00 -0.00000000000E+00 -0.15566654343E+04  0.15566654343E+04  0.00000000000E+00 0.  1.
         21    1    1    2  503  502  0.81025384414E+02 -0.13436825512E+03 -0.19705117843E+03  0.25189106341E+03  0.00000000000E+00 0. -1.
         21    1    1    2  504  501  0.19381071058E+02  0.35818452615E+02 -0.11459212844E+03  0.12161391106E+03  0.00000000000E+00 0. -1.
         21    1    1    2  505  504  0.61391337177E+01  0.51678395716E+02 -0.57798149020E+02  0.77775134694E+02  0.00000000000E+00 0. -1.
          1    1    1    2  501    0 -0.10654558919E+03  0.46871406793E+02 -0.11433497454E+04  0.11492595580E+04  0.00000000000E+00 0.  1.
<scales pt_clust_3="14000.00000" pt_clust_4="36.80082" pt_clust_5="100.18774" pt_clust_6="117.88299"></scales>
<clustering>
<clus scale="   36.801">  4  5 -1 -1</clus>
<clus scale="  100.188">  1  4  2 -1</clus>
<clus scale="  117.883">  2  6  1 -1</clus>
<clus scale="  100.188">  1  3  2 -1</clus>
</clustering>
</event>
<event>
 6    0  0.1993420E+002  0.2233740E+03  0.7546771E-02  0.1131392E+00
          2   -1    0    0  505    0 -0.00000000000E+00  0.00000000000E+00  0.12713895841E+04  0.12713895841E+04  0.00000000000E+00 0. -1.
         21   -1    0    0  503  502  0.00000000000E+00 -0.00000000000E+00 -0.11507834524E+04  0.11507834524E+04  0.00000000000E+00 0.  1.
         21    1    1    2  503  501 -0.35639071887E+02  0.22645721758E+02 -0.20578982391E+03  0.21007718530E+03  0.00000000000E+00 0.  1.
         21    1    1    2  504  502 -0.18210373794E+02 -0.55998091324E+02 -0.17751326462E+03  0.18702503325E+03  0.00000000000E+00 0.  1.
         21    1    1    2  505  504 -0.11390133132E+03 -0.97547400894E+02 -0.74409566309E+03  0.75905689150E+03  0.00000000000E+00 0.  1.
          2    1    1    2  501    0  0.16775077700E+03  0.13089977046E+03  0.12480048834E+04  0.12660139265E+04  0.00000000000E+00 0. -1.
<scales pt_clust_3="42.22525" pt_clust_4="40.58730" pt_clust_5="40.58730" pt_clust_6="212.64445"></scales>
<clustering>
<clus scale="   42.225">  2  3  1 -1</clus>
<clus scale="   40.587">  4  5 -1 -1</clus>
<clus scale="  212.644">  1  6  2 -1</clus>
<clus scale="   42.225">  2  3  1 -1</clus>
</clustering>
</event>
<event>
 6    0  0.1993420E+002  0.1264603E+03  0.7546771E-02  0.1232805E+00
          1   -1    0    0  504    0 -0.00000000000E+00  0.00000000000E+00  0.13203460356E+04  0.13203460356E+04  0.00000000000E+00 0.  1.
         21   -1    0    0  503  502  0.00000000000E+00 -0.00000000000E+00 -0.13861126288E+03  0.13861126288E+03  0.00000000000E+00 0. -1.
         21    1    1    2  503  505  0.35289407555E+02 -0.45541043461E+02  0.35214211787E+02  0.67523104467E+02  0.00000000000E+00 0.  1.
         21    1    1    2  504  502 -0.39299740630E+02  0.31602914019E+02  0.22273489597E+02  0.55130047405E+02  0.00000000000E+00 0. -1.
         21    1    1    2  505  501 -0.62451273728E+02 -0.94169071849E+02 -0.71581717143E+02  0.13376067401E+03  0.00000000000E+00 0. -1.
          1    1    1    2  501    0  0.66461606802E+02  0.10810720129E+03  0.11958287885E+04  0.12025434726E+04  0.00000000000E+00 0.  1.
<scales pt_clust_3="51.15155" pt_clust_4="50.43029" pt_clust_5="126.46034" pt_clust_6="14000.00000"></scales>
<clustering>
<clus scale="   50.430">  2  4  1 -1</clus>
<clus scale="   51.152">  2  3  1 -1</clus>
<clus scale="  126.460">  2  5  1 -1</clus>
<clus scale="   50.430">  2  3  1 -1</clus>
</clustering>
</event>
<event>
 6    0  0.1993420E+002  0.1911383E+03  0.7546771E-02  0.1157439E+00
          2   -1    0    0  503    0 -0.00000000000E+00  0.00000000000E+00  0.10074321468E+04  0.10074321468E+04  0.00000000000E+00 0. -1.
         21   -1    0    0  505  502  0.00000000000E+00 -0.00000000000E+00 -0.53303826416E+03  0.53303826416E+03  0.00000000000E+00 0. -1.
         21    1    1    2  503  504  0.13327715111E+02 -0.47900835357E+02 -0.19846780401E+02  0.53535153967E+02  0.00000000000E+00 0. -1.
         21    1    1    2  504  502  0.91786016246E+01 -0.46498607208E+02 -0.16624463214E+03  0.17286886624E+03  0.00000000000E+00 0. -1.
         21    1    1    2  505  501  0.11796074580E+03 -0.38712768595E+02 -0.30504083788E+03  0.32933771235E+03  0.00000000000E+00 0. -1.
          2    1    1    2  501    0 -0.14046706253E+03  0.13311221116E+03  0.96552613310E+03  0.98472867843E+03  0.00000000000E+00 0. -1.
<scales pt_clust_3="54.49193" pt_clust_4="47.39586" pt_clust_5="14000.00000" pt_clust_6="191.13829"></scales>
<clustering>
<clus scale="   47.396">  2  4  1 -1</clus>
<clus scale="   54.492">  2  3  1 -1</clus>
<clus scale="  191.138">  1  6  2 -1</clus>
<clus scale="   47.396">  2  3  1 -1</clus>
</clustering>
</event>
<event>
 6    0  0.1993420E+002  0.1763167E+03  0.7546771E-02  0.1171416E+00
          1   -1    0    0  505    0 -0.00000000000E+00  0.00000000000E+00  0.26154122898E+03  0.26154122898E+03  0.00000000000E+00 0.  1.
         21   -1    0    0  501  502  0.00000000000E+00 -0.00000000000E+00 -0.14155867147E+03  0.14155867147E+03  0.00000000000E+00 0.  1.
         21    1    1    2  503  504 -0.29589215151E+02  0.22264911740E+02 -0.63270312746E+01  0.37566997122E+02  0.00000000000E+00 0. -1.
         21    1    1    2  504  502 -0.18629428339E+01  0.39625341571E+02  0.86603721873E+01  0.40603451787E+02  0.00000000000E+00 0. -1.
         21    1    1    2  505  503 -0.12716586066E+03  0.98431013519E+01  0.64404707005E+02  0.14288460045E+03  0.00000000000E+00 0.  1.
          1    1    1    2  501    0  0.15861801864E+03 -0.71733354664E+02  0.53244509595E+02  0.18204485110E+03  0.00000000000E+00 0.  1.
<scales pt_clust_3="32.26946" pt_clust_4="39.66911" pt_clust_5="32.26946" pt_clust_6="165.83397"></scales>
<clustering>
<clus scale="   32.269">  3  5 -1 -1</clus>
<clus scale="   39.669">  2  4  1 -1</clus>
<clus scale="  165.834">  2  6  1 -1</clus>
<clus scale="   39.669">  2  3  1 -1</clus>
</clustering>
</event>
<event>
 6    0  0.1993420E+002  0.8485335E+02  0.7546771E-02  0.1315816E+00
          1   -1    0    0  505    0 -0.00000000000E+00  0.00000000000E+00  0.11473555568E+04  0.11473555568E+04  0.00000000000E+00 0.  1.
         21   -1    0    0  504  502  0.00000000000E+00 -0.00000000000E+00 -0.29882841791E+03  0.29882841791E+03  0.00000000000E+00 0. -1.
         21    1    1    2  503  502 -0.23876210905E+02  0.76255257272E+02 -0.13712474251E+03  0.15870769583E+03  0.00000000000E+00 0. -1.
         21    1    1    2  504  501  0.84031878194E+02 -0.67811355442E+02 -0.91927523640E+02  0.14181116346E+03  0.00000000000E+00 0. -1.
         21    1    1    2  505  503 -0.37198913741E+02 -0.28026363450E+02 -0.17807089781E+02  0.49863099365E+02  0.00000000000E+00 0. -1.
          1    1    1    2  501    0 -0.22956753548E+02  0.19582461620E+02  0.10953864948E+04  0.10958020160E+04  0.00000000000E+00 0.  1.
<scales pt_clust_3="14000.00000" pt_clust_4="84.85335" pt_clust_5="49.45213" pt_clust_6="30.17425"></scales>
<clustering>
<clus scale="   30.174">  1  6  2 -1</clus>
<clus scale="   49.452">  1  5  2 -1</clus>
<clus scale="   84.853">  1  4  2 -1</clus>
<clus scale="   84.853">  2  3  1 -1</clus>
</clustering>
</event>
<event>
 6    0  0.1993420E+002  0.1571934E+03  0.7546771E-02  0.1191902E+00
         21   -1    0    0  503  502  0.00000000000E+00  0.00000000000E+00  0.20141805156E+02  0.20141805156E+02  0.00000000000E+00 0. -1.
         -3   -1    0    0    0  501 -0.00000000000E+00 -0.00000000000E+00 -0.22668212095E+04  0.22668212095E+04  0.00000000000E+00 0. -1.
         21    1    1    2  503  501  0.22779764992E+02 -0.39946749014E+02 -0.99650299501E+02  0.10974899836E+03  0.00000000000E+00 0. -1.
         21    1    1    2  504  502 -0.49632638533E+02 -0.52247516023E+02 -0.27025062929E+03  0.27969376891E+03  0.00000000000E+00 0. -1.
         21    1    1    2  505  504 -0.67931667749E+02 -0.33886186249E+02 -0.21009840782E+03  0.22339276190E+03  0.00000000000E+00 0. -1.
         -3    1    1    2    0  505  0.94784541291E+02  0.12608045129E+03 -0.16666800677E+04  0.16741274855E+04  0.00000000000E+00 0. -1.
<scales pt_clust_3="45.98544" pt_clust_4="32.61361" pt_clust_5="32.61361" pt_clust_6="153.58805"></scales>
<clustering>
<clus scale="   32.614">  4  5 -1 -1</clus>
<clus scale="   45.985">  1  3  2 -1</clus>
<clus scale="  153.588">  2  6  1 -1</clus>
<clus scale="   45.985">  1  3  2 -1</clus>
</clustering>
</event>
<event>
 6    0  0.1993420E+002  0.1030825E+03  0.7546771E-02  0.1273944E+00
         21   -1    0    0  504  502  0.00000000000E+00  0.00000000000E+00  0.11388270031E+04  0.11388270031E+04  0.00000000000E+00 0. -1.
          2   -1    0    0  503    0 -0.00000000000E+00 -0.00000000000E+00 -0.27040834748E+04  0.27040834748E+04  0.00000000000E+00 0. -1.
         21    1    1    2  503  505 -0.10564675296E+03  0.89699433442E+02  0.89565672327E+03  0.90631572353E+03  0.00000000000E+00 0. -1.
         21    1    1    2  504  501  0.80563947041E+02  0.49495229348E+02 -0.17982012507E+02  0.96248013304E+02  0.00000000000E+00 0. -1.
         21    1    1    2  505  502 -0.64303668080E+02 -0.87926791863E+02  0.18269175848E+03  0.21270251779E+03  0.00000000000E+00 0. -1.
          2    1    1    2  501    0  0.89386473999E+02 -0.51267870928E+02 -0.26256229410E+04  0.26276442233E+04  0.00000000000E+00 0. -1.
<scales pt_clust_3="14000.00000" pt_clust_4="94.55330" pt_clust_5="93.42171" pt_clust_6="103.08254"></scales>
<clustering>
<clus scale="   94.553">  1  4  2 -1</clus>
<clus scale="   93.422">  1  5  2 -1</clus>
<clus scale="  103.083">  2  6  1 -1</clus>
<clus scale="   94.553">  1  3  2 -1</clus>
</clustering>
</event>
<event>
 6    0  0.1993420E+002  0.1181889E+03  0.7546771E-02  0.1246115E+00
          1   -1    0    0  502    0 -0.00000000000E+00  0.00000000000E+00  0.10498193193E+04  0.10498193193E+04  0.00000000000E+00 0. -1.
         21   -1    0    0  504  502  0.00000000000E+00 -0.00000000000E+00 -0.51809581790E+02  0.51809581790E+02  0.00000000000E+00 0. -1.
         21    1    1    2  503  505  0.46794242654E+02 -0.43714435676E+02  0.19914887365E+02  0.67061581929E+02  0.00000000000E+00 0. -1.
         21    1    1    2  504  503 -0.66697355024E+01 -0.33570485117E+02  0.20985375212E+02  0.40147836996E+02  0.00000000000E+00 0.  1.
         21    1    1    2  505  501  0.89268785248E+02  0.36060565618E+02  0.16734007248E+03  0.19305952520E+03  0.00000000000E+00 0. -1.
          1    1    1    2  501    0 -0.12939329240E+03  0.41224355175E+02  0.78976940243E+03  0.80135995694E+03  0.00000000000E+00 0. -1.
<scales pt_clust_3="75.86628" pt_clust_4="34.22664" pt_clust_5="118.18891" pt_clust_6="14000.00000"></scales>
<clustering>
<clus scale="   34.227">  2  4  1 -1</clus>
<clus scale="   75.866">  2  3  1 -1</clus>
<clus scale="  118.189">  2  5  1 -1</clus>
<clus scale="   34.227">  2  3  1 -1</clus>
</clustering>
</event>
<event>
 6    0  0.1993420E+002  0.1472210E+03  0.7546771E-02  0.1203930E+00
         21   -1    0    0  505  502  0.00000000000E+00  0.00000000000E+00  0.10764499416E+03  0.10764499416E+03  0.00000000000E+00 0.  1.
          2   -1    0    0  503    0 -0.00000000000E+00 -0.00000000000E+00 -0.45167324591E+04  0.45167324591E+04  0.00000000000E+00 0.  1.
         21    1    1    2  503  502  0.11648085358E+03 -0.47869838274E+02  0.37503464018E+02  0.13139946910E+03  0.00000000000E+00 0.  1.
         21    1    1    2  504  501 -0.12009577801E+03  0.76991476960E+02 -0.43019426598E+03  0.45323039385E+03  0.00000000000E+00 0.  1.
         21    1    1    2  505  504  0.36068798905E+02  0.20839132652E+02 -0.26423776262E+02  0.49329946848E+02  0.00000000000E+00 0. -1.
          2    1    1    2  501    0 -0.32453874472E+02 -0.49960771338E+02 -0.39899728867E+04  0.39904176435E+04  0.00000000000E+00 0.  1.
<scales pt_clust_3="14000.00000" pt_clust_4="147.22104" pt_clust_5="41.65606" pt_clust_6="59.49047"></scales>
<clustering>
<clus scale="   41.656">  1  5  2 -1</clus>
<clus scale="   59.490">  2  6  1 -1</clus>
<clus scale="  147.221">  2  4  1 -1</clus>
<clus scale="   41.656">  1  3  2 -1</clus>
</clustering>
</event>
<event>
 6    0  0.1993420E+002  0.1836707E+03  0.7546771E-02  0.1164297E+00
         21   -1    0    0  503  502  0.00000000000E+00  0.00000000000E+00  0.15789602408E+04  0.15789602408E+04  0.00000000000E+00 0. -1.
          2   -1    0    0  505    0 -0.00000000000E+00 -0.00000000000E+00 -0.13539414054E+04  0.13539414054E+04  0.00000000000E+00 0. -1.
         21    1    1    2  503  504  0.25760655094E+02  0.37149936905E+02  0.26620402502E+03  0.27001539234E+03  0.00000000000E+00 0. -1.
         21    1    1    2  504  501  0.72193516571E+00  0.44103226806E+02  0.15756480217E+03  0.16362237833E+03  0.00000000000E+00 0.  1.
         21    1    1    2  505  502  0.13581254032E+02 -0.26008878566E+03  0.11291397354E+04  0.11587869385E+04  0.00000000000E+00 0. -1.
          2    1    1    2  501    0 -0.40063844291E+02  0.17883562195E+03 -0.13278897271E+04  0.13404769370E+04  0.00000000000E+00 0. -1.
<scales pt_clust_3="91.98748" pt_clust_4="33.61767" pt_clust_5="183.67066" pt_clust_6="14000.00000"></scales>
<clustering>
<clus scale="   33.618">  3  4 -1 -1</clus>
<clus scale="   91.987">  1  3  2 -1</clus>
<clus scale="  183.671">  1  5  2 -1</clus>
<clus scale="   91.987">  1  3  2 -1</clus>
</clustering>
</event>
<event>
 6    0  0.1993420E+002  0.2212142E+03  0.7546771E-02  0.1132981E+00
         21   -1    0    0  501  502  0.00000000000E+00  0.00000000000E+00  0.25724630935E+02  0.25724630935E+02  0.00000000000E+00 0.  1.
          1   -1    0    0  503    0 -0.00000000000E+00 -0.00000000000E+00 -0.26183049684E+04  0.26183049684E+04  0.00000000000E+00 0. -1.
         21    1    1    2  503  505  0.37059045110E+02  0.59679108266E+02 -0.49887613428E+03  0.50379794178E+03  0.00000000000E+00 0.  1.
         21    1    1    2  504  502 -0.55551289444E+02  0.91527472425E+02 -0.39491887025E+03  0.40917494797E+03  0.00000000000E+00 0.  1.
         21    1    1    2  505  504 -0.52148159693E+02  0.76160931318E+02 -0.57115198087E+03  0.57856244544E+03  0.00000000000E+00 0.  1.
          1    1    1    2  501    0  0.70640404028E+02 -0.22736751201E+03 -0.11276333520E+04  0.11524942641E+04  0.00000000000E+00 0. -1.
<scales pt_clust_3="70.24933" pt_clust_4="47.46897" pt_clust_5="47.46897" pt_clust_6="215.22555"></scales>
<clustering>
<clus scale="   47.469">  4  5 -1 -1</clus>
<clus scale="   70.249">  2  3  1 -1</clus>
<clus scale="  215.226">  2  6  1 -1</clus>
<clus scale="  221.214">  1  3  2 -1</clus>
</clustering>
</event>
<event>
 6    0  0.1993420E+002  0.2157783E+03  0.7546771E-02  0.1137070E+00
          2   -1    0    0  505    0 -0.00000000000E+00  0.00000000000E+00  0.13367043834E+04  0.13367043834E+04  0.00000000000E+00 0. -1.
         21   -1    0    0  504  502  0.00000000000E+00 -0.00000000000E+00 -0.61945835738E+02  0.61945835738E+02  0.00000000000E+00 0. -1.
         21    1    1    2  503  502  0.12636795471E+03  0.12674230730E+03  0.32295222339E+03  0.36922975371E+03  0.00000000000E+00 0. -1.
         21    1    1    2  504  501 -0.11003622370E+03 -0.15648896679E+03  0.24742145591E+03  0.31275252853E+03  0.00000000000E+00 0. -1.
         21    1    1    2  505  503  0.18698613733E+01  0.53911496037E+02  0.12077540153E+03  0.13227487819E+03  0.00000000000E+00 0. -1.
          2    1    1    2  501    0 -0.18201592378E+02 -0.24164836546E+02  0.58360946685E+03  0.58439305873E+03  0.00000000000E+00 0. -1.
<scales pt_clust_3="40.86142" pt_clust_4="202.55447" pt_clust_5="40.86142" pt_clust_6="30.25289"></scales>
<clustering>
<clus scale="   30.253">  1  6  2 -1</clus>
<clus scale="   40.861">  3  5 -1 -1</clus>
<clus scale="  202.554">  2  4  1 -1</clus>
<clus scale="  202.554">  2  3  1 -1</clus>
</clustering>
</event>
<event>
 6    0  0.1993420E+002  0.1945890E+03  0.7546771E-02  0.1154386E+00
         21   -1    0    0  501  502  0.00000000000E+00  0.00000000000E+00  0.26077727807E+04  0.26077727807E+04  0.00000000000E+00 0.  1.
          2   -1    0    0  503    0 -0.00000000000E+00 -0.00000000000E+00 -0.89570111767E+03  0.89570111767E+03  0.00000000000E+00 0.  1.
         21    1    1    2  503  505  0.13571161692E+03  0.31822965496E+01  0.20489519224E+03  0.24578407146E+03  0.00000000000E+00 0. -1.
         21    1    1    2  504  502 -0.48182041976E+02 -0.18831739776E+02  0.11904511433E+04  0.11915746172E+04  0.00000000000E+00 0.  1.
         21    1    1    2  505  504 -0.19915418348E+03 -0.71335058225E+01  0.11793154029E+04  0.11960343203E+04  0.00000000000E+00 0.  1.
          2    1    1    2  501    0  0.11162460854E+03  0.22782949049E+02 -0.86259007545E+03  0.87008088949E+03  0.00000000000E+00 0.  1.
<scales pt_clust_3="194.58896" pt_clust_4="51.73146" pt_clust_5="14000.00000" pt_clust_6="113.79117"></scales>
<clustering>
<clus scale="   51.731">  1  4  2 -1</clus>
<clus scale="  113.791">  2  6  1 -1</clus>
<clus scale="  194.589">  2  3  1 -1</clus>
<clus scale="   51.731">  1  3  2 -1</clus>
</clustering>
</event>
<event>
 6    0  0.1993420E+002  0.3344091E+03  0.7546771E-02  0.1069202E+00
         21   -1    0    0  503  502  0.00000000000E+00  0.00000000000E+00  0.43170324659E+03  0.43170324659E+03  0.00000000000E+00 0. -1.
          2   -1    0    0  504    0 -0.00000000000E+00 -0.00000000000E+00 -0.22503820623E+04  0.22503820623E+04  0.00000000000E+00 0. -1.
         21    1    1    2  503  505  0.19400929687E+02  0.11051609407E+03  0.15915430308E+03  0.19473134137E+03  0.00000000000E+00 0.  1.
         21    1    1    2  504  502  0.25586047547E+03 -0.22203861951E+03 -0.77613355823E+03  0.84684652192E+03  0.00000000000E+00 0. -1.
         21    1    1    2  505  501 -0.31029542431E+03  0.68102891669E+02  0.10350001708E+03  0.33411600940E+03  0.00000000000E+00 0. -1.
          2    1    1    2  501    0  0.35034019153E+02  0.43419633769E+02 -0.13051995776E+04  0.13063914362E+04  0.00000000000E+00 0. -1.
<scales pt_clust_3="113.12666" pt_clust_4="334.40907" pt_clust_5="14000.00000" pt_clust_6="55.79110"></scales>
<clustering>
<clus scale="   55.791">  2  6  1 -1</clus>
<clus scale="  113.127">  1  3  2 -1</clus>
<clus scale="  334.409">  2  4  1 -1</clus>
<clus scale="  113.127">  1  3  2 -1</clus>
</clustering>
</event>
<event>
 6    0  0.1993420E+002  0.3335866E+03  0.7546771E-02  0.1069561E+00
          1   -1    0    0  504    0 -0.00000000000E+00  0.00000000000E+00  0.11761832437E+04  0.11761832437E+04  0.00000000000E+00 0.  1.
         21   -1    0    0  503  502  0.00000000000E+00 -0.00000000000E+00 -0.47155456081E+03  0.47155456081E+03  0.00000000000E+00 0. -1.
         21    1    1    2  503  501  0.29449270787E+03 -0.82836011399E+02  0.78574571592E+03  0.84319872501E+03  0.00000000000E+00 0.  1.
         21    1    1    2  504  505 -0.23749634820E+03  0.60916790267E+02 -0.29581189237E+03  0.38421354272E+03  0.00000000000E+00 0. -1.
         21    1    1    2  505  502 -0.75075430665E+02  0.47861736092E+02 -0.82543224897E+02  0.12141025512E+03  0.00000000000E+00 0. -1.
          1    1    1    2  501    0  0.18079070996E+02 -0.25942514960E+02  0.29723808422E+03  0.29891528164E+03  0.00000000000E+00 0.  1.
<scales pt_clust_3="329.10652" pt_clust_4="32.79603" pt_clust_5="32.79603" pt_clust_6="31.62067"></scales>
<clustering>
<clus scale="   31.621">  1  6  2 -1</clus>
<clus scale="   32.796">  4  5 -1 -1</clus>
<clus scale="  329.107">  1  3  2 -1</clus>
<clus scale="  333.587">  2  3  1 -1</clus>
</clustering>
</event>
<event>
 6    0  0.3273268E+002  0.1268653E+03  0.7546771E-02  0.1232183E+00
         21   -1    0    0  504  502  0.00000000000E+00  0.00000000000E+00  0.14002246503E+03  0.14002246503E+03  0.00000000000E+00 0. -1.
          2   -1    0    0  505    0 -0.00000000000E+00 -0.00000000000E+00 -0.25662431715E+04  0.25662431715E+04  0.00000000000E+00 0. -1.
         21    1    1    2  503  502 -0.66465439025E+02 -0.93149628785E+02  0.10216876020E+03  0.15340457454E+03  0.00000000000E+00 0. -1.
         21    1    1    2  504  501  0.18959658844E+02 -0.30255391835E+02 -0.65535032848E+02  0.74630408876E+02  0.00000000000E+00 0. -1.
         21    1    1    2  505  503  0.12315270757E+02  0.11330603248E+03 -0.42410614566E+03  0.43915366977E+03  0.00000000000E+00 0. -1.
          2    1    1    2  501    0  0.35190509423E+02  0.10098988144E+02 -0.20387482882E+04  0.20390769834E+04  0.00000000000E+00 0. -1.
<scales pt_clust_3="126.86534" pt_clust_4="35.70515" pt_clust_5="14000.00000" pt_clust_6="36.62296"></scales>
<clustering>
<clus scale="   35.705">  1  4  2 -1</clus>
<clus scale="   36.623">  2  6  1 -1</clus>
<clus scale="  126.865">  1  3  2 -1</clus>
<clus scale="   35.705">  1  3  2 -1</clus>
</clustering>
</event>
<event>
 6    0  0.1993420E+002  0.8366851E+02  0.7546771E-02  0.1318952E+00
         21   -1    0    0  504  502  0.00000000000E+00  0.00000000000E+00  0.39325044032E+03  0.39325044032E+03  0.00000000000E+00 0.  1.
          2   -1    0    0  505    0 -0.00000000000E+00 -0.00000000000E+00 -0.27399892695E+04  0.27399892695E+04  0.00000000000E+00 0. -1.
         21    1    1    2  503  501 -0.41934361596E+02  0.12070731035E+03 -0.42140593289E+02  0.13455324247E+03  0.00000000000E+00 0. -1.
         21    1    1    2  504  503  0.60906348944E+02  0.70813210599E+01  0.16372081776E+03  0.17482629842E+03  0.00000000000E+00 0.  1.
         21    1    1    2  505  502  0.88036964839E+01 -0.49117797323E+02  0.17359724008E+03  0.18062686636E+03  0.00000000000E+00 0.  1.
          2    1    1    2  501    0 -0.27775683832E+02 -0.78670834091E+02 -0.26419162938E+04  0.26432333026E+04  0.00000000000E+00 0. -1.
<scales pt_clust_3="14000.00000" pt_clust_4="74.71346" pt_clust_5="49.90053" pt_clust_6="83.66851"></scales>
<clustering>
<clus scale="   49.901">  1  5  2 -1</clus>
<clus scale="   74.713">  1  4  2 -1</clus>
<clus scale="   83.669">  2  6  1 -1</clus>
<clus scale="   49.901">  1  3  2 -1</clus>
</clustering>
</event>
<event>
 6    0  0.1993420E+002  0.1030589E+03  0.7546771E-02  0.1273992E+00
         21   -1    0    0  504  502  0.00000000000E+00  0.00000000000E+00  0.23053649416E+03  0.23053649416E+03  0.00000000000E+00 0. -1.
          1   -1    0    0  505    0 -0.00000000000E+00 -0.00000000000E+00 -0.25850147829E+03  0.25850147829E+03  0.00000000000E+00 0. -1.
         21    1    1    2  503  502 -0.42010803615E+02 -0.56769570103E+02  0.37057625211E+02  0.79755622349E+02  0.00000000000E+00 0. -1.
         21    1    1    2  504  501  0.57628017680E+02  0.64759264757E+02  0.11829671321E+03  0.14665900296E+03  0.00000000000E+00 0. -1.
         21    1    1    2  505  503 -0.26529932363E+01 -0.58338929450E+02  0.12752550562E+02  0.59775384636E+02  0.00000000000E+00 0. -1.
          1    1    1    2  501    0 -0.12964220829E+02  0.50349234796E+02 -0.19607187312E+03  0.20284796251E+03  0.00000000000E+00 0. -1.
<scales pt_clust_3="37.96476" pt_clust_4="94.22375" pt_clust_5="37.96476" pt_clust_6="51.99150"></scales>
<clustering>
<clus scale="   37.965">  3  5 -1 -1</clus>
<clus scale="   51.992">  2  6  1 -1</clus>
<clus scale="   94.224">  1  4  2 -1</clus>
<clus scale="   94.224">  1  3  2 -1</clus>
</clustering>
</event>
<event>
 6    0  0.1993420E+002  0.1632237E+03  0.7546771E-02  0.1185105E+00
          1   -1    0    0  505    0 -0.00000000000E+00  0.00000000000E+00  0.19207313847E+04  0.19207313847E+04  0.00000000000E+00 0. -1.
         21   -1    0    0  503  502  0.00000000000E+00 -0.00000000000E+00 -0.12436133803E+03  0.12436133803E+03  0.00000000000E+00 0.  1.
         21    1    1    2  503  501 -0.17987446264E+02  0.33384014591E+02  0.35543334758E+02  0.51974698643E+02  0.00000000000E+00 0.  1.
         21    1    1    2  504  502 -0.49871413165E+02 -0.41352513132E+02  0.43185881077E+02  0.77860185703E+02  0.00000000000E+00 0.  1.
         21    1    1    2  505  504 -0.95357101828E+02  0.36923905893E+02 -0.67442662757E+02  0.12249434459E+03  0.00000000000E+00 0.  1.
          1    1    1    2  501    0  0.16321596126E+03 -0.28955407352E+02  0.17850834936E+04  0.17927634938E+04  0.00000000000E+00 0. -1.
<scales pt_clust_3="37.92151" pt_clust_4="63.91322" pt_clust_5="163.22372" pt_clust_6="14000.00000"></scales>
<clustering>
<clus scale="   37.922">  2  3  1 -1</clus>
<clus scale="   63.913">  2  4  1 -1</clus>
<clus scale="  163.224">  2  5  1 -1</clus>
<clus scale="   37.922">  2  3  1 -1</clus>
</clustering>
</event>
<event>
 6    0  0.1993420E+002  0.1517398E+03  0.7546771E-02  0.1198351E+00
         21   -1    0    0  504  502  0.00000000000E+00  0.00000000000E+00  0.24840746841E+03  0.24840746841E+03  0.00000000000E+00 0.  1.
         -3   -1    0    0    0  501 -0.00000000000E+00 -0.00000000000E+00 -0.10027472912E+04  0.10027472912E+04  0.00000000000E+00 0. -1.
         21    1    1    2  503  502 -0.85837997659E+02 -0.13574110317E+03  0.52895661783E+02  0.16909098133E+03  0.00000000000E+00 0.  1.
         21    1    1    2  504  505  0.98098998360E+02  0.22174822084E+02  0.84307403636E+02  0.13123594981E+03  0.00000000000E+00 0.  1.
         21    1    1    2  505  501  0.41168490136E+02  0.22999585933E+02  0.56493017244E+01  0.47494632782E+02  0.00000000000E+00 0.  1.
         -3    1    1    2    0  503 -0.53429490837E+02  0.90566695148E+02 -0.89719218991E+03  0.90333319567E+03  0.00000000000E+00 0. -1.
<scales pt_clust_3="143.55734" pt_clust_4="33.65917" pt_clust_5="33.65917" pt_clust_6="105.15245"></scales>
<clustering>
<clus scale="   33.659">  4  5 -1 -1</clus>
<clus scale="  105.152">  2  6  1 -1</clus>
<clus scale="  143.557">  2  3  1 -1</clus>
<clus scale="  151.740">  1  3  2 -1</clus>
</clustering>
</event>
<event>
 6    0  0.1993420E+002  0.9710397E+02  0.7546771E-02  0.1286507E+00
          2   -1    0    0  505    0 -0.00000000000E+00  0.00000000000E+00  0.22649374184E+04  0.22649374184E+04  0.00000000000E+00 0. -1.
         21   -1    0    0  503  502  0.00000000000E+00 -0.00000000000E+00 -0.25489740634E+03  0.25489740634E+03  0.00000000000E+00 0.  1.
         21    1    1    2  503  501 -0.42358794774E+02 -0.83673812146E+02 -0.11125342200E+03  0.14550910020E+03  0.00000000000E+00 0.  1.
         21    1    1    2  504  502  0.36276649402E+02 -0.55515979706E+02 -0.39501458741E+02  0.77190572852E+02  0.00000000000E+00 0.  1.
         21    1    1    2  505  504 -0.48139500906E+02  0.58593839503E+02 -0.45676380697E+02  0.88526726636E+02  0.00000000000E+00 0.  1.
          2    1    1    2  501    0  0.54221646279E+02  0.80595952349E+02  0.22064712735E+04  0.22086084250E+04  0.00000000000E+00 0. -1.
<scales pt_clust_3="97.10397" pt_clust_4="66.31756" pt_clust_5="53.38369" pt_clust_6="14000.00000"></scales>
<clustering>
<clus scale="   66.318">  2  4  1 -1</clus>
<clus scale="   53.384">  2  5  1 -1</clus>
<clus scale="   97.104">  2  3  1 -1</clus>
<clus scale="   66.318">  2  3  1 -1</clus>
</clustering>
</event>
<event>
 6    0  0.1993420E+002  0.4302874E+03  0.7546771E-02  0.1033769E+00
         21   -1    0    0  501  502  0.00000000000E+00  0.00000000000E+00  0.10079190039E+03  0.10079190039E+03  0.00000000000E+00 0.  1.
          2   -1    0    0  505    0 -0.00000000000E+00 -0.00000000000E+00 -0.40000311616E+04  0.40000311616E+04  0.00000000000E+00 0.  1.
         21    1    1    2  503  502 -0.24996081317E+02  0.13497273964E+03 -0.89679664250E+02  0.16396611451E+03  0.00000000000E+00 0.  1.
         21    1    1    2  504  503 -0.93584531817E+02  0.14511728094E+03 -0.18361242059E+03  0.25205279371E+03  0.00000000000E+00 0.  1.
         21    1    1    2  505  504 -0.44163571499E+02  0.10126050424E+03 -0.16170896755E+03  0.19584151999E+03  0.00000000000E+00 0. -1.
          2    1    1    2  501    0  0.16274418463E+03 -0.38135052483E+03 -0.34642382088E+04  0.34889626338E+04  0.00000000000E+00 0.  1.
<scales pt_clust_3="71.23416" pt_clust_4="71.23416" pt_clust_5="32.84176" pt_clust_6="414.62500"></scales>
<clustering>
<clus scale="   32.842">  4  5 -1 -1</clus>
<clus scale="   71.234">  3  4 -1 -1</clus>
<clus scale="  414.625">  2  6  1 -1</clus>
<clus scale="  430.287">  1  3  2 -1</clus>
</clustering>
</event>
<event>
 6    0  0.1993420E+002  0.2341327E+03  0.7546771E-02  0.1123764E+00
          2   -1    0    0  504    0 -0.00000000000E+00  0.00000000000E+00  0.47288626032E+04  0.47288626032E+04  0.00000000000E+00 0.  1.
         21   -1    0    0  503  502  0.00000000000E+00 -0.00000000000E+00 -0.10260788501E+04  0.10260788501E+04  0.00000000000E+00 0. -1.
         21    1    1    2  503  505 -0.85245906479E+02  0.15977326072E+02 -0.35680647666E+03  0.36719613465E+03  0.00000000000E+00 0.  1.
         21    1    1    2  504  502  0.24299533951E+02 -0.17844891838E+03 -0.49502365062E+02  0.18677518028E+03  0.00000000000E+00 0. -1.
         21    1    1    2  505  501  0.59653009621E+02  0.25331856257E+03 -0.51445226901E+03  0.57653266411E+03  0.00000000000E+00 0. -1.
          2    1    1    2  501    0  0.12933629071E+01 -0.90846970265E+02  0.46235448639E+04  0.46244374742E+04  0.00000000000E+00 0.  1.
<scales pt_clust_3="86.73027" pt_clust_4="234.13273" pt_clust_5="14000.00000" pt_clust_6="90.84464"></scales>
<clustering>
<clus scale="   86.730">  2  3  1 -1</clus>
<clus scale="   90.845">  1  6  2 -1</clus>
<clus scale="  234.133">  1  4  2 -1</clus>
<clus scale="   86.730">  2  3  1 -1</clus>
</clustering>
</event>
<event>
 6    0  0.1993420E+002  0.1234201E+03  0.7546771E-02  0.1237559E+00
         21   -1    0    0  504  502  0.00000000000E+00  0.00000000000E+00  0.50322783282E+02  0.50322783282E+02  0.00000000000E+00 0.  1.
          1   -1    0    0  502    0 -0.00000000000E+00 -0.00000000000E+00 -0.14308927776E+04  0.14308927776E+04  0.00000000000E+00 0.  1.
         21    1    1    2  503  501 -0.85100437471E+01 -0.14413156904E+03 -0.38510424920E+03  0.41128045516E+03  0.00000000000E+00 0.  1.
         21    1    1    2  504  505 -0.52595414234E+01  0.50721409862E+02 -0.46372138499E+02  0.68925317724E+02  0.00000000000E+00 0.  1.
         21    1    1    2  505  503 -0.34535982952E+02  0.53196641614E+02 -0.15484007716E+02  0.65286838585E+02  0.00000000000E+00 0.  1.
          1    1    1    2  501    0  0.48305568122E+02  0.40213517566E+02 -0.93360959890E+03  0.93572294942E+03  0.00000000000E+00 0.  1.
<scales pt_clust_3="115.88117" pt_clust_4="38.08527" pt_clust_5="38.08527" pt_clust_6="62.85344"></scales>
<clustering>
<clus scale="   38.085">  4  5 -1 -1</clus>
<clus scale="   62.853">  2  6  1 -1</clus>
<clus scale="  115.881">  2  3  1 -1</clus>
<clus scale="  123.420">  1  3  2 -1</clus>
</clustering>
</event>
<event>
 6    0  0.2435347E+002  0.9888008E+02  0.7546771E-02  0.1282669E+00
          2   -1    0    0  505    0 -0.00000000000E+00  0.00000000000E+00  0.22416771169E+04  0.22416771169E+04  0.00000000000E+00 0. -1.
         21   -1    0    0  504  502  0.00000000000E+00 -0.00000000000E+00 -0.25758068977E+03  0.25758068977E+03  0.00000000000E+00 0. -1.
         21    1    1    2  503  502  0.66155088722E+02 -0.90146623629E+02 -0.16882673246E+03  0.20249783976E+03  0.00000000000E+00 0. -1.
         21    1    1    2  504  501 -0.48109955587E+02  0.51433590237E+02  0.54946557781E+02  0.89325843087E+02  0.00000000000E+00 0.  1.
         21    1    1    2  505  503 -0.15296784156E+00 -0.44660369015E+02 -0.44626104885E+02  0.63135261122E+02  0.00000000000E+00 0. -1.
          2    1    1    2  501    0 -0.17892165293E+02  0.83373402407E+02  0.21426027067E+04  0.21442988627E+04  0.00000000000E+00 0. -1.
<scales pt_clust_3="31.40691" pt_clust_4="70.42714" pt_clust_5="31.40691" pt_clust_6="85.48477"></scales>
<clustering>
<clus scale="   31.407">  3  5 -1 -1</clus>
<clus scale="   70.427">  2  4  1 -1</clus>
<clus scale="   85.485">  1  6  2 -1</clus>
<clus scale="   70.427">  2  3  1 -1</clus>
</clustering>
</event>
<event>
 6    0  0.1993420E+002  0.1605211E+03  0.7546771E-02  0.1188110E+00
         21   -1    0    0  503  502  0.00000000000E+00  0.00000000000E+00  0.57522948312E+02  0.57522948312E+02  0.00000000000E+00 0.  1.
          2   -1    0    0  502    0 -0.00000000000E+00 -0.00000000000E+00 -0.27099672811E+04  0.27099672811E+04  0.00000000000E+00 0.  1.
         21    1    1    2  503  504  0.19472433353E+02  0.51851789761E+02  0.42470467391E+01  0.55550168029E+02  0.00000000000E+00 0.  1.
         21    1    1    2  504  505 -0.13421587465E+02  0.53173952358E+02 -0.16576831425E+02  0.57292229487E+02  0.00000000000E+00 0.  1.
         21    1    1    2  505  501 -0.18795364455E+02  0.28578583284E+02 -0.47352864625E+02  0.58414852013E+02  0.00000000000E+00 0.  1.
          2    1    1    2  501    0  0.12744518567E+02 -0.13360432540E+03 -0.25927616835E+04  0.25962329799E+04  0.00000000000E+00 0.  1.
<scales pt_clust_3="52.81500" pt_clust_4="52.81500" pt_clust_5="31.38921" pt_clust_6="134.21080"></scales>
<clustering>
<clus scale="   31.389">  4  5 -1 -1</clus>
<clus scale="   52.815">  3  4 -1 -1</clus>
<clus scale="  134.211">  2  6  1 -1</clus>
<clus scale="  160.521">  1  3  2 -1</clus>
</clustering>
</event>
<event>
 6    0  0.1993420E+002  0.1197739E+03  0.7546771E-02  0.1243471E+00
          2   -1    0    0  504    0 -0.00000000000E+00  0.00000000000E+00  0.45606635749E+03  0.45606635749E+03  0.00000000000E+00 0.  1.
         21   -1    0    0  505  502  0.00000000000E+00 -0.00000000000E+00 -0.17347599890E+04  0.17347599890E+04  0.00000000000E+00 0.  1.
         21    1    1    2  503  501 -0.85798515059E+02  0.73541512151E+02 -0.42085101906E+03  0.43575832687E+03  0.00000000000E+00 0.  1.
         21    1    1    2  504  502  0.35425375851E+02 -0.35496225721E+02 -0.95969896471E+03  0.96100834656E+03  0.00000000000E+00 0.  1.
         21    1    1    2  505  503 -0.24228194784E+02  0.37664764507E+02 -0.33830018615E+03  0.34125160198E+03  0.00000000000E+00 0. -1.
          2    1    1    2  501    0  0.74601333993E+02 -0.75710050937E+02  0.44015653846E+03  0.45280807103E+03  0.00000000000E+00 0.  1.
<scales pt_clust_3="34.25697" pt_clust_4="50.14917" pt_clust_5="34.25697" pt_clust_6="106.69873"></scales>
<clustering>
<clus scale="   34.257">  3  5 -1 -1</clus>
<clus scale="   50.149">  2  4  1 -1</clus>
<clus scale="  106.699">  1  6  2 -1</clus>
<clus scale="   50.149">  2  3  1 -1</clus>
</clustering>
</event>
<event>
 6    0  0.1993420E+002  0.1298390E+03  0.7546771E-02  0.1227695E+00
         21   -1    0    0  505  502  0.00000000000E+00  0.00000000000E+00  0.41964384636E+03  0.41964384636E+03  0.00000000000E+00 0.  1.
          2   -1    0    0  503    0 -0.00000000000E+00 -0.00000000000E+00 -0.16889251886E+04  0.16889251886E+04  0.00000000000E+00 0. -1.
         21    1    1    2  503  504  0.12526544567E+03 -0.82781258718E+02 -0.41993658410E+02  0.15590906331E+03  0.00000000000E+00 0.  1.
         21    1    1    2  504  502  0.24186425666E+02  0.18418217747E+02 -0.71669297280E+01  0.31234257045E+02  0.00000000000E+00 0. -1.
         21    1    1    2  505  501 -0.13826195378E+03  0.25527058482E+02  0.33628587286E+03  0.36449442638E+03  0.00000000000E+00 0.  1.
          2    1    1    2  501    0 -0.11189917556E+02  0.38835982490E+02 -0.15564066270E+04  0.15569312882E+04  0.00000000000E+00 0. -1.
<scales pt_clust_3="14000.00000" pt_clust_4="30.40089" pt_clust_5="129.83897" pt_clust_6="40.42302"></scales>
<clustering>
<clus scale="   30.401">  1  4  2 -1</clus>
<clus scale="   40.423">  2  6  1 -1</clus>
<clus scale="  129.839">  1  5  2 -1</clus>
<clus scale="   30.401">  1  3  2 -1</clus>
</clustering>
</event>
<event>
 6    0  0.1993420E+002  0.1428442E+03  0.7546771E-02  0.1209552E+00
         -1   -1    0    0    0  501 -0.00000000000E+00  0.00000000000E+00  0.76598092069E+03  0.76598092069E+03  0.00000000000E+00 0. -1.
         21   -1    0    0  504  502  0.00000000000E+00 -0.00000000000E+00 -0.10318377801E+03  0.10318377801E+03  0.00000000000E+00 0. -1.
         21    1    1    2  503  505 -0.43308270556E+02 -0.52078572563E+02  0.13192430481E+02  0.69005972501E+02  0.00000000000E+00 0. -1.
         21    1    1    2  504  503 -0.70838007243E+02  0.31639363577E+00  0.29379617430E+02  0.76689538370E+02  0.00000000000E+00 0. -1.
         21    1    1    2  505  501  0.13925604106E+03 -0.34073378135E-01  0.46427414050E+02  0.14679152192E+03  0.00000000000E+00 0. -1.
         -1    1    1    2    0  502 -0.25109763257E+02  0.51796252305E+02  0.57379768072E+03  0.57667766591E+03  0.00000000000E+00 0. -1.
<scales pt_clust_3="54.56365" pt_clust_4="54.56365" pt_clust_5="129.22216" pt_clust_6="57.56172"></scales>
<clustering>
<clus scale="   57.562">  1  6  2 -1</clus>
<clus scale="   54.564">  3  4 -1 -1</clus>
<clus scale="  129.222">  1  5  2 -1</clus>
<clus scale="  142.844">  2  3  1 -1</clus>
</clustering>
</event>
<event>
 6    0  0.1993420E+002  0.1616829E+03  0.7546771E-02  0.1186810E+00
          2   -1    0    0  503    0 -0.00000000000E+00  0.00000000000E+00  0.18074734992E+04  0.18074734992E+04  0.00000000000E+00 0. -1.
         21   -1    0    0  501  502  0.00000000000E+00 -0.00000000000E+00 -0.11339397255E+03  0.11339397255E+03  0.00000000000E+00 0. -1.
         21    1    1    2  503  504  0.60495959081E+02 -0.18931061480E+02  0.59020432275E+02  0.86611532603E+02  0.00000000000E+00 0.  1.
         21    1    1    2  504  505  0.47329416490E+02 -0.16867956770E+02  0.15244389556E+01  0.50268534343E+02  0.00000000000E+00 0.  1.
         21    1    1    2  505  502  0.37727638243E+02 -0.27957712409E+02 -0.63807184739E+02  0.79223514153E+02  0.00000000000E+00 0. -1.
          2    1    1    2  501    0 -0.14555301381E+03  0.63756730659E+02  0.16973418401E+04  0.17047638906E+04  0.00000000000E+00 0. -1.
<scales pt_clust_3="41.40272" pt_clust_4="41.40272" pt_clust_5="46.95752" pt_clust_6="154.85085"></scales>
<clustering>
<clus scale="   41.403">  3  4 -1 -1</clus>
<clus scale="   46.958">  2  5  1 -1</clus>
<clus scale="  154.851">  1  6  2 -1</clus>
<clus scale="   46.958">  2  3  1 -1</clus>
</clustering>
</event>
<event>
 6    0  0.1993420E+002  0.2270905E+03  0.7546771E-02  0.1128705E+00
         21   -1    0    0  504  502  0.00000000000E+00  0.00000000000E+00  0.14702326774E+03  0.14702326774E+03  0.00000000000E+00 0. -1.
         -1   -1    0    0    0  501 -0.00000000000E+00 -0.00000000000E+00 -0.11909921145E+04  0.11909921145E+04  0.00000000000E+00 0. -1.
         21    1    1    2  503  505 -0.20398760610E+03 -0.71423501430E+01 -0.39570678414E+02  0.20791295101E+03  0.00000000000E+00 0. -1.
         21    1    1    2  504  503  0.85565601364E+01 -0.94925570970E+02 -0.61575935956E+02  0.11347102993E+03  0.00000000000E+00 0.  1.
         21    1    1    2  505  501 -0.76919689575E+02 -0.10309566464E+02 -0.12259524445E+03  0.14509486471E+03  0.00000000000E+00 0. -1.
         -1    1    1    2    0  502  0.27235073554E+03  0.11237748758E+03 -0.82022698798E+03  0.87153653663E+03  0.00000000000E+00 0. -1.
<scales pt_clust_3="227.09051" pt_clust_4="95.80412" pt_clust_5="77.60751" pt_clust_6="14000.00000"></scales>
<clustering>
<clus scale="   77.608">  2  5  1 -1</clus>
<clus scale="   95.804">  1  4  2 -1</clus>
<clus scale="  227.091">  1  3  2 -1</clus>
<clus scale="   95.804">  1  3  2 -1</clus>
</clustering>
</event>
<event>
 6    0  0.1993420E+002  0.7048847E+02  0.7546771E-02  0.1358440E+00
          2   -1    0    0  504    0 -0.00000000000E+00  0.00000000000E+00  0.33690406881E+03  0.33690406881E+03  0.00000000000E+00 0.  1.
         21   -1    0    0  503  502  0.00000000000E+00 -0.00000000000E+00 -0.97839363667E+02  0.97839363667E+02  0.00000000000E+00 0.  1.
         21    1    1    2  503  501  0.51513752679E+02  0.79849004450E+01  0.30268425147E+02  0.60279373845E+02  0.00000000000E+00 0.  1.
         21    1    1    2  504  505 -0.12425335879E+02  0.64614087682E+02  0.15028372945E+02  0.67492379511E+02  0.00000000000E+00 0.  1.
         21    1    1    2  505  502 -0.80909098079E+02 -0.13137769575E+02 -0.17266349210E+02  0.83767594906E+02  0.00000000000E+00 0.  1.
          2    1    1    2  501    0  0.41820681279E+02 -0.59461218552E+02  0.21103425626E+03  0.22320408422E+03  0.00000000000E+00 0.  1.
<scales pt_clust_3="52.12893" pt_clust_4="70.48847" pt_clust_5="50.17885" pt_clust_6="14000.00000"></scales>
<clustering>
<clus scale="   52.129">  2  3  1 -1</clus>
<clus scale="   50.179">  2  5  1 -1</clus>
<clus scale="   70.488">  2  4  1 -1</clus>
<clus scale="   52.129">  2  3  1 -1</clus>
</clustering>
</event>
<event>
 6    0  0.1993420E+002  0.1224666E+03  0.7546771E-02  0.1239082E+00
          1   -1    0    0  505    0 -0.00000000000E+00  0.00000000000E+00  0.15753756245E+04  0.15753756245E+04  0.00000000000E+00 0.  1.
         21   -1    0    0  504  502  0.00000000000E+00 -0.00000000000E+00 -0.68489747355E+03  0.68489747355E+03  0.00000000000E+00 0. -1.
         21    1    1    2  503  501 -0.63398470915E+02 -0.62529558796E+02 -0.12365663572E+01  0.89055268984E+02  0.00000000000E+00 0.  1.
         21    1    1    2  504  503 -0.41494697653E+02  0.16697659497E+02 -0.77553729804E+02  0.89527664844E+02  0.00000000000E+00 0.  1.
         21    1    1    2  505  502  0.69794851450E+02  0.16309584509E+03 -0.53952352123E+03  0.56794119936E+03  0.00000000000E+00 0. -1.
          1    1    1    2  501    0  0.35098317119E+02 -0.11726394579E+03  0.15087919684E+04  0.15137489649E+04  0.00000000000E+00 0.  1.
<scales pt_clust_3="90.43678" pt_clust_4="44.72831" pt_clust_5="14000.00000" pt_clust_6="122.46662"></scales>
<clustering>
<clus scale="   44.728">  2  4  1 -1</clus>
<clus scale="   90.437">  2  3  1 -1</clus>
<clus scale="  122.467">  1  6  2 -1</clus>
<clus scale="   44.728">  2  3  1 -1</clus>
</clustering>
</event>
<event>
 6    0  0.1993420E+002  0.1921727E+03  0.7546771E-02  0.1156516E+00
         -1   -1    0    0    0  501 -0.00000000000E+00  0.00000000000E+00  0.41943398603E+03  0.41943398603E+03  0.00000000000E+00 0.  1.
         21   -1    0    0  504  502  0.00000000000E+00 -0.00000000000E+00 -0.17232983493E+03  0.17232983493E+03  0.00000000000E+00 0.  1.
         21    1    1    2  503  505 -0.14689942810E+02  0.37124856748E+02 -0.47366388997E+02  0.61948561040E+02  0.00000000000E+00 0.  1.
         21    1    1    2  504  503 -0.90172973937E+02  0.10225707418E+03 -0.18121838803E+02  0.13753572441E+03  0.00000000000E+00 0.  1.
         21    1    1    2  505  501  0.13041420846E+02  0.36408139993E+02  0.51379469018E+02  0.64307706786E+02  0.00000000000E+00 0. -1.
         -1    1    1    2    0  502  0.91821495902E+02 -0.17579007092E+03  0.26121290989E+03  0.32797182872E+03  0.00000000000E+00 0.  1.
<scales pt_clust_3="38.57665" pt_clust_4="38.57665" pt_clust_5="38.67339" pt_clust_6="178.46189"></scales>
<clustering>
<clus scale="   38.577">  3  4 -1 -1</clus>
<clus scale="   38.673">  1  5  2 -1</clus>
<clus scale="  178.462">  1  6  2 -1</clus>
<clus scale="  192.173">  2  3  1 -1</clus>
</clustering>
</event>
<event>
 6    0  0.1993420E+002  0.2125664E+03  0.7546771E-02  0.1139550E+00
          2   -1    0    0  502    0 -0.00000000000E+00  0.00000000000E+00  0.14625056407E+04  0.14625056407E+04  0.00000000000E+00 0. -1.
         21   -1    0    0  504  502  0.00000000000E+00 -0.00000000000E+00 -0.32240945588E+04  0.32240945588E+04  0.00000000000E+00 0. -1.
         21    1    1    2  503  501  0.11506674997E+03  0.13016021232E+03 -0.24015812260E+03  0.29640843725E+03  0.00000000000E+00 0. -1.
         21    1    1    2  504  505 -0.57629984347E+02 -0.48004009045E+02 -0.87079896741E+03  0.87402313563E+03  0.00000000000E+00 0.  1.
         21    1    1    2  505  503 -0.65053553399E+02 -0.12500108366E+03 -0.20806860798E+04  0.20854524206E+04  0.00000000000E+00 0. -1.
          2    1    1    2  501    0  0.76167877739E+01  0.42844880382E+02  0.14300542518E+04  0.14307162061E+04  0.00000000000E+00 0. -1.
<scales pt_clust_3="207.20736" pt_clust_4="34.60289" pt_clust_5="34.60289" pt_clust_6="43.51665"></scales>
<clustering>
<clus scale="   34.603">  4  5 -1 -1</clus>
<clus scale="   43.517">  1  6  2 -1</clus>
<clus scale="  207.207">  1  3  2 -1</clus>
<clus scale="  212.566">  2  3  1 -1</clus>
</clustering>
</event>
<event>
 6    0  0.1993420E+002  0.9327564E+02  0.7546771E-02  0.1295108E+00
         21   -1    0    0  503  502  0.00000000000E+00  0.00000000000E+00  0.17360328299E+03  0.17360328299E+03  0.00000000000E+00 0.  1.
          1   -1    0    0  505    0 -0.00000000000E+00 -0.00000000000E+00 -0.39750663513E+03  0.39750663513E+03  0.00000000000E+00 0.  1.
         21    1    1    2  503  504 -0.41047440252E+02  0.16042695685E+02  0.69898490559E+02  0.82632072578E+02  0.00000000000E+00 0.  1.
         21    1    1    2  504  501 -0.49947379050E+02  0.18717245895E+02 -0.62351141889E+02  0.82053280634E+02  0.00000000000E+00 0.  1.
         21    1    1    2  505  502  0.14342695919E+03 -0.41562640704E+02  0.18929735486E+02  0.15052269135E+03  0.00000000000E+00 0. -1.
          1    1    1    2  501    0 -0.52432139892E+02  0.68026991238E+01 -0.25038043630E+03  0.25590187356E+03  0.00000000000E+00 0.  1.
<scales pt_clust_3="44.07108" pt_clust_4="14000.00000" pt_clust_5="93.27564" pt_clust_6="54.08550"></scales>
<clustering>
<clus scale="   44.071">  1  3  2 -1</clus>
<clus scale="   54.086">  2  6  1 -1</clus>
<clus scale="   93.276">  1  5  2 -1</clus>
<clus scale="   44.071">  1  3  2 -1</clus>
</clustering>
</event>
<event>
 6    0  0.1993420E+002  0.1889786E+03  0.7546771E-02  0.1159386E+00
          2   -1    0    0  503    0 -0.00000000000E+00  0.00000000000E+00  0.23833183065E+04  0.23833183065E+04  0.00000000000E+00 0.  1.
         21   -1    0    0  505  502  0.00000000000E+00 -0.00000000000E+00 -0.81127079202E+02  0.81127079202E+02  0.00000000000E+00 0.  1.
         21    1    1    2  503  504  0.10121097131E+03  0.11172775768E+03  0.98289785005E+03  0.99439174181E+03  0.00000000000E+00 0.  1.
         21    1    1    2  504  502 -0.15659821307E+03 -0.17106044576E+03  0.12190787627E+03  0.26200421129E+03  0.00000000000E+00 0.  1.
         21    1    1    2  505  501  0.29045433212E+02  0.26243712585E+02  0.72701174427E+02  0.82570154438E+02  0.00000000000E+00 0. -1.
          2    1    1    2  501    0  0.26341808547E+02  0.33088975489E+02  0.11246843266E+04  0.11254792782E+04  0.00000000000E+00 0.  1.
<scales pt_clust_3="188.97859" pt_clust_4="14000.00000" pt_clust_5="39.14549" pt_clust_6="42.49536"></scales>
<clustering>
<clus scale="   39.145">  2  5  1 -1</clus>
<clus scale="   42.495">  1  6  2 -1</clus>
<clus scale="  188.979">  1  3  2 -1</clus>
<clus scale="   39.145">  2  3  1 -1</clus>
</clustering>
</event>
<event>
 6    0  0.1993420E+002  0.1058135E+03  0.7546771E-02  0.1268525E+00
         -1   -1    0    0    0  501 -0.00000000000E+00  0.00000000000E+00  0.21668328019E+04  0.21668328019E+04  0.00000000000E+00 0.  1.
         21   -1    0    0  505  502  0.00000000000E+00 -0.00000000000E+00 -0.13674274448E+03  0.13674274448E+03  0.00000000000E+00 0.  1.
         21    1    1    2  503  501 -0.12109472057E+02 -0.11106135437E+03  0.87879640235E+02  0.14214110917E+03  0.00000000000E+00 0.  1.
         21    1    1    2  504  502 -0.24025007563E+02  0.35217865259E+02  0.24620096292E+02  0.49230561273E+02  0.00000000000E+00 0.  1.
         21    1    1    2  505  503  0.90202029797E+02  0.58420377543E+02 -0.67103436292E+02  0.12669734746E+03  0.00000000000E+00 0.  1.
         -1    1    1    2    0  504 -0.54067550176E+02  0.17423111572E+02  0.19846937572E+04  0.19855065285E+04  0.00000000000E+00 0.  1.
<scales pt_clust_3="105.81347" pt_clust_4="42.63214" pt_clust_5="14000.00000" pt_clust_6="56.91552"></scales>
<clustering>
<clus scale="   42.632">  2  4  1 -1</clus>
<clus scale="   56.916">  1  6  2 -1</clus>
<clus scale="  105.813">  1  3  2 -1</clus>
<clus scale="   42.632">  2  3  1 -1</clus>
</clustering>
</event>
<event>
 6    0  0.1993420E+002  0.1299547E+03  0.7546771E-02  0.1227523E+00
          2   -1    0    0  505    0 -0.00000000000E+00  0.00000000000E+00  0.25737007475E+03  0.25737007475E+03  0.00000000000E+00 0. -1.
         21   -1    0    0  501  502  0.00000000000E+00 -0.00000000000E+00 -0.27535924227E+03  0.27535924227E+03  0.00000000000E+00 0. -1.
         21    1    1    2  503  504  0.21228672736E+02 -0.33916238614E+02 -0.30391697140E+02  0.50245627102E+02  0.00000000000E+00 0.  1.
         21    1    1    2  504  502  0.85330841028E+02 -0.31304190953E+02 -0.13206132693E+03  0.16031687020E+03  0.00000000000E+00 0. -1.
         21    1    1    2  505  503  0.26620928142E+02  0.12235677786E+03  0.11936523224E+02  0.12578686533E+03  0.00000000000E+00 0. -1.
          2    1    1    2  501    0 -0.13318044191E+03 -0.57136348290E+02  0.13252733333E+03  0.19637995438E+03  0.00000000000E+00 0. -1.
<scales pt_clust_3="32.07435" pt_clust_4="32.07435" pt_clust_5="125.21923" pt_clust_6="120.62871"></scales>
<clustering>
<clus scale="   32.074">  3  4 -1 -1</clus>
<clus scale="  125.219">  1  5  2 -1</clus>
<clus scale="  120.629">  1  6  2 -1</clus>
<clus scale="  129.955">  2  3  1 -1</clus>
</clustering>
</event>
<event>
 6    0  0.1993420E+002  0.1780063E+03  0.7546771E-02  0.1169747E+00
          2   -1    0    0  505    0 -0.00000000000E+00  0.00000000000E+00  0.93376827165E+02  0.93376827165E+02  0.00000000000E+00 0.  1.
         21   -1    0    0  504  502  0.00000000000E+00 -0.00000000000E+00 -0.12502537130E+04  0.12502537130E+04  0.00000000000E+00 0. -1.
         21    1    1    2  503  502 -0.18922077928E+02 -0.12073850317E+03 -0.81757701172E+03  0.82666075344E+03  0.00000000000E+00 0. -1.
         21    1    1    2  504  501  0.14622230069E+02  0.12806279130E+03 -0.50406222509E+02  0.13840041689E+03  0.00000000000E+00 0.  1.
         21    1    1    2  505  503 -0.38560604698E+02 -0.47917211310E+02 -0.30987447303E+03  0.31591956003E+03  0.00000000000E+00 0. -1.
          2    1    1    2  501    0  0.42860452557E+02  0.40592923176E+02  0.20980821396E+02  0.62649809831E+02  0.00000000000E+00 0.  1.
<scales pt_clust_3="36.13091" pt_clust_4="170.56478" pt_clust_5="36.13091" pt_clust_6="59.03223"></scales>
<clustering>
<clus scale="   36.131">  3  5 -1 -1</clus>
<clus scale="   59.032">  1  6  2 -1</clus>
<clus scale="  170.565">  1  4  2 -1</clus>
<clus scale="  178.006">  2  3  1 -1</clus>
</clustering>
</event>
<event>
 6    0  0.1993420E+002  0.1253280E+03  0.7546771E-02  0.1234558E+00
          2   -1    0    0  503    0 -0.00000000000E+00  0.00000000000E+00  0.16014478091E+04  0.16014478091E+04  0.00000000000E+00 0.  1.
         21   -1    0    0  501  502  0.00000000000E+00 -0.00000000000E+00 -0.70506658879E+02  0.70506658879E+02  0.00000000000E+00 0. -1.
         21    1    1    2  503  504  0.94621508028E+02  0.56871183792E+02  0.56738775195E+02  0.12412433258E+03  0.00000000000E+00 0. -1.
         21    1    1    2  504  505  0.59533336732E+02 -0.11004035315E+02  0.30047687299E+02  0.67588242230E+02  0.00000000000E+00 0. -1.
         21    1    1    2  505  502 -0.72754777475E+02  0.27643324975E+02  0.79742324557E+02  0.11142822527E+03  0.00000000000E+00 0. -1.
          2    1    1    2  501    0 -0.81400067285E+02 -0.73510473453E+02  0.13644123632E+04  0.13688136679E+04  0.00000000000E+00 0.  1.
<scales pt_clust_3="42.88940" pt_clust_4="42.88940" pt_clust_5="77.82937" pt_clust_6="111.14315"></scales>
<clustering>
<clus scale="   42.889">  3  4 -1 -1</clus>
<clus scale="   77.829">  2  5  1 -1</clus>
<clus scale="  111.143">  1  6  2 -1</clus>
<clus scale="   77.829">  2  3  1 -1</clus>
</clustering>
</event>
<event>
 6    0  0.1993420E+002  0.1504092E+03  0.7546771E-02  0.1199971E+00
          2   -1    0    0  505    0 -0.00000000000E+00  0.00000000000E+00  0.48118138186E+03  0.48118138186E+03  0.00000000000E+00 0.  1.
         21   -1    0    0  501  502  0.00000000000E+00 -0.00000000000E+00 -0.44800222147E+03  0.44800222147E+03  0.00000000000E+00 0.  1.
         21    1    1    2  503  502  0.54759360449E+01 -0.67357694972E+02 -0.29676124518E+03  0.30435880402E+03  0.00000000000E+00 0.  1.
         21    1    1    2  504  503 -0.43678834362E+02  0.92216969409E+01 -0.65601519976E+02  0.79350108310E+02  0.00000000000E+00 0.  1.
         21    1    1    2  505  504 -0.67094653776E+02 -0.37341331562E+02 -0.40527256862E+02  0.86824686333E+02  0.00000000000E+00 0.  1.
          2    1    1    2  501    0  0.10529755209E+03  0.95477329592E+02  0.43606918240E+03  0.45865000467E+03  0.00000000000E+00 0.  1.
<scales pt_clust_3="67.57992" pt_clust_4="43.72997" pt_clust_5="43.72997" pt_clust_6="139.04550"></scales>
<clustering>
<clus scale="   43.730">  4  5 -1 -1</clus>
<clus scale="   67.580">  2  3  1 -1</clus>
<clus scale="  139.046">  1  6  2 -1</clus>
<clus scale="   67.580">  2  3  1 -1</clus>
</clustering>
</event>
<event>
 6    0  0.1993420E+002  0.6953602E+02  0.7546771E-02  0.1361678E+00
          1   -1    0    0  504    0 -0.00000000000E+00  0.00000000000E+00  0.48850120992E+03  0.48850120992E+03  0.00000000000E+00 0.  1.
         21   -1    0    0  503  502  0.00000000000E+00 -0.00000000000E+00 -0.29598897018E+03  0.29598897018E+03  0.00000000000E+00 0.  1.
         21    1    1    2  503  505  0.69571345310E+02 -0.20729791025E+02 -0.23695056590E+03  0.24782144178E+03  0.00000000000E+00 0.  1.
         21    1    1    2  504  502 -0.33775686826E+02 -0.59700024186E+02  0.23961138956E+02  0.72656906681E+02  0.00000000000E+00 0. -1.
         21    1    1    2  505  501  0.19455661609E+02  0.68387713904E+02  0.19275362164E+02  0.73667779715E+02  0.00000000000E+00 0. -1.
          1    1    1    2  501    0 -0.55251320093E+02  0.12042101307E+02  0.38622630452E+03  0.39034405193E+03  0.00000000000E+00 0.  1.
<scales pt_clust_3="69.53602" pt_clust_4="14000.00000" pt_clust_5="69.27212" pt_clust_6="56.54839"></scales>
<clustering>
<clus scale="   56.548">  1  6  2 -1</clus>
<clus scale="   69.536">  2  3  1 -1</clus>
<clus scale="   69.272">  1  5  2 -1</clus>
<clus scale="   69.536">  2  3  1 -1</clus>
</clustering>
</event>
<event>
 6    0  0.1993420E+002  0.2969689E+03  0.7546771E-02  0.1086766E+00
         21   -1    0    0  503  502  0.00000000000E+00  0.00000000000E+00  0.42721743207E+03  0.42721743207E+03  0.00000000000E+00 0. -1.
          2   -1    0    0  504    0 -0.00000000000E+00 -0.00000000000E+00 -0.15255533157E+04  0.15255533157E+04  0.00000000000E+00 0. -1.
         21    1    1    2  503  501 -0.13322804096E+02  0.66171783114E+02 -0.10543037835E+02  0.68318062299E+02  0.00000000000E+00 0. -1.
         21    1    1    2  504  505 -0.13324653809E+03  0.37649258760E+02  0.17879950883E+03  0.22614457976E+03  0.00000000000E+00 0. -1.
         21    1    1    2  505  502 -0.13257503727E+03 -0.11568137465E+02  0.15634693780E+03  0.20531519007E+03  0.00000000000E+00 0. -1.
          2    1    1    2  501    0  0.27914437946E+03 -0.92252904409E+02 -0.14229392924E+04  0.14529929156E+04  0.00000000000E+00 0. -1.
<scales pt_clust_3="67.49964" pt_clust_4="48.95005" pt_clust_5="48.95005" pt_clust_6="292.74134"></scales>
<clustering>
<clus scale="   48.950">  4  5 -1 -1</clus>
<clus scale="   67.500">  1  3  2 -1</clus>
<clus scale="  292.741">  2  6  1 -1</clus>
<clus scale="   67.500">  1  3  2 -1</clus>
</clustering>
</event>
<event>
 6    0  0.1993420E+002  0.7861966E+02  0.7546771E-02  0.1333015E+00
         21   -1    0    0  505  502  0.00000000000E+00  0.00000000000E+00  0.11274816316E+04  0.11274816316E+04  0.00000000000E+00 0.  1.
          1   -1    0    0  504    0 -0.00000000000E+00 -0.00000000000E+00 -0.85510239637E+03  0.85510239637E+03  0.00000000000E+00 0. -1.
         21    1    1    2  503  502 -0.36525887538E+02 -0.11961271875E+02  0.20008055150E+03  0.20373865508E+03  0.00000000000E+00 0.  1.
         21    1    1    2  504  503 -0.57908370049E+02 -0.49695783987E+02  0.12762817975E+03  0.14870105088E+03  0.00000000000E+00 0.  1.
         21    1    1    2  505  501  0.11137642967E+03  0.19102605996E+02  0.78272450295E+03  0.79083959572E+03  0.00000000000E+00 0.  1.
          1    1    1    2  501    0 -0.16942172087E+02  0.42554449866E+02 -0.83805399896E+03  0.83930472629E+03  0.00000000000E+00 0. -1.
<scales pt_clust_3="38.43452" pt_clust_4="78.61966" pt_clust_5="14000.00000" pt_clust_6="45.80467"></scales>
<clustering>
<clus scale="   38.435">  1  3  2 -1</clus>
<clus scale="   45.805">  2  6  1 -1</clus>
<clus scale="   78.620">  2  4  1 -1</clus>
<clus scale="   38.435">  1  3  2 -1</clus>
</clustering>
</event>
<event>
 6    0  0.1993420E+002  0.1142535E+03  0.7546771E-02  0.1252890E+00
          2   -1    0    0  503    0 -0.00000000000E+00  0.00000000000E+00  0.71196614970E+03  0.71196614970E+03  0.00000000000E+00 0.  1.
         21   -1    0    0  505  502  0.00000000000E+00 -0.00000000000E+00 -0.12409245459E+03  0.12409245459E+03  0.00000000000E+00 0.  1.
         21    1    1    2  503  502 -0.62310494171E+02  0.51101394451E+01  0.16643987300E+02  0.64697245090E+02  0.00000000000E+00 0.  1.
         21    1    1    2  504  501  0.18531608702E+02  0.32194261602E+02 -0.45327204003E+01  0.37422407130E+02  0.00000000000E+00 0.  1.
         21    1    1    2  505  504  0.14852183630E+01  0.60361677334E+02 -0.62477458010E+02  0.86885963904E+02  0.00000000000E+00 0.  1.
          2    1    1    2  501    0  0.42293667107E+02 -0.97666078381E+02  0.63823988621E+03  0.64705298817E+03  0.00000000000E+00 0.  1.
<scales pt_clust_3="62.51969" pt_clust_4="35.03312" pt_clust_5="35.03312" pt_clust_6="105.16149"></scales>
<clustering>
<clus scale="   35.033">  4  5 -1 -1</clus>
<clus scale="   62.520">  2  3  1 -1</clus>
<clus scale="  105.161">  1  6  2 -1</clus>
<clus scale="   62.520">  2  3  1 -1</clus>
</clustering>
</event>
<event>
 6    0  0.1993420E+002  0.1771907E+03  0.7546771E-02  0.1170550E+00
          1   -1    0    0  504    0 -0.00000000000E+00  0.00000000000E+00  0.17088864011E+03  0.17088864011E+03  0.00000000000E+00 0.  1.
         21   -1    0    0  503  502  0.00000000000E+00 -0.00000000000E+00 -0.49313552258E+03  0.49313552258E+03  0.00000000000E+00 0.  1.
         21    1    1    2  503  501 -0.46463038447E+02  0.27479997543E+02 -0.18683776359E+03  0.19447959818E+03  0.00000000000E+00 0.  1.
         21    1    1    2  504  505 -0.35929130959E+02  0.71481205260E+02 -0.90409391446E+02  0.12072416170E+03  0.00000000000E+00 0. -1.
         21    1    1    2  505  502  0.75673956854E+01  0.59055300231E+02 -0.13835418723E+03  0.15062096497E+03  0.00000000000E+00 0.  1.
          1    1    1    2  501    0  0.74824773720E+02 -0.15801650303E+03  0.93354459801E+02  0.19819943783E+03  0.00000000000E+00 0.  1.
<scales pt_clust_3="53.98115" pt_clust_4="50.67948" pt_clust_5="50.67948" pt_clust_6="167.16847"></scales>
<clustering>
<clus scale="   50.679">  4  5 -1 -1</clus>
<clus scale="   53.981">  2  3  1 -1</clus>
<clus scale="  167.168">  1  6  2 -1</clus>
<clus scale="   53.981">  2  3  1 -1</clus>
</clustering>
</event>
<event>
 6    0  0.1993420E+002  0.1408221E+03  0.7546771E-02  0.1212227E+00
         21   -1    0    0  503  502  0.00000000000E+00  0.00000000000E+00  0.12636882983E+03  0.12636882983E+03  0.00000000000E+00 0.  1.
          1   -1    0    0  504    0 -0.00000000000E+00 -0.00000000000E+00 -0.39508687239E+03  0.39508687239E+03  0.00000000000E+00 0. -1.
         21    1    1    2  503  505 -0.29639732414E+02  0.55777338830E+02  0.48198059926E+02  0.79452364629E+02  0.00000000000E+00 0.  1.
         21    1    1    2  504  502 -0.50616049607E+02 -0.72511907802E+00 -0.27242643958E+02  0.57486275973E+02  0.00000000000E+00 0. -1.
         21    1    1    2  505  501 -0.11657785986E+02  0.51853088210E+02  0.93131058348E+01  0.53957211486E+02  0.00000000000E+00 0.  1.
          1    1    1    2  501    0  0.91913568007E+02 -0.10690530796E+03 -0.29898656436E+03  0.33055985013E+03  0.00000000000E+00 0. -1.
<scales pt_clust_3="31.78637" pt_clust_4="50.62124" pt_clust_5="31.78637" pt_clust_6="136.49202"></scales>
<clustering>
<clus scale="   31.786">  3  5 -1 -1</clus>
<clus scale="   50.621">  1  4  2 -1</clus>
<clus scale="  136.492">  2  6  1 -1</clus>
<clus scale="   50.621">  1  3  2 -1</clus>
</clustering>
</event>
<event>
 6    0  0.1993420E+002  0.1942871E+03  0.7546771E-02  0.1154651E+00
          1   -1    0    0  504    0 -0.00000000000E+00  0.00000000000E+00  0.52686922182E+03  0.52686922182E+03  0.00000000000E+00 0. -1.
         21   -1    0    0  501  502  0.00000000000E+00 -0.00000000000E+00 -0.22395991614E+03  0.22395991614E+03  0.00000000000E+00 0.  1.
         21    1    1    2  503  502  0.47651230802E+02 -0.15928166540E+02 -0.62076873653E+02  0.79861658690E+02  0.00000000000E+00 0.  1.
         21    1    1    2  504  505  0.30884936681E+01  0.13605107985E+03 -0.32413122637E+02  0.13989297924E+03  0.00000000000E+00 0.  1.
         21    1    1    2  505  503 -0.44523374037E+02  0.60980871984E+02 -0.18217169085E+02  0.77671505927E+02  0.00000000000E+00 0.  1.
          1    1    1    2  501    0 -0.62163504329E+01 -0.18110378529E+03  0.41561647105E+03  0.45340299411E+03  0.00000000000E+00 0. -1.
<scales pt_clust_3="50.24287" pt_clust_4="48.45919" pt_clust_5="48.45919" pt_clust_6="183.07110"></scales>
<clustering>
<clus scale="   48.459">  4  5 -1 -1</clus>
<clus scale="   50.243">  2  3  1 -1</clus>
<clus scale="  183.071">  1  6  2 -1</clus>
<clus scale="   50.243">  2  3  1 -1</clus>
</clustering>
</event>
<event>
 6    0  0.1993420E+002  0.1171822E+03  0.7546771E-02  0.1247819E+00
          2   -1    0    0  502    0 -0.00000000000E+00  0.00000000000E+00  0.16429565809E+04  0.16429565809E+04  0.00000000000E+00 0. -1.
         21   -1    0    0  503  502  0.00000000000E+00 -0.00000000000E+00 -0.31794883121E+02  0.31794883121E+02  0.00000000000E+00 0.  1.
         21    1    1    2  503  505 -0.19017771265E+02 -0.11111925410E+03  0.15039750894E+03  0.18795897146E+03  0.00000000000E+00 0.  1.
         21    1    1    2  504  501 -0.11980229675E+02  0.36124409390E+02  0.55826659742E+02  0.67565633237E+02  0.00000000000E+00 0.  1.
         21    1    1    2  505  504 -0.46774901486E+02  0.64659925551E+02  0.26913261937E+03  0.28071545057E+03  0.00000000000E+00 0.  1.
          2    1    1    2  501    0  0.77772902425E+02  0.10334919160E+02  0.11358049098E+04  0.11385114088E+04  0.00000000000E+00 0. -1.
<scales pt_clust_3="107.88949" pt_clust_4="31.58257" pt_clust_5="31.58257" pt_clust_6="78.45658"></scales>
<clustering>
<clus scale="   31.583">  4  5 -1 -1</clus>
<clus scale="   78.457">  1  6  2 -1</clus>
<clus scale="  107.889">  2  3  1 -1</clus>
<clus scale="  107.889">  2  3  1 -1</clus>
</clustering>
</event>
<event>
 6    0  0.1993420E+002  0.1536339E+03  0.7546771E-02  0.1196077E+00
          2   -1    0    0  505    0 -0.00000000000E+00  0.00000000000E+00  0.44982645526E+03  0.44982645526E+03  0.00000000000E+00 0. -1.
         21   -1    0    0  503  502  0.00000000000E+00 -0.00000000000E+00 -0.12394315408E+04  0.12394315408E+04  0.00000000000E+00 0. -1.
         21    1    1    2  503  501  0.85624580354E+02 -0.38236376566E+02 -0.49076506640E+03  0.49964381279E+03  0.00000000000E+00 0. -1.
         21    1    1    2  504  502  0.94304230655E+02  0.62175993260E+02 -0.62754251952E+03  0.63762744284E+03  0.00000000000E+00 0. -1.
         21    1    1    2  505  504 -0.12741484269E+03 -0.33451976107E+02 -0.70377673624E+02  0.14935392124E+03  0.00000000000E+00 0.  1.
          2    1    1    2  501    0 -0.52513968315E+02  0.95123594126E+01  0.39908017398E+03  0.40263281922E+03  0.00000000000E+00 0. -1.
<scales pt_clust_3="89.08307" pt_clust_4="14000.00000" pt_clust_5="153.63392" pt_clust_6="53.36855"></scales>
<clustering>
<clus scale="   53.369">  1  6  2 -1</clus>
<clus scale="   89.083">  2  3  1 -1</clus>
<clus scale="  153.634">  1  5  2 -1</clus>
<clus scale="   89.083">  2  3  1 -1</clus>
</clustering>
</event>
<event>
 6    0  0.1993420E+002  0.1080540E+03  0.7546771E-02  0.1264217E+00
          4   -1    0    0  503    0 -0.00000000000E+00  0.00000000000E+00  0.20932138322E+03  0.20932138322E+03  0.00000000000E+00 0. -1.
         21   -1    0    0  504  502  0.00000000000E+00 -0.00000000000E+00 -0.50643385994E+03  0.50643385994E+03  0.00000000000E+00 0. -1.
         21    1    1    2  503  502 -0.15545339923E+03 -0.49994713046E+02 -0.30519663026E+03  0.34613612032E+03  0.00000000000E+00 0. -1.
         21    1    1    2  504  505  0.38391617980E+02 -0.33752447720E+01 -0.10145206471E+03  0.10852571143E+03  0.00000000000E+00 0. -1.
         21    1    1    2  505  501  0.57067869886E+02  0.38111024672E+02 -0.53297533044E+02  0.86889694460E+02  0.00000000000E+00 0. -1.
          4    1    1    2  501    0  0.59993911364E+02  0.15258933146E+02  0.16283375129E+03  0.17420371695E+03  0.00000000000E+00 0. -1.
<scales pt_clust_3="108.05401" pt_clust_4="38.53970" pt_clust_5="14000.00000" pt_clust_6="62.41937"></scales>
<clustering>
<clus scale="   38.540">  2  4  1 -1</clus>
<clus scale="   62.419">  1  6  2 -1</clus>
<clus scale="  108.054">  2  3  1 -1</clus>
<clus scale="   38.540">  2  3  1 -1</clus>
</clustering>
</event>
<event>
 6    0  0.1993420E+002  0.9380290E+02  0.7546771E-02  0.1293895E+00
         21   -1    0    0  504  502  0.00000000000E+00  0.00000000000E+00  0.30262667172E+02  0.30262667172E+02  0.00000000000E+00 0. -1.
          2   -1    0    0  503    0 -0.00000000000E+00 -0.00000000000E+00 -0.31926887498E+04  0.31926887498E+04  0.00000000000E+00 0.  1.
         21    1    1    2  503  505 -0.36609923475E+02 -0.44152975648E+02 -0.19491326844E+03  0.20317714923E+03  0.00000000000E+00 0. -1.
         21    1    1    2  504  501  0.69480601103E+02 -0.42534504890E+01 -0.42640755895E+02  0.81632590514E+02  0.00000000000E+00 0. -1.
         21    1    1    2  505  502  0.16342813200E+02 -0.34043563182E+02 -0.55300990308E+02  0.66964552313E+02  0.00000000000E+00 0. -1.
          2    1    1    2  501    0 -0.49213490828E+02  0.82449989318E+02 -0.28695710680E+04  0.28711771250E+04  0.00000000000E+00 0.  1.
<scales pt_clust_3="60.30441" pt_clust_4="93.80290" pt_clust_5="37.76310" pt_clust_6="14000.00000"></scales>
<clustering>
<clus scale="   37.763">  1  5  2 -1</clus>
<clus scale="   60.304">  1  3  2 -1</clus>
<clus scale="   93.803">  1  4  2 -1</clus>
<clus scale="   37.763">  1  3  2 -1</clus>
</clustering>
</event>
<event>
 6    0  0.1993420E+002  0.3129708E+03  0.7546771E-02  0.1078931E+00
          2   -1    0    0  503    0 -0.00000000000E+00  0.00000000000E+00  0.18365167309E+04  0.18365167309E+04  0.00000000000E+00 0. -1.
         21   -1    0    0  504  502  0.00000000000E+00 -0.00000000000E+00 -0.82338577506E+03  0.82338577506E+03  0.00000000000E+00 0. -1.
         21    1    1    2  503  502 -0.53685703832E+02 -0.17124871947E+02  0.18729084041E+02  0.59381770133E+02  0.00000000000E+00 0.  1.
         21    1    1    2  504  505 -0.17025748752E+03  0.35186732952E+02 -0.66186871336E+03  0.68432149751E+03  0.00000000000E+00 0. -1.
         21    1    1    2  505  501 -0.53086091903E+02  0.54531791218E+02 -0.10617769123E+03  0.13063518485E+03  0.00000000000E+00 0. -1.
          2    1    1    2  501    0  0.27702928326E+03 -0.72593652222E+02  0.17624482764E+04  0.17855640535E+04  0.00000000000E+00 0. -1.
<scales pt_clust_3="56.35083" pt_clust_4="77.79521" pt_clust_5="77.79521" pt_clust_6="285.69810"></scales>
<clustering>
<clus scale="   56.351">  2  3  1 -1</clus>
<clus scale="   77.795">  4  5 -1 -1</clus>
<clus scale="  285.698">  1  6  2 -1</clus>
<clus scale="   56.351">  2  3  1 -1</clus>
</clustering>
</event>
<event>
 6    0  0.1993420E+002  0.1695349E+03  0.7546771E-02  0.1178334E+00
          1   -1    0    0  504    0 -0.00000000000E+00  0.00000000000E+00  0.63415685090E+03  0.63415685090E+03  0.00000000000E+00 0. -1.
         21   -1    0    0  503  502  0.00000000000E+00 -0.00000000000E+00 -0.36684940811E+03  0.36684940811E+03  0.00000000000E+00 0.  1.
         21    1    1    2  503  505 -0.83248174277E+02  0.41979813823E+02 -0.18127790736E+03  0.20384857857E+03  0.00000000000E+00 0.  1.
         21    1    1    2  504  502  0.33776660203E+02 -0.13148746585E+03  0.82862199379E+02  0.15904703875E+03  0.00000000000E+00 0.  1.
         21    1    1    2  505  501 -0.54271786048E+02  0.65237141980E+02 -0.11657124807E+03  0.14418795834E+03  0.00000000000E+00 0. -1.
          1    1    1    2  501    0  0.10374330012E+03  0.24270510046E+02  0.48229439883E+03  0.49392268334E+03  0.00000000000E+00 0. -1.
<scales pt_clust_3="42.75218" pt_clust_4="163.50528" pt_clust_5="42.75218" pt_clust_6="106.54450"></scales>
<clustering>
<clus scale="   42.752">  3  5 -1 -1</clus>
<clus scale="  106.544">  1  6  2 -1</clus>
<clus scale="  163.505">  1  4  2 -1</clus>
<clus scale="  169.535">  2  3  1 -1</clus>
</clustering>
</event>
<event>
 6    0  0.1993420E+002  0.8539071E+02  0.7546771E-02  0.1314414E+00
         21   -1    0    0  503  502  0.00000000000E+00  0.00000000000E+00  0.12110674930E+03  0.12110674930E+03  0.00000000000E+00 0. -1.
          1   -1    0    0  505    0 -0.00000000000E+00 -0.00000000000E+00 -0.36330126343E+03  0.36330126343E+03  0.00000000000E+00 0. -1.
         21    1    1    2  503  501  0.23802718203E+02 -0.46177125352E+02  0.19999783402E+02  0.55667653407E+02  0.00000000000E+00 0. -1.
         21    1    1    2  504  502 -0.49934487190E+02  0.57000169435E+01  0.37888721821E+02  0.62940435693E+02  0.00000000000E+00 0. -1.
         21    1    1    2  505  504 -0.65214363153E+02  0.31258624241E+02 -0.26167315626E+02  0.76907367384E+02  0.00000000000E+00 0. -1.
          1    1    1    2  501    0  0.91346132139E+02  0.92184841675E+01 -0.27391570373E+03  0.28889255625E+03  0.00000000000E+00 0. -1.
<scales pt_clust_3="43.22539" pt_clust_4="50.25876" pt_clust_5="14000.00000" pt_clust_6="85.39071"></scales>
<clustering>
<clus scale="   50.259">  1  4  2 -1</clus>
<clus scale="   43.225">  1  3  2 -1</clus>
<clus scale="   85.391">  2  6  1 -1</clus>
<clus scale="   50.259">  1  3  2 -1</clus>
</clustering>
</event>
<event>
 6    0  0.1993420E+002  0.9021629E+02  0.7546771E-02  0.1302329E+00
         21   -1    0    0  505  502  0.00000000000E+00  0.00000000000E+00  0.31988633069E+03  0.31988633069E+03  0.00000000000E+00 0.  1.
          1   -1    0    0  504    0 -0.00000000000E+00 -0.00000000000E+00 -0.14514276559E+04  0.14514276559E+04  0.00000000000E+00 0.  1.
         21    1    1    2  503  502  0.15409445985E+02  0.51466962598E+02  0.20329341561E+03  0.21027247108E+03  0.00000000000E+00 0.  1.
         21    1    1    2  504  503  0.42706151289E+02  0.59495818346E+02  0.32408249024E+02  0.80086592907E+02  0.00000000000E+00 0.  1.
         21    1    1    2  505  501 -0.41648592528E+02 -0.21633681579E+02  0.45457249351E+02  0.65337454471E+02  0.00000000000E+00 0.  1.
          1    1    1    2  501    0 -0.16467004746E+02 -0.89329099366E+02 -0.14127002392E+04  0.14156174681E+04  0.00000000000E+00 0.  1.
<scales pt_clust_3="38.57631" pt_clust_4="14000.00000" pt_clust_5="46.93209" pt_clust_6="90.21629"></scales>
<clustering>
<clus scale="   46.932">  1  5  2 -1</clus>
<clus scale="   38.576">  1  3  2 -1</clus>
<clus scale="   90.216">  2  6  1 -1</clus>
<clus scale="   46.932">  1  3  2 -1</clus>
</clustering>
</event>
<event>
 6    0  0.1993420E+002  0.1521126E+03  0.7546771E-02  0.1197901E+00
         -1   -1    0    0    0  501 -0.00000000000E+00  0.00000000000E+00  0.28161210155E+03  0.28161210155E+03  0.00000000000E+00 0. -1.
         21   -1    0    0  503  502  0.00000000000E+00 -0.00000000000E+00 -0.31602101426E+03  0.31602101426E+03  0.00000000000E+00 0. -1.
         21    1    1    2  503  501  0.29723357883E+02 -0.42709627439E+02  0.12444166979E+02  0.53501846432E+02  0.00000000000E+00 0. -1.
         21    1    1    2  504  502 -0.49555216189E+02  0.95508320119E+02 -0.19681325263E+03  0.22430562871E+03  0.00000000000E+00 0. -1.
         21    1    1    2  505  504 -0.45372673105E+02  0.15212219795E+02 -0.67551492775E+02  0.82784631858E+02  0.00000000000E+00 0.  1.
         -1    1    1    2    0  505  0.65204531411E+02 -0.68010912475E+02  0.21751166572E+03  0.23704100880E+03  0.00000000000E+00 0. -1.
<scales pt_clust_3="52.03451" pt_clust_4="37.40198" pt_clust_5="37.40198" pt_clust_6="141.39620"></scales>
<clustering>
<clus scale="   37.402">  4  5 -1 -1</clus>
<clus scale="   52.035">  1  3  2 -1</clus>
<clus scale="  141.396">  1  6  2 -1</clus>
<clus scale="  152.113">  2  3  1 -1</clus>
</clustering>
</event>
<event>
 6    0  0.1993420E+002  0.7839468E+02  0.7546771E-02  0.1333670E+00
         21   -1    0    0  504  502  0.00000000000E+00  0.00000000000E+00  0.49744482387E+03  0.49744482387E+03  0.00000000000E+00 0. -1.
         -3   -1    0    0    0  501 -0.00000000000E+00 -0.00000000000E+00 -0.13364067900E+03  0.13364067900E+03  0.00000000000E+00 0.  1.
         21    1    1    2  503  505 -0.41304292375E+02  0.22174151982E+02  0.91436965242E+02  0.10275434880E+03  0.00000000000E+00 0. -1.
         21    1    1    2  504  501  0.11908059269E+03 -0.48184328501E+02  0.34123939092E+03  0.36461793563E+03  0.00000000000E+00 0. -1.
         21    1    1    2  505  502 -0.20378747612E+02 -0.24926704821E+02  0.26217054400E+02  0.41520692539E+02  0.00000000000E+00 0. -1.
         -3    1    1    2    0  503 -0.57397552708E+02  0.50936881340E+02 -0.95089265685E+02  0.12219252590E+03  0.00000000000E+00 0.  1.
<scales pt_clust_3="48.62382" pt_clust_4="78.39468" pt_clust_5="32.19680" pt_clust_6="14000.00000"></scales>
<clustering>
<clus scale="   32.197">  1  5  2 -1</clus>
<clus scale="   48.624">  1  3  2 -1</clus>
<clus scale="   78.395">  1  4  2 -1</clus>
<clus scale="   32.197">  1  3  2 -1</clus>
</clustering>
</event>
<event>
 6    0  0.1993420E+002  0.1093671E+03  0.7546771E-02  0.1261746E+00
          2   -1    0    0  505    0 -0.00000000000E+00  0.00000000000E+00  0.25968173059E+04  0.25968173059E+04  0.00000000000E+00 0. -1.
         21   -1    0    0  503  502  0.00000000000E+00 -0.00000000000E+00 -0.69364116736E+02  0.69364116736E+02  0.00000000000E+00 0.  1.
         21    1    1    2  503  504 -0.55948236353E+02 -0.43918671543E+02  0.48882986321E+02  0.86305279171E+02  0.00000000000E+00 0.  1.
         21    1    1    2  504  501  0.10670895037E+03  0.16031168852E+02  0.20763636383E+03  0.23400140608E+03  0.00000000000E+00 0. -1.
         21    1    1    2  505  502 -0.80516535442E+02  0.79680201746E+01  0.65138202989E+01  0.81171618686E+02  0.00000000000E+00 0.  1.
          2    1    1    2  501    0  0.29755821429E+02  0.19919482517E+02  0.22644200187E+04  0.22647031187E+04  0.00000000000E+00 0. -1.
<scales pt_clust_3="63.86548" pt_clust_4="109.36707" pt_clust_5="14000.00000" pt_clust_6="35.80775"></scales>
<clustering>
<clus scale="   35.808">  1  6  2 -1</clus>
<clus scale="   63.865">  2  3  1 -1</clus>
<clus scale="  109.367">  1  4  2 -1</clus>
<clus scale="   63.865">  2  3  1 -1</clus>
</clustering>
</event>
<event>
 6    0  0.1993420E+002  0.1705978E+03  0.7546771E-02  0.1177226E+00
          2   -1    0    0  505    0 -0.00000000000E+00  0.00000000000E+00  0.39385547385E+03  0.39385547385E+03  0.00000000000E+00 0.  1.
         21   -1    0    0  503  502  0.00000000000E+00 -0.00000000000E+00 -0.74719177631E+03  0.74719177631E+03  0.00000000000E+00 0.  1.
         21    1    1    2  503  501 -0.15031753862E+02 -0.32610091848E+02 -0.23119760161E+02  0.42707084007E+02  0.00000000000E+00 0. -1.
         21    1    1    2  504  502 -0.37813711191E+02 -0.13962439090E+03 -0.36223447982E+03  0.39004956820E+03  0.00000000000E+00 0. -1.
         21    1    1    2  505  504  0.21895139700E+03  0.17895444752E+03 -0.25227793546E+03  0.37895720768E+03  0.00000000000E+00 0.  1.
          2    1    1    2  501    0 -0.16610593194E+03 -0.67199647756E+01  0.28429587298E+03  0.32933339027E+03  0.00000000000E+00 0.  1.
<scales pt_clust_3="35.90782" pt_clust_4="163.32938" pt_clust_5="14000.00000" pt_clust_6="170.59781"></scales>
<clustering>
<clus scale="   35.908">  2  3  1 -1</clus>
<clus scale="  163.329">  2  4  1 -1</clus>
<clus scale="  170.598">  1  6  2 -1</clus>
<clus scale="   35.908">  2  3  1 -1</clus>
</clustering>
</event>
<event>
 6    0  0.1993420E+002  0.7411067E+02  0.7546771E-02  0.1346647E+00
          2   -1    0    0  505    0 -0.00000000000E+00  0.00000000000E+00  0.10121091791E+04  0.10121091791E+04  0.00000000000E+00 0.  1.
         21   -1    0    0  504  502  0.00000000000E+00 -0.00000000000E+00 -0.17413386793E+04  0.17413386793E+04  0.00000000000E+00 0.  1.
         21    1    1    2  503  502 -0.98764883351E+02 -0.20594299032E+00 -0.77418491382E+03  0.78045936818E+03  0.00000000000E+00 0.  1.
         21    1    1    2  504  501  0.58023129718E+02 -0.17078293323E+02 -0.36902405261E+03  0.37394799516E+03  0.00000000000E+00 0. -1.
         21    1    1    2  505  503  0.38490022773E+02  0.80314570443E+02 -0.58818693699E+03  0.59489140600E+03  0.00000000000E+00 0. -1.
          2    1    1    2  501    0  0.22517308601E+01 -0.63030334129E+02  0.10021664032E+04  0.10041490890E+04  0.00000000000E+00 0.  1.
<scales pt_clust_3="74.11067" pt_clust_4="60.48431" pt_clust_5="14000.00000" pt_clust_6="63.08441"></scales>
<clustering>
<clus scale="   60.484">  2  4  1 -1</clus>
<clus scale="   63.084">  1  6  2 -1</clus>
<clus scale="   74.111">  2  3  1 -1</clus>
<clus scale="   60.484">  2  3  1 -1</clus>
</clustering>
</event>
<event>
 6    0  0.1993420E+002  0.1215468E+03  0.7546771E-02  0.1240567E+00
         21   -1    0    0  503  502  0.00000000000E+00  0.00000000000E+00  0.16404452169E+04  0.16404452169E+04  0.00000000000E+00 0.  1.
          1   -1    0    0  505    0 -0.00000000000E+00 -0.00000000000E+00 -0.91469052512E+03  0.91469052512E+03  0.00000000000E+00 0.  1.
         21    1    1    2  503  501  0.30858413881E+02  0.51466390124E+02  0.26703959752E+03  0.27369906405E+03  0.00000000000E+00 0. -1.
         21    1    1    2  504  502 -0.11705674318E+03 -0.34107127658E+02  0.27129368186E+03  0.29743207476E+03  0.00000000000E+00 0.  1.
         21    1    1    2  505  504  0.15183737590E+03 -0.11938102978E+03  0.10729543496E+04  0.10902006491E+04  0.00000000000E+00 0.  1.
          1    1    1    2  501    0 -0.65639046602E+02  0.10202176732E+03 -0.88553293722E+03  0.89380395409E+03  0.00000000000E+00 0.  1.
<scales pt_clust_3="60.00859" pt_clust_4="113.10438" pt_clust_5="14000.00000" pt_clust_6="121.54683"></scales>
<clustering>
<clus scale="   60.009">  1  3  2 -1</clus>
<clus scale="  113.104">  1  4  2 -1</clus>
<clus scale="  121.547">  2  6  1 -1</clus>
<clus scale="   60.009">  1  3  2 -1</clus>
</clustering>
</event>
<event>
 6    0  0.1993420E+002  0.3793009E+03  0.7546771E-02  0.1051192E+00
         21   -1    0    0  503  502  0.00000000000E+00  0.00000000000E+00  0.41595591113E+03  0.41595591113E+03  0.00000000000E+00 0.  1.
          2   -1    0    0  504    0 -0.00000000000E+00 -0.00000000000E+00 -0.14283372971E+04  0.14283372971E+04  0.00000000000E+00 0.  1.
         21    1    1    2  503  501  0.29765480863E+02  0.11509989515E+02 -0.12382991760E+01  0.31937393358E+02  0.00000000000E+00 0. -1.
         21    1    1    2  504  505 -0.77575578644E+02  0.17526842697E+03  0.22243319372E+03  0.29362138471E+03  0.00000000000E+00 0.  1.
         21    1    1    2  505  502 -0.87495537683E+02  0.14541296958E+03  0.57168707695E+02  0.17907725142E+03  0.00000000000E+00 0.  1.
          2    1    1    2  501    0  0.13530563546E+03 -0.33219138606E+03 -0.12907449882E+04  0.13396571787E+04  0.00000000000E+00 0.  1.
<scales pt_clust_3="31.91338" pt_clust_4="115.43765" pt_clust_5="115.43765" pt_clust_6="358.73030"></scales>
<clustering>
<clus scale="   31.913">  1  3  2 -1</clus>
<clus scale="  115.438">  4  5 -1 -1</clus>
<clus scale="  358.730">  2  6  1 -1</clus>
<clus scale="   31.913">  1  3  2 -1</clus>
</clustering>
</event>
<event>
 6    0  0.1993420E+002  0.8144934E+02  0.7546771E-02  0.1324988E+00
         -2   -1    0    0    0  501 -0.00000000000E+00  0.00000000000E+00  0.30246714386E+03  0.30246714386E+03  0.00000000000E+00 0.  1.
         21   -1    0    0  504  502  0.00000000000E+00 -0.00000000000E+00 -0.32235983290E+04  0.32235983290E+04  0.00000000000E+00 0.  1.
         21    1    1    2  503  502 -0.96055735754E+01  0.62817908592E+02 -0.19072146793E+03  0.20102993562E+03  0.00000000000E+00 0. -1.
         21    1    1    2  504  505  0.69123580835E+02 -0.50713001815E+02 -0.29297258103E+04  0.29309799047E+04  0.00000000000E+00 0.  1.
         21    1    1    2  505  501 -0.55709011578E+02 -0.48779283715E+02 -0.81912650627E+02  0.11042008342E+03  0.00000000000E+00 0. -1.
         -2    1    1    2    0  503 -0.38089956811E+01  0.36674376937E+02  0.28122874380E+03  0.28363554909E+03  0.00000000000E+00 0.  1.
<scales pt_clust_3="14000.00000" pt_clust_4="81.44934" pt_clust_5="62.66973" pt_clust_6="36.87165"></scales>
<clustering>
<clus scale="   36.872">  1  6  2 -1</clus>
<clus scale="   62.670">  1  5  2 -1</clus>
<clus scale="   81.449">  2  4  1 -1</clus>
<clus scale="   81.449">  2  3  1 -1</clus>
</clustering>
</event>
<event>
 6    0  0.1993420E+002  0.1302137E+03  0.7546771E-02  0.1227139E+00
         21   -1    0    0  503  502  0.00000000000E+00  0.00000000000E+00  0.12238653353E+03  0.12238653353E+03  0.00000000000E+00 0.  1.
          1   -1    0    0  504    0 -0.00000000000E+00 -0.00000000000E+00 -0.31375649254E+03  0.31375649254E+03  0.00000000000E+00 0. -1.
         21    1    1    2  503  501 -0.37677297611E+02 -0.15842590225E+02  0.19859030010E+02  0.45441693336E+02  0.00000000000E+00 0.  1.
         21    1    1    2  504  505 -0.34574196132E+02  0.39816877578E+02 -0.38818061061E+00  0.52734329069E+02  0.00000000000E+00 0.  1.
         21    1    1    2  505  502 -0.47657388083E+02  0.28225439871E+02  0.30675785971E+02  0.63315921692E+02  0.00000000000E+00 0.  1.
          1    1    1    2  501    0  0.11990888183E+03 -0.52199727224E+02 -0.24151659438E+03  0.27465108196E+03  0.00000000000E+00 0. -1.
<scales pt_clust_3="40.87256" pt_clust_4="33.21118" pt_clust_5="33.21118" pt_clust_6="125.68638"></scales>
<clustering>
<clus scale="   33.211">  4  5 -1 -1</clus>
<clus scale="   40.873">  1  3  2 -1</clus>
<clus scale="  125.686">  2  6  1 -1</clus>
<clus scale="   40.873">  1  3  2 -1</clus>
</clustering>
</event>
<event>
 6    0  0.1993420E+002  0.8293484E+02  0.7546771E-02  0.1320923E+00
         21   -1    0    0  501  502  0.00000000000E+00  0.00000000000E+00  0.38788792222E+03  0.38788792222E+03  0.00000000000E+00 0. -1.
          1   -1    0    0  503    0 -0.00000000000E+00 -0.00000000000E+00 -0.22282425665E+03  0.22282425665E+03  0.00000000000E+00 0. -1.
         21    1    1    2  503  504  0.64367391933E+02  0.41304493559E+02  0.37123011602E+02  0.85013765490E+02  0.00000000000E+00 0. -1.
         21    1    1    2  504  505  0.14725681106E+02  0.46640600701E+02  0.31059646972E+02  0.57938700260E+02  0.00000000000E+00 0. -1.
         21    1    1    2  505  502 -0.15559396990E+02 -0.61029836094E+02  0.27217895788E+03  0.27937093772E+03  0.00000000000E+00 0. -1.
          1    1    1    2  501    0 -0.63533676049E+02 -0.26915258166E+02 -0.17529795089E+03  0.18838877541E+03  0.00000000000E+00 0. -1.
<scales pt_clust_3="33.89499" pt_clust_4="33.89499" pt_clust_5="62.98203" pt_clust_6="71.28610"></scales>
<clustering>
<clus scale="   33.895">  3  4 -1 -1</clus>
<clus scale="   62.982">  1  5  2 -1</clus>
<clus scale="   71.286">  2  6  1 -1</clus>
<clus scale="   62.982">  1  3  2 -1</clus>
</clustering>
</event>
<event>
 6    0  0.1993420E+002  0.1332114E+03  0.7546771E-02  0.1222767E+00
         -3   -1    0    0    0  501 -0.00000000000E+00  0.00000000000E+00  0.21577220462E+04  0.21577220462E+04  0.00000000000E+00 0.  1.
         21   -1    0    0  503  502  0.00000000000E+00 -0.00000000000E+00 -0.15775720263E+04  0.15775720263E+04  0.00000000000E+00 0.  1.
         21    1    1    2  503  505  0.18158514266E+02  0.48202348683E+02 -0.75806390919E+03  0.75981187703E+03  0.00000000000E+00 0.  1.
         21    1    1    2  504  501 -0.48066378318E+02 -0.10378776137E+03 -0.58124119232E+02  0.12829921812E+03  0.00000000000E+00 0. -1.
         21    1    1    2  505  504 -0.31499932950E+02  0.73228373245E+02 -0.72274954237E+03  0.72713240983E+03  0.00000000000E+00 0.  1.
         -3    1    1    2    0  502  0.61407797002E+02 -0.17642960558E+02  0.21190875907E+04  0.21200505675E+04  0.00000000000E+00 0.  1.
<scales pt_clust_3="45.97670" pt_clust_4="120.30733" pt_clust_5="45.97670" pt_clust_6="63.89203"></scales>
<clustering>
<clus scale="   45.977">  3  5 -1 -1</clus>
<clus scale="   63.892">  1  6  2 -1</clus>
<clus scale="  120.307">  1  4  2 -1</clus>
<clus scale="  133.211">  2  3  1 -1</clus>
</clustering>
</event>
<event>
 6    0  0.1993420E+002  0.6804348E+02  0.7546771E-02  0.1366876E+00
         21   -1    0    0  503  502  0.00000000000E+00  0.00000000000E+00  0.69561666854E+03  0.69561666854E+03  0.00000000000E+00 0. -1.
          2   -1    0    0  505    0 -0.00000000000E+00 -0.00000000000E+00 -0.28399361706E+04  0.28399361706E+04  0.00000000000E+00 0.  1.
         21    1    1    2  503  504  0.23213310925E+02  0.46379135371E+02  0.26459852835E+03  0.26963357211E+03  0.00000000000E+00 0. -1.
         21    1    1    2  504  501  0.79831253656E+02 -0.86606307761E+02 -0.78818393334E+02  0.14172515914E+03  0.00000000000E+00 0. -1.
         21    1    1    2  505  502 -0.40503342430E+02  0.20459747880E+02  0.39535485338E+03  0.39795047698E+03  0.00000000000E+00 0. -1.
          2    1    1    2  501    0 -0.62541222150E+02  0.19767424509E+02 -0.27254544904E+04  0.27262436309E+04  0.00000000000E+00 0.  1.
<scales pt_clust_3="14000.00000" pt_clust_4="68.04348" pt_clust_5="45.37755" pt_clust_6="65.64993"></scales>
<clustering>
<clus scale="   45.378">  1  5  2 -1</clus>
<clus scale="   65.650">  2  6  1 -1</clus>
<clus scale="   68.043">  2  4  1 -1</clus>
<clus scale="   45.378">  1  3  2 -1</clus>
</clustering>
</event>
<event>
 6    0  0.1993420E+002  0.1689608E+03  0.7546771E-02  0.1178936E+00
          2   -1    0    0  502    0 -0.00000000000E+00  0.00000000000E+00  0.30699341998E+03  0.30699341998E+03  0.00000000000E+00 0. -1.
         21   -1    0    0  504  502  0.00000000000E+00 -0.00000000000E+00 -0.12971583928E+04  0.12971583928E+04  0.00000000000E+00 0. -1.
         21    1    1    2  503  505  0.50344600503E+02  0.12025913297E+02 -0.21911486859E+03  0.22514556852E+03  0.00000000000E+00 0. -1.
         21    1    1    2  504  503  0.10102813780E+03  0.38215751875E+02 -0.10257962179E+04  0.10314674057E+04  0.00000000000E+00 0. -1.
         21    1    1    2  505  501 -0.98277569346E+02 -0.81092415277E+02  0.55379377043E+02  0.13892924765E+03  0.00000000000E+00 0. -1.
          2    1    1    2  501    0 -0.53095168956E+02  0.30850750105E+02  0.19936673663E+03  0.20860959092E+03  0.00000000000E+00 0. -1.
<scales pt_clust_3="42.86686" pt_clust_4="42.86686" pt_clust_5="157.20409" pt_clust_6="61.40738"></scales>
<clustering>
<clus scale="   42.867">  3  4 -1 -1</clus>
<clus scale="   61.407">  1  6  2 -1</clus>
<clus scale="  157.204">  1  5  2 -1</clus>
<clus scale="  168.961">  2  3  1 -1</clus>
</clustering>
</event>
<event>
 6    0  0.1993420E+002  0.9931581E+02  0.7546771E-02  0.1281741E+00
         21   -1    0    0  504  502  0.00000000000E+00  0.00000000000E+00  0.78673380612E+03  0.78673380612E+03  0.00000000000E+00 0.  1.
          2   -1    0    0  503    0 -0.00000000000E+00 -0.00000000000E+00 -0.37029146812E+03  0.37029146812E+03  0.00000000000E+00 0. -1.
         21    1    1    2  503  502 -0.42695987767E+02  0.14527215720E+02  0.71374033421E+02  0.84428905090E+02  0.00000000000E+00 0. -1.
         21    1    1    2  504  505 -0.27746483577E+02  0.18821809688E+02  0.62097784912E+03  0.62188231762E+03  0.00000000000E+00 0.  1.
         21    1    1    2  505  501  0.29292993117E+02  0.62643039972E+02  0.64547957713E+02  0.94597403493E+02  0.00000000000E+00 0. -1.
          2    1    1    2  501    0  0.41149478226E+02 -0.95992065380E+02 -0.34045750225E+03  0.35611664804E+03  0.00000000000E+00 0. -1.
<scales pt_clust_3="60.48084" pt_clust_4="33.52802" pt_clust_5="14000.00000" pt_clust_6="99.31581"></scales>
<clustering>
<clus scale="   33.528">  1  4  2 -1</clus>
<clus scale="   60.481">  1  3  2 -1</clus>
<clus scale="   99.316">  2  6  1 -1</clus>
<clus scale="   33.528">  1  3  2 -1</clus>
</clustering>
</event>
<event>
 6    0  0.1993420E+002  0.1513068E+03  0.7546771E-02  0.1198876E+00
         21   -1    0    0  501  502  0.00000000000E+00  0.00000000000E+00  0.16573150375E+03  0.16573150375E+03  0.00000000000E+00 0.  1.
          2   -1    0    0  504    0 -0.00000000000E+00 -0.00000000000E+00 -0.20918519743E+04  0.20918519743E+04  0.00000000000E+00 0.  1.
         21    1    1    2  503  502 -0.97219622646E+02 -0.99005750950E+02  0.11612314401E+03  0.18093749839E+03  0.00000000000E+00 0.  1.
         21    1    1    2  504  505  0.21855028184E+02  0.44298138757E+02 -0.19771246235E+03  0.20378956088E+03  0.00000000000E+00 0.  1.
         21    1    1    2  505  503  0.93523551468E+02  0.85619856287E+02 -0.27400124777E+03  0.30191736991E+03  0.00000000000E+00 0.  1.
          2    1    1    2  501    0 -0.18158957006E+02 -0.30912244094E+02 -0.15705299044E+04  0.15709390488E+04  0.00000000000E+00 0.  1.
<scales pt_clust_3="140.92192" pt_clust_4="34.38390" pt_clust_5="34.38390" pt_clust_6="35.85128"></scales>
<clustering>
<clus scale="   34.384">  4  5 -1 -1</clus>
<clus scale="   35.851">  2  6  1 -1</clus>
<clus scale="  140.922">  1  3  2 -1</clus>
<clus scale="  140.922">  1  3  2 -1</clus>
</clustering>
</event>
<event>
 6    0  0.1993420E+002  0.1536421E+03  0.7546771E-02  0.1196068E+00
         21   -1    0    0  503  502  0.00000000000E+00  0.00000000000E+00  0.16845762105E+04  0.16845762105E+04  0.00000000000E+00 0.  1.
          2   -1    0    0  502    0 -0.00000000000E+00 -0.00000000000E+00 -0.27558313728E+03  0.27558313728E+03  0.00000000000E+00 0.  1.
         21    1    1    2  503  504 -0.29617152201E+02 -0.30970367262E+02  0.62724128894E+03  0.62870340694E+03  0.00000000000E+00 0.  1.
         21    1    1    2  504  505 -0.59603383995E+02 -0.99484643539E+01  0.56508158052E+03  0.56830337670E+03  0.00000000000E+00 0.  1.
         21    1    1    2  505  501 -0.41257538510E+02  0.23726302600E+02  0.47280018682E+03  0.47518958172E+03  0.00000000000E+00 0.  1.
          2    1    1    2  501    0  0.13047807471E+03  0.17192529016E+02 -0.25612998304E+03  0.28796298243E+03  0.00000000000E+00 0.  1.
<scales pt_clust_3="41.95364" pt_clust_4="41.95364" pt_clust_5="32.19742" pt_clust_6="131.60589"></scales>
<clustering>
<clus scale="   32.197">  4  5 -1 -1</clus>
<clus scale="   41.954">  3  4 -1 -1</clus>
<clus scale="  131.606">  2  6  1 -1</clus>
<clus scale="  153.642">  1  3  2 -1</clus>
</clustering>
</event>
<event>
 6    0  0.1993420E+002  0.1248525E+03  0.7546771E-02  0.1235300E+00
         -1   -1    0    0    0  501 -0.00000000000E+00  0.00000000000E+00  0.57246268318E+03  0.57246268318E+03  0.00000000000E+00 0. -1.
         21   -1    0    0  505  502  0.00000000000E+00 -0.00000000000E+00 -0.16714375683E+03  0.16714375683E+03  0.00000000000E+00 0. -1.
         21    1    1    2  503  501 -0.10563629565E+02 -0.37859786055E+02  0.71931414388E+02  0.81970006988E+02  0.00000000000E+00 0. -1.
         21    1    1    2  504  502 -0.86667335757E+02 -0.51070480533E+02  0.15953032870E+02  0.10185244389E+03  0.00000000000E+00 0.  1.
         21    1    1    2  505  503  0.64021369702E+02  0.14443625833E+03 -0.62854734191E+02  0.17003319120E+03  0.00000000000E+00 0. -1.
         -1    1    1    2    0  504  0.33209595620E+02 -0.55505991746E+02  0.38028921328E+03  0.38575079793E+03  0.00000000000E+00 0. -1.
<scales pt_clust_3="39.30590" pt_clust_4="124.85251" pt_clust_5="14000.00000" pt_clust_6="88.39284"></scales>
<clustering>
<clus scale="   39.306">  1  3  2 -1</clus>
<clus scale="   88.393">  1  6  2 -1</clus>
<clus scale="  124.853">  1  4  2 -1</clus>
<clus scale="  124.853">  2  3  1 -1</clus>
</clustering>
</event>
<event>
 6    0  0.1993420E+002  0.8195591E+02  0.7546771E-02  0.1323591E+00
         21   -1    0    0  505  502  0.00000000000E+00  0.00000000000E+00  0.12757539358E+03  0.12757539358E+03  0.00000000000E+00 0. -1.
          2   -1    0    0  504    0 -0.00000000000E+00 -0.00000000000E+00 -0.26043067448E+04  0.26043067448E+04  0.00000000000E+00 0.  1.
         21    1    1    2  503  502  0.44822521775E+02  0.17942724914E+02  0.54427105660E+02  0.72755134981E+02  0.00000000000E+00 0. -1.
         21    1    1    2  504  503 -0.11986776325E+03  0.16074668984E+02 -0.28468239908E+01  0.12097429502E+03  0.00000000000E+00 0. -1.
         21    1    1    2  505  501  0.39265142992E+02 -0.11107686615E+01 -0.77753963972E+02  0.87112939191E+02  0.00000000000E+00 0. -1.
          2    1    1    2  501    0  0.35780098481E+02 -0.32906625237E+02 -0.24505576689E+04  0.24510397692E+04  0.00000000000E+00 0.  1.
<scales pt_clust_3="81.95591" pt_clust_4="14000.00000" pt_clust_5="39.28085" pt_clust_6="48.66952"></scales>
<clustering>
<clus scale="   39.281">  1  5  2 -1</clus>
<clus scale="   48.670">  2  6  1 -1</clus>
<clus scale="   81.956">  1  3  2 -1</clus>
<clus scale="   39.281">  1  3  2 -1</clus>
</clustering>
</event>
<event>
 6    0  0.1993420E+002  0.8561656E+02  0.7546771E-02  0.1313828E+00
         21   -1    0    0  505  502  0.00000000000E+00  0.00000000000E+00  0.11132115887E+03  0.11132115887E+03  0.00000000000E+00 0. -1.
          1   -1    0    0  504    0 -0.00000000000E+00 -0.00000000000E+00 -0.10459266692E+04  0.10459266692E+04  0.00000000000E+00 0.  1.
         21    1    1    2  503  502 -0.24180245394E+02  0.25410145927E+02  0.13872641126E+02  0.37720153170E+02  0.00000000000E+00 0. -1.
         21    1    1    2  504  503 -0.93096782803E+02 -0.42615497122E+02 -0.30467551200E+02  0.10682398251E+03  0.00000000000E+00 0. -1.
         21    1    1    2  505  501  0.32470918716E+02  0.10423163258E+02  0.39063783116E+02  0.51855395534E+02  0.00000000000E+00 0. -1.
          1    1    1    2  501    0  0.84806109480E+02  0.67821879365E+01 -0.95707438337E+03  0.96084829686E+03  0.00000000000E+00 0.  1.
<scales pt_clust_3="31.64171" pt_clust_4="85.61656" pt_clust_5="34.10283" pt_clust_6="14000.00000"></scales>
<clustering>
<clus scale="   34.103">  1  5  2 -1</clus>
<clus scale="   31.642">  1  3  2 -1</clus>
<clus scale="   85.617">  1  4  2 -1</clus>
<clus scale="   34.103">  1  3  2 -1</clus>
</clustering>
</event>
<event>
 6    0  0.1993420E+002  0.4150065E+03  0.7546771E-02  0.1038704E+00
          1   -1    0    0  505    0 -0.00000000000E+00  0.00000000000E+00  0.13639617949E+04  0.13639617949E+04  0.00000000000E+00 0. -1.
         21   -1    0    0  503  502  0.00000000000E+00 -0.00000000000E+00 -0.73024705023E+03  0.73024705023E+03  0.00000000000E+00 0.  1.
         21    1    1    2  503  504  0.84166317663E+02  0.13961271883E+02 -0.91548129566E+02  0.12513970660E+03  0.00000000000E+00 0. -1.
         21    1    1    2  504  501  0.19417694568E+03  0.26046505935E+03 -0.52252573903E+03  0.61528845376E+03  0.00000000000E+00 0.  1.
         21    1    1    2  505  502 -0.75998094792E+01  0.49028706327E+02  0.16566051268E+02  0.52306837056E+02  0.00000000000E+00 0.  1.
          1    1    1    2  501    0 -0.27074345387E+03 -0.32345503756E+03  0.12312225620E+04  0.13014738477E+04  0.00000000000E+00 0. -1.
<scales pt_clust_3="69.31566" pt_clust_4="69.31566" pt_clust_5="49.61422" pt_clust_6="392.26013"></scales>
<clustering>
<clus scale="   49.614">  1  5  2 -1</clus>
<clus scale="   69.316">  3  4 -1 -1</clus>
<clus scale="  392.260">  1  6  2 -1</clus>
<clus scale="  415.006">  2  3  1 -1</clus>
</clustering>
</event>
<event>
 6    0  0.1993420E+002  0.1928226E+03  0.7546771E-02  0.1155940E+00
         21   -1    0    0  504  502  0.00000000000E+00  0.00000000000E+00  0.32426082574E+03  0.32426082574E+03  0.00000000000E+00 0. -1.
         -3   -1    0    0    0  501 -0.00000000000E+00 -0.00000000000E+00 -0.17352041198E+03  0.17352041198E+03  0.00000000000E+00 0.  1.
         21    1    1    2  503  501  0.65216610657E+01  0.70551807389E+02 -0.20459358659E+02  0.73747372466E+02  0.00000000000E+00 0.  1.
         21    1    1    2  504  505 -0.98283307429E+02 -0.15413233050E+03  0.18445312666E+03  0.25969085421E+03  0.00000000000E+00 0. -1.
         21    1    1    2  505  503  0.65171854595E+02  0.10588758575E+03 -0.26613443560E+02  0.12715276963E+03  0.00000000000E+00 0.  1.
         -3    1    1    2    0  502  0.26589791769E+02 -0.22307062639E+02  0.13360089325E+02  0.37190241417E+02  0.00000000000E+00 0.  1.
<scales pt_clust_3="32.68033" pt_clust_4="187.89984" pt_clust_5="32.68033" pt_clust_6="34.70767"></scales>
<clustering>
<clus scale="   32.680">  3  5 -1 -1</clus>
<clus scale="   34.708">  1  6  2 -1</clus>
<clus scale="  187.900">  1  4  2 -1</clus>
<clus scale="   34.708">  1  3  2 -1</clus>
</clustering>
</event>
<event>
 6    0  0.1993420E+002  0.1137699E+03  0.7546771E-02  0.1253744E+00
         21   -1    0    0  505  502  0.00000000000E+00  0.00000000000E+00  0.63769933715E+02  0.63769933715E+02  0.00000000000E+00 0. -1.
          1   -1    0    0  503    0 -0.00000000000E+00 -0.00000000000E+00 -0.94146645584E+03  0.94146645584E+03  0.00000000000E+00 0.  1.
         21    1    1    2  503  502  0.31065015609E+01 -0.70529810519E+02 -0.21273544435E+03  0.22414386855E+03  0.00000000000E+00 0.  1.
         21    1    1    2  504  501  0.46823691266E+02  0.64607227535E+02 -0.13381538884E+02  0.80904990553E+02  0.00000000000E+00 0. -1.
         21    1    1    2  505  504 -0.73649956800E+01  0.43352695058E+02  0.21298287052E+01  0.44025396086E+02  0.00000000000E+00 0. -1.
          1    1    1    2  501    0 -0.42565197147E+02 -0.37430112075E+02 -0.65370936759E+03  0.65616213436E+03  0.00000000000E+00 0.  1.
<scales pt_clust_3="103.31953" pt_clust_4="35.35953" pt_clust_5="35.35953" pt_clust_6="56.68165"></scales>
<clustering>
<clus scale="   35.360">  4  5 -1 -1</clus>
<clus scale="   56.682">  2  6  1 -1</clus>
<clus scale="  103.320">  2  3  1 -1</clus>
<clus scale="  113.770">  1  3  2 -1</clus>
</clustering>
</event>
<event>
 6    0  0.1993420E+002  0.1632874E+03  0.7546771E-02  0.1185034E+00
          2   -1    0    0  503    0 -0.00000000000E+00  0.00000000000E+00  0.11021288278E+04  0.11021288278E+04  0.00000000000E+00 0. -1.
         21   -1    0    0  505  502  0.00000000000E+00 -0.00000000000E+00 -0.67832227634E+03  0.67832227634E+03  0.00000000000E+00 0.  1.
         21    1    1    2  503  502 -0.35492296617E+02 -0.72883671020E+01 -0.94485684111E+01  0.37444610549E+02  0.00000000000E+00 0. -1.
         21    1    1    2  504  501  0.15587391460E+03 -0.83851023712E+01 -0.40482851761E+03  0.43388145370E+03  0.00000000000E+00 0.  1.
         21    1    1    2  505  504  0.35035787759E+02 -0.35007862384E+02 -0.22660767906E+03  0.23195710177E+03  0.00000000000E+00 0.  1.
          2    1    1    2  501    0 -0.15541740575E+03  0.50681331858E+02  0.10646913166E+04  0.10771679381E+04  0.00000000000E+00 0. -1.
<scales pt_clust_3="36.23291" pt_clust_4="14000.00000" pt_clust_5="43.83959" pt_clust_6="163.28744"></scales>
<clustering>
<clus scale="   36.233">  2  3  1 -1</clus>
<clus scale="   43.840">  2  5  1 -1</clus>
<clus scale="  163.287">  1  6  2 -1</clus>
<clus scale="   36.233">  2  3  1 -1</clus>
</clustering>
</event>
<event>
 6    0  0.1993420E+002  0.7698573E+02  0.7546771E-02  0.1337830E+00
          2   -1    0    0  503    0 -0.00000000000E+00  0.00000000000E+00  0.43717560569E+04  0.43717560569E+04  0.00000000000E+00 0.  1.
         21   -1    0    0  504  502  0.00000000000E+00 -0.00000000000E+00 -0.16442121901E+03  0.16442121901E+03  0.00000000000E+00 0.  1.
         21    1    1    2  503  505 -0.17337928564E+02 -0.33183341348E+02  0.77717684478E+02  0.86265731264E+02  0.00000000000E+00 0.  1.
         21    1    1    2  504  501  0.86032678980E+02  0.80301390303E+02 -0.88283268273E+02  0.14711855965E+03  0.00000000000E+00 0.  1.
         21    1    1    2  505  502  0.72795276446E+01 -0.35063250703E+02 -0.34482797998E+02  0.49714046610E+02  0.00000000000E+00 0.  1.
          2    1    1    2  501    0 -0.75974278060E+02 -0.12054798252E+02  0.42523832197E+04  0.42530789384E+04  0.00000000000E+00 0.  1.
<scales pt_clust_3="38.41603" pt_clust_4="76.98573" pt_clust_5="35.81094" pt_clust_6="14000.00000"></scales>
<clustering>
<clus scale="   35.811">  2  5  1 -1</clus>
<clus scale="   38.416">  2  3  1 -1</clus>
<clus scale="   76.986">  2  4  1 -1</clus>
<clus scale="   35.811">  2  3  1 -1</clus>
</clustering>
</event>
<event>
 6    0  0.1993420E+002  0.2381562E+03  0.7546771E-02  0.1121027E+00
         21   -1    0    0  504  502  0.00000000000E+00  0.00000000000E+00  0.30379489476E+03  0.30379489476E+03  0.00000000000E+00 0.  1.
          2   -1    0    0  503    0 -0.00000000000E+00 -0.00000000000E+00 -0.22652801778E+04  0.22652801778E+04  0.00000000000E+00 0. -1.
         21    1    1    2  503  502 -0.31790275173E+02  0.40624645685E+02 -0.70292137434E+02  0.87189265496E+02  0.00000000000E+00 0.  1.
         21    1    1    2  504  505  0.85862310530E+02 -0.68849035927E+01  0.18048616057E+03  0.19998748067E+03  0.00000000000E+00 0.  1.
         21    1    1    2  505  501  0.13585933961E+03 -0.11003148888E+03  0.23805510818E+02  0.17644089960E+03  0.00000000000E+00 0.  1.
          2    1    1    2  501    0 -0.18993137497E+03  0.76291746792E+02 -0.20954848170E+04  0.21054574268E+04  0.00000000000E+00 0. -1.
<scales pt_clust_3="51.58472" pt_clust_4="85.98228" pt_clust_5="238.15623" pt_clust_6="14000.00000"></scales>
<clustering>
<clus scale="   51.585">  2  3  1 -1</clus>
<clus scale="   85.982">  1  4  2 -1</clus>
<clus scale="  238.156">  1  5  2 -1</clus>
<clus scale="   85.982">  1  3  2 -1</clus>
</clustering>
</event>
<event>
 6    0  0.2202656E+002  0.1062108E+03  0.7546771E-02  0.1267752E+00
         21   -1    0    0  505  502  0.00000000000E+00  0.00000000000E+00  0.93033298319E+03  0.93033298319E+03  0.00000000000E+00 0. -1.
         -2   -1    0    0    0  501 -0.00000000000E+00 -0.00000000000E+00 -0.26104558165E+03  0.26104558165E+03  0.00000000000E+00 0. -1.
         21    1    1    2  503  502  0.21787968017E+02  0.22591412079E+02  0.90510504394E+02  0.95797906322E+02  0.00000000000E+00 0.  1.
         21    1    1    2  504  503 -0.32270356864E+02 -0.16446749771E+02  0.38120230693E+02  0.52583490739E+02  0.00000000000E+00 0. -1.
         21    1    1    2  505  501 -0.65909375809E+02  0.67890002537E+02  0.77756471437E+03  0.78330069788E+03  0.00000000000E+00 0. -1.
         -2    1    1    2    0  504  0.76391764656E+02 -0.74034664845E+02 -0.23690804792E+03  0.25969646990E+03  0.00000000000E+00 0. -1.
<scales pt_clust_3="31.38610" pt_clust_4="34.61689" pt_clust_5="106.21076" pt_clust_6="14000.00000"></scales>
<clustering>
<clus scale="   31.386">  1  3  2 -1</clus>
<clus scale="   34.617">  1  4  2 -1</clus>
<clus scale="  106.211">  1  5  2 -1</clus>
<clus scale="   31.386">  1  3  2 -1</clus>
</clustering>
</event>
<event>
 6    0  0.1993420E+002  0.1017846E+03  0.7546771E-02  0.1276587E+00
         -1   -1    0    0    0  501 -0.00000000000E+00  0.00000000000E+00  0.15525197828E+04  0.15525197828E+04  0.00000000000E+00 0.  1.
         21   -1    0    0  504  502  0.00000000000E+00 -0.00000000000E+00 -0.63659191814E+03  0.63659191814E+03  0.00000000000E+00 0. -1.
         21    1    1    2  503  502 -0.69188518718E+02 -0.32996021549E+02 -0.30347961883E+03  0.31301065095E+03  0.00000000000E+00 0. -1.
         21    1    1    2  504  505  0.26332857229E+02  0.24326790392E+02 -0.14955915284E+03  0.15379581366E+03  0.00000000000E+00 0.  1.
         21    1    1    2  505  501  0.37416530096E+02 -0.93074232688E+02 -0.16059685510E+03  0.18935194582E+03  0.00000000000E+00 0. -1.
         -1    1    1    2    0  503  0.54391313932E+01  0.10174346385E+03  0.15295634914E+04  0.15329532905E+04  0.00000000000E+00 0.  1.
<scales pt_clust_3="55.30220" pt_clust_4="35.84985" pt_clust_5="14000.00000" pt_clust_6="101.78456"></scales>
<clustering>
<clus scale="   35.850">  2  4  1 -1</clus>
<clus scale="   55.302">  2  3  1 -1</clus>
<clus scale="  101.785">  1  6  2 -1</clus>
<clus scale="   35.850">  2  3  1 -1</clus>
</clustering>
</event>
<event>
 6    0  0.1993420E+002  0.1655773E+03  0.7546771E-02  0.1182540E+00
         21   -1    0    0  503  502  0.00000000000E+00  0.00000000000E+00  0.19085851969E+03  0.19085851969E+03  0.00000000000E+00 0. -1.
          4   -1    0    0  504    0 -0.00000000000E+00 -0.00000000000E+00 -0.80446246235E+03  0.80446246235E+03  0.00000000000E+00 0.  1.
         21    1    1    2  503  501 -0.15994226059E+03 -0.48743778628E+02  0.66277092398E+02  0.17986143460E+03  0.00000000000E+00 0. -1.
         21    1    1    2  504  505 -0.17478073669E+02  0.27943947783E+02 -0.53768109911E+02  0.63066289888E+02  0.00000000000E+00 0. -1.
         21    1    1    2  505  502  0.28168553131E+02  0.15022919029E+03 -0.81845243965E+02  0.17338085523E+03  0.00000000000E+00 0. -1.
          4    1    1    2  501    0  0.14925178113E+03 -0.12942935945E+03 -0.54426768118E+03  0.57901240232E+03  0.00000000000E+00 0.  1.
<scales pt_clust_3="14000.00000" pt_clust_4="32.95978" pt_clust_5="157.04073" pt_clust_6="165.57733"></scales>
<clustering>
<clus scale="   32.960">  2  4  1 -1</clus>
<clus scale="  157.041">  1  5  2 -1</clus>
<clus scale="  165.577">  2  6  1 -1</clus>
<clus scale="  157.041">  1  3  2 -1</clus>
</clustering>
</event>
<event>
 6    0  0.1993420E+002  0.1740511E+03  0.7546771E-02  0.1173688E+00
         21   -1    0    0  503  502  0.00000000000E+00  0.00000000000E+00  0.28525293478E+03  0.28525293478E+03  0.00000000000E+00 0.  1.
         -3   -1    0    0    0  501 -0.00000000000E+00 -0.00000000000E+00 -0.15377525499E+03  0.15377525499E+03  0.00000000000E+00 0.  1.
         21    1    1    2  503  505 -0.74466322105E+02  0.80532742110E+02  0.10689681863E+03  0.15315902035E+03  0.00000000000E+00 0.  1.
         21    1    1    2  504  502  0.12555952373E+02  0.32522658534E+02  0.23918205165E+02  0.42278313548E+02  0.00000000000E+00 0.  1.
         21    1    1    2  505  501 -0.55486905731E+02  0.91300863512E+01  0.40778443772E+02  0.69462483838E+02  0.00000000000E+00 0.  1.
         -3    1    1    2    0  504  0.11739727546E+03 -0.12218548700E+03 -0.40115787781E+02  0.17412837204E+03  0.00000000000E+00 0.  1.
<scales pt_clust_3="36.24055" pt_clust_4="34.86223" pt_clust_5="36.24055" pt_clust_6="165.73681"></scales>
<clustering>
<clus scale="   34.862">  1  4  2 -1</clus>
<clus scale="   36.241">  3  5 -1 -1</clus>
<clus scale="  165.737">  2  6  1 -1</clus>
<clus scale="   34.862">  1  3  2 -1</clus>
</clustering>
</event>
<event>
 6    0  0.1993420E+002  0.2332586E+03  0.7546771E-02  0.1124367E+00
         21   -1    0    0  501  502  0.00000000000E+00  0.00000000000E+00  0.17455798996E+03  0.17455798996E+03  0.00000000000E+00 0. -1.
          1   -1    0    0  504    0 -0.00000000000E+00 -0.00000000000E+00 -0.52229727535E+03  0.52229727535E+03  0.00000000000E+00 0.  1.
         21    1    1    2  503  502  0.24444614543E+02 -0.43693135021E+02 -0.11565252671E+02  0.51384669868E+02  0.00000000000E+00 0. -1.
         21    1    1    2  504  505 -0.23297612448E+02 -0.89897439994E+02  0.44639779065E+02  0.10303901367E+03  0.00000000000E+00 0. -1.
         21    1    1    2  505  503  0.61103951484E+02 -0.54621000033E+02  0.29203290605E+02  0.87005624609E+02  0.00000000000E+00 0. -1.
          1    1    1    2  501    0 -0.62250953579E+02  0.18821157505E+03 -0.41001710239E+03  0.45542595716E+03  0.00000000000E+00 0.  1.
<scales pt_clust_3="33.67668" pt_clust_4="91.10323" pt_clust_5="91.10323" pt_clust_6="198.23919"></scales>
<clustering>
<clus scale="   33.677">  3  5 -1 -1</clus>
<clus scale="   91.103">  3  4 -1 -1</clus>
<clus scale="  198.239">  2  6  1 -1</clus>
<clus scale="  233.259">  1  3  2 -1</clus>
</clustering>
</event>
<event>
 6    0  0.1993420E+002  0.1649224E+03  0.7546771E-02  0.1183249E+00
          3   -1    0    0  503    0 -0.00000000000E+00  0.00000000000E+00  0.28265897553E+03  0.28265897553E+03  0.00000000000E+00 0.  1.
         21   -1    0    0  505  502  0.00000000000E+00 -0.00000000000E+00 -0.10072172106E+04  0.10072172106E+04  0.00000000000E+00 0.  1.
         21    1    1    2  503  504  0.93144658036E+01  0.47146453211E+02 -0.30159946667E+02  0.56737727365E+02  0.00000000000E+00 0. -1.
         21    1    1    2  504  502  0.71890560981E+02 -0.31711957318E+01 -0.18239728181E+03  0.19607926370E+03  0.00000000000E+00 0.  1.
         21    1    1    2  505  501  0.82670343760E+02 -0.70268297442E+02 -0.74396408432E+03  0.75183414269E+03  0.00000000000E+00 0.  1.
          3    1    1    2  501    0 -0.16387537054E+03  0.26293039962E+02  0.23196307778E+03  0.28522505232E+03  0.00000000000E+00 0.  1.
<scales pt_clust_3="48.05775" pt_clust_4="72.15412" pt_clust_5="164.92243" pt_clust_6="14000.00000"></scales>
<clustering>
<clus scale="   48.058">  1  3  2 -1</clus>
<clus scale="   72.154">  2  4  1 -1</clus>
<clus scale="  164.922">  2  5  1 -1</clus>
<clus scale="   72.154">  2  3  1 -1</clus>
</clustering>
</event>
<event>
 6    0  0.1993420E+002  0.2270251E+03  0.7546771E-02  0.1128751E+00
         21   -1    0    0  501  502  0.00000000000E+00  0.00000000000E+00  0.56729521646E+02  0.56729521646E+02  0.00000000000E+00 0. -1.
          1   -1    0    0  503    0 -0.00000000000E+00 -0.00000000000E+00 -0.15042096135E+04  0.15042096135E+04  0.00000000000E+00 0. -1.
         21    1    1    2  503  504 -0.44943126320E+02 -0.45944000695E+02 -0.10319809662E+03  0.12157542082E+03  0.00000000000E+00 0. -1.
         21    1    1    2  504  505  0.81862667878E+01 -0.50892557657E+02 -0.65295135466E+02  0.83189675467E+02  0.00000000000E+00 0.  1.
         21    1    1    2  505  502 -0.32617326826E+02 -0.92322649261E+02 -0.48439872219E+02  0.10924185460E+03  0.00000000000E+00 0. -1.
          1    1    1    2  501    0  0.69374186358E+02  0.18915920761E+03 -0.12305469876E+04  0.12469321843E+04  0.00000000000E+00 0. -1.
<scales pt_clust_3="55.87850" pt_clust_4="39.65306" pt_clust_5="55.87850" pt_clust_6="201.47949"></scales>
<clustering>
<clus scale="   39.653">  4  5 -1 -1</clus>
<clus scale="   55.878">  3  4 -1 -1</clus>
<clus scale="  201.479">  2  6  1 -1</clus>
<clus scale="  227.025">  1  3  2 -1</clus>
</clustering>
</event>
<event>
 6    0  0.1993420E+002  0.3070532E+03  0.7546771E-02  0.1081767E+00
         -3   -1    0    0    0  501 -0.00000000000E+00  0.00000000000E+00  0.97457666131E+03  0.97457666131E+03  0.00000000000E+00 0. -1.
         21   -1    0    0  504  502  0.00000000000E+00 -0.00000000000E+00 -0.46223589536E+03  0.46223589536E+03  0.00000000000E+00 0.  1.
         21    1    1    2  503  502  0.31207447274E+02 -0.46915806297E+02  0.47478259430E+02  0.73682988297E+02  0.00000000000E+00 0.  1.
         21    1    1    2  504  505  0.13613155565E+03  0.29149351278E+03 -0.29419552940E+03  0.43594871023E+03  0.00000000000E+00 0.  1.
         21    1    1    2  505  501 -0.17427271435E+03 -0.20558819734E+03  0.13421344159E+03  0.30108260288E+03  0.00000000000E+00 0.  1.
         -3    1    1    2    0  503  0.69337114272E+01 -0.38989509144E+02  0.62484459433E+03  0.62609825526E+03  0.00000000000E+00 0. -1.
<scales pt_clust_3="62.70706" pt_clust_4="14000.00000" pt_clust_5="307.05322" pt_clust_6="39.60124"></scales>
<clustering>
<clus scale="   39.601">  1  6  2 -1</clus>
<clus scale="   62.707">  1  3  2 -1</clus>
<clus scale="  307.053">  1  5  2 -1</clus>
<clus scale="  307.053">  2  3  1 -1</clus>
</clustering>
</event>
<event>
 6    0  0.1993420E+002  0.9873956E+02  0.7546771E-02  0.1282969E+00
         21   -1    0    0  505  502  0.00000000000E+00  0.00000000000E+00  0.62846019769E+03  0.62846019769E+03  0.00000000000E+00 0. -1.
         -3   -1    0    0    0  501 -0.00000000000E+00 -0.00000000000E+00 -0.22192418756E+03  0.22192418756E+03  0.00000000000E+00 0.  1.
         21    1    1    2  503  502 -0.10103018981E+03  0.99099409184E+02  0.45493526287E+03  0.47643875321E+03  0.00000000000E+00 0. -1.
         21    1    1    2  504  503  0.47468037024E+02 -0.43283125340E+02  0.40791470284E+02  0.76095910048E+02  0.00000000000E+00 0. -1.
         21    1    1    2  505  501  0.36627749540E+02 -0.87490223770E+01  0.97528516818E+02  0.10454639650E+03  0.00000000000E+00 0. -1.
         -3    1    1    2    0  504  0.16934403251E+02 -0.47067261466E+02 -0.18671923985E+03  0.19330332549E+03  0.00000000000E+00 0.  1.
<scales pt_clust_3="98.73956" pt_clust_4="14000.00000" pt_clust_5="37.65817" pt_clust_6="50.15018"></scales>
<clustering>
<clus scale="   37.658">  1  5  2 -1</clus>
<clus scale="   50.150">  2  6  1 -1</clus>
<clus scale="   98.740">  1  3  2 -1</clus>
<clus scale="   37.658">  1  3  2 -1</clus>
</clustering>
</event>
<event>
 6    0  0.1993420E+002  0.1167691E+03  0.7546771E-02  0.1248524E+00
         21   -1    0    0  505  502  0.00000000000E+00  0.00000000000E+00  0.34175280438E+03  0.34175280438E+03  0.00000000000E+00 0.  1.
          1   -1    0    0  504    0 -0.00000000000E+00 -0.00000000000E+00 -0.25429289005E+03  0.25429289005E+03  0.00000000000E+00 0. -1.
         21    1    1    2  503  502 -0.13907440268E+02  0.45039829537E+02  0.14486208302E+03  0.15233852512E+03  0.00000000000E+00 0.  1.
         21    1    1    2  504  503  0.41345915074E+02  0.36027668551E+02  0.11929585525E+03  0.13129729119E+03  0.00000000000E+00 0.  1.
         21    1    1    2  505  501 -0.21173612469E+02  0.64972750142E+02  0.16349664806E+02  0.70264440973E+02  0.00000000000E+00 0.  1.
          1    1    1    2  501    0 -0.62648623366E+01 -0.14604024823E+03 -0.19304768874E+03  0.24214543714E+03  0.00000000000E+00 0. -1.
<scales pt_clust_3="47.13813" pt_clust_4="72.81294" pt_clust_5="116.76913" pt_clust_6="14000.00000"></scales>
<clustering>
<clus scale="   47.138">  1  3  2 -1</clus>
<clus scale="   72.813">  1  4  2 -1</clus>
<clus scale="  116.769">  1  5  2 -1</clus>
<clus scale="   47.138">  1  3  2 -1</clus>
</clustering>
</event>
<event>
 6    0  0.1993420E+002  0.6976629E+02  0.7546771E-02  0.1360890E+00
         21   -1    0    0  505  502  0.00000000000E+00  0.00000000000E+00  0.13826591910E+03  0.13826591910E+03  0.00000000000E+00 0. -1.
          2   -1    0    0  504    0 -0.00000000000E+00 -0.00000000000E+00 -0.42806777007E+04  0.42806777007E+04  0.00000000000E+00 0.  1.
         21    1    1    2  503  502  0.46980092929E+02 -0.11523317413E+02  0.42182806362E+02  0.64181813066E+02  0.00000000000E+00 0. -1.
         21    1    1    2  504  503 -0.63044568519E+02 -0.20927786702E+02 -0.60440899160E+02  0.89809198679E+02  0.00000000000E+00 0. -1.
         21    1    1    2  505  501  0.77116329263E+02  0.65960039458E+02  0.33387057278E+02  0.10682860403E+03  0.00000000000E+00 0. -1.
          2    1    1    2  501    0 -0.61051853673E+02 -0.33508935342E+02 -0.41575407461E+04  0.41581240040E+04  0.00000000000E+00 0.  1.
<scales pt_clust_3="48.37268" pt_clust_4="59.52468" pt_clust_5="14000.00000" pt_clust_6="69.76629"></scales>
<clustering>
<clus scale="   48.373">  1  3  2 -1</clus>
<clus scale="   59.525">  1  4  2 -1</clus>
<clus scale="   69.766">  2  6  1 -1</clus>
<clus scale="   48.373">  1  3  2 -1</clus>
</clustering>
</event>
<event>
 6    0  0.1993420E+002  0.1479701E+03  0.7546771E-02  0.1202990E+00
          2   -1    0    0  505    0 -0.00000000000E+00  0.00000000000E+00  0.59845155767E+03  0.59845155767E+03  0.00000000000E+00 0. -1.
         21   -1    0    0  504  502  0.00000000000E+00 -0.00000000000E+00 -0.17209098667E+03  0.17209098667E+03  0.00000000000E+00 0. -1.
         21    1    1    2  503  502 -0.85473287184E+01  0.44794055473E+02 -0.34054314326E+02  0.56914502178E+02  0.00000000000E+00 0. -1.
         21    1    1    2  504  501  0.13618549545E+01  0.32348602909E+02  0.15458951275E+02  0.35878488452E+02  0.00000000000E+00 0.  1.
         21    1    1    2  505  503  0.27463784880E+02 -0.21631437619E+03  0.74327813205E+01  0.21817748524E+03  0.00000000000E+00 0. -1.
          2    1    1    2  501    0 -0.20278311116E+02  0.13917171781E+03  0.43752315274E+03  0.45957206847E+03  0.00000000000E+00 0. -1.
<scales pt_clust_3="54.49824" pt_clust_4="32.37726" pt_clust_5="147.97010" pt_clust_6="14000.00000"></scales>
<clustering>
<clus scale="   32.377">  2  4  1 -1</clus>
<clus scale="   54.498">  2  3  1 -1</clus>
<clus scale="  147.970">  2  5  1 -1</clus>
<clus scale="   32.377">  2  3  1 -1</clus>
</clustering>
</event>
<event>
 6    0  0.1993420E+002  0.6855925E+02  0.7546771E-02  0.1365062E+00
         21   -1    0    0  504  502  0.00000000000E+00  0.00000000000E+00  0.47834080424E+02  0.47834080424E+02  0.00000000000E+00 0.  1.
         -2   -1    0    0    0  501 -0.00000000000E+00 -0.00000000000E+00 -0.60694761082E+03  0.60694761082E+03  0.00000000000E+00 0.  1.
         21    1    1    2  503  502 -0.43172131095E+02 -0.14973263350E+02 -0.74507075179E+02  0.87403293819E+02  0.00000000000E+00 0.  1.
         21    1    1    2  504  505  0.67978647989E+02 -0.20148198857E+02 -0.16621681502E+02  0.72823943834E+02  0.00000000000E+00 0.  1.
         21    1    1    2  505  501  0.49555568140E+02  0.36933954870E+02 -0.89102750159E+02  0.10843971340E+03  0.00000000000E+00 0.  1.
         -2    1    1    2    0  503 -0.74362085033E+02 -0.18124926630E+01 -0.37888202356E+03  0.38611474019E+03  0.00000000000E+00 0.  1.
<scales pt_clust_3="45.69498" pt_clust_4="49.13210" pt_clust_5="68.55925" pt_clust_6="14000.00000"></scales>
<clustering>
<clus scale="   45.695">  1  3  2 -1</clus>
<clus scale="   49.132">  1  4  2 -1</clus>
<clus scale="   68.559">  1  5  2 -1</clus>
<clus scale="   45.695">  1  3  2 -1</clus>
</clustering>
</event>
<event>
 6    0  0.1993420E+002  0.2109202E+03  0.7546771E-02  0.1140839E+00
         21   -1    0    0  501  502  0.00000000000E+00  0.00000000000E+00  0.60007342473E+02  0.60007342473E+02  0.00000000000E+00 0.  1.
          1   -1    0    0  503    0 -0.00000000000E+00 -0.00000000000E+00 -0.35794000688E+04  0.35794000688E+04  0.00000000000E+00 0.  1.
         21    1    1    2  503  505  0.27173324383E+02 -0.59457209930E+02 -0.26140403008E+03  0.26945429355E+03  0.00000000000E+00 0.  1.
         21    1    1    2  504  502 -0.74968607322E+02 -0.40619743726E+02 -0.14858718287E+02  0.86550778005E+02  0.00000000000E+00 0.  1.
         21    1    1    2  505  504  0.95241809989E+02 -0.93416982469E+02 -0.24758990696E+03  0.28124455019E+03  0.00000000000E+00 0.  1.
          1    1    1    2  501    0 -0.47446527051E+02  0.19349393612E+03 -0.29955400709E+04  0.30021577895E+04  0.00000000000E+00 0.  1.
<scales pt_clust_3="53.48760" pt_clust_4="85.26579" pt_clust_5="53.48760" pt_clust_6="196.59333"></scales>
<clustering>
<clus scale="   53.488">  3  5 -1 -1</clus>
<clus scale="   85.266">  1  4  2 -1</clus>
<clus scale="  196.593">  2  6  1 -1</clus>
<clus scale="   85.266">  1  3  2 -1</clus>
</clustering>
</event>
<event>
 6    0  0.1993420E+002  0.2215444E+03  0.7546771E-02  0.1132737E+00
          1   -1    0    0  503    0 -0.00000000000E+00  0.00000000000E+00  0.17126783998E+04  0.17126783998E+04  0.00000000000E+00 0.  1.
         21   -1    0    0  504  502  0.00000000000E+00 -0.00000000000E+00 -0.65960980881E+02  0.65960980881E+02  0.00000000000E+00 0.  1.
         21    1    1    2  503  502  0.23140744906E+02  0.21351026929E+03  0.25498562140E+03  0.33337635832E+03  0.00000000000E+00 0.  1.
         21    1    1    2  504  505  0.68641704866E+00 -0.76637454883E+02  0.69545321877E+02  0.10349068777E+03  0.00000000000E+00 0.  1.
         21    1    1    2  505  501  0.90983808084E+01 -0.10899489750E+03  0.31110991880E+03  0.32977575682E+03  0.00000000000E+00 0.  1.
          1    1    1    2  501    0 -0.32925542763E+02 -0.27877916905E+02  0.10110765568E+04  0.10119965777E+04  0.00000000000E+00 0.  1.
<scales pt_clust_3="202.02878" pt_clust_4="73.72841" pt_clust_5="73.72841" pt_clust_6="43.14243"></scales>
<clustering>
<clus scale="   43.142">  1  6  2 -1</clus>
<clus scale="   73.728">  4  5 -1 -1</clus>
<clus scale="  202.029">  2  3  1 -1</clus>
<clus scale="  202.029">  2  3  1 -1</clus>
</clustering>
</event>
<event>
 6    0  0.1993420E+002  0.9191426E+02  0.7546771E-02  0.1298281E+00
         21   -1    0    0  503  502  0.00000000000E+00  0.00000000000E+00  0.92085787023E+02  0.92085787023E+02  0.00000000000E+00 0. -1.
         -4   -1    0    0    0  501 -0.00000000000E+00 -0.00000000000E+00 -0.74388729189E+03  0.74388729189E+03  0.00000000000E+00 0. -1.
         21    1    1    2  503  505 -0.22535017839E+02  0.12712315613E+03 -0.16870670308E+02  0.13020270108E+03  0.00000000000E+00 0. -1.
         21    1    1    2  504  502 -0.33844655792E+02 -0.51848756212E+02 -0.10021326430E+02  0.62723051822E+02  0.00000000000E+00 0.  1.
         21    1    1    2  505  501  0.58930541032E+02 -0.84385660778E+01 -0.12243555812E+03  0.13614141161E+03  0.00000000000E+00 0. -1.
         -4    1    1    2    0  504 -0.25508674007E+01 -0.66835833839E+02 -0.50247395001E+03  0.50690591440E+03  0.00000000000E+00 0. -1.
<scales pt_clust_3="14000.00000" pt_clust_4="60.51350" pt_clust_5="59.53166" pt_clust_6="91.91426"></scales>
<clustering>
<clus scale="   59.532">  2  5  1 -1</clus>
<clus scale="   60.514">  1  4  2 -1</clus>
<clus scale="   91.914">  2  6  1 -1</clus>
<clus scale="   60.514">  1  3  2 -1</clus>
</clustering>
</event>
<event>
 6    0  0.1993420E+002  0.9933528E+02  0.7546771E-02  0.1281700E+00
         -1   -1    0    0    0  501 -0.00000000000E+00  0.00000000000E+00  0.39538125416E+03  0.39538125416E+03  0.00000000000E+00 0. -1.
         21   -1    0    0  505  502  0.00000000000E+00 -0.00000000000E+00 -0.20231606188E+03  0.20231606188E+03  0.00000000000E+00 0.  1.
         21    1    1    2  503  504  0.33410325129E+02  0.20851645491E+02  0.11616737328E+00  0.39383428492E+02  0.00000000000E+00 0. -1.
         21    1    1    2  504  502 -0.49523926102E+01 -0.99240311607E+02 -0.40262560039E+02  0.10721119056E+03  0.00000000000E+00 0. -1.
         21    1    1    2  505  501 -0.54108460212E+01  0.99387994074E+02 -0.85289939994E+02  0.13107869577E+03  0.00000000000E+00 0.  1.
         -1    1    1    2    0  503 -0.23047086498E+02 -0.20999327957E+02  0.31850152493E+03  0.32002400122E+03  0.00000000000E+00 0. -1.
<scales pt_clust_3="31.45932" pt_clust_4="14000.00000" pt_clust_5="99.33528" pt_clust_6="31.17916"></scales>
<clustering>
<clus scale="   31.179">  1  6  2 -1</clus>
<clus scale="   31.459">  1  3  2 -1</clus>
<clus scale="   99.335">  2  5  1 -1</clus>
<clus scale="   99.335">  2  3  1 -1</clus>
</clustering>
</event>
<event>
 6    0  0.1993420E+002  0.7912234E+02  0.7546771E-02  0.1331561E+00
          2   -1    0    0  504    0 -0.00000000000E+00  0.00000000000E+00  0.20300270653E+04  0.20300270653E+04  0.00000000000E+00 0. -1.
         21   -1    0    0  505  502  0.00000000000E+00 -0.00000000000E+00 -0.59935494695E+02  0.59935494695E+02  0.00000000000E+00 0.  1.
         21    1    1    2  503  502  0.19765209810E+01 -0.53714475520E+02  0.90323819022E+02  0.10510729660E+03  0.00000000000E+00 0.  1.
         21    1    1    2  504  503 -0.13529563273E+03  0.83360403860E+02  0.17291476732E+03  0.23484757168E+03  0.00000000000E+00 0.  1.
         21    1    1    2  505  501  0.57407594377E+02 -0.15916334228E+02  0.22178134650E+02  0.63567532940E+02  0.00000000000E+00 0.  1.
          2    1    1    2  501    0  0.75911517367E+02 -0.13729594112E+02  0.16846748496E+04  0.16864401588E+04  0.00000000000E+00 0. -1.
<scales pt_clust_3="53.75083" pt_clust_4="79.12234" pt_clust_5="68.99247" pt_clust_6="14000.00000"></scales>
<clustering>
<clus scale="   53.751">  2  3  1 -1</clus>
<clus scale="   68.992">  2  5  1 -1</clus>
<clus scale="   79.122">  2  4  1 -1</clus>
<clus scale="   53.751">  2  3  1 -1</clus>
</clustering>
</event>
<event>
 6    0  0.1993420E+002  0.1028700E+03  0.7546771E-02  0.1274374E+00
         21   -1    0    0  503  502  0.00000000000E+00  0.00000000000E+00  0.77136033509E+02  0.77136033509E+02  0.00000000000E+00 0.  1.
         -2   -1    0    0    0  501 -0.00000000000E+00 -0.00000000000E+00 -0.88928975830E+03  0.88928975830E+03  0.00000000000E+00 0.  1.
         21    1    1    2  503  505  0.26224324579E+02  0.18117414664E+02 -0.17533558638E+01  0.31922251965E+02  0.00000000000E+00 0.  1.
         21    1    1    2  504  502 -0.15912534963E+01 -0.78679474313E+02 -0.12959803496E+03  0.15162005946E+03  0.00000000000E+00 0.  1.
         21    1    1    2  505  501 -0.31321862559E+02  0.10477722533E+03 -0.91463797025E+01  0.10974052253E+03  0.00000000000E+00 0.  1.
         -2    1    1    2    0  504  0.66887914761E+01 -0.44215165685E+02 -0.67165595427E+03  0.67314295786E+03  0.00000000000E+00 0.  1.
<scales pt_clust_3="31.87406" pt_clust_4="102.87002" pt_clust_5="14000.00000" pt_clust_6="44.55192"></scales>
<clustering>
<clus scale="   31.874">  1  3  2 -1</clus>
<clus scale="   44.552">  2  6  1 -1</clus>
<clus scale="  102.870">  2  4  1 -1</clus>
<clus scale="   31.874">  1  3  2 -1</clus>
</clustering>
</event>
<event>
 6    0  0.1993420E+002  0.1308031E+03  0.7546771E-02  0.1226269E+00
          2   -1    0    0  502    0 -0.00000000000E+00  0.00000000000E+00  0.22791736282E+04  0.22791736282E+04  0.00000000000E+00 0.  1.
         21   -1    0    0  505  502  0.00000000000E+00 -0.00000000000E+00 -0.25182176354E+03  0.25182176354E+03  0.00000000000E+00 0. -1.
         21    1    1    2  503  501 -0.14396961955E+03  0.15303607641E+02  0.27404467242E+03  0.30993859754E+03  0.00000000000E+00 0. -1.
         21    1    1    2  504  503  0.51048188024E+02  0.12679795660E+02 -0.52850169361E+02  0.74564301914E+02  0.00000000000E+00 0. -1.
         21    1    1    2  505  504  0.69157227558E+02  0.10526554787E+02 -0.16270729987E+03  0.17710786518E+03  0.00000000000E+00 0. -1.
          2    1    1    2  501    0  0.23764203972E+02 -0.38509958088E+02  0.19688646614E+04  0.19693846271E+04  0.00000000000E+00 0.  1.
<scales pt_clust_3="123.38340" pt_clust_4="37.65766" pt_clust_5="37.65766" pt_clust_6="45.25212"></scales>
<clustering>
<clus scale="   37.658">  4  5 -1 -1</clus>
<clus scale="   45.252">  1  6  2 -1</clus>
<clus scale="  123.383">  1  3  2 -1</clus>
<clus scale="  130.803">  2  3  1 -1</clus>
</clustering>
</event>
<event>
 6    0  0.1993420E+002  0.1377042E+03  0.7546771E-02  0.1216452E+00
          2   -1    0    0  503    0 -0.00000000000E+00  0.00000000000E+00  0.24345540856E+04  0.24345540856E+04  0.00000000000E+00 0. -1.
         21   -1    0    0  505  502  0.00000000000E+00 -0.00000000000E+00 -0.67328559618E+02  0.67328559618E+02  0.00000000000E+00 0. -1.
         21    1    1    2  503  504  0.89289793315E+02  0.19894033447E+02  0.24083978524E+02  0.94596394110E+02  0.00000000000E+00 0. -1.
         21    1    1    2  504  502  0.30100783515E+02  0.61401771991E+02  0.32590240693E+02  0.75751954168E+02  0.00000000000E+00 0. -1.
         21    1    1    2  505  501 -0.50859395044E+02 -0.64496584933E+02  0.16023281144E+03  0.18005843883E+03  0.00000000000E+00 0. -1.
          2    1    1    2  501    0 -0.68531181787E+02 -0.16799220505E+02  0.21503184953E+04  0.21514758581E+04  0.00000000000E+00 0. -1.
<scales pt_clust_3="60.78958" pt_clust_4="60.78958" pt_clust_5="118.40179" pt_clust_6="70.56016"></scales>
<clustering>
<clus scale="   60.790">  3  4 -1 -1</clus>
<clus scale="   70.560">  1  6  2 -1</clus>
<clus scale="  118.402">  1  5  2 -1</clus>
<clus scale="  137.704">  2  3  1 -1</clus>
</clustering>
</event>
<event>
 6    0  0.1993420E+002  0.1683158E+03  0.7546771E-02  0.1179616E+00
          2   -1    0    0  503    0 -0.00000000000E+00  0.00000000000E+00  0.22095681656E+04  0.22095681656E+04  0.00000000000E+00 0.  1.
         21   -1    0    0  505  502  0.00000000000E+00 -0.00000000000E+00 -0.17564251410E+03  0.17564251410E+03  0.00000000000E+00 0.  1.
         21    1    1    2  503  502 -0.17859833088E+01  0.12302108883E+03  0.26855211643E+03  0.29539400345E+03  0.00000000000E+00 0.  1.
         21    1    1    2  504  501  0.41631821911E+02 -0.12858798409E+03 -0.72788302274E+02  0.15351291540E+03  0.00000000000E+00 0.  1.
         21    1    1    2  505  504 -0.16667587339E+02 -0.29945724290E+02 -0.42818723521E+02  0.54845218160E+02  0.00000000000E+00 0.  1.
          2    1    1    2  501    0 -0.23178251263E+02  0.35512619551E+02  0.18809805608E+04  0.18814585427E+04  0.00000000000E+00 0.  1.
<scales pt_clust_3="155.04271" pt_clust_4="32.98936" pt_clust_5="32.98936" pt_clust_6="42.40728"></scales>
<clustering>
<clus scale="   32.989">  4  5 -1 -1</clus>
<clus scale="   42.407">  1  6  2 -1</clus>
<clus scale="  155.043">  1  3  2 -1</clus>
<clus scale="  168.316">  2  3  1 -1</clus>
</clustering>
</event>
<event>
 6    0  0.1993420E+002  0.2913269E+03  0.7546771E-02  0.1089658E+00
          2   -1    0    0  505    0 -0.00000000000E+00  0.00000000000E+00  0.14422447636E+04  0.14422447636E+04  0.00000000000E+00 0.  1.
         21   -1    0    0  501  502  0.00000000000E+00 -0.00000000000E+00 -0.13412066036E+03  0.13412066036E+03  0.00000000000E+00 0.  1.
         21    1    1    2  503  504  0.19266856727E+03 -0.14841594082E+03  0.38008111127E+03  0.45123178018E+03  0.00000000000E+00 0.  1.
         21    1    1    2  504  502 -0.66380910683E+01  0.63665337363E+02 -0.60598135394E+02  0.88144616669E+02  0.00000000000E+00 0.  1.
         21    1    1    2  505  503  0.36333260182E+02 -0.41128614245E+02  0.23061635700E+03  0.23705605417E+03  0.00000000000E+00 0. -1.
          2    1    1    2  501    0 -0.22236373638E+03  0.12587921771E+03  0.75802477037E+03  0.79993297295E+03  0.00000000000E+00 0.  1.
<scales pt_clust_3="52.93863" pt_clust_4="64.01046" pt_clust_5="52.93863" pt_clust_6="269.16833"></scales>
<clustering>
<clus scale="   52.939">  3  5 -1 -1</clus>
<clus scale="   64.010">  2  4  1 -1</clus>
<clus scale="  269.168">  1  6  2 -1</clus>
<clus scale="   64.010">  2  3  1 -1</clus>
</clustering>
</event>
<event>
 6    0  0.1993420E+002  0.1373598E+03  0.7546771E-02  0.1216926E+00
          1   -1    0    0  504    0 -0.00000000000E+00  0.00000000000E+00  0.45048332534E+02  0.45048332534E+02  0.00000000000E+00 0.  1.
         21   -1    0    0  505  502  0.00000000000E+00 -0.00000000000E+00 -0.25797386829E+04  0.25797386829E+04  0.00000000000E+00 0. -1.
         21    1    1    2  503  502 -0.42557863193E+02  0.42812123476E+02 -0.14557945571E+04  0.14570455868E+04  0.00000000000E+00 0. -1.
         21    1    1    2  504  503 -0.23635591838E+02  0.49440577700E+02 -0.57261901967E+03  0.57523521590E+03  0.00000000000E+00 0. -1.
         21    1    1    2  505  501  0.56974371312E+02  0.35587226997E+02 -0.44571138960E+03  0.45074513035E+03  0.00000000000E+00 0. -1.
          1    1    1    2  501    0  0.92190837181E+01 -0.12783992817E+03 -0.60565384053E+02  0.14176108241E+03  0.00000000000E+00 0.  1.
<scales pt_clust_3="50.51977" pt_clust_4="50.51977" pt_clust_5="67.17537" pt_clust_6="126.71313"></scales>
<clustering>
<clus scale="   50.520">  3  4 -1 -1</clus>
<clus scale="   67.175">  2  5  1 -1</clus>
<clus scale="  126.713">  1  6  2 -1</clus>
<clus scale="   67.175">  2  3  1 -1</clus>
</clustering>
</event>
<event>
 6    0  0.1993420E+002  0.1223132E+03  0.7546771E-02  0.1239329E+00
          2   -1    0    0  504    0 -0.00000000000E+00  0.00000000000E+00  0.14118235837E+04  0.14118235837E+04  0.00000000000E+00 0. -1.
         21   -1    0    0  505  502  0.00000000000E+00 -0.00000000000E+00 -0.19155086229E+03  0.19155086229E+03  0.00000000000E+00 0.  1.
         21    1    1    2  503  501 -0.24018454558E+02 -0.68937518596E+02  0.56929792793E+02  0.92575747023E+02  0.00000000000E+00 0. -1.
         21    1    1    2  504  502 -0.83967621771E+02 -0.40698322015E+02 -0.14461441694E+03  0.17210532969E+03  0.00000000000E+00 0.  1.
         21    1    1    2  505  503  0.10754041276E+02  0.34496302927E+02  0.13743780073E+02  0.38659226714E+02  0.00000000000E+00 0. -1.
          2    1    1    2  501    0  0.97232035053E+02  0.75139537683E+02  0.12942135655E+04  0.13000341426E+04  0.00000000000E+00 0. -1.
<scales pt_clust_3="69.40795" pt_clust_4="14000.00000" pt_clust_5="36.13370" pt_clust_6="122.31317"></scales>
<clustering>
<clus scale="   36.134">  2  5  1 -1</clus>
<clus scale="   69.408">  2  3  1 -1</clus>
<clus scale="  122.313">  1  6  2 -1</clus>
<clus scale="   36.134">  2  3  1 -1</clus>
</clustering>
</event>
<event>
 6    0  0.1993420E+002  0.2914977E+03  0.7546771E-02  0.1089570E+00
         21   -1    0    0  503  502  0.00000000000E+00  0.00000000000E+00  0.33229208264E+03  0.33229208264E+03  0.00000000000E+00 0. -1.
          2   -1    0    0  502    0 -0.00000000000E+00 -0.00000000000E+00 -0.21815875791E+04  0.21815875791E+04  0.00000000000E+00 0. -1.
         21    1    1    2  503  505  0.23330667381E+03 -0.16119360176E+03  0.18488791076E+03  0.33852462368E+03  0.00000000000E+00 0. -1.
         21    1    1    2  504  501 -0.42080173820E+02  0.19307067664E+02 -0.84839736926E+02  0.96650322567E+02  0.00000000000E+00 0. -1.
         21    1    1    2  505  504 -0.16424497246E+03  0.12486972188E+03 -0.10034283484E+03  0.22942873169E+03  0.00000000000E+00 0. -1.
          2    1    1    2  501    0 -0.26981527530E+02  0.17016812214E+02 -0.18490008354E+04  0.18492759838E+04  0.00000000000E+00 0. -1.
<scales pt_clust_3="276.21177" pt_clust_4="46.33345" pt_clust_5="46.33345" pt_clust_6="31.89945"></scales>
<clustering>
<clus scale="   31.899">  2  6  1 -1</clus>
<clus scale="   46.333">  4  5 -1 -1</clus>
<clus scale="  276.212">  1  3  2 -1</clus>
<clus scale="  276.212">  1  3  2 -1</clus>
</clustering>
</event>
<event>
 6    0  0.1993420E+002  0.1229750E+03  0.7546771E-02  0.1238268E+00
          1   -1    0    0  505    0 -0.00000000000E+00  0.00000000000E+00  0.13989393902E+04  0.13989393902E+04  0.00000000000E+00 0. -1.
         21   -1    0    0  503  502  0.00000000000E+00 -0.00000000000E+00 -0.23445757608E+03  0.23445757608E+03  0.00000000000E+00 0.  1.
         21    1    1    2  503  504  0.89589164339E+02 -0.47188236232E+02 -0.10138147754E+03  0.14328695682E+03  0.00000000000E+00 0.  1.
         21    1    1    2  504  501  0.31898773138E+02  0.10854125058E+03  0.54087190808E+02  0.12539600876E+03  0.00000000000E+00 0.  1.
         21    1    1    2  505  502 -0.76180113526E+02 -0.10618483362E+03 -0.19200615773E+02  0.13208819869E+03  0.00000000000E+00 0.  1.
          1    1    1    2  501    0 -0.45307823952E+02  0.44831819277E+02  0.12309767166E+04  0.12326258020E+04  0.00000000000E+00 0. -1.
<scales pt_clust_3="93.64118" pt_clust_4="122.97500" pt_clust_5="14000.00000" pt_clust_6="63.73924"></scales>
<clustering>
<clus scale="   63.739">  1  6  2 -1</clus>
<clus scale="   93.641">  2  3  1 -1</clus>
<clus scale="  122.975">  1  4  2 -1</clus>
<clus scale="   93.641">  2  3  1 -1</clus>
</clustering>
</event>
<event>
 6    0  0.1993420E+002  0.1284442E+03  0.7546771E-02  0.1229783E+00
         21   -1    0    0  503  502  0.00000000000E+00  0.00000000000E+00  0.94052993033E+02  0.94052993033E+02  0.00000000000E+00 0. -1.
         -3   -1    0    0    0  501 -0.00000000000E+00 -0.00000000000E+00 -0.31205392795E+03  0.31205392795E+03  0.00000000000E+00 0. -1.
         21    1    1    2  503  505 -0.23134464781E+01 -0.48702017720E+02  0.15562462424E+02  0.51180355619E+02  0.00000000000E+00 0. -1.
         21    1    1    2  504  501  0.63791096610E+02 -0.12478701428E+02 -0.63488075059E+02  0.90861200029E+02  0.00000000000E+00 0. -1.
         21    1    1    2  505  504 -0.12004204085E+02 -0.64288948439E+02 -0.39847480711E+02  0.76583232670E+02  0.00000000000E+00 0. -1.
         -3    1    1    2    0  502 -0.49473446047E+02  0.12546966759E+03 -0.13022784157E+03  0.18748213266E+03  0.00000000000E+00 0. -1.
<scales pt_clust_3="45.37605" pt_clust_4="65.00017" pt_clust_5="45.37605" pt_clust_6="117.20105"></scales>
<clustering>
<clus scale="   45.376">  3  5 -1 -1</clus>
<clus scale="   65.000">  2  4  1 -1</clus>
<clus scale="  117.201">  2  6  1 -1</clus>
<clus scale="  128.444">  1  3  2 -1</clus>
</clustering>
</event>
<event>
 6    0  0.1993420E+002  0.1225988E+03  0.7546771E-02  0.1238870E+00
         21   -1    0    0  504  502  0.00000000000E+00  0.00000000000E+00  0.47878789225E+03  0.47878789225E+03  0.00000000000E+00 0. -1.
          1   -1    0    0  503    0 -0.00000000000E+00 -0.00000000000E+00 -0.19188553832E+03  0.19188553832E+03  0.00000000000E+00 0.  1.
         21    1    1    2  503  505 -0.37346732939E+02  0.93564498624E+02  0.15076526081E+03  0.18132638454E+03  0.00000000000E+00 0. -1.
         21    1    1    2  504  501 -0.10265018107E+02 -0.37718253941E+02  0.49767086116E+02  0.63283490245E+02  0.00000000000E+00 0. -1.
         21    1    1    2  505  502 -0.16441093135E+02  0.52521676548E+02  0.22917844175E+03  0.23569385697E+03  0.00000000000E+00 0. -1.
          1    1    1    2  501    0  0.64052844180E+02 -0.10836792123E+03 -0.14280843474E+03  0.19036969883E+03  0.00000000000E+00 0.  1.
<scales pt_clust_3="14000.00000" pt_clust_4="39.09012" pt_clust_5="38.68723" pt_clust_6="122.59883"></scales>
<clustering>
<clus scale="   39.090">  1  4  2 -1</clus>
<clus scale="   38.687">  1  5  2 -1</clus>
<clus scale="  122.599">  2  6  1 -1</clus>
<clus scale="   39.090">  1  3  2 -1</clus>
</clustering>
</event>
<event>
 6    0  0.1993420E+002  0.1042841E+03  0.7546771E-02  0.1271537E+00
         21   -1    0    0  505  502  0.00000000000E+00  0.00000000000E+00  0.60120029458E+02  0.60120029458E+02  0.00000000000E+00 0.  1.
          1   -1    0    0  504    0 -0.00000000000E+00 -0.00000000000E+00 -0.21663389676E+04  0.21663389676E+04  0.00000000000E+00 0.  1.
         21    1    1    2  503  501  0.52632488633E+02  0.27979131317E+02 -0.52677799369E+02  0.79548483301E+02  0.00000000000E+00 0.  1.
         21    1    1    2  504  502  0.55263402847E+02 -0.20970073707E+01  0.23039319974E+02  0.59910361366E+02  0.00000000000E+00 0.  1.
         21    1    1    2  505  503 -0.22287144940E+01 -0.33409519475E+02 -0.69699248842E+02  0.77324953598E+02  0.00000000000E+00 0.  1.
          1    1    1    2  501    0 -0.10566717699E+03  0.75273955279E+01 -0.20068812099E+04  0.20096751988E+04  0.00000000000E+00 0.  1.
<scales pt_clust_3="55.81019" pt_clust_4="104.28412" pt_clust_5="33.48377" pt_clust_6="14000.00000"></scales>
<clustering>
<clus scale="   33.484">  1  5  2 -1</clus>
<clus scale="   55.810">  1  3  2 -1</clus>
<clus scale="  104.284">  1  4  2 -1</clus>
<clus scale="   33.484">  1  3  2 -1</clus>
</clustering>
</event>
<event>
 6    0  0.1993420E+002  0.1285516E+03  0.7546771E-02  0.1229621E+00
          1   -1    0    0  505    0 -0.00000000000E+00  0.00000000000E+00  0.92049887993E+03  0.92049887993E+03  0.00000000000E+00 0.  1.
         21   -1    0    0  503  502  0.00000000000E+00 -0.00000000000E+00 -0.10700207024E+04  0.10700207024E+04  0.00000000000E+00 0. -1.
         21    1    1    2  503  501  0.94653738253E+01 -0.93575822738E+02 -0.21339070172E+02  0.96443682108E+02  0.00000000000E+00 0. -1.
         21    1    1    2  504  502  0.55317897897E+02  0.13670733244E+03 -0.64555187211E+03  0.66218289328E+03  0.00000000000E+00 0. -1.
         21    1    1    2  505  504 -0.23063723649E+01  0.57583795469E+02 -0.35088545864E+03  0.35558658290E+03  0.00000000000E+00 0. -1.
          1    1    1    2  501    0 -0.62476899358E+02 -0.10071530517E+03  0.86825457850E+03  0.87630642399E+03  0.00000000000E+00 0.  1.
<scales pt_clust_3="94.05332" pt_clust_4="30.67614" pt_clust_5="30.67614" pt_clust_6="118.81673"></scales>
<clustering>
<clus scale="   30.676">  4  5 -1 -1</clus>
<clus scale="   94.053">  2  3  1 -1</clus>
<clus scale="  118.817">  1  6  2 -1</clus>
<clus scale="   94.053">  2  3  1 -1</clus>
</clustering>
</event>
<event>
 6    0  0.1993420E+002  0.3206685E+03  0.7546771E-02  0.1075342E+00
         -3   -1    0    0    0  501 -0.00000000000E+00  0.00000000000E+00  0.15438552158E+03  0.15438552158E+03  0.00000000000E+00 0. -1.
         21   -1    0    0  505  502  0.00000000000E+00 -0.00000000000E+00 -0.12429860415E+04  0.12429860415E+04  0.00000000000E+00 0.  1.
         21    1    1    2  503  502  0.44791222278E+02 -0.43463159065E+02 -0.24019390341E+03  0.24817012517E+03  0.00000000000E+00 0.  1.
         21    1    1    2  504  501 -0.26434706438E+02  0.22389252166E+03 -0.38276882604E+03  0.44422812737E+03  0.00000000000E+00 0.  1.
         21    1    1    2  505  504  0.34678595176E+02  0.97485885820E+02 -0.40182885584E+03  0.41493678107E+03  0.00000000000E+00 0.  1.
         -3    1    1    2    0  503 -0.53035111016E+02 -0.27791524841E+03 -0.63808934648E+02  0.29003652950E+03  0.00000000000E+00 0. -1.
<scales pt_clust_3="62.41234" pt_clust_4="94.48917" pt_clust_5="94.48917" pt_clust_6="289.15308"></scales>
<clustering>
<clus scale="   62.412">  2  3  1 -1</clus>
<clus scale="   94.489">  4  5 -1 -1</clus>
<clus scale="  289.153">  1  6  2 -1</clus>
<clus scale="   62.412">  2  3  1 -1</clus>
</clustering>
</event>
<event>
 6    0  0.1993420E+002  0.1488011E+03  0.7546771E-02  0.1201954E+00
         21   -1    0    0  503  502  0.00000000000E+00  0.00000000000E+00  0.20931224807E+03  0.20931224807E+03  0.00000000000E+00 0.  1.
          1   -1    0    0  505    0 -0.00000000000E+00 -0.00000000000E+00 -0.17919022107E+04  0.17919022107E+04  0.00000000000E+00 0.  1.
         21    1    1    2  503  501  0.35398125052E+02 -0.10980359957E+03 -0.14777945729E+03  0.18747966752E+03  0.00000000000E+00 0.  1.
         21    1    1    2  504  502 -0.74550353546E+02  0.37889727346E+02  0.10684163109E+03  0.13567800406E+03  0.00000000000E+00 0.  1.
         21    1    1    2  505  504 -0.49630609162E+02  0.50404363720E+02  0.48189896709E+02  0.85592426024E+02  0.00000000000E+00 0.  1.
          1    1    1    2  501    0  0.88782837655E+02  0.21509508504E+02 -0.15898420332E+04  0.15924643612E+04  0.00000000000E+00 0.  1.
<scales pt_clust_3="142.94299" pt_clust_4="38.02183" pt_clust_5="38.02183" pt_clust_6="91.35125"></scales>
<clustering>
<clus scale="   38.022">  4  5 -1 -1</clus>
<clus scale="   91.351">  2  6  1 -1</clus>
<clus scale="  142.943">  2  3  1 -1</clus>
<clus scale="  148.801">  1  3  2 -1</clus>
</clustering>
</event>
<event>
 6    0  0.1993420E+002  0.2454013E+03  0.7546771E-02  0.1116246E+00
          1   -1    0    0  503    0 -0.00000000000E+00  0.00000000000E+00  0.11693462830E+04  0.11693462830E+04  0.00000000000E+00 0.  1.
         21   -1    0    0  504  502  0.00000000000E+00 -0.00000000000E+00 -0.60235530382E+03  0.60235530382E+03  0.00000000000E+00 0. -1.
         21    1    1    2  503  502  0.98158830874E+02 -0.48160529995E+02 -0.84028487603E+02  0.13789626339E+03  0.00000000000E+00 0.  1.
         21    1    1    2  504  505  0.66685985015E+02  0.10956730784E+03 -0.32886592057E+03  0.35299406405E+03  0.00000000000E+00 0. -1.
         21    1    1    2  505  501  0.46642813349E+02  0.59839056820E+02 -0.12670707357E+03  0.14768529801E+03  0.00000000000E+00 0. -1.
          1    1    1    2  501    0 -0.21148762924E+03 -0.12124583466E+03  0.11065924609E+04  0.11331259614E+04  0.00000000000E+00 0.  1.
<scales pt_clust_3="109.33706" pt_clust_4="30.67851" pt_clust_5="30.67851" pt_clust_6="242.13767"></scales>
<clustering>
<clus scale="   30.679">  4  5 -1 -1</clus>
<clus scale="  109.337">  2  3  1 -1</clus>
<clus scale="  242.138">  1  6  2 -1</clus>
<clus scale="  109.337">  2  3  1 -1</clus>
</clustering>
</event>
<event>
 6    0  0.1993420E+002  0.1036491E+03  0.7546771E-02  0.1272804E+00
         -1   -1    0    0    0  501 -0.00000000000E+00  0.00000000000E+00  0.36506445516E+03  0.36506445516E+03  0.00000000000E+00 0.  1.
         21   -1    0    0  505  502  0.00000000000E+00 -0.00000000000E+00 -0.57680269683E+03  0.57680269683E+03  0.00000000000E+00 0. -1.
         21    1    1    2  503  502  0.74823346877E+02 -0.27236073223E+02 -0.40849333388E+03  0.41618161990E+03  0.00000000000E+00 0. -1.
         21    1    1    2  504  503  0.63202762496E+00  0.13364153100E+03  0.19580468723E+02  0.13506980796E+03  0.00000000000E+00 0.  1.
         21    1    1    2  505  501 -0.18758357792E+02 -0.65119797229E+02 -0.90977464571E+02  0.11344321504E+03  0.00000000000E+00 0.  1.
         -1    1    1    2    0  504 -0.56697016709E+02 -0.41285660547E+02  0.26815208805E+03  0.27717250910E+03  0.00000000000E+00 0.  1.
<scales pt_clust_3="103.64908" pt_clust_4="14000.00000" pt_clust_5="67.76772" pt_clust_6="70.64550"></scales>
<clustering>
<clus scale="   67.768">  2  5  1 -1</clus>
<clus scale="   70.645">  1  6  2 -1</clus>
<clus scale="  103.649">  2  3  1 -1</clus>
<clus scale="   67.768">  2  3  1 -1</clus>
</clustering>
</event>
<event>
 6    0  0.1993420E+002  0.1715843E+03  0.7546771E-02  0.1176206E+00
          2   -1    0    0  505    0 -0.00000000000E+00  0.00000000000E+00  0.21621071953E+04  0.21621071953E+04  0.00000000000E+00 0.  1.
         21   -1    0    0  504  502  0.00000000000E+00 -0.00000000000E+00 -0.17965785901E+03  0.17965785901E+03  0.00000000000E+00 0. -1.
         21    1    1    2  503  501 -0.95499394518E+02  0.61457732888E+02 -0.66775609500E+02  0.13174281502E+03  0.00000000000E+00 0. -1.
         21    1    1    2  504  503 -0.77797320987E+02  0.10272473300E+02 -0.30041000608E+02  0.84026237438E+02  0.00000000000E+00 0. -1.
         21    1    1    2  505  502  0.30342374534E+02  0.11088806100E+02 -0.71188738886E+01  0.33080200703E+02  0.00000000000E+00 0. -1.
          2    1    1    2  501    0  0.14295434097E+03 -0.82819012288E+02  0.20863848203E+04  0.20929158011E+04  0.00000000000E+00 0.  1.
<scales pt_clust_3="36.56642" pt_clust_4="36.56642" pt_clust_5="32.30513" pt_clust_6="165.63612"></scales>
<clustering>
<clus scale="   32.305">  2  5  1 -1</clus>
<clus scale="   36.566">  3  4 -1 -1</clus>
<clus scale="  165.636">  1  6  2 -1</clus>
<clus scale="   32.305">  2  3  1 -1</clus>
</clustering>
</event>
<event>
 6    0  0.1993420E+002  0.6989864E+02  0.7546771E-02  0.1360438E+00
          2   -1    0    0  503    0 -0.00000000000E+00  0.00000000000E+00  0.13911855458E+04  0.13911855458E+04  0.00000000000E+00 0.  1.
         21   -1    0    0  505  502  0.00000000000E+00 -0.00000000000E+00 -0.37228488680E+03  0.37228488680E+03  0.00000000000E+00 0. -1.
         21    1    1    2  503  502  0.36007454276E+02 -0.34748184279E+02 -0.21787987004E+03  0.22355225528E+03  0.00000000000E+00 0. -1.
         21    1    1    2  504  501 -0.77906575094E+02  0.87376118092E+02  0.14528510465E+03  0.18657915770E+03  0.00000000000E+00 0. -1.
         21    1    1    2  505  504 -0.83036817328E+01 -0.29546958499E+02 -0.12848911835E+03  0.13210385090E+03  0.00000000000E+00 0. -1.
          2    1    1    2  501    0  0.50202802551E+02 -0.23080975313E+02  0.12199845427E+04  0.12212351687E+04  0.00000000000E+00 0.  1.
<scales pt_clust_3="69.89864" pt_clust_4="14000.00000" pt_clust_5="30.69159" pt_clust_6="55.26689"></scales>
<clustering>
<clus scale="   30.692">  2  5  1 -1</clus>
<clus scale="   55.267">  1  6  2 -1</clus>
<clus scale="   69.899">  2  3  1 -1</clus>
<clus scale="   30.692">  2  3  1 -1</clus>
</clustering>
</event>
<event>
 6    0  0.1993420E+002  0.1176365E+03  0.7546771E-02  0.1247048E+00
         21   -1    0    0  501  502  0.00000000000E+00  0.00000000000E+00  0.47003229304E+02  0.47003229304E+02  0.00000000000E+00 0. -1.
          2   -1    0    0  505    0 -0.00000000000E+00 -0.00000000000E+00 -0.64823709710E+03  0.64823709710E+03  0.00000000000E+00 0. -1.
         21    1    1    2  503  504  0.42165234115E+02 -0.10901142801E+02 -0.87894843163E+01  0.44429685087E+02  0.00000000000E+00 0. -1.
         21    1    1    2  504  502  0.37807819482E+02 -0.23211984582E+02 -0.68502683450E+02  0.81614000527E+02  0.00000000000E+00 0. -1.
         21    1    1    2  505  503  0.38852897032E+02  0.22222118099E+02 -0.16200197357E+02  0.47600593851E+02  0.00000000000E+00 0. -1.
          2    1    1    2  501    0 -0.11882595063E+03  0.11891009284E+02 -0.50774150268E+03  0.52159604694E+03  0.00000000000E+00 0. -1.
<scales pt_clust_3="33.49452" pt_clust_4="44.36471" pt_clust_5="33.49452" pt_clust_6="112.62928"></scales>
<clustering>
<clus scale="   33.495">  3  5 -1 -1</clus>
<clus scale="   44.365">  1  4  2 -1</clus>
<clus scale="  112.629">  2  6  1 -1</clus>
<clus scale="   44.365">  1  3  2 -1</clus>
</clustering>
</event>
<event>
 6    0  0.1993420E+002  0.1595853E+03  0.7546771E-02  0.1189166E+00
          1   -1    0    0  503    0 -0.00000000000E+00  0.00000000000E+00  0.13640074729E+04  0.13640074729E+04  0.00000000000E+00 0.  1.
         21   -1    0    0  505  502  0.00000000000E+00 -0.00000000000E+00 -0.10861937616E+04  0.10861937616E+04  0.00000000000E+00 0.  1.
         21    1    1    2  503  504  0.41206913858E+02 -0.38895588004E+02 -0.57579776621E+03  0.57857924617E+03  0.00000000000E+00 0.  1.
         21    1    1    2  504  502 -0.67407885631E+01 -0.44214632399E+02 -0.44127519961E+03  0.44353598923E+03  0.00000000000E+00 0.  1.
         21    1    1    2  505  501 -0.45049767149E+01 -0.66778628048E+02 -0.44261877963E+02  0.80242095062E+02  0.00000000000E+00 0.  1.
          1    1    1    2  501    0 -0.29961148580E+02  0.14988884845E+03  0.13391485551E+04  0.13478439041E+04  0.00000000000E+00 0.  1.
<scales pt_clust_3="41.54681" pt_clust_4="41.54681" pt_clust_5="66.93041" pt_clust_6="152.57970"></scales>
<clustering>
<clus scale="   41.547">  3  4 -1 -1</clus>
<clus scale="   66.930">  2  5  1 -1</clus>
<clus scale="  152.580">  1  6  2 -1</clus>
<clus scale="   66.930">  2  3  1 -1</clus>
</clustering>
</event>
<event>
 6    0  0.1993420E+002  0.1394569E+03  0.7546771E-02  0.1214062E+00
         21   -1    0    0  505  502  0.00000000000E+00  0.00000000000E+00  0.65540838274E+03  0.65540838274E+03  0.00000000000E+00 0. -1.
          1   -1    0    0  503    0 -0.00000000000E+00 -0.00000000000E+00 -0.29001536636E+03  0.29001536636E+03  0.00000000000E+00 0. -1.
         21    1    1    2  503  502 -0.45458600458E+02 -0.16964480656E+01  0.35241307978E+02  0.57544001248E+02  0.00000000000E+00 0. -1.
         21    1    1    2  504  501  0.12314965890E+03 -0.11769139247E+03  0.14127862259E+03  0.22130691708E+03  0.00000000000E+00 0. -1.
         21    1    1    2  505  504 -0.93128983412E+02  0.93022505858E+02  0.41655134092E+03  0.43685376703E+03  0.00000000000E+00 0. -1.
          1    1    1    2  501    0  0.15437924972E+02  0.26365334682E+02 -0.22767825510E+03  0.22971906374E+03  0.00000000000E+00 0. -1.
<scales pt_clust_3="42.76339" pt_clust_4="14000.00000" pt_clust_5="139.45686" pt_clust_6="30.55258"></scales>
<clustering>
<clus scale="   30.553">  2  6  1 -1</clus>
<clus scale="   42.763">  2  3  1 -1</clus>
<clus scale="  139.457">  1  5  2 -1</clus>
<clus scale="  139.457">  1  3  2 -1</clus>
</clustering>
</event>
<event>
 6    0  0.1993420E+002  0.1927442E+03  0.7546771E-02  0.1156009E+00
         21   -1    0    0  504  502  0.00000000000E+00  0.00000000000E+00  0.20174846712E+03  0.20174846712E+03  0.00000000000E+00 0.  1.
          1   -1    0    0  503    0 -0.00000000000E+00 -0.00000000000E+00 -0.76354294939E+03  0.76354294939E+03  0.00000000000E+00 0.  1.
         21    1    1    2  503  505 -0.10429615518E+03 -0.95490003016E+02 -0.33515806495E+02  0.14532493917E+03  0.00000000000E+00 0.  1.
         21    1    1    2  504  501  0.15813008587E+02 -0.26451337284E+02  0.56126967717E+01  0.31324540695E+02  0.00000000000E+00 0.  1.
         21    1    1    2  505  502  0.30520097594E+01 -0.71698538131E+02  0.98445087749E+02  0.12182540965E+03  0.00000000000E+00 0.  1.
          1    1    1    2  501    0  0.85431136832E+02  0.19363987843E+03 -0.63233646029E+03  0.66681652699E+03  0.00000000000E+00 0.  1.
<scales pt_clust_3="14000.00000" pt_clust_4="30.81760" pt_clust_5="88.48858" pt_clust_6="192.74420"></scales>
<clustering>
<clus scale="   30.818">  1  4  2 -1</clus>
<clus scale="   88.489">  1  5  2 -1</clus>
<clus scale="  192.744">  2  6  1 -1</clus>
<clus scale="   30.818">  1  3  2 -1</clus>
</clustering>
</event>
<event>
 6    0  0.1993420E+002  0.2189910E+03  0.7546771E-02  0.1134638E+00
          1   -1    0    0  505    0 -0.00000000000E+00  0.00000000000E+00  0.17153026335E+04  0.17153026335E+04  0.00000000000E+00 0.  1.
         21   -1    0    0  503  502  0.00000000000E+00 -0.00000000000E+00 -0.45817934232E+03  0.45817934232E+03  0.00000000000E+00 0. -1.
         21    1    1    2  503  501 -0.92260883531E+02  0.17730243349E+03 -0.38180091808E+03  0.43095262454E+03  0.00000000000E+00 0. -1.
         21    1    1    2  504  502 -0.49393878496E+01 -0.11292575616E+03  0.41693172554E+02  0.12047798386E+03  0.00000000000E+00 0. -1.
         21    1    1    2  505  504  0.45217854354E+02 -0.59204521888E+02  0.10411894539E+03  0.12802571833E+03  0.00000000000E+00 0.  1.
          1    1    1    2  501    0  0.51982417027E+02 -0.51721554436E+01  0.14931120914E+04  0.14940256491E+04  0.00000000000E+00 0.  1.
<scales pt_clust_3="196.76217" pt_clust_4="87.25008" pt_clust_5="87.25008" pt_clust_6="52.23909"></scales>
<clustering>
<clus scale="   52.239">  1  6  2 -1</clus>
<clus scale="   87.250">  4  5 -1 -1</clus>
<clus scale="  196.762">  2  3  1 -1</clus>
<clus scale="  196.762">  2  3  1 -1</clus>
</clustering>
</event>
<event>
 6    0  0.1993420E+002  0.1585048E+03  0.7546771E-02  0.1190395E+00
         21   -1    0    0  504  502  0.00000000000E+00  0.00000000000E+00  0.30616636963E+03  0.30616636963E+03  0.00000000000E+00 0.  1.
          2   -1    0    0  505    0 -0.00000000000E+00 -0.00000000000E+00 -0.29476552473E+04  0.29476552473E+04  0.00000000000E+00 0.  1.
         21    1    1    2  503  501  0.41806809920E+02 -0.67495877738E+01 -0.30053115781E+03  0.30350015338E+03  0.00000000000E+00 0. -1.
         21    1    1    2  504  503  0.73614616307E+02  0.11411878231E+02 -0.24353446067E+03  0.25467307717E+03  0.00000000000E+00 0.  1.
         21    1    1    2  505  502 -0.15054510299E+03 -0.25484767327E+02  0.27944039335E+03  0.31843403530E+03  0.00000000000E+00 0.  1.
          2    1    1    2  501    0  0.35123676762E+02  0.20822476870E+02 -0.23768636526E+04  0.23772143511E+04  0.00000000000E+00 0.  1.
<scales pt_clust_3="35.41367" pt_clust_4="35.41367" pt_clust_5="151.38575" pt_clust_6="40.83195"></scales>
<clustering>
<clus scale="   35.414">  3  4 -1 -1</clus>
<clus scale="   40.832">  2  6  1 -1</clus>
<clus scale="  151.386">  1  5  2 -1</clus>
<clus scale="  151.386">  1  3  2 -1</clus>
</clustering>
</event>
<event>
 6    0  0.1993420E+002  0.9652759E+02  0.7546771E-02  0.1287772E+00
          1   -1    0    0  504    0 -0.00000000000E+00  0.00000000000E+00  0.53648605337E+03  0.53648605337E+03  0.00000000000E+00 0.  1.
         21   -1    0    0  505  502  0.00000000000E+00 -0.00000000000E+00 -0.57822324156E+02  0.57822324156E+02  0.00000000000E+00 0.  1.
         21    1    1    2  503  501 -0.66592025324E+02 -0.57310368382E+02  0.51802701475E+02  0.10199262739E+03  0.00000000000E+00 0.  1.
         21    1    1    2  504  502  0.11786745538E+01 -0.35556733538E+02  0.21360216662E+01  0.35640330557E+02  0.00000000000E+00 0.  1.
         21    1    1    2  505  503 -0.15899547002E+02  0.36861268483E+02  0.30891241074E+02  0.50653899002E+02  0.00000000000E+00 0.  1.
          1    1    1    2  501    0  0.81312897772E+02  0.56005833438E+02  0.39383376499E+03  0.40602152058E+03  0.00000000000E+00 0.  1.
<scales pt_clust_3="14000.00000" pt_clust_4="35.57626" pt_clust_5="32.32821" pt_clust_6="96.52759"></scales>
<clustering>
<clus scale="   35.576">  2  4  1 -1</clus>
<clus scale="   32.328">  2  5  1 -1</clus>
<clus scale="   96.528">  1  6  2 -1</clus>
<clus scale="   35.576">  2  3  1 -1</clus>
</clustering>
</event>
<event>
 6    0  0.1993420E+002  0.9914734E+02  0.7546771E-02  0.1282099E+00
          1   -1    0    0  505    0 -0.00000000000E+00  0.00000000000E+00  0.35575373776E+04  0.35575373776E+04  0.00000000000E+00 0.  1.
         21   -1    0    0  504  502  0.00000000000E+00 -0.00000000000E+00 -0.73949512495E+02  0.73949512495E+02  0.00000000000E+00 0.  1.
         21    1    1    2  503  501 -0.71261692492E+02 -0.29813409234E+02  0.56129194805E+03  0.56658249102E+03  0.00000000000E+00 0.  1.
         21    1    1    2  504  503  0.80904073389E+02  0.19687527483E+02  0.28689856454E+02  0.88069152901E+02  0.00000000000E+00 0.  1.
         21    1    1    2  505  502 -0.12855355583E+02  0.69755591667E+02 -0.10858728240E+02  0.71756635338E+02  0.00000000000E+00 0.  1.
          1    1    1    2  501    0  0.32129746860E+01 -0.59629709916E+02  0.29044647889E+04  0.29050786109E+04  0.00000000000E+00 0.  1.
<scales pt_clust_3="99.14734" pt_clust_4="14000.00000" pt_clust_5="68.16861" pt_clust_6="59.71621"></scales>
<clustering>
<clus scale="   59.716">  1  6  2 -1</clus>
<clus scale="   68.169">  2  5  1 -1</clus>
<clus scale="   99.147">  1  3  2 -1</clus>
<clus scale="   68.169">  2  3  1 -1</clus>
</clustering>
</event>
<event>
 6    0  0.1993420E+002  0.1611228E+03  0.7546771E-02  0.1187435E+00
         21   -1    0    0  504  502  0.00000000000E+00  0.00000000000E+00  0.34545597310E+03  0.34545597310E+03  0.00000000000E+00 0. -1.
          1   -1    0    0  503    0 -0.00000000000E+00 -0.00000000000E+00 -0.18104434745E+04  0.18104434745E+04  0.00000000000E+00 0. -1.
         21    1    1    2  503  502 -0.15806069418E+02  0.13165424843E+03  0.78697336908E+02  0.15419449989E+03  0.00000000000E+00 0. -1.
         21    1    1    2  504  505 -0.17462275157E+02 -0.31582734189E+02  0.30603660757E+02  0.47317905746E+02  0.00000000000E+00 0.  1.
         21    1    1    2  505  501  0.47485678448E+02 -0.12948390474E+03  0.16485455573E+03  0.21493719033E+03  0.00000000000E+00 0. -1.
          1    1    1    2  501    0 -0.14217333873E+02  0.29412390493E+02 -0.17391430548E+04  0.17394498516E+04  0.00000000000E+00 0. -1.
<scales pt_clust_3="149.09926" pt_clust_4="31.24134" pt_clust_5="31.24134" pt_clust_6="32.66835"></scales>
<clustering>
<clus scale="   31.241">  4  5 -1 -1</clus>
<clus scale="   32.668">  2  6  1 -1</clus>
<clus scale="  149.099">  2  3  1 -1</clus>
<clus scale="  161.123">  1  3  2 -1</clus>
</clustering>
</event>
<event>
 6    0  0.1993420E+002  0.1443656E+03  0.7546771E-02  0.1207573E+00
          2   -1    0    0  503    0 -0.00000000000E+00  0.00000000000E+00  0.28695092786E+03  0.28695092786E+03  0.00000000000E+00 0.  1.
         21   -1    0    0  505  502  0.00000000000E+00 -0.00000000000E+00 -0.46517447286E+03  0.46517447286E+03  0.00000000000E+00 0.  1.
         21    1    1    2  503  502 -0.18703300381E+03 -0.45116786317E+02 -0.72412439474E+01  0.19253390490E+03  0.00000000000E+00 0.  1.
         21    1    1    2  504  501  0.38690709384E+02  0.48754608650E+01 -0.49570555838E+02  0.63071238433E+02  0.00000000000E+00 0.  1.
         21    1    1    2  505  504  0.83869793676E+02  0.23761263730E+02 -0.29658657221E+03  0.30913158163E+03  0.00000000000E+00 0.  1.
          2    1    1    2  501    0  0.64472500749E+02  0.16480061721E+02  0.17517482700E+03  0.18738867575E+03  0.00000000000E+00 0.  1.
<scales pt_clust_3="134.06111" pt_clust_4="35.82589" pt_clust_5="35.82589" pt_clust_6="66.54544"></scales>
<clustering>
<clus scale="   35.826">  4  5 -1 -1</clus>
<clus scale="   66.545">  1  6  2 -1</clus>
<clus scale="  134.061">  1  3  2 -1</clus>
<clus scale="  144.366">  2  3  1 -1</clus>
</clustering>
</event>
<event>
 6    0  0.1993420E+002  0.4368041E+03  0.7546771E-02  0.1031732E+00
         21   -1    0    0  505  502  0.00000000000E+00  0.00000000000E+00  0.62111361848E+03  0.62111361848E+03  0.00000000000E+00 0. -1.
          2   -1    0    0  503    0 -0.00000000000E+00 -0.00000000000E+00 -0.75388159273E+03  0.75388159273E+03  0.00000000000E+00 0. -1.
         21    1    1    2  503  504 -0.18657734105E+02 -0.58930967448E+02  0.25686434016E+02  0.66938500571E+02  0.00000000000E+00 0.  1.
         21    1    1    2  504  502  0.36069502281E+02 -0.36998082397E+03  0.34480020797E+03  0.50702465671E+03  0.00000000000E+00 0. -1.
         21    1    1    2  505  501 -0.53024315298E+02  0.42068311244E+03 -0.15590658599E+03  0.45176622568E+03  0.00000000000E+00 0. -1.
          2    1    1    2  501    0  0.35612547122E+02  0.82286789759E+01 -0.34734803024E+03  0.34926582825E+03  0.00000000000E+00 0. -1.
<scales pt_clust_3="36.25549" pt_clust_4="36.25549" pt_clust_5="427.65987" pt_clust_6="36.55085"></scales>
<clustering>
<clus scale="   36.255">  3  4 -1 -1</clus>
<clus scale="   36.551">  2  6  1 -1</clus>
<clus scale="  427.660">  2  5  1 -1</clus>
<clus scale="  436.804">  1  3  2 -1</clus>
</clustering>
</event>
<event>
 6    0  0.1993420E+002  0.1147157E+03  0.7546771E-02  0.1252078E+00
          2   -1    0    0  503    0 -0.00000000000E+00  0.00000000000E+00  0.66271534176E+03  0.66271534176E+03  0.00000000000E+00 0. -1.
         21   -1    0    0  501  502  0.00000000000E+00 -0.00000000000E+00 -0.15009114118E+03  0.15009114118E+03  0.00000000000E+00 0.  1.
         21    1    1    2  503  504 -0.38876708571E+02  0.38357908285E+02 -0.20747417457E+02  0.58422452263E+02  0.00000000000E+00 0.  1.
         21    1    1    2  504  505 -0.14708503243E+02  0.70602936385E+02 -0.65724895103E+02  0.97574979017E+02  0.00000000000E+00 0.  1.
         21    1    1    2  505  502  0.62655941976E+02 -0.42358413060E+01  0.16671527785E+02  0.64974219927E+02  0.00000000000E+00 0.  1.
          2    1    1    2  501    0 -0.90707301615E+01 -0.10472500336E+03  0.58242498536E+03  0.59183483173E+03  0.00000000000E+00 0. -1.
<scales pt_clust_3="40.01025" pt_clust_4="40.01025" pt_clust_5="62.79896" pt_clust_6="105.09895"></scales>
<clustering>
<clus scale="   40.010">  3  4 -1 -1</clus>
<clus scale="   62.799">  2  5  1 -1</clus>
<clus scale="  105.099">  1  6  2 -1</clus>
<clus scale="   62.799">  2  3  1 -1</clus>
</clustering>
</event>
<event>
 6    0  0.1993420E+002  0.2122085E+03  0.7546771E-02  0.1139829E+00
          2   -1    0    0  502    0 -0.00000000000E+00  0.00000000000E+00  0.28949664897E+04  0.28949664897E+04  0.00000000000E+00 0.  1.
         21   -1    0    0  504  502  0.00000000000E+00 -0.00000000000E+00 -0.26927247369E+02  0.26927247369E+02  0.00000000000E+00 0.  1.
         21    1    1    2  503  505 -0.13045340212E+03 -0.45670896544E+02  0.24695586074E+03  0.28300374215E+03  0.00000000000E+00 0.  1.
         21    1    1    2  504  503 -0.28382779405E+02  0.14922688108E+02  0.10981360690E+03  0.11439972486E+03  0.00000000000E+00 0.  1.
         21    1    1    2  505  501 -0.31066608026E+02 -0.31062651471E+02  0.20857342656E+03  0.21314993952E+03  0.00000000000E+00 0. -1.
          2    1    1    2  501    0  0.18990278956E+03  0.61810859906E+02  0.23026963481E+04  0.23113403305E+04  0.00000000000E+00 0.  1.
<scales pt_clust_3="43.98512" pt_clust_4="32.06663" pt_clust_5="43.98512" pt_clust_6="195.82558"></scales>
<clustering>
<clus scale="   32.067">  2  4  1 -1</clus>
<clus scale="   43.985">  3  5 -1 -1</clus>
<clus scale="  195.826">  1  6  2 -1</clus>
<clus scale="   32.067">  2  3  1 -1</clus>
</clustering>
</event>
<event>
 6    0  0.1993420E+002  0.1011944E+03  0.7546771E-02  0.1277804E+00
         21   -1    0    0  505  502  0.00000000000E+00  0.00000000000E+00  0.12040639573E+03  0.12040639573E+03  0.00000000000E+00 0. -1.
          3   -1    0    0  504    0 -0.00000000000E+00 -0.00000000000E+00 -0.10756943106E+04  0.10756943106E+04  0.00000000000E+00 0.  1.
         21    1    1    2  503  502 -0.98377327546E+02 -0.26847817849E+02 -0.42379879846E+02  0.11043078427E+03  0.00000000000E+00 0. -1.
         21    1    1    2  504  503  0.28041949178E+01 -0.12450227137E+03 -0.20789166329E+03  0.24233782773E+03  0.00000000000E+00 0.  1.
         21    1    1    2  505  501  0.85981758637E+02  0.10861436822E+03 -0.15833321742E+01  0.13853682089E+03  0.00000000000E+00 0. -1.
          3    1    1    2  501    0  0.95913739905E+01  0.42735721004E+02 -0.70343303957E+03  0.70479527344E+03  0.00000000000E+00 0.  1.
<scales pt_clust_3="98.08224" pt_clust_4="14000.00000" pt_clust_5="101.19440" pt_clust_6="43.79882"></scales>
<clustering>
<clus scale="   43.799">  2  6  1 -1</clus>
<clus scale="   98.082">  1  3  2 -1</clus>
<clus scale="  101.194">  1  5  2 -1</clus>
<clus scale="   98.082">  1  3  2 -1</clus>
</clustering>
</event>
<event>
 6    0  0.1993420E+002  0.1180424E+03  0.7546771E-02  0.1246362E+00
          1   -1    0    0  502    0 -0.00000000000E+00  0.00000000000E+00  0.14016346392E+04  0.14016346392E+04  0.00000000000E+00 0.  1.
         21   -1    0    0  504  502  0.00000000000E+00 -0.00000000000E+00 -0.30139822049E+03  0.30139822049E+03  0.00000000000E+00 0.  1.
         21    1    1    2  503  505  0.80564553147E+02 -0.43389344910E+02  0.63008704535E+00  0.91507811061E+02  0.00000000000E+00 0. -1.
         21    1    1    2  504  503 -0.61514369346E+02  0.86095928835E+02 -0.21912505764E+03  0.24333581217E+03  0.00000000000E+00 0.  1.
         21    1    1    2  505  501  0.21464355101E+02 -0.46641607485E+02  0.25797550073E+01  0.51408299180E+02  0.00000000000E+00 0.  1.
          1    1    1    2  501    0 -0.40514538903E+02  0.39350235603E+01  0.13161516343E+04  0.13167809372E+04  0.00000000000E+00 0.  1.
<scales pt_clust_3="32.64442" pt_clust_4="109.70310" pt_clust_5="32.64442" pt_clust_6="40.70519"></scales>
<clustering>
<clus scale="   32.644">  3  5 -1 -1</clus>
<clus scale="   40.705">  1  6  2 -1</clus>
<clus scale="  109.703">  2  4  1 -1</clus>
<clus scale="  109.703">  2  3  1 -1</clus>
</clustering>
</event>
<event>
 6    0  0.1993420E+002  0.9849136E+02  0.7546771E-02  0.1283501E+00
          1   -1    0    0  505    0 -0.00000000000E+00  0.00000000000E+00  0.77146798532E+03  0.77146798532E+03  0.00000000000E+00 0. -1.
         21   -1    0    0  504  502  0.00000000000E+00 -0.00000000000E+00 -0.57682200528E+02  0.57682200528E+02  0.00000000000E+00 0.  1.
         21    1    1    2  503  502  0.54214503180E+02 -0.56886976252E+02  0.43164836148E+02  0.89657924925E+02  0.00000000000E+00 0.  1.
         21    1    1    2  504  501 -0.54679502643E+02  0.45582311196E+02  0.47662370319E+02  0.85669695037E+02  0.00000000000E+00 0.  1.
         21    1    1    2  505  503  0.49208861205E+02 -0.85476081882E+01  0.29443395307E+02  0.57978333487E+02  0.00000000000E+00 0.  1.
          1    1    1    2  501    0 -0.48743861742E+02  0.19852273243E+02  0.59351518302E+03  0.59584423240E+03  0.00000000000E+00 0. -1.
<scales pt_clust_3="31.35085" pt_clust_4="90.30014" pt_clust_5="31.35085" pt_clust_6="52.63152"></scales>
<clustering>
<clus scale="   31.351">  3  5 -1 -1</clus>
<clus scale="   52.632">  1  6  2 -1</clus>
<clus scale="   90.300">  2  4  1 -1</clus>
<clus scale="   90.300">  2  3  1 -1</clus>
</clustering>
</event>
<event>
 6    0  0.1993420E+002  0.1033024E+03  0.7546771E-02  0.1273501E+00
         21   -1    0    0  501  502  0.00000000000E+00  0.00000000000E+00  0.14851467602E+04  0.14851467602E+04  0.00000000000E+00 0.  1.
          4   -1    0    0  504    0 -0.00000000000E+00 -0.00000000000E+00 -0.47511099064E+03  0.47511099064E+03  0.00000000000E+00 0.  1.
         21    1    1    2  503  505 -0.11916178121E+03  0.14601369670E+02  0.17705901471E+03  0.21392200631E+03  0.00000000000E+00 0.  1.
         21    1    1    2  504  503 -0.31151395609E+02  0.92493150895E+02  0.19210175219E+03  0.21547267949E+03  0.00000000000E+00 0.  1.
         21    1    1    2  505  502  0.78905820034E+02 -0.66760109306E+02  0.10796011292E+04  0.10845375230E+04  0.00000000000E+00 0.  1.
          4    1    1    2  501    0  0.71407356783E+02 -0.40334411259E+02 -0.43872612656E+03  0.44632554202E+03  0.00000000000E+00 0.  1.
<scales pt_clust_3="14000.00000" pt_clust_4="78.22539" pt_clust_5="103.30238" pt_clust_6="82.01143"></scales>
<clustering>
<clus scale="   82.011">  2  6  1 -1</clus>
<clus scale="   78.225">  2  4  1 -1</clus>
<clus scale="  103.302">  1  5  2 -1</clus>
<clus scale="  103.302">  1  3  2 -1</clus>
</clustering>
</event>
<event>
 6    0  0.1993420E+002  0.1302466E+03  0.7546771E-02  0.1227090E+00
         21   -1    0    0  501  502  0.00000000000E+00  0.00000000000E+00  0.22828144811E+04  0.22828144811E+04  0.00000000000E+00 0.  1.
          2   -1    0    0  504    0 -0.00000000000E+00 -0.00000000000E+00 -0.93473995760E+02  0.93473995760E+02  0.00000000000E+00 0.  1.
         21    1    1    2  503  502  0.70456770266E+02 -0.86132941690E+01  0.51698343385E+03  0.52183351386E+03  0.00000000000E+00 0.  1.
         21    1    1    2  504  505 -0.62327934979E+02 -0.19047547182E+02  0.12995444185E+03  0.14538135193E+03  0.00000000000E+00 0. -1.
         21    1    1    2  505  503  0.50620380574E+02  0.76930701642E+02  0.16064993643E+04  0.16091367137E+04  0.00000000000E+00 0.  1.
          2    1    1    2  501    0 -0.58749215861E+02 -0.49269860290E+02 -0.64096754680E+02  0.99936897380E+02  0.00000000000E+00 0.  1.
<scales pt_clust_3="69.30129" pt_clust_4="65.17346" pt_clust_5="14000.00000" pt_clust_6="130.24656"></scales>
<clustering>
<clus scale="   65.173">  2  4  1 -1</clus>
<clus scale="   69.301">  1  3  2 -1</clus>
<clus scale="  130.247">  2  6  1 -1</clus>
<clus scale="   69.301">  1  3  2 -1</clus>
</clustering>
</event>
<event>
 6    0  0.1993420E+002  0.7108492E+02  0.7546771E-02  0.1356442E+00
          1   -1    0    0  504    0 -0.00000000000E+00  0.00000000000E+00  0.26022263253E+02  0.26022263253E+02  0.00000000000E+00 0. -1.
         21   -1    0    0  501  502  0.00000000000E+00 -0.00000000000E+00 -0.85648390209E+03  0.85648390209E+03  0.00000000000E+00 0. -1.
         21    1    1    2  503  502  0.24753941943E+02 -0.57839929292E+02 -0.39292001813E+03  0.39792506294E+03  0.00000000000E+00 0.  1.
         21    1    1    2  504  505 -0.37542471100E+02 -0.10525601979E+02 -0.58895452026E+02  0.70632143551E+02  0.00000000000E+00 0. -1.
         21    1    1    2  505  503  0.36713052579E+02 -0.41114222366E+02 -0.13133456168E+03  0.14243242118E+03  0.00000000000E+00 0. -1.
          1    1    1    2  501    0 -0.23924523422E+02  0.10947975364E+03 -0.24731160699E+03  0.27151653767E+03  0.00000000000E+00 0. -1.
<scales pt_clust_3="71.08492" pt_clust_4="38.99007" pt_clust_5="51.31080" pt_clust_6="14000.00000"></scales>
<clustering>
<clus scale="   38.990">  1  4  2 -1</clus>
<clus scale="   51.311">  1  5  2 -1</clus>
<clus scale="   71.085">  2  3  1 -1</clus>
<clus scale="   71.085">  2  3  1 -1</clus>
</clustering>
</event>
<event>
 6    0  0.1993420E+002  0.3212897E+03  0.7546771E-02  0.1075057E+00
          2   -1    0    0  505    0 -0.00000000000E+00  0.00000000000E+00  0.89359327510E+03  0.89359327510E+03  0.00000000000E+00 0. -1.
         21   -1    0    0  504  502  0.00000000000E+00 -0.00000000000E+00 -0.54025613182E+03  0.54025613182E+03  0.00000000000E+00 0. -1.
         21    1    1    2  503  502  0.72863190941E+02  0.90457888806E+02  0.14687866404E+03  0.18725655180E+03  0.00000000000E+00 0.  1.
         21    1    1    2  504  501 -0.12048248092E+03 -0.26785665444E+03 -0.46285078233E+03  0.54817338702E+03  0.00000000000E+00 0. -1.
         21    1    1    2  505  503  0.68373354073E+02  0.15090914369E+03  0.56783413756E+03  0.59151001088E+03  0.00000000000E+00 0. -1.
          2    1    1    2  501    0 -0.20754064089E+02  0.26489621943E+02  0.10147512402E+03  0.10690945721E+03  0.00000000000E+00 0. -1.
<scales pt_clust_3="107.42520" pt_clust_4="292.86495" pt_clust_5="107.42520" pt_clust_6="33.65162"></scales>
<clustering>
<clus scale="   33.652">  1  6  2 -1</clus>
<clus scale="  107.425">  3  5 -1 -1</clus>
<clus scale="  292.865">  2  4  1 -1</clus>
<clus scale="  292.865">  2  3  1 -1</clus>
</clustering>
</event>
<event>
 6    0  0.1993420E+002  0.1818017E+03  0.7546771E-02  0.1166071E+00
         -1   -1    0    0    0  501 -0.00000000000E+00  0.00000000000E+00  0.31031690157E+03  0.31031690157E+03  0.00000000000E+00 0. -1.
         21   -1    0    0  505  502  0.00000000000E+00 -0.00000000000E+00 -0.20523319148E+03  0.20523319148E+03  0.00000000000E+00 0.  1.
         21    1    1    2  503  502  0.23433461270E+02  0.65572486832E+02 -0.23870531573E+02  0.73611686668E+02  0.00000000000E+00 0.  1.
         21    1    1    2  504  503 -0.38436303987E+02  0.11529881144E+03 -0.64308935709E+02  0.13750201670E+03  0.00000000000E+00 0.  1.
         21    1    1    2  505  501  0.23114074681E+02 -0.15071703866E+03  0.54067642801E+02  0.16178132212E+03  0.00000000000E+00 0. -1.
         -1    1    1    2    0  504 -0.81112319641E+01 -0.30154259617E+02  0.13919553457E+03  0.14265506756E+03  0.00000000000E+00 0. -1.
<scales pt_clust_3="46.49955" pt_clust_4="46.49955" pt_clust_5="170.87424" pt_clust_6="31.22613"></scales>
<clustering>
<clus scale="   31.226">  1  6  2 -1</clus>
<clus scale="   46.500">  3  4 -1 -1</clus>
<clus scale="  170.874">  1  5  2 -1</clus>
<clus scale="  181.802">  2  3  1 -1</clus>
</clustering>
</event>
<event>
 6    0  0.1993420E+002  0.2085042E+03  0.7546771E-02  0.1142756E+00
          2   -1    0    0  505    0 -0.00000000000E+00  0.00000000000E+00  0.12893720816E+04  0.12893720816E+04  0.00000000000E+00 0.  1.
         21   -1    0    0  504  502  0.00000000000E+00 -0.00000000000E+00 -0.19640927708E+04  0.19640927708E+04  0.00000000000E+00 0.  1.
         21    1    1    2  503  501  0.12068527422E+03  0.13374500494E+03 -0.34592052677E+03  0.39001752858E+03  0.00000000000E+00 0.  1.
         21    1    1    2  504  503 -0.20810100022E+02 -0.43435142988E+02 -0.43072410806E+02  0.64613500771E+02  0.00000000000E+00 0. -1.
         21    1    1    2  505  502 -0.21621660467E+03 -0.45971993696E+02 -0.15312405640E+04  0.15471136704E+04  0.00000000000E+00 0.  1.
          2    1    1    2  501    0  0.11634143047E+03 -0.44337868255E+02  0.12455128123E+04  0.12517201527E+04  0.00000000000E+00 0.  1.
<scales pt_clust_3="208.50423" pt_clust_4="48.16297" pt_clust_5="14000.00000" pt_clust_6="124.49728"></scales>
<clustering>
<clus scale="   48.163">  2  4  1 -1</clus>
<clus scale="  124.497">  1  6  2 -1</clus>
<clus scale="  208.504">  1  3  2 -1</clus>
<clus scale="   48.163">  2  3  1 -1</clus>
</clustering>
</event>
<event>
 6    0  0.1993420E+002  0.1172116E+03  0.7546771E-02  0.1247769E+00
         -2   -1    0    0    0  501 -0.00000000000E+00  0.00000000000E+00  0.11921664460E+04  0.11921664460E+04  0.00000000000E+00 0.  1.
         21   -1    0    0  503  502  0.00000000000E+00 -0.00000000000E+00 -0.19843191951E+02  0.19843191951E+02  0.00000000000E+00 0. -1.
         21    1    1    2  503  505 -0.24088257146E+02  0.39864499905E+02  0.84614115912E+02  0.96586598949E+02  0.00000000000E+00 0. -1.
         21    1    1    2  504  501  0.34536301264E+02  0.16801300985E+02  0.13675923722E+03  0.14204974053E+03  0.00000000000E+00 0. -1.
         21    1    1    2  505  504  0.18366656866E+02  0.56728068740E+02  0.11762300957E+03  0.13187334927E+03  0.00000000000E+00 0. -1.
         -2    1    1    2    0  502 -0.28814700984E+02 -0.11339386963E+03  0.83332689137E+03  0.84149994922E+03  0.00000000000E+00 0.  1.
<scales pt_clust_3="46.57706" pt_clust_4="36.93739" pt_clust_5="36.93739" pt_clust_6="107.79760"></scales>
<clustering>
<clus scale="   36.937">  4  5 -1 -1</clus>
<clus scale="   46.577">  2  3  1 -1</clus>
<clus scale="  107.798">  1  6  2 -1</clus>
<clus scale="   46.577">  2  3  1 -1</clus>
</clustering>
</event>
<event>
 6    0  0.1993420E+002  0.1530259E+03  0.7546771E-02  0.1196803E+00
         -1   -1    0    0    0  501 -0.00000000000E+00  0.00000000000E+00  0.66049224573E+03  0.66049224573E+03  0.00000000000E+00 0. -1.
         21   -1    0    0  503  502  0.00000000000E+00 -0.00000000000E+00 -0.24549650438E+04  0.24549650438E+04  0.00000000000E+00 0. -1.
         21    1    1    2  503  504  0.29020029047E+02 -0.52051808714E+02 -0.18652811418E+04  0.18662329144E+04  0.00000000000E+00 0. -1.
         21    1    1    2  504  501 -0.34765343315E+02 -0.77454864205E+02 -0.50966575572E+03  0.51668855962E+03  0.00000000000E+00 0.  1.
         21    1    1    2  505  502 -0.57471524633E+02 -0.11197009461E+02 -0.53956709210E+02  0.79622080061E+02  0.00000000000E+00 0.  1.
         -1    1    1    2    0  505  0.63216838901E+02  0.14070368238E+03  0.63443080866E+03  0.65291373545E+03  0.00000000000E+00 0. -1.
<scales pt_clust_3="62.83893" pt_clust_4="153.02585" pt_clust_5="58.55211" pt_clust_6="14000.00000"></scales>
<clustering>
<clus scale="   58.552">  2  5  1 -1</clus>
<clus scale="   62.839">  2  3  1 -1</clus>
<clus scale="  153.026">  2  4  1 -1</clus>
<clus scale="   58.552">  2  3  1 -1</clus>
</clustering>
</event>
<event>
 6    0  0.1993420E+002  0.1096529E+03  0.7546771E-02  0.1261214E+00
          3   -1    0    0  503    0 -0.00000000000E+00  0.00000000000E+00  0.83074649280E+03  0.83074649280E+03  0.00000000000E+00 0.  1.
         21   -1    0    0  505  502  0.00000000000E+00 -0.00000000000E+00 -0.54386273901E+03  0.54386273901E+03  0.00000000000E+00 0. -1.
         21    1    1    2  503  504 -0.62578713172E+02 -0.38072996198E+02 -0.10262730748E+03  0.12608732142E+03  0.00000000000E+00 0. -1.
         21    1    1    2  504  502  0.76074414413E+02 -0.44453048518E+02 -0.28008722515E+01  0.88154608140E+02  0.00000000000E+00 0. -1.
         21    1    1    2  505  501 -0.62659426932E+02  0.97349969574E+02 -0.37442390893E+03  0.39191387311E+03  0.00000000000E+00 0. -1.
          3    1    1    2  501    0  0.49163725690E+02 -0.14823924858E+02  0.76673584244E+03  0.76845342914E+03  0.00000000000E+00 0.  1.
<scales pt_clust_3="67.25600" pt_clust_4="14000.00000" pt_clust_5="109.65292" pt_clust_6="51.34998"></scales>
<clustering>
<clus scale="   51.350">  1  6  2 -1</clus>
<clus scale="   67.256">  1  3  2 -1</clus>
<clus scale="  109.653">  2  5  1 -1</clus>
<clus scale="  109.653">  2  3  1 -1</clus>
</clustering>
</event>
<event>
 6    0  0.1993420E+002  0.2073749E+03  0.7546771E-02  0.1143662E+00
         -2   -1    0    0    0  501 -0.00000000000E+00  0.00000000000E+00  0.60957052168E+03  0.60957052168E+03  0.00000000000E+00 0.  1.
         21   -1    0    0  503  502  0.00000000000E+00 -0.00000000000E+00 -0.14616569633E+03  0.14616569633E+03  0.00000000000E+00 0. -1.
         21    1    1    2  503  505 -0.13477876702E+03  0.26922263349E+02  0.28350551965E+02  0.14033487842E+03  0.00000000000E+00 0. -1.
         21    1    1    2  504  502  0.29073197411E+01 -0.31511248941E+02 -0.83253264714E+01  0.32721894486E+02  0.00000000000E+00 0. -1.
         21    1    1    2  505  501 -0.66038278715E+02  0.55023564667E+01 -0.27616651395E+02  0.71791431359E+02  0.00000000000E+00 0. -1.
         -2    1    1    2    0  504  0.19790972600E+03 -0.91337087485E+00  0.47099625125E+03  0.51088801374E+03  0.00000000000E+00 0.  1.
<scales pt_clust_3="41.96163" pt_clust_4="31.64508" pt_clust_5="41.96163" pt_clust_6="198.45946"></scales>
<clustering>
<clus scale="   31.645">  2  4  1 -1</clus>
<clus scale="   41.962">  3  5 -1 -1</clus>
<clus scale="  198.459">  1  6  2 -1</clus>
<clus scale="   31.645">  2  3  1 -1</clus>
</clustering>
</event>
<event>
 6    0  0.1993420E+002  0.1080101E+03  0.7546771E-02  0.1264300E+00
          3   -1    0    0  505    0 -0.00000000000E+00  0.00000000000E+00  0.58875977696E+03  0.58875977696E+03  0.00000000000E+00 0.  1.
         21   -1    0    0  504  502  0.00000000000E+00 -0.00000000000E+00 -0.10909334061E+03  0.10909334061E+03  0.00000000000E+00 0. -1.
         21    1    1    2  503  502 -0.27262718310E+02  0.22183487720E+02  0.21391554879E+02  0.41145614070E+02  0.00000000000E+00 0. -1.
         21    1    1    2  504  501 -0.21809056636E+02 -0.28370941626E+02 -0.11480745747E+02  0.37581282615E+02  0.00000000000E+00 0. -1.
         21    1    1    2  505  503 -0.27488132697E+02  0.85597268793E+02 -0.39401291830E+02  0.98157789614E+02  0.00000000000E+00 0. -1.
          3    1    1    2  501    0  0.76559907643E+02 -0.79409814888E+02  0.50915691905E+03  0.52096843127E+03  0.00000000000E+00 0.  1.
<scales pt_clust_3="35.14773" pt_clust_4="36.59044" pt_clust_5="14000.00000" pt_clust_6="108.01010"></scales>
<clustering>
<clus scale="   35.148">  2  3  1 -1</clus>
<clus scale="   36.590">  2  4  1 -1</clus>
<clus scale="  108.010">  1  6  2 -1</clus>
<clus scale="   35.148">  2  3  1 -1</clus>
</clustering>
</event>
<event>
 6    0  0.1993420E+002  0.1067841E+03  0.7546771E-02  0.1266644E+00
         21   -1    0    0  501  502  0.00000000000E+00  0.00000000000E+00  0.19521771275E+03  0.19521771275E+03  0.00000000000E+00 0.  1.
          1   -1    0    0  504    0 -0.00000000000E+00 -0.00000000000E+00 -0.14598263914E+04  0.14598263914E+04  0.00000000000E+00 0. -1.
         21    1    1    2  503  502 -0.45063732571E+02  0.69733252062E+02  0.12277855215E+03  0.14821619110E+03  0.00000000000E+00 0.  1.
         21    1    1    2  504  505  0.65965020792E+02 -0.71005421258E+02 -0.16930528604E+01  0.96933070952E+02  0.00000000000E+00 0.  1.
         21    1    1    2  505  503  0.39109932474E+02 -0.32251376851E+02 -0.46043353876E+02  0.68481592878E+02  0.00000000000E+00 0.  1.
          1    1    1    2  501    0 -0.60011220695E+02  0.33523546048E+02 -0.13396508241E+04  0.13414132493E+04  0.00000000000E+00 0. -1.
<scales pt_clust_3="89.56737" pt_clust_4="42.04962" pt_clust_5="42.04962" pt_clust_6="68.73991"></scales>
<clustering>
<clus scale="   42.050">  4  5 -1 -1</clus>
<clus scale="   68.740">  2  6  1 -1</clus>
<clus scale="   89.567">  1  3  2 -1</clus>
<clus scale="   89.567">  1  3  2 -1</clus>
</clustering>
</event>
<event>
 6    0  0.1993420E+002  0.9943774E+02  0.7546771E-02  0.1281483E+00
         -2   -1    0    0    0  501 -0.00000000000E+00  0.00000000000E+00  0.18534070399E+03  0.18534070399E+03  0.00000000000E+00 0.  1.
         21   -1    0    0  505  502  0.00000000000E+00 -0.00000000000E+00 -0.22225436640E+03  0.22225436640E+03  0.00000000000E+00 0. -1.
         21    1    1    2  503  504 -0.16179152191E+02 -0.88556643626E+02 -0.12244070284E+03  0.15197292459E+03  0.00000000000E+00 0. -1.
         21    1    1    2  504  502  0.21716304355E+02 -0.22662282175E+02 -0.55772797750E+01  0.31879193182E+02  0.00000000000E+00 0. -1.
         21    1    1    2  505  501 -0.42207456821E+02  0.97722726987E+02 -0.17903567949E+02  0.10794321899E+03  0.00000000000E+00 0. -1.
         -2    1    1    2    0  503  0.36670304657E+02  0.13496198814E+02  0.10900788815E+03  0.11579973362E+03  0.00000000000E+00 0.  1.
<scales pt_clust_3="14000.00000" pt_clust_4="31.38753" pt_clust_5="99.43774" pt_clust_6="39.28741"></scales>
<clustering>
<clus scale="   31.388">  2  4  1 -1</clus>
<clus scale="   39.287">  1  6  2 -1</clus>
<clus scale="   99.438">  1  5  2 -1</clus>
<clus scale="   31.388">  2  3  1 -1</clus>
</clustering>
</event>
<event>
 6    0  0.1993420E+002  0.1252983E+03  0.7546771E-02  0.1234604E+00
          2   -1    0    0  505    0 -0.00000000000E+00  0.00000000000E+00  0.23501205290E+04  0.23501205290E+04  0.00000000000E+00 0. -1.
         21   -1    0    0  504  502  0.00000000000E+00 -0.00000000000E+00 -0.27908461602E+03  0.27908461602E+03  0.00000000000E+00 0.  1.
         21    1    1    2  503  501 -0.54028264788E+02  0.13915522754E+03  0.84380193652E+02  0.17147375259E+03  0.00000000000E+00 0.  1.
         21    1    1    2  504  503  0.82421321848E+02 -0.56446687756E+02 -0.20156212220E+03  0.22495953405E+03  0.00000000000E+00 0.  1.
         21    1    1    2  505  502  0.18980510459E+02 -0.24852900440E+02 -0.10344422227E+02  0.32938328871E+02  0.00000000000E+00 0. -1.
          2    1    1    2  501    0 -0.47373567520E+02 -0.57855639342E+02  0.21985622637E+04  0.21998335295E+04  0.00000000000E+00 0. -1.
<scales pt_clust_3="14000.00000" pt_clust_4="125.29832" pt_clust_5="31.27182" pt_clust_6="74.79436"></scales>
<clustering>
<clus scale="   31.272">  2  5  1 -1</clus>
<clus scale="   74.794">  1  6  2 -1</clus>
<clus scale="  125.298">  2  4  1 -1</clus>
<clus scale="   31.272">  2  3  1 -1</clus>
</clustering>
</event>
<event>
 6    0  0.1993420E+002  0.1811787E+03  0.7546771E-02  0.1166667E+00
         21   -1    0    0  501  502  0.00000000000E+00  0.00000000000E+00  0.50269682802E+02  0.50269682802E+02  0.00000000000E+00 0.  1.
          4   -1    0    0  505    0 -0.00000000000E+00 -0.00000000000E+00 -0.17955498899E+04  0.17955498899E+04  0.00000000000E+00 0.  1.
         21    1    1    2  503  504  0.15283746702E+03  0.83590945909E+02 -0.24248090706E+03  0.29856946905E+03  0.00000000000E+00 0.  1.
         21    1    1    2  504  502 -0.74305070296E+02  0.76195989782E+02 -0.27569965283E+03  0.29552896796E+03  0.00000000000E+00 0.  1.
         21    1    1    2  505  503  0.32675911812E+02  0.17877049927E+02 -0.16775129811E+03  0.17183655649E+03  0.00000000000E+00 0.  1.
          4    1    1    2  501    0 -0.11120830853E+03 -0.17766398562E+03 -0.10593483490E+04  0.10798845792E+04  0.00000000000E+00 0.  1.
<scales pt_clust_3="14000.00000" pt_clust_4="104.85895" pt_clust_5="37.24653" pt_clust_6="181.17874"></scales>
<clustering>
<clus scale="   37.247">  2  5  1 -1</clus>
<clus scale="  104.859">  1  4  2 -1</clus>
<clus scale="  181.179">  2  6  1 -1</clus>
<clus scale="  104.859">  1  3  2 -1</clus>
</clustering>
</event>
<event>
 6    0  0.1993420E+002  0.8580931E+02  0.7546771E-02  0.1313330E+00
          4   -1    0    0  503    0 -0.00000000000E+00  0.00000000000E+00  0.73514146365E+03  0.73514146365E+03  0.00000000000E+00 0. -1.
         21   -1    0    0  505  502  0.00000000000E+00 -0.00000000000E+00 -0.76674330213E+02  0.76674330213E+02  0.00000000000E+00 0.  1.
         21    1    1    2  503  502  0.35754166437E+02  0.19324046354E+02  0.66908653624E+02  0.78285037618E+02  0.00000000000E+00 0.  1.
         21    1    1    2  504  501 -0.16140323278E+02  0.52117729617E+02  0.21714034836E+02  0.58721947215E+02  0.00000000000E+00 0.  1.
         21    1    1    2  505  504  0.22869009325E+01  0.46153935686E+02 -0.35176924857E+02  0.58076085763E+02  0.00000000000E+00 0.  1.
          4    1    1    2  501    0 -0.21900744091E+02 -0.11759571166E+03  0.60502136983E+03  0.61673272327E+03  0.00000000000E+00 0. -1.
<scales pt_clust_3="40.64209" pt_clust_4="14000.00000" pt_clust_5="46.57854" pt_clust_6="85.80931"></scales>
<clustering>
<clus scale="   40.642">  1  3  2 -1</clus>
<clus scale="   46.579">  2  5  1 -1</clus>
<clus scale="   85.809">  1  6  2 -1</clus>
<clus scale="   46.579">  2  3  1 -1</clus>
</clustering>
</event>
<event>
 6    0  0.1993420E+002  0.7157689E+02  0.7546771E-02  0.1354811E+00
          2   -1    0    0  503    0 -0.00000000000E+00  0.00000000000E+00  0.86105956456E+03  0.86105956456E+03  0.00000000000E+00 0.  1.
         21   -1    0    0  501  502  0.00000000000E+00 -0.00000000000E+00 -0.14306725051E+03  0.14306725051E+03  0.00000000000E+00 0.  1.
         21    1    1    2  503  505 -0.61967993667E+02  0.50812393667E+01  0.27834685895E+02  0.68122103399E+02  0.00000000000E+00 0.  1.
         21    1    1    2  504  502 -0.53089160688E+02  0.16709694718E+01 -0.74882137308E+02  0.91807328735E+02  0.00000000000E+00 0.  1.
         21    1    1    2  505  504  0.95730899268E+02 -0.34743137097E+02  0.26979351849E+02  0.10535357648E+03  0.00000000000E+00 0.  1.
          2    1    1    2  501    0  0.19326255087E+02  0.27990928259E+02  0.73806041361E+03  0.73884380646E+03  0.00000000000E+00 0.  1.
<scales pt_clust_3="14000.00000" pt_clust_4="51.88049" pt_clust_5="71.57689" pt_clust_6="34.01465"></scales>
<clustering>
<clus scale="   34.015">  1  6  2 -1</clus>
<clus scale="   51.880">  2  4  1 -1</clus>
<clus scale="   71.577">  2  5  1 -1</clus>
<clus scale="   51.880">  2  3  1 -1</clus>
</clustering>
</event>
<event>
 6    0  0.1993420E+002  0.1094919E+03  0.7546771E-02  0.1261514E+00
         21   -1    0    0  504  502  0.00000000000E+00  0.00000000000E+00  0.33383820605E+03  0.33383820605E+03  0.00000000000E+00 0.  1.
          2   -1    0    0  505    0 -0.00000000000E+00 -0.00000000000E+00 -0.89393782758E+03  0.89393782758E+03  0.00000000000E+00 0.  1.
         21    1    1    2  503  502 -0.33057463289E+01  0.54781087864E+02  0.14066973118E+03  0.15099625432E+03  0.00000000000E+00 0.  1.
         21    1    1    2  504  501  0.34939217032E+02 -0.40595241452E+02  0.50940731820E+02  0.73916714441E+02  0.00000000000E+00 0.  1.
         21    1    1    2  505  503  0.79091475493E+01  0.79966439938E+02  0.10938791372E+03  0.13573099056E+03  0.00000000000E+00 0.  1.
          2    1    1    2  501    0 -0.39542618252E+02 -0.94152286350E+02 -0.86109799826E+03  0.86713207430E+03  0.00000000000E+00 0.  1.
<scales pt_clust_3="32.06667" pt_clust_4="53.56046" pt_clust_5="32.06667" pt_clust_6="102.38596"></scales>
<clustering>
<clus scale="   32.067">  3  5 -1 -1</clus>
<clus scale="   53.560">  1  4  2 -1</clus>
<clus scale="  102.386">  2  6  1 -1</clus>
<clus scale="   53.560">  1  3  2 -1</clus>
</clustering>
</event>
<event>
 6    0  0.1993420E+002  0.2287551E+03  0.7546771E-02  0.1127519E+00
          2   -1    0    0  503    0 -0.00000000000E+00  0.00000000000E+00  0.20611926459E+04  0.20611926459E+04  0.00000000000E+00 0.  1.
         21   -1    0    0  504  502  0.00000000000E+00 -0.00000000000E+00 -0.81780542451E+02  0.81780542451E+02  0.00000000000E+00 0.  1.
         21    1    1    2  503  502  0.56110180069E+02  0.16041566861E+03  0.39501808808E+03  0.43002421903E+03  0.00000000000E+00 0.  1.
         21    1    1    2  504  505  0.18775552236E+02 -0.16582061354E+03  0.18989367931E+03  0.25280151637E+03  0.00000000000E+00 0.  1.
         21    1    1    2  505  501  0.18159133411E+02 -0.11056867873E+03  0.81006824576E+02  0.13826529742E+03  0.00000000000E+00 0.  1.
          2    1    1    2  501    0 -0.93044865716E+02  0.11597362366E+03  0.13134935115E+04  0.13218821555E+04  0.00000000000E+00 0.  1.
<scales pt_clust_3="224.80644" pt_clust_4="34.67737" pt_clust_5="34.67737" pt_clust_6="148.68500"></scales>
<clustering>
<clus scale="   34.677">  4  5 -1 -1</clus>
<clus scale="  148.685">  1  6  2 -1</clus>
<clus scale="  224.806">  1  3  2 -1</clus>
<clus scale="  228.755">  2  3  1 -1</clus>
</clustering>
</event>
<event>
 6    0  0.1993420E+002  0.1679025E+03  0.7546771E-02  0.1180053E+00
         21   -1    0    0  504  502  0.00000000000E+00  0.00000000000E+00  0.45807008076E+03  0.45807008076E+03  0.00000000000E+00 0. -1.
         -1   -1    0    0    0  501 -0.00000000000E+00 -0.00000000000E+00 -0.69487917594E+03  0.69487917594E+03  0.00000000000E+00 0. -1.
         21    1    1    2  503  501  0.54746455121E+02 -0.48908209477E+02  0.13673962732E+03  0.15519959079E+03  0.00000000000E+00 0.  1.
         21    1    1    2  504  503  0.93585775158E+02 -0.10582097730E+02  0.26854178584E+03  0.28457858115E+03  0.00000000000E+00 0. -1.
         21    1    1    2  505  502 -0.13148939439E+03  0.31352517363E+02 -0.95285743945E+02  0.16538383893E+03  0.00000000000E+00 0.  1.
         -1    1    1    2    0  505 -0.16842835891E+02  0.28137789843E+02 -0.54680476439E+03  0.54778724584E+03  0.00000000000E+00 0. -1.
<scales pt_clust_3="52.63637" pt_clust_4="52.63637" pt_clust_5="156.78327" pt_clust_6="32.79354"></scales>
<clustering>
<clus scale="   32.794">  2  6  1 -1</clus>
<clus scale="   52.636">  3  4 -1 -1</clus>
<clus scale="  156.783">  2  5  1 -1</clus>
<clus scale="  167.903">  1  3  2 -1</clus>
</clustering>
</event>
<event>
 6    0  0.1993420E+002  0.2758651E+03  0.7546771E-02  0.1097969E+00
         -2   -1    0    0    0  501 -0.00000000000E+00  0.00000000000E+00  0.18487372148E+04  0.18487372148E+04  0.00000000000E+00 0. -1.
         21   -1    0    0  505  502  0.00000000000E+00 -0.00000000000E+00 -0.17703865755E+03  0.17703865755E+03  0.00000000000E+00 0. -1.
         21    1    1    2  503  504  0.27918236454E+03  0.52332424065E+02  0.22631004726E+03  0.36317724704E+03  0.00000000000E+00 0. -1.
         21    1    1    2  504  502  0.26762676774E+02  0.65223889496E+02 -0.47263684626E+02  0.84877868220E+02  0.00000000000E+00 0. -1.
         21    1    1    2  505  501 -0.36408808659E+02 -0.66373318866E+02  0.18065790053E+02  0.77829246273E+02  0.00000000000E+00 0. -1.
         -2    1    1    2    0  503 -0.26953623266E+03 -0.51182994696E+02  0.14745864046E+04  0.14998915108E+04  0.00000000000E+00 0. -1.
<scales pt_clust_3="275.86506" pt_clust_4="70.50104" pt_clust_5="56.87833" pt_clust_6="14000.00000"></scales>
<clustering>
<clus scale="   70.501">  2  4  1 -1</clus>
<clus scale="   56.878">  2  5  1 -1</clus>
<clus scale="  275.865">  2  3  1 -1</clus>
<clus scale="   70.501">  2  3  1 -1</clus>
</clustering>
</event>
<event>
 6    0  0.1993420E+002  0.1220305E+03  0.7546771E-02  0.1239784E+00
         21   -1    0    0  503  502  0.00000000000E+00  0.00000000000E+00  0.11568803667E+03  0.11568803667E+03  0.00000000000E+00 0. -1.
         -4   -1    0    0    0  501 -0.00000000000E+00 -0.00000000000E+00 -0.79419411789E+03  0.79419411789E+03  0.00000000000E+00 0.  1.
         21    1    1    2  503  505  0.33858444043E+02 -0.58987264367E+01 -0.55785223216E+01  0.34818229677E+02  0.00000000000E+00 0. -1.
         21    1    1    2  504  502  0.37978002875E+02  0.35435289037E+02  0.60143243867E+02  0.79468221286E+02  0.00000000000E+00 0. -1.
         21    1    1    2  505  501  0.30249049808E+02  0.62308026666E+02 -0.23927252492E+02  0.73278977975E+02  0.00000000000E+00 0. -1.
         -4    1    1    2    0  504 -0.10208549673E+03 -0.91844589266E+02 -0.70914355027E+03  0.72231672562E+03  0.00000000000E+00 0.  1.
<scales pt_clust_3="34.36843" pt_clust_4="68.91286" pt_clust_5="14000.00000" pt_clust_6="122.03054"></scales>
<clustering>
<clus scale="   34.368">  1  3  2 -1</clus>
<clus scale="   68.913">  1  4  2 -1</clus>
<clus scale="  122.031">  2  6  1 -1</clus>
<clus scale="   34.368">  1  3  2 -1</clus>
</clustering>
</event>
<event>
 6    0  0.1993420E+002  0.1856115E+03  0.7546771E-02  0.1162480E+00
         21   -1    0    0  503  502  0.00000000000E+00  0.00000000000E+00  0.42959955657E+02  0.42959955657E+02  0.00000000000E+00 0.  1.
         -4   -1    0    0    0  501 -0.00000000000E+00 -0.00000000000E+00 -0.15218405378E+04  0.15218405378E+04  0.00000000000E+00 0.  1.
         21    1    1    2  503  505 -0.80575581384E+02 -0.55573376864E+02 -0.89301210627E+02  0.13249728582E+03  0.00000000000E+00 0.  1.
         21    1    1    2  504  502 -0.73053131242E+02  0.29882393975E+02 -0.17464480388E+03  0.19165209358E+03  0.00000000000E+00 0.  1.
         21    1    1    2  505  501 -0.34709268823E+02 -0.23160679185E+02 -0.92484194433E+02  0.10146170027E+03  0.00000000000E+00 0.  1.
         -4    1    1    2    0  504  0.18833798145E+03  0.48851662073E+02 -0.11224503732E+04  0.11391894137E+04  0.00000000000E+00 0.  1.
<scales pt_clust_3="30.63308" pt_clust_4="78.92856" pt_clust_5="30.63308" pt_clust_6="179.58394"></scales>
<clustering>
<clus scale="   30.633">  3  5 -1 -1</clus>
<clus scale="   78.929">  1  4  2 -1</clus>
<clus scale="  179.584">  2  6  1 -1</clus>
<clus scale="   78.929">  1  3  2 -1</clus>
</clustering>
</event>
<event>
 6    0  0.1993420E+002  0.1728711E+03  0.7546771E-02  0.1174886E+00
         -1   -1    0    0    0  501 -0.00000000000E+00  0.00000000000E+00  0.22973769123E+04  0.22973769123E+04  0.00000000000E+00 0. -1.
         21   -1    0    0  505  502  0.00000000000E+00 -0.00000000000E+00 -0.93566223335E+02  0.93566223335E+02  0.00000000000E+00 0.  1.
         21    1    1    2  503  501 -0.15312623447E+02  0.31774913610E+02  0.11298559085E+03  0.11836327687E+03  0.00000000000E+00 0.  1.
         21    1    1    2  504  503 -0.90322764673E+02  0.11104426378E+03  0.42893953306E+02  0.14942865042E+03  0.00000000000E+00 0.  1.
         21    1    1    2  505  504 -0.19338142298E+02  0.24734394247E+02 -0.24736161002E+02  0.39970384880E+02  0.00000000000E+00 0.  1.
         -1    1    1    2    0  502  0.12497353042E+03 -0.16755357164E+03  0.20726673058E+04  0.20831808235E+04  0.00000000000E+00 0. -1.
<scales pt_clust_3="36.62081" pt_clust_4="14000.00000" pt_clust_5="31.39672" pt_clust_6="172.87113"></scales>
<clustering>
<clus scale="   31.397">  2  5  1 -1</clus>
<clus scale="   36.621">  1  3  2 -1</clus>
<clus scale="  172.871">  1  6  2 -1</clus>
<clus scale="   31.397">  2  3  1 -1</clus>
</clustering>
</event>
<event>
 6    0  0.1993420E+002  0.1100299E+03  0.7546771E-02  0.1260514E+00
         21   -1    0    0  505  502  0.00000000000E+00  0.00000000000E+00  0.54046969727E+02  0.54046969727E+02  0.00000000000E+00 0. -1.
          1   -1    0    0  504    0 -0.00000000000E+00 -0.00000000000E+00 -0.11904517864E+04  0.11904517864E+04  0.00000000000E+00 0.  1.
         21    1    1    2  503  502 -0.11280150267E+03  0.42643740055E+02 -0.41638872204E+02  0.12757924302E+03  0.00000000000E+00 0. -1.
         21    1    1    2  504  503  0.29119126855E+01  0.32173379410E+02 -0.90797920232E+02  0.96373585056E+02  0.00000000000E+00 0.  1.
         21    1    1    2  505  501  0.70373472015E+02 -0.43419825799E+02 -0.22117084506E+03  0.23612337779E+03  0.00000000000E+00 0.  1.
          1    1    1    2  501    0  0.39516117971E+02 -0.31397293667E+02 -0.78279717920E+03  0.78442255028E+03  0.00000000000E+00 0.  1.
<scales pt_clust_3="110.02994" pt_clust_4="32.30488" pt_clust_5="14000.00000" pt_clust_6="42.43854"></scales>
<clustering>
<clus scale="   32.305">  2  4  1 -1</clus>
<clus scale="   42.439">  2  6  1 -1</clus>
<clus scale="  110.030">  1  3  2 -1</clus>
<clus scale="  110.030">  1  3  2 -1</clus>
</clustering>
</event>
<event>
 6    0  0.1993420E+002  0.1443730E+03  0.7546771E-02  0.1207563E+00
         21   -1    0    0  504  502  0.00000000000E+00  0.00000000000E+00  0.88358802038E+03  0.88358802038E+03  0.00000000000E+00 0.  1.
         -1   -1    0    0    0  501 -0.00000000000E+00 -0.00000000000E+00 -0.34393497101E+03  0.34393497101E+03  0.00000000000E+00 0. -1.
         21    1    1    2  503  505 -0.38181886164E+02 -0.18572922134E+02  0.47978719810E+02  0.64068458872E+02  0.00000000000E+00 0. -1.
         21    1    1    2  504  503 -0.16773924752E+02 -0.35684807441E+02  0.69690743869E+03  0.69802202553E+03  0.00000000000E+00 0.  1.
         21    1    1    2  505  501  0.52174646264E+01 -0.69178329071E+02  0.10614633467E+03  0.12680657520E+03  0.00000000000E+00 0. -1.
         -1    1    1    2    0  502  0.49738346289E+02  0.12343605865E+03 -0.31137944379E+03  0.33862593179E+03  0.00000000000E+00 0. -1.
<scales pt_clust_3="47.09242" pt_clust_4="39.43057" pt_clust_5="47.09242" pt_clust_6="130.19886"></scales>
<clustering>
<clus scale="   39.431">  1  4  2 -1</clus>
<clus scale="   47.092">  3  5 -1 -1</clus>
<clus scale="  130.199">  2  6  1 -1</clus>
<clus scale="   39.431">  1  3  2 -1</clus>
</clustering>
</event>
<event>
 6    0  0.1993420E+002  0.7850245E+02  0.7546771E-02  0.1333356E+00
          2   -1    0    0  504    0 -0.00000000000E+00  0.00000000000E+00  0.11676613300E+04  0.11676613300E+04  0.00000000000E+00 0.  1.
         21   -1    0    0  505  502  0.00000000000E+00 -0.00000000000E+00 -0.55444803141E+02  0.55444803141E+02  0.00000000000E+00 0. -1.
         21    1    1    2  503  502 -0.56457604795E+01  0.32219201693E+02  0.39625320543E+02  0.51382074669E+02  0.00000000000E+00 0.  1.
         21    1    1    2  504  503 -0.34604126931E+02  0.13136106907E+02  0.19734331515E+02  0.41945759568E+02  0.00000000000E+00 0.  1.
         21    1    1    2  505  501  0.89036290622E+02 -0.10380593968E+03  0.89555046445E+02  0.16347244571E+03  0.00000000000E+00 0. -1.
          2    1    1    2  501    0 -0.48786403212E+02  0.58450631083E+02  0.96330182833E+03  0.96630585317E+03  0.00000000000E+00 0.  1.
<scales pt_clust_3="32.71011" pt_clust_4="41.24222" pt_clust_5="14000.00000" pt_clust_6="78.50245"></scales>
<clustering>
<clus scale="   32.710">  2  3  1 -1</clus>
<clus scale="   41.242">  2  4  1 -1</clus>
<clus scale="   78.502">  1  6  2 -1</clus>
<clus scale="   32.710">  2  3  1 -1</clus>
</clustering>
</event>
<event>
 6    0  0.2152162E+002  0.1717205E+03  0.7546771E-02  0.1176065E+00
         -2   -1    0    0    0  501 -0.00000000000E+00  0.00000000000E+00  0.84755669731E+03  0.84755669731E+03  0.00000000000E+00 0.  1.
         21   -1    0    0  505  502  0.00000000000E+00 -0.00000000000E+00 -0.96678227786E+03  0.96678227786E+03  0.00000000000E+00 0.  1.
         21    1    1    2  503  502 -0.13097095900E+03 -0.12581318004E+03 -0.85250302135E+03  0.87163280674E+03  0.00000000000E+00 0.  1.
         21    1    1    2  504  503  0.88290772639E+02  0.59537100045E+02  0.20524808228E+02  0.10844904134E+03  0.00000000000E+00 0.  1.
         21    1    1    2  505  501  0.22020113215E+02  0.33767571716E+02 -0.53527287735E+02  0.67009736739E+02  0.00000000000E+00 0.  1.
         -2    1    1    2    0  504  0.20660073145E+02  0.32508508275E+02  0.76627992031E+03  0.76724739035E+03  0.00000000000E+00 0.  1.
<scales pt_clust_3="171.72052" pt_clust_4="14000.00000" pt_clust_5="43.52663" pt_clust_6="38.51807"></scales>
<clustering>
<clus scale="   38.518">  1  6  2 -1</clus>
<clus scale="   43.527">  1  5  2 -1</clus>
<clus scale="  171.721">  2  3  1 -1</clus>
<clus scale="  171.721">  2  3  1 -1</clus>
</clustering>
</event>
<event>
 6    0  0.1993420E+002  0.1191587E+03  0.7546771E-02  0.1244491E+00
         21   -1    0    0  503  502  0.00000000000E+00  0.00000000000E+00  0.30271559708E+02  0.30271559708E+02  0.00000000000E+00 0.  1.
          2   -1    0    0  505    0 -0.00000000000E+00 -0.00000000000E+00 -0.17974758326E+04  0.17974758326E+04  0.00000000000E+00 0. -1.
         21    1    1    2  503  501  0.31310177624E+02  0.81201853138E+02 -0.16280031299E+03  0.18460230249E+03  0.00000000000E+00 0.  1.
         21    1    1    2  504  502  0.44757228466E+02  0.25538284927E+02 -0.31923522475E+02  0.60617858625E+02  0.00000000000E+00 0.  1.
         21    1    1    2  505  504 -0.23735327140E+02  0.22170754336E+02 -0.16352661475E+03  0.16672091001E+03  0.00000000000E+00 0.  1.
          2    1    1    2  501    0 -0.52332078951E+02 -0.12891089240E+03 -0.14089538227E+04  0.14158063212E+04  0.00000000000E+00 0. -1.
<scales pt_clust_3="14000.00000" pt_clust_4="51.26534" pt_clust_5="32.47935" pt_clust_6="119.15872"></scales>
<clustering>
<clus scale="   32.479">  2  5  1 -1</clus>
<clus scale="   51.265">  1  4  2 -1</clus>
<clus scale="  119.159">  2  6  1 -1</clus>
<clus scale="   51.265">  1  3  2 -1</clus>
</clustering>
</event>
<event>
 6    0  0.1993420E+002  0.8258024E+02  0.7546771E-02  0.1321885E+00
          2   -1    0    0  503    0 -0.00000000000E+00  0.00000000000E+00  0.21208297839E+03  0.21208297839E+03  0.00000000000E+00 0.  1.
         21   -1    0    0  501  502  0.00000000000E+00 -0.00000000000E+00 -0.27897380451E+03  0.27897380451E+03  0.00000000000E+00 0. -1.
         21    1    1    2  503  505  0.68038102277E+02 -0.70795452545E+02 -0.88177358586E+02  0.13197130760E+03  0.00000000000E+00 0. -1.
         21    1    1    2  504  502 -0.29476621089E+02  0.12007481722E+02 -0.52138641774E+01  0.32252677219E+02  0.00000000000E+00 0. -1.
         21    1    1    2  505  504 -0.69538661308E+02  0.12389654826E+02 -0.13696713718E+03  0.15410751322E+03  0.00000000000E+00 0. -1.
          2    1    1    2  501    0  0.30977180120E+02  0.46398315997E+02  0.16346753383E+03  0.17272528486E+03  0.00000000000E+00 0.  1.
<scales pt_clust_3="82.58024" pt_clust_4="31.82846" pt_clust_5="14000.00000" pt_clust_6="55.67806"></scales>
<clustering>
<clus scale="   31.828">  2  4  1 -1</clus>
<clus scale="   55.678">  1  6  2 -1</clus>
<clus scale="   82.580">  1  3  2 -1</clus>
<clus scale="   31.828">  2  3  1 -1</clus>
</clustering>
</event>
<event>
 6    0  0.1993420E+002  0.1439985E+03  0.7546771E-02  0.1208048E+00
         21   -1    0    0  503  502  0.00000000000E+00  0.00000000000E+00  0.15034015349E+03  0.15034015349E+03  0.00000000000E+00 0.  1.
          2   -1    0    0  504    0 -0.00000000000E+00 -0.00000000000E+00 -0.28695295890E+04  0.28695295890E+04  0.00000000000E+00 0. -1.
         21    1    1    2  503  505  0.57382077335E+02  0.50942064569E+01 -0.22262423761E+01  0.57650757964E+02  0.00000000000E+00 0.  1.
         21    1    1    2  504  502 -0.18250458934E+03  0.93488727303E+02  0.23682657803E+01  0.20506992940E+03  0.00000000000E+00 0.  1.
         21    1    1    2  505  501  0.62033383644E+02  0.30421500502E+02 -0.53321445253E+02  0.87274193797E+02  0.00000000000E+00 0. -1.
          2    1    1    2  501    0  0.63089128362E+02 -0.12900443426E+03 -0.26660100136E+04  0.26698748613E+04  0.00000000000E+00 0. -1.
<scales pt_clust_3="44.69896" pt_clust_4="143.99850" pt_clust_5="133.85700" pt_clust_6="14000.00000"></scales>
<clustering>
<clus scale="   44.699">  3  5 -1 -1</clus>
<clus scale="  133.857">  1  3  2 -1</clus>
<clus scale="  143.998">  1  4  2 -1</clus>
<clus scale="  133.857">  1  3  2 -1</clus>
</clustering>
</event>
<event>
 6    0  0.1993420E+002  0.2010789E+03  0.7546771E-02  0.1148832E+00
         21   -1    0    0  501  502  0.00000000000E+00  0.00000000000E+00  0.42506746940E+03  0.42506746940E+03  0.00000000000E+00 0.  1.
          2   -1    0    0  505    0 -0.00000000000E+00 -0.00000000000E+00 -0.17939218290E+04  0.17939218290E+04  0.00000000000E+00 0. -1.
         21    1    1    2  503  504  0.57965166229E+02 -0.55316898056E+02  0.15650998843E+02  0.81638676320E+02  0.00000000000E+00 0.  1.
         21    1    1    2  504  502 -0.11977259646E+03  0.16357268584E+03  0.30569017177E+03  0.36680782370E+03  0.00000000000E+00 0.  1.
         21    1    1    2  505  503  0.67615265627E+02 -0.75004308983E+02 -0.23727130568E+02  0.10373257558E+03  0.00000000000E+00 0.  1.
          2    1    1    2  501    0 -0.58078354007E+01 -0.33251478798E+02 -0.16664683997E+04  0.16668102228E+04  0.00000000000E+00 0. -1.
<scales pt_clust_3="34.25280" pt_clust_4="197.20425" pt_clust_5="34.25280" pt_clust_6="33.75488"></scales>
<clustering>
<clus scale="   33.755">  2  6  1 -1</clus>
<clus scale="   34.253">  3  5 -1 -1</clus>
<clus scale="  197.204">  1  4  2 -1</clus>
<clus scale="  197.204">  1  3  2 -1</clus>
</clustering>
</event>
<event>
 6    0  0.1993420E+002  0.1090207E+03  0.7546771E-02  0.1262394E+00
          1   -1    0    0  504    0 -0.00000000000E+00  0.00000000000E+00  0.13718512638E+04  0.13718512638E+04  0.00000000000E+00 0.  1.
         21   -1    0    0  503  502  0.00000000000E+00 -0.00000000000E+00 -0.11354136349E+04  0.11354136349E+04  0.00000000000E+00 0.  1.
         21    1    1    2  503  505  0.54286467595E+02 -0.28498669423E+02 -0.55055363856E+02  0.82403202682E+02  0.00000000000E+00 0.  1.
         21    1    1    2  504  502 -0.93605788008E+02  0.30546183009E+02 -0.95285722099E+03  0.95793110213E+03  0.00000000000E+00 0.  1.
         21    1    1    2  505  501  0.71425756973E+02  0.30968718937E+01 -0.99591457348E+02  0.12259562697E+03  0.00000000000E+00 0.  1.
          1    1    1    2  501    0 -0.32106436560E+02 -0.51443854791E+01  0.13439416711E+04  0.13443349670E+04  0.00000000000E+00 0.  1.
<scales pt_clust_3="37.57069" pt_clust_4="101.12093" pt_clust_5="37.57069" pt_clust_6="32.51596"></scales>
<clustering>
<clus scale="   32.516">  1  6  2 -1</clus>
<clus scale="   37.571">  3  5 -1 -1</clus>
<clus scale="  101.121">  2  4  1 -1</clus>
<clus scale="  101.121">  2  3  1 -1</clus>
</clustering>
</event>
<event>
 6    0  0.1993420E+002  0.1436323E+03  0.7546771E-02  0.1208523E+00
         21   -1    0    0  504  502  0.00000000000E+00  0.00000000000E+00  0.18707231218E+04  0.18707231218E+04  0.00000000000E+00 0. -1.
          2   -1    0    0  503    0 -0.00000000000E+00 -0.00000000000E+00 -0.15705379242E+04  0.15705379242E+04  0.00000000000E+00 0. -1.
         21    1    1    2  503  502  0.65220913132E+02  0.59186276254E+02  0.12122933390E+04  0.12154883474E+04  0.00000000000E+00 0. -1.
         21    1    1    2  504  505  0.48472633132E+02 -0.43809074732E+02  0.46869174283E+03  0.47322381701E+03  0.00000000000E+00 0. -1.
         21    1    1    2  505  501  0.11394761211E+02 -0.53562850454E+02  0.17904413817E+03  0.18723146890E+03  0.00000000000E+00 0.  1.
          2    1    1    2  501    0 -0.12508830748E+03  0.38185648932E+02 -0.15598440224E+04  0.15653174127E+04  0.00000000000E+00 0. -1.
<scales pt_clust_3="88.07260" pt_clust_4="54.73166" pt_clust_5="54.73166" pt_clust_6="130.59944"></scales>
<clustering>
<clus scale="   54.732">  4  5 -1 -1</clus>
<clus scale="   88.073">  1  3  2 -1</clus>
<clus scale="  130.599">  2  6  1 -1</clus>
<clus scale="   88.073">  1  3  2 -1</clus>
</clustering>
</event>
<event>
 6    0  0.1993420E+002  0.1251257E+03  0.7546771E-02  0.1234873E+00
          2   -1    0    0  505    0 -0.00000000000E+00  0.00000000000E+00  0.35292777551E+03  0.35292777551E+03  0.00000000000E+00 0.  1.
         21   -1    0    0  503  502  0.00000000000E+00 -0.00000000000E+00 -0.12642504385E+04  0.12642504385E+04  0.00000000000E+00 0. -1.
         21    1    1    2  503  501 -0.57618923322E+02 -0.12977209495E+03 -0.10707572474E+04  0.10801304643E+04  0.00000000000E+00 0. -1.
         21    1    1    2  504  502  0.32033066425E+02 -0.29002721408E+01 -0.61783337452E+02  0.69654215305E+02  0.00000000000E+00 0.  1.
         21    1    1    2  505  504  0.50968153306E+01  0.98135605788E+02 -0.10203224555E+03  0.14165858175E+03  0.00000000000E+00 0. -1.
          2    1    1    2  501    0  0.20489041567E+02  0.34536761302E+02  0.32325016739E+03  0.32573495272E+03  0.00000000000E+00 0.  1.
<scales pt_clust_3="14000.00000" pt_clust_4="32.16409" pt_clust_5="125.12565" pt_clust_6="40.17142"></scales>
<clustering>
<clus scale="   32.164">  2  4  1 -1</clus>
<clus scale="   40.171">  1  6  2 -1</clus>
<clus scale="  125.126">  1  5  2 -1</clus>
<clus scale="   32.164">  2  3  1 -1</clus>
</clustering>
</event>
<event>
 6    0  0.1993420E+002  0.1150401E+03  0.7546771E-02  0.1251511E+00
          2   -1    0    0  503    0 -0.00000000000E+00  0.00000000000E+00  0.42772662299E+03  0.42772662299E+03  0.00000000000E+00 0.  1.
         21   -1    0    0  504  502  0.00000000000E+00 -0.00000000000E+00 -0.30687968561E+03  0.30687968561E+03  0.00000000000E+00 0.  1.
         21    1    1    2  503  505 -0.11174162189E+03 -0.14641490815E+02 -0.13497079171E+03  0.17583423424E+03  0.00000000000E+00 0.  1.
         21    1    1    2  504  501  0.94678466295E+02 -0.37941172479E+02  0.30558925871E+02  0.10647719239E+03  0.00000000000E+00 0. -1.
         21    1    1    2  505  502 -0.15466220323E+02 -0.39040406766E+02 -0.10231487298E+03  0.11059697357E+03  0.00000000000E+00 0.  1.
          2    1    1    2  501    0  0.32529375923E+02  0.91623070059E+02  0.32757367620E+03  0.34169790840E+03  0.00000000000E+00 0.  1.
<scales pt_clust_3="14000.00000" pt_clust_4="115.04012" pt_clust_5="41.99235" pt_clust_6="95.74760"></scales>
<clustering>
<clus scale="   41.992">  2  5  1 -1</clus>
<clus scale="   95.748">  1  6  2 -1</clus>
<clus scale="  115.040">  1  4  2 -1</clus>
<clus scale="   41.992">  2  3  1 -1</clus>
</clustering>
</event>
<event>
 6    0  0.1993420E+002  0.1129577E+03  0.7546771E-02  0.1255189E+00
         21   -1    0    0  503  502  0.00000000000E+00  0.00000000000E+00  0.57314121598E+03  0.57314121598E+03  0.00000000000E+00 0. -1.
          1   -1    0    0  504    0 -0.00000000000E+00 -0.00000000000E+00 -0.50631973444E+02  0.50631973444E+02  0.00000000000E+00 0. -1.
         21    1    1    2  503  505  0.43791812329E+02 -0.18162860866E+01  0.99530366397E+02  0.10875346228E+03  0.00000000000E+00 0. -1.
         21    1    1    2  504  502 -0.18289294149E+02 -0.33187071994E+02  0.18348047897E+03  0.18735251851E+03  0.00000000000E+00 0. -1.
         21    1    1    2  505  501  0.51349298955E+02 -0.41609667679E+02  0.20250723551E+03  0.21301947183E+03  0.00000000000E+00 0. -1.
          1    1    1    2  501    0 -0.76851817135E+02  0.76613025759E+02  0.36991161659E+02  0.11464773680E+03  0.00000000000E+00 0. -1.
<scales pt_clust_3="30.17992" pt_clust_4="37.89301" pt_clust_5="30.17992" pt_clust_6="106.70514"></scales>
<clustering>
<clus scale="   30.180">  3  5 -1 -1</clus>
<clus scale="   37.893">  1  4  2 -1</clus>
<clus scale="  106.705">  2  6  1 -1</clus>
<clus scale="   37.893">  1  3  2 -1</clus>
</clustering>
</event>
<event>
 6    0  0.1993420E+002  0.1526987E+03  0.7546771E-02  0.1197196E+00
          1   -1    0    0  503    0 -0.00000000000E+00  0.00000000000E+00  0.14245586600E+04  0.14245586600E+04  0.00000000000E+00 0.  1.
         21   -1    0    0  505  502  0.00000000000E+00 -0.00000000000E+00 -0.47901852729E+03  0.47901852729E+03  0.00000000000E+00 0. -1.
         21    1    1    2  503  504  0.65793160249E+02  0.39469843750E+02 -0.71890827672E+02  0.10514228267E+03  0.00000000000E+00 0. -1.
         21    1    1    2  504  502  0.16532954794E+02 -0.34878537485E+02 -0.86185549028E+02  0.94434103123E+02  0.00000000000E+00 0.  1.
         21    1    1    2  505  501  0.71527719329E+02 -0.57092953687E+01 -0.29161412885E+03  0.30031252193E+03  0.00000000000E+00 0. -1.
          1    1    1    2  501    0 -0.15385383437E+03  0.11179891033E+01  0.13952306382E+04  0.14036882795E+04  0.00000000000E+00 0.  1.
<scales pt_clust_3="76.36945" pt_clust_4="38.59859" pt_clust_5="152.69868" pt_clust_6="14000.00000"></scales>
<clustering>
<clus scale="   38.599">  2  4  1 -1</clus>
<clus scale="   76.369">  2  3  1 -1</clus>
<clus scale="  152.699">  2  5  1 -1</clus>
<clus scale="   38.599">  2  3  1 -1</clus>
</clustering>
</event>
<event>
 6    0  0.1993420E+002  0.1523672E+03  0.7546771E-02  0.1197594E+00
         21   -1    0    0  503  502  0.00000000000E+00  0.00000000000E+00  0.82198243170E+02  0.82198243170E+02  0.00000000000E+00 0. -1.
          4   -1    0    0  504    0 -0.00000000000E+00 -0.00000000000E+00 -0.11362048050E+04  0.11362048050E+04  0.00000000000E+00 0. -1.
         21    1    1    2  503  505  0.31336196848E+02  0.10601659623E+03 -0.28423993726E+02  0.11414639428E+03  0.00000000000E+00 0. -1.
         21    1    1    2  504  502 -0.63267801101E+02 -0.45972109016E+02 -0.71046671309E+02  0.10565925879E+03  0.00000000000E+00 0. -1.
         21    1    1    2  505  501 -0.25587857165E+02  0.62096811553E+02 -0.49211448206E+02  0.83261750365E+02  0.00000000000E+00 0. -1.
          4    1    1    2  501    0  0.57519461418E+02 -0.12214129876E+03 -0.90532444863E+03  0.91533564478E+03  0.00000000000E+00 0. -1.
<scales pt_clust_3="53.13657" pt_clust_4="78.20645" pt_clust_5="53.13657" pt_clust_6="136.26525"></scales>
<clustering>
<clus scale="   53.137">  3  5 -1 -1</clus>
<clus scale="   78.206">  1  4  2 -1</clus>
<clus scale="  136.265">  2  6  1 -1</clus>
<clus scale="   78.206">  1  3  2 -1</clus>
</clustering>
</event>
<event>
 6    0  0.1993420E+002  0.2566004E+03  0.7546771E-02  0.1109203E+00
          2   -1    0    0  502    0 -0.00000000000E+00  0.00000000000E+00  0.11899962822E+04  0.11899962822E+04  0.00000000000E+00 0.  1.
         21   -1    0    0  504  502  0.00000000000E+00 -0.00000000000E+00 -0.91552818619E+02  0.91552818619E+02  0.00000000000E+00 0.  1.
         21    1    1    2  503  505  0.30996597503E+02  0.11068771587E+03  0.20793109995E+03  0.23758767187E+03  0.00000000000E+00 0.  1.
         21    1    1    2  504  503  0.96005486187E+02 -0.41990098533E+01  0.46904102356E+02  0.10693306261E+03  0.00000000000E+00 0.  1.
         21    1    1    2  505  501  0.53390315206E+02  0.10263670551E+03  0.14293175452E+03  0.18388666489E+03  0.00000000000E+00 0.  1.
          2    1    1    2  501    0 -0.18039239890E+03 -0.20912541153E+03  0.70067650679E+03  0.75314170147E+03  0.00000000000E+00 0.  1.
<scales pt_clust_3="43.53275" pt_clust_4="96.09727" pt_clust_5="43.53275" pt_clust_6="252.85643"></scales>
<clustering>
<clus scale="   43.533">  3  5 -1 -1</clus>
<clus scale="   96.097">  2  4  1 -1</clus>
<clus scale="  252.856">  1  6  2 -1</clus>
<clus scale="   96.097">  2  3  1 -1</clus>
</clustering>
</event>
<event>
 6    0  0.1993420E+002  0.1885266E+03  0.7546771E-02  0.1159797E+00
          2   -1    0    0  502    0 -0.00000000000E+00  0.00000000000E+00  0.84457853530E+03  0.84457853530E+03  0.00000000000E+00 0.  1.
         21   -1    0    0  504  502  0.00000000000E+00 -0.00000000000E+00 -0.53965419535E+03  0.53965419535E+03  0.00000000000E+00 0. -1.
         21    1    1    2  503  501 -0.13163904104E+03  0.12320244621E+03  0.31729472578E+03  0.36494331461E+03  0.00000000000E+00 0.  1.
         21    1    1    2  504  505  0.36052967219E+02 -0.53181337882E+02 -0.12152613805E+03  0.13746517149E+03  0.00000000000E+00 0. -1.
         21    1    1    2  505  503  0.64021808753E+02 -0.10170199120E+03 -0.37593516401E+03  0.39467624016E+03  0.00000000000E+00 0. -1.
          2    1    1    2  501    0  0.31564265064E+02  0.31680882876E+02  0.48509091623E+03  0.48714800439E+03  0.00000000000E+00 0.  1.
<scales pt_clust_3="183.95479" pt_clust_4="30.17363" pt_clust_5="30.17363" pt_clust_6="44.72115"></scales>
<clustering>
<clus scale="   30.174">  4  5 -1 -1</clus>
<clus scale="   44.721">  1  6  2 -1</clus>
<clus scale="  183.955">  1  3  2 -1</clus>
<clus scale="  188.527">  2  3  1 -1</clus>
</clustering>
</event>
<event>
 6    0  0.1993420E+002  0.1661455E+03  0.7546771E-02  0.1181928E+00
          2   -1    0    0  505    0 -0.00000000000E+00  0.00000000000E+00  0.11164130031E+04  0.11164130031E+04  0.00000000000E+00 0.  1.
         21   -1    0    0  504  502  0.00000000000E+00 -0.00000000000E+00 -0.94486109005E+02  0.94486109005E+02  0.00000000000E+00 0. -1.
         21    1    1    2  503  501  0.88285918090E+02 -0.86599452889E+02  0.20798327569E+02  0.12540509959E+03  0.00000000000E+00 0. -1.
         21    1    1    2  504  503  0.40554972103E+02  0.11008852821E+01 -0.16793102855E+02  0.43908154301E+02  0.00000000000E+00 0. -1.
         21    1    1    2  505  502 -0.57023114725E+02 -0.13118489883E+02  0.10213039720E+03  0.11770449619E+03  0.00000000000E+00 0.  1.
          2    1    1    2  501    0 -0.71817775468E+02  0.98617057490E+02  0.91579127217E+03  0.92388136201E+03  0.00000000000E+00 0.  1.
<scales pt_clust_3="39.43716" pt_clust_4="39.43716" pt_clust_5="58.51265" pt_clust_6="151.20637"></scales>
<clustering>
<clus scale="   39.437">  3  4 -1 -1</clus>
<clus scale="   58.513">  1  5  2 -1</clus>
<clus scale="  151.206">  1  6  2 -1</clus>
<clus scale="  166.145">  2  3  1 -1</clus>
</clustering>
</event>
<event>
 6    0  0.1993420E+002  0.5800812E+03  0.7546771E-02  0.9947615E-01
          1   -1    0    0  504    0 -0.00000000000E+00  0.00000000000E+00  0.10305758446E+04  0.10305758446E+04  0.00000000000E+00 0. -1.
         21   -1    0    0  501  502  0.00000000000E+00 -0.00000000000E+00 -0.78778924838E+03  0.78778924838E+03  0.00000000000E+00 0. -1.
         21    1    1    2  503  505 -0.23587240090E+03  0.24172819635E+03 -0.35734098269E+03  0.49169186319E+03  0.00000000000E+00 0. -1.
         21    1    1    2  504  503 -0.10346290005E+02  0.67549382091E+02 -0.17340494947E+02  0.70502890031E+02  0.00000000000E+00 0. -1.
         21    1    1    2  505  502 -0.98127211709E+02  0.12080059868E+03 -0.21041626948E+03  0.26171882007E+03  0.00000000000E+00 0. -1.
          1    1    1    2  501    0  0.34434590262E+03 -0.43007817712E+03  0.82788434338E+03  0.99445151973E+03  0.00000000000E+00 0. -1.
<scales pt_clust_3="64.97713" pt_clust_4="64.97713" pt_clust_5="32.53063" pt_clust_6="550.94586"></scales>
<clustering>
<clus scale="   32.531">  3  5 -1 -1</clus>
<clus scale="   64.977">  3  4 -1 -1</clus>
<clus scale="  550.946">  1  6  2 -1</clus>
<clus scale="  580.081">  2  3  1 -1</clus>
</clustering>
</event>
<event>
 6    0  0.1993420E+002  0.1411067E+03  0.7546771E-02  0.1211848E+00
         21   -1    0    0  505  502  0.00000000000E+00  0.00000000000E+00  0.17050214762E+03  0.17050214762E+03  0.00000000000E+00 0.  1.
          2   -1    0    0  504    0 -0.00000000000E+00 -0.00000000000E+00 -0.19349390036E+03  0.19349390036E+03  0.00000000000E+00 0. -1.
         21    1    1    2  503  502  0.83606609482E+02  0.39665120804E+02  0.68867065552E+02  0.11535189498E+03  0.00000000000E+00 0.  1.
         21    1    1    2  504  503  0.42155655287E+02 -0.12525901923E+02  0.37061907890E+02  0.57511585860E+02  0.00000000000E+00 0.  1.
         21    1    1    2  505  501 -0.56857973844E+02  0.13184534641E+01 -0.22420982457E+02  0.61133198538E+02  0.00000000000E+00 0. -1.
          2    1    1    2  501    0 -0.68904290925E+02 -0.28457672346E+02 -0.10649974373E+03  0.12999936860E+03  0.00000000000E+00 0. -1.
<scales pt_clust_3="136.60467" pt_clust_4="31.65217" pt_clust_5="50.61730" pt_clust_6="50.61730"></scales>
<clustering>
<clus scale="   31.652">  3  4 -1 -1</clus>
<clus scale="   50.617">  5  6 -1 -1</clus>
<clus scale="  136.605">  1  3  2 -1</clus>
<clus scale="  136.605">  1  3  2 -1</clus>
</clustering>
</event>
<event>
 6    0  0.1993420E+002  0.9046269E+02  0.7546771E-02  0.1301735E+00
         21   -1    0    0  501  502  0.00000000000E+00  0.00000000000E+00  0.15015249049E+03  0.15015249049E+03  0.00000000000E+00 0. -1.
          2   -1    0    0  504    0 -0.00000000000E+00 -0.00000000000E+00 -0.16438995471E+04  0.16438995471E+04  0.00000000000E+00 0.  1.
         21    1    1    2  503  505  0.76201111440E+02  0.25339797774E+02  0.42438382886E+02  0.90828030243E+02  0.00000000000E+00 0. -1.
         21    1    1    2  504  503 -0.10456649022E+03  0.54895032102E+01 -0.48974932318E+03  0.50081801592E+03  0.00000000000E+00 0. -1.
         21    1    1    2  505  502 -0.51537852000E+02  0.52229029814E+01  0.67466335873E+02  0.85059598990E+02  0.00000000000E+00 0. -1.
          2    1    1    2  501    0  0.79903230775E+02 -0.36052203966E+02 -0.11139024522E+04  0.11173463925E+04  0.00000000000E+00 0.  1.
<scales pt_clust_3="42.26745" pt_clust_4="14000.00000" pt_clust_5="51.80182" pt_clust_6="90.46269"></scales>
<clustering>
<clus scale="   51.802">  1  5  2 -1</clus>
<clus scale="   42.267">  1  3  2 -1</clus>
<clus scale="   90.463">  2  6  1 -1</clus>
<clus scale="   51.802">  1  3  2 -1</clus>
</clustering>
</event>
<event>
 6    0  0.1993420E+002  0.1095315E+03  0.7546771E-02  0.1261440E+00
         21   -1    0    0  503  502  0.00000000000E+00  0.00000000000E+00  0.48476143209E+03  0.48476143209E+03  0.00000000000E+00 0. -1.
         -4   -1    0    0    0  501 -0.00000000000E+00 -0.00000000000E+00 -0.49878485510E+02  0.49878485510E+02  0.00000000000E+00 0. -1.
         21    1    1    2  503  505 -0.52114638854E+02  0.12637922775E+02  0.16784733713E+03  0.17620550858E+03  0.00000000000E+00 0. -1.
         21    1    1    2  504  501  0.72236593328E+01 -0.46065902865E+02  0.93360135082E+02  0.10435690434E+03  0.00000000000E+00 0. -1.
         21    1    1    2  505  504 -0.29844359064E+02 -0.47337114853E+02  0.11835194924E+03  0.13091475127E+03  0.00000000000E+00 0. -1.
         -4    1    1    2    0  502  0.74735338585E+02  0.80765094943E+02  0.55323525136E+02  0.12316275341E+03  0.00000000000E+00 0. -1.
<scales pt_clust_3="53.62511" pt_clust_4="32.84823" pt_clust_5="32.84823" pt_clust_6="103.45151"></scales>
<clustering>
<clus scale="   32.848">  4  5 -1 -1</clus>
<clus scale="   53.625">  1  3  2 -1</clus>
<clus scale="  103.452">  2  6  1 -1</clus>
<clus scale="   53.625">  1  3  2 -1</clus>
</clustering>
</event>
<event>
 6    0  0.1993420E+002  0.1050336E+03  0.7546771E-02  0.1270053E+00
         21   -1    0    0  504  502  0.00000000000E+00  0.00000000000E+00  0.93829827057E+03  0.93829827057E+03  0.00000000000E+00 0.  1.
          1   -1    0    0  505    0 -0.00000000000E+00 -0.00000000000E+00 -0.58386342198E+03  0.58386342198E+03  0.00000000000E+00 0.  1.
         21    1    1    2  503  502 -0.69044181825E+02 -0.17388412639E+02  0.70830916281E+03  0.71187872988E+03  0.00000000000E+00 0.  1.
         21    1    1    2  504  501 -0.24809757576E+02 -0.36243456350E+02  0.17844318587E+03  0.18376910181E+03  0.00000000000E+00 0.  1.
         21    1    1    2  505  503  0.78006095864E+02 -0.37864416732E+02 -0.56261453008E+00  0.86712061338E+02  0.00000000000E+00 0.  1.
          1    1    1    2  501    0  0.15847843537E+02  0.91496285721E+02 -0.53175488556E+03  0.53980179952E+03  0.00000000000E+00 0.  1.
<scales pt_clust_3="14000.00000" pt_clust_4="43.92166" pt_clust_5="86.37624" pt_clust_6="105.03361"></scales>
<clustering>
<clus scale="   43.922">  1  4  2 -1</clus>
<clus scale="   86.376">  2  5  1 -1</clus>
<clus scale="  105.034">  2  6  1 -1</clus>
<clus scale="   43.922">  1  3  2 -1</clus>
</clustering>
</event>
<event>
 6    0  0.1993420E+002  0.2017252E+03  0.7546771E-02  0.1148292E+00
         21   -1    0    0  501  502  0.00000000000E+00  0.00000000000E+00  0.10189069921E+03  0.10189069921E+03  0.00000000000E+00 0.  1.
          2   -1    0    0  503    0 -0.00000000000E+00 -0.00000000000E+00 -0.31225219423E+04  0.31225219423E+04  0.00000000000E+00 0. -1.
         21    1    1    2  503  505 -0.79428458415E+02  0.11039051853E+03 -0.56113029393E+03  0.57737522752E+03  0.00000000000E+00 0. -1.
         21    1    1    2  504  502  0.27470811310E+02 -0.87855298480E+02 -0.11124752076E+02  0.92719787822E+02  0.00000000000E+00 0.  1.
         21    1    1    2  505  504  0.10387277012E+03 -0.59509914980E+02 -0.15620199404E+02  0.12072685278E+03  0.00000000000E+00 0.  1.
          2    1    1    2  501    0 -0.51915123011E+02  0.36974694930E+02 -0.24327559977E+04  0.24335907734E+04  0.00000000000E+00 0. -1.
<scales pt_clust_3="186.59191" pt_clust_4="67.62205" pt_clust_5="67.62205" pt_clust_6="63.73624"></scales>
<clustering>
<clus scale="   63.736">  2  6  1 -1</clus>
<clus scale="   67.622">  4  5 -1 -1</clus>
<clus scale="  186.592">  2  3  1 -1</clus>
<clus scale="  201.725">  1  3  2 -1</clus>
</clustering>
</event>
<event>
 6    0  0.1993420E+002  0.1074215E+03  0.7546771E-02  0.1265421E+00
          4   -1    0    0  503    0 -0.00000000000E+00  0.00000000000E+00  0.34997440624E+03  0.34997440624E+03  0.00000000000E+00 0. -1.
         21   -1    0    0  504  502  0.00000000000E+00 -0.00000000000E+00 -0.94021020128E+03  0.94021020128E+03  0.00000000000E+00 0. -1.
         21    1    1    2  503  502 -0.71855889908E+02  0.29853927736E+02 -0.12416912309E+03  0.14653496868E+03  0.00000000000E+00 0. -1.
         21    1    1    2  504  505 -0.17921620924E+02 -0.34614970296E+02 -0.24644300016E+03  0.24950657906E+03  0.00000000000E+00 0. -1.
         21    1    1    2  505  501  0.59888992187E+02 -0.98893581769E+02 -0.54200113081E+03  0.55419478317E+03  0.00000000000E+00 0. -1.
          4    1    1    2  501    0  0.29888518646E+02  0.10365462433E+03  0.32237745902E+03  0.33994827662E+03  0.00000000000E+00 0. -1.
<scales pt_clust_3="78.81683" pt_clust_4="38.97923" pt_clust_5="107.42151" pt_clust_6="14000.00000"></scales>
<clustering>
<clus scale="   38.979">  2  4  1 -1</clus>
<clus scale="   78.817">  2  3  1 -1</clus>
<clus scale="  107.422">  2  5  1 -1</clus>
<clus scale="   38.979">  2  3  1 -1</clus>
</clustering>
</event>
